default_name
127281
  76.2906793  33.1070886  48.1450100  75.8173755  33.2546673  47.2650640
  75.6865699  33.4139575  48.8939984  76.6728135  32.1722261  48.1552637
  77.4971099  34.0355716  48.1949664  77.3904805  34.7806084  48.9834138
  78.8711645  33.3213308  48.3394731  79.6559263  34.0442031  48.1165273
  79.0794144  32.7627145  49.7396476  78.2952437  32.0393732  49.9631522
  80.0514969  32.2727268  49.7950412  79.0408730  33.5753632  50.4650550
  79.0296250  32.2576825  47.2565033  78.1249622  32.2692873  46.6485971
  79.1200833  31.2920626  47.7539934  80.2205428  32.4802967  46.3811956
  81.1256908  32.4683601  46.9883729  80.2750955  31.6895219  45.6329988
  80.1305706  33.4455864  45.8829781  77.6698305  34.9247496  46.9942170
  77.1803400  34.6812509  45.8846218  78.4704697  35.9283644  47.2363700
  79.0383734  35.9186603  48.0715290  78.5776557  37.0303932  46.3703650
  78.6971471  36.7021326  45.3378602  77.2827979  37.8597498  46.4768069
  76.4823330  37.1676118  46.7381500  77.4268442  38.5714708  47.2897053
  76.9145414  38.6001064  45.2230201  76.8649241  39.6661626  45.4447477
  77.6819376  38.4215179  44.4698194  75.5913129  38.1372518  44.7050269
  74.8114413  38.3915971  45.4228067  75.3825407  38.6267727  43.7537736
  75.5840603  36.7123605  44.5017700  76.3531413  36.1683832  44.8660536
  74.5947757  36.0803930  43.9036940  73.5655572  36.7716326  43.4168379
  73.5481180  37.7773272  43.5083495  72.8072846  36.2869184  42.9583899
  74.6520035  34.7659528  43.7449549  75.4541724  34.2539530  44.0833057
  73.8931876  34.2822351  43.2863545  79.8033004  37.8788138  46.8116036
  79.8094575  38.4382392  47.9098787  80.7990045  37.9934210  45.9270175
  80.7177932  37.5222552  45.0373508  81.9760576  38.7713856  46.1789421
  81.8454385  39.4078554  47.0541244  83.1173115  37.8150234  46.4429438
  82.8658080  37.3961586  47.4173141  83.0738904  37.0297234  45.6882792
  84.5324892  38.4009279  46.4890831  84.8853907  38.4690112  45.4600417
  84.6175567  39.7753203  47.1477779  84.2652321  39.7079362  48.1770619
  85.6519036  40.1190770  47.1401213  83.9963638  40.4817595  46.5971751
  85.4445565  37.4155402  47.2155942  85.4537813  36.4659170  46.6805895
  86.4564303  37.8186861  47.2566553  85.0755812  37.2574697  48.2289894
  82.2689520  39.6048451  44.9530191  82.7310854  39.0699258  43.9729150
  81.9383301  40.9124755  44.9880031  80.8109845  41.5281265  45.7073851
  81.1472173  41.8441552  46.6948939  80.0117568  40.7946318  45.8137789
  80.4090192  42.6999791  44.8243340  79.9853149  43.5068588  45.4222628
  79.6844827  42.3862756  44.0728432  81.6652424  43.1020874  44.2006730
  82.2502930  43.7050325  44.8951311  81.5280616  43.6518068  43.2694965
  82.3863425  41.7783387  43.9249340  82.0798564  41.3315231  42.9791431
  83.8656898  41.9761583  43.9246363  84.4473643  42.4967571  44.9201631
  84.4437812  41.5296976  42.7970100  83.8228826  41.2726785  42.0430037
  85.8625628  41.4483500  42.5703002  86.3795085  41.0594435  43.4475790
  86.1467208  40.5447496  41.3691872  85.5162893  40.8540641  40.5355320
  87.6138858  40.6444972  40.9613377  88.2449679  40.3348786  41.7943878
  87.7985513  39.9953164  40.1054384  87.8475637  41.6746433  40.6924644
  85.7775305  39.0987075  41.7114646  86.4796665  38.7642653  42.4751754
  84.7705077  39.1184875  42.1281339  85.8188395  38.1362029  40.5256044
  86.8257336  38.1155350  40.1086669  85.5437213  37.1356783  40.8593103
  85.1165759  38.4697590  39.7616239  86.3296138  42.8228286  42.2359560
  85.8366825  43.3996592  41.2609046  87.3482170  43.3015059  42.9598156
  87.7737315  42.7379088  43.6818925  87.9089681  44.6169686  42.6912773
  87.1207522  45.2638662  42.3061302  88.5375171  45.2825105  43.8787137
  89.5125881  44.8424002  44.0876125  88.7082567  46.7628302  43.5472224
  87.7334902  47.2037682  43.3386439  89.1644429  47.2751203  44.3943076
  89.3489226  46.8680905  42.6716831  87.6795190  45.1001221  45.1078397
  87.5671087  44.0366080  45.3185616  88.1532670  45.5904091  45.9582991
  86.6979577  45.5415041  44.9351548  89.0070199  44.5607170  41.7140347
  89.0721951  45.3816817  40.8262564  89.9668241  43.6823399  41.9578286
  90.0579669  43.2521919  42.8670948  91.0122240  43.4323783  40.9638174
  90.5859568  43.4498448  39.9607768  92.1114826  44.5343803  41.0573320
  91.6920938  45.3741772  41.6113657  92.9472210  44.1125227  41.6156127
  92.6076491  45.0233443  39.6805669  91.8020870  44.9673055  38.7242869
  93.7982933  45.4622104  39.5748695  91.6224548  41.9835974  41.0178298
  91.5881129  41.2660133  42.0529504  92.1862119  41.6031220  39.8756957
  92.1164989  42.2321058  39.0885369  92.8804844  40.3442310  39.6900608
  92.7215379  39.6898792  40.5471832  92.3325709  39.6521078  38.4372918
  92.7935354  38.6648214  38.4076854  91.2587353  39.5466618  38.5917534
  92.5910531  40.3812158  37.0995405  93.6386839  40.6821108  37.0938199
  92.4162215  39.6604420  36.3007782  91.7050047  41.6124015  36.8792450
  90.7197061  41.2739939  36.5586737  91.6153585  42.1453059  37.8258579
  92.2858561  42.5395247  35.8312092  91.6213658  43.3952803  35.7118955
  93.2633481  42.8835438  36.1692321  92.4310735  41.8380330  34.5248983
  91.5253572  41.5195534  34.2112926  92.8191961  42.4737275  33.8427303
  93.0471073  41.0452860  34.6351421  94.3751818  40.6492518  39.5376833
  94.7629689  41.4778002  38.6803702  95.1999514  40.1092082  40.4359289
  94.8517188  39.5786078  41.2216111  96.6370080  40.3755564  40.3608492
  96.8213424  41.0165212  39.4987099  97.1990053  41.0644250  41.6138504
  98.1732143  41.3263505  41.2010416  96.6624990  41.9742692  41.8830057
  97.3880106  40.2063394  42.8477909  96.2918822  39.7744902  43.5940533
  95.2901908  39.9548149  43.2039292  96.4581067  39.1212156  44.8211046
  95.5839722  38.7969358  45.3857578  97.7480631  38.8816453  45.3242273
  97.9294150  38.2172070  46.5453175  97.1019490  37.9655014  46.9619037
  98.8444259  39.3147641  44.5944674  99.8530169  39.1128249  44.9551130
  98.6557671  40.0136464  43.3906462  99.5142423  40.4211604  42.8567429
  97.3306722  39.1090049  40.0702527  97.7394974  38.4146313  40.9763417
  97.4098758  38.7696811  38.7958559  97.1480312  39.3846423  38.0386509
  97.9191809  37.4781993  38.4722866  97.1858585  36.7086222  38.7133023
  98.2162800  37.4164069  36.9843206  97.3501551  37.8318085  36.4691814
  99.0836745  38.0520069  36.8061648  98.4949635  36.0248682  36.4599995
  99.1571173  35.5206283  37.1638427  97.5493637  35.4858605  36.4015724
  99.1488259  36.0566467  35.0794460  99.5252059  37.0669854  34.9192813
  99.9843066  35.3568248  35.0973562  98.1985894  35.6837670  33.9482942
  98.7812583  35.1323495  33.2103672  97.4378935  35.0287527  34.3730261
  97.5411731  36.8470127  33.2923481  98.2458605  37.4538687  32.8983417
  96.9307390  36.5185747  32.5577743  97.0008624  37.3578591  33.9758679
  99.1693386  37.3583603  39.2648389 100.0852372  38.1489456  39.1382269
  99.1820969  36.3353029  40.0952508  98.4010839  35.6961708  40.0548999
 100.2836864  36.0143061  40.9685312 101.2247407  36.2543844  40.4736793
 100.1991921  36.8042258  42.2557842 100.5788822  37.8032143  42.0414090
  99.1544309  36.8705938  42.5593785 101.0095130  36.1864720  43.3719389
 100.7466754  35.0342028  43.7798485 101.9144804  36.8736768  43.8678266
  99.9575684  34.5969564  41.2494529  98.8248587  34.1989736  41.0454712
 100.9296407  33.8038135  41.6940592 101.8531098  34.1891616  41.8312129
 100.7151760  32.3854318  42.0014095 101.6282640  31.8143616  42.1694817
  99.8088511  32.2212765  43.2131551 100.3157435  32.6001300  44.1006400
  98.8863252  32.7801273  43.0558917  99.4814382  30.7444650  43.4066820
  98.9740829  30.3649940  42.5197247 100.4034998  30.1849960  43.5644756
  98.4034203  30.5327055  44.8451303  98.1988226  28.7646751  44.8204549
  99.1719948  28.2843280  44.9219518  97.5564269  28.4611633  45.6470800
  97.7425795  28.4643234  43.8771987 100.0638766  31.8260764  40.7536501
 100.4324844  32.2435692  39.6522151  99.0669867  30.9623051  40.9038890
  98.7764785  30.5943825  41.7985047  98.3601642  30.5259124  39.7214469
  99.0321037  30.2133138  38.9221481  97.6473338  29.7278745  39.9290710
  97.5982355  31.7668879  39.2718820  97.6364600  32.1717625  38.1144230
  96.9140225  32.3806678  40.2364088  96.9458973  31.9826703  41.1641379
  96.1366843  33.5970610  40.0324926  96.7744838  34.3422535  39.5570988
  94.9189203  33.3516109  39.1362700  94.3233871  32.5431235  39.5602848
  94.0779136  34.5959815  39.0389681  94.6726738  35.4048408  38.6145783
  93.2169775  34.4041221  38.3985947  93.7341494  34.8814651  40.0331642
  95.3576453  32.9984569  37.8254719  94.5948042  32.8445119  37.2633556
  95.6340510  34.1000088  41.3716379  95.6663846  33.3688621  42.3542569
  95.1405314  35.3296459  41.4169357  95.1853448  35.9605598  40.6295103
  94.5579784  35.8292517  42.6858479  93.8704306  35.0764652  43.0714509
  95.6336221  36.1460460  43.7965671  96.0131346  37.1513686  43.6138211
  95.0666900  36.0648142  45.2190784  94.6873785  35.0595812  45.4027365
  95.8537063  36.2926006  45.9379798  94.2554316  36.7844393  45.3290840
  96.7829258  35.1730881  43.7099667  97.2526458  35.2511557  42.7294716
  97.5155538  35.4056562  44.4827977  96.4123097  34.1583356  43.8549564
  93.7315738  37.0715331  42.4142835  94.0024195  37.8463702  41.4629607
  92.7875134  37.2746603  43.3364697  92.8501883  36.7355412  44.1882453
  91.6796083  38.1502193  43.1730449  91.8738026  38.9898132  42.5056095
  90.5087215  37.3422950  42.6137485  90.7488407  36.2842354  42.7183997
  89.2082425  37.6378402  43.3313727  88.9672083  38.6956970  43.2267657
  88.4083090  37.0387141  42.8963385  89.3118842  37.3921263  44.3882477
  90.3736397  37.6035216  41.1216133  91.2922316  37.3064689  40.6155988
  89.5381966  37.0263633  40.7253524  90.1935417  38.6652252  40.9529389
  91.3339237  38.8141368  44.5011521  91.3388774  38.1903208  45.5566781
  90.9188867  40.0617326  44.4004603  90.7763000  40.4426745  43.4759865
  90.6106715  40.9086773  45.5560390  90.9491886  40.4550326  46.4875495
  91.3500640  42.2053288  45.3556727  91.3752322  42.3320964  44.2733623
  90.7995007  43.0317846  45.8050621  92.7517615  42.1897269  45.8896669
  92.9582203  41.2143223  46.3301909  93.7404238  42.4564495  44.7605438
  93.5348731  43.4319466  44.3198021  94.7561850  42.4436268  45.1557216
  93.6381899  41.6847741  43.9975461  92.8164532  43.2240435  47.0273515
  92.1059326  42.9514905  47.8077198  93.8233692  43.2438334  47.4442803
  92.5659423  44.2104362  46.6370019  89.1242289  41.2846286  45.7298374
  88.4444578  41.6131548  44.7604243  88.7033622  41.5111841  46.9564995
  89.2079427  41.2205004  47.7817273  87.4596064  42.2093714  47.1292680
  87.5693600  43.1855189  46.6568385  86.6932374  41.6372985  46.6062857
  87.0392287  42.4009683  48.5469475  87.8296944  42.1916707  49.4647734
  85.8279894  42.9435157  48.7046866  85.4449227  43.5112368  47.9623579
  85.0195192  42.7367642  49.9086845  85.6618288  42.3742780  50.7112687
  84.3433768  44.0245915  50.3693084  85.1222629  44.7617532  50.5643167
  83.7048610  44.3770617  49.5592699  83.5039968  43.8263175  51.6289634
  82.5332957  43.4323386  51.3279304  84.0116308  43.0970103  52.2602484
  83.3068187  45.1222890  52.4077442  82.9751799  45.8907476  51.7094706
  82.5327352  44.9539130  53.1564388  84.5965396  45.5831944  53.1005185
  84.9774486  44.7285494  53.6596168  85.3023448  45.8447540  52.3121500
  84.4270606  46.7492098  54.0255498  83.7734100  46.5069034  54.7563905
  85.3189951  46.9854717  54.4363211  84.0745140  47.5413759  53.5075895
  83.9424389  41.7400131  49.6307238  83.2553166  41.8284904  48.6065608
  83.6832895  40.9151577  50.6401445  84.0779808  41.1289946  51.5449052
  82.8731846  39.7077624  50.5061531  82.7967677  39.4039463  49.4621438
  83.5562780  38.5819227  51.2961085  84.5566131  38.6649694  50.8712179
  83.5780165  38.8964512  52.3395160  83.0837271  37.1224039  51.2112595
  83.9326283  36.4932249  50.9436750  82.5107269  36.6608390  52.5418634
  81.6614377  37.2892971  52.8099066  82.1829359  35.6247572  52.4570799
  83.2764529  36.7371083  53.3138394  82.1046880  36.8694155  50.0794131
  82.5766303  37.1156585  49.1282379  81.8129967  35.8191695  50.0785649
  81.2203271  37.4914737  50.2174294  81.4645979  39.9563280  51.0414406
  81.2655719  39.9797422  52.2616740  80.5067223  40.1607718  50.1321227
  80.7035748  40.0017192  49.1543443  79.2101402  40.7779635  50.4961477
  79.2886499  41.1951157  51.5000996  78.7989733  41.9101160  49.5199932
  78.3032681  41.4217676  48.6810108  78.0790154  42.5271969  50.0575542
  79.9491256  42.8014593  48.9915739  80.8197078  42.1529310  49.0895451
  79.7770722  43.0211109  47.9378899  80.2014973  44.1254717  49.7612061
  79.3384226  44.5995665  50.5510486  81.2621346  44.7494201  49.5062280
  78.0227562  39.7765779  50.6981585  77.1696695  40.0104390  51.5374880
  78.0067200  38.6486418  49.9958289  78.5844714  38.5311944  49.1757626
  77.0860036  37.5614498  50.3617197  76.4539399  37.8986411  51.1832407
  76.1844518  37.1334643  49.1917588  75.6299158  38.0095824  48.8555946
  76.8253722  36.7781453  48.3848700  75.2582708  36.0921871  49.5636479
  74.7184872  35.8581488  48.8050574  77.8575254  36.3502748  50.8839957
  78.5716617  35.6910493  50.1377195  77.6756773  36.0423545  52.1634101
  77.4094594  36.7631376  52.8189245  77.8502196  34.6713900  52.6672526
  77.1761039  34.5574704  53.5161870  77.5429171  33.9980937  51.8670422
  79.2628880  34.3091964  53.1043200  80.1176607  35.1726114  53.2659587
  79.4539924  33.0236928  53.3965352  78.6904350  32.3751180  53.2683553
  80.7065542  32.5162234  53.9288591  81.3624836  33.3513697  54.1745955
  80.4702073  31.6828131  55.2054218  79.7089959  32.1802868  55.8064013
  80.1129603  30.6957126  54.9119815  81.6578111  31.5480581  55.9654700
  81.4776733  31.0259641  56.7506885  81.3769091  31.6762840  52.8615227
  80.7253546  31.1153103  51.9813504  82.6903038  31.5961330  52.9499273
  83.1777501  32.0030199  53.7353817  83.4746965  31.0685341  51.8542753
  82.9326183  30.3666275  51.2205739  84.0375878  32.2079583  50.9909792
  83.2059573  32.7704965  50.5666657  84.9080456  33.1393569  51.8218497
  85.7402086  32.5775918  52.2461436  85.2947137  33.9376065  51.1882993
  84.3136190  33.5709895  52.6271133  84.7568650  31.6418583  49.7651134
  85.8298927  31.6737976  49.9540371  84.4424295  30.6066229  49.6327595
  84.4429988  32.4263954  48.5146085  84.7575958  33.4616991  48.6460425
  84.9742630  31.9903793  47.6685898  83.3701316  32.3945261  48.3247663
  84.5625125  30.0839621  52.3242056  85.5578408  30.4667614  52.9608775
  84.3011545  28.7990587  52.0579179  83.5302478  28.5794203  51.4434578
  85.0777063  27.6954795  52.6160803  85.4243791  27.9624278  53.6144068
  84.2204160  26.4051276  52.7171670  83.9911815  26.0592689  51.7092323
  84.7984032  25.6428547  53.2396331  82.6061015  26.5160278  53.5988261
  82.2677751  25.2408658  53.4303168  86.2539317  27.4752691  51.6750647
  86.1396117  27.8069162  50.4835337  87.4008583  27.0289435  52.2321201
  87.4265695  26.8853208  53.2315253  88.6529905  26.7867393  51.4477553
  88.9089848  27.6936853  50.9000190  89.8400416  26.4071249  52.3537815
  90.0321611  27.2153282  53.0594703  89.6023116  25.4955624  52.9020865
  91.0799775  26.1756427  51.4966937  90.8887647  25.3672119  50.7910180
  91.3186167  27.0869775  50.9484033  92.2548521  25.7999203  52.3934251
  92.4469713  26.6081222  53.0991156  92.0171217  24.8883571  52.9417281
  93.4947883  25.5684404  51.5363364  93.3035761  24.7600105  50.8306598
  93.7334274  26.4797759  50.9880497  94.6272892  25.2062668  52.4007269
  94.4065338  24.3615877  52.9085496  95.4484934  25.0529598  51.8330821
  94.8049089  25.9554262  53.0544168  88.4018890  25.6856349  50.4220832
  87.6880337  24.7217459  50.7142862  88.8828466  25.8920570  49.1946457
  89.4608160  26.7031932  49.0269889  88.6063108  24.9814155  48.0616051
  89.2223796  25.3634750  47.2476094  88.9930688  24.0156356  48.3868541
  87.1600039  24.7981474  47.5536641  86.9091493  23.8767186  46.7618244
  86.2311811  25.6951141  47.9438422  86.5452227  26.5174688  48.4390290
  84.7596700  25.5360500  47.6889642  84.4787184  24.4993128  47.8742787
  83.9456646  26.4476801  48.6419940  84.1738443  26.1890410  49.6759859
  84.2093838  27.4898709  48.4620199  82.4555180  26.2492006  48.3856868
  82.2264776  26.5081006  47.3519499  82.1909363  25.2072719  48.5659178
  81.6196157  27.1291262  49.3041000  82.1617222  27.8737100  50.1178292
  80.2940536  27.0418907  49.1718174  79.6931109  27.6044580  49.7570415
  79.8982026  26.4137259  48.4871187  84.3719871  25.9002034  46.2509743
  84.1871625  27.0642982  45.9692223  84.2006590  24.9206026  45.3541940
  84.2494242  23.9523009  45.6372367  83.9400489  25.2246713  43.9195670
  84.8715024  25.5091355  43.4301041  83.3659218  24.0079086  43.2041843
  82.6871275  23.5164905  43.9012108  82.8019576  24.3760132  42.3471292
  84.4171492  23.0099768  42.7299278  85.3013599  23.1082469  43.3597018
  84.0111755  22.0032689  42.8290565  84.8243398  23.2282802  41.2853239
  86.0264322  23.2889530  40.9639304  83.8246467  23.3483344  40.3945451
  84.0372903  23.4951525  39.4181597  82.8654867  23.2911645  40.7057446
  82.9552606  26.3652243  43.7710917  81.9937977  26.4273546  44.5305203
  83.2075788  27.2613405  42.8053084  83.9899525  27.1002259  42.1872204
  82.3884062  28.4752696  42.5978130  81.3820471  28.2958683  42.9761723
  82.9754754  29.6910692  43.3243570  83.9740698  29.7524028  42.8917524
  82.4022721  30.5736584  43.0405007  83.0834047  29.6226834  44.8423993
  83.6962135  28.7651512  45.1202568  83.7201423  30.8937402  45.3764395
  83.1076142  31.7517222  45.0993563  83.7931048  30.8356201  46.4624410
  84.7173801  31.0074840  44.9513754  81.7404575  29.3599696  45.5438880
  81.3323748  28.4081826  45.2037859  81.8941970  29.3241722  46.6223980
  81.0415154  30.1610676  45.3034280  82.3080315  28.8206909  41.1467190
  82.9075613  28.1488121  40.2966967  81.6076269  29.9095366  40.8625667
  81.1069230  30.3975761  41.5914098  81.5300707  30.4279654  39.5078026
  82.3336822  30.0390670  38.8824501  80.1853221  30.0876472  38.8471325
  79.3871680  30.4491454  39.4954907  80.0455790  30.7256135  37.4616345
  80.8431726  30.3642143  36.8125304  79.0797489  30.4575468  37.0333670
  80.1142312  31.8097194  37.5516498  80.0279958  28.5735517  38.7528549
  80.0585749  28.1415792  39.7531382  79.0733004  28.3354443  38.2838547
  80.8395179  28.1600006  38.1540993  81.6908514  31.9203191  39.5529238
  81.5912595  32.5334390  40.6214833  81.9841767  32.4942899  38.3891335
  82.0040257  31.9350915  37.5482991  82.3050100  33.8989340  38.2851769
  81.8445639  34.4610558  39.0976470  83.7991884  34.0583744  38.3762744
  84.1506443  33.4028403  39.1730511  84.2219461  33.7329808  37.4257509
  84.2336741  35.4706534  38.6608442  83.6093416  36.1811019  38.1190207
  84.1797548  35.6812193  39.7289532  85.9026890  35.6371469  38.1211934
  85.6600749  35.4308139  36.3395158  84.9911810  36.2085126  35.9709175
  86.6207519  35.5071936  35.8302355  85.2219716  34.4522947  36.1428765
  81.8047453  34.5002834  36.9830597  82.1084121  34.0140205  35.8787546
  81.0547056  35.5804646  37.1204573  81.2023431  36.2370216  37.8736076
  79.9466581  35.7712563  36.2781918  79.6056446  34.8125622  35.8874046
  78.7991953  36.4175577  37.0582192  79.0323585  36.3126528  38.1178083
  78.7859389  37.4746058  36.7925622  77.4218015  35.8015178  36.7742013
  76.8949069  35.8010534  37.7283935  76.9265789  36.4871545  36.0866265
  77.3891315  34.1130756  36.0679644  76.0115177  34.2735380  34.9233628
  76.2332680  35.0526702  34.1940627  75.8556546  33.3265791  34.4065685
  75.1094040  34.5387673  35.4746754  80.3773382  36.5554540  35.0657361
  81.5396137  36.6367160  34.7778644  79.4409492  37.2348511  34.4326767
  79.6616471  38.6719410  34.6254795  80.7317198  38.8621435  34.7083507
  79.1644101  38.9911041  35.5414431  79.0546368  39.2989560  33.3919237
  79.6657286  40.1450719  33.0776728  78.0463502  39.6445124  33.6200692
  79.0287934  38.2410881  32.3628768  79.9579869  38.1436260  31.8014503
  78.2059096  38.4279563  31.6729187  78.7652858  36.9668728  33.1523026
  77.7073758  36.8706903  33.3965844  79.2250531  35.7223371  32.3525641
  78.4726168  35.2222629  31.4853189  80.4221991  35.2149920  32.6473989
  80.9229028  35.5466023  33.4594517  81.0716225  34.2262358  31.7888697
  80.6501716  34.2502966  30.7839322  82.5548574  34.5607318  31.7026799
  83.0194379  34.3855516  32.6730284  83.0139354  33.9105551  30.9579533
  82.7983516  36.0064794  31.3014925  81.9062352  36.6777621  30.7807144
  84.0074874  36.4947853  31.5510679  84.2236411  37.4501635  31.3048366
  84.7055870  35.9086255  31.9860098  80.8906402  32.7676138  32.2533622
  81.4156153  31.8284206  31.6404467  80.1738923  32.5977069  33.3587522
  79.8087144  33.4099326  33.8352329  79.8649786  31.2932822  33.8947621
  79.3499124  31.4069929  34.8486362  78.9539179  30.4893109  32.9327441
  79.2135155  30.8264514  31.9292279  79.2461946  29.4460136  33.0519293
  77.4587593  30.6211836  33.1384120  76.9537897  30.0530930  32.3571441
  77.2082370  30.2006422  34.1123142  77.0098269  32.0638781  33.0822132
  75.9207966  32.0533218  33.0374860  77.3301765  32.5299280  34.0140249
  77.5625225  32.8631854  31.8944336  77.3476402  33.9095994  32.1110989
  78.6409658  32.7050814  31.9023359  77.0209114  32.5136223  30.5559568
  76.0216726  32.6604655  30.5482903  77.4525707  33.0986189  29.8548511
  77.2202952  31.5441447  30.3548143  81.1305683  30.5047975  34.0693057
  81.1229813  29.3370408  33.7736762  82.2491183  31.1184857  34.4302609
  82.3305603  32.1226368  34.5020046  83.4551050  30.3078500  34.6235346
  83.4364557  29.4828830  33.9113683  84.7448282  31.1002116  34.4189417
  84.4340631  32.1423112  34.4934580  85.5498586  30.9100320  35.1287711
  85.3239660  30.9256109  33.0631442  86.1626403  29.8809090  32.7540867
  86.4979679  29.1947712  33.4150481  86.4525006  29.9245397  31.4645057
  87.1137109  29.1802541  31.0207277  85.8231993  30.9570525  30.9272923
  85.0831551  31.5799024  31.8997312  84.4575382  32.4352150  31.6444959
  83.4573290  29.6297624  35.9841379  83.4131886  30.2978211  37.0261106
  83.4965611  28.2953799  35.9569870  83.2671782  27.8097646  35.1016154
  83.8589759  27.5039074  37.1242577  83.0961328  27.6248343  37.8933782
  83.9728853  26.0220255  36.7792622  84.3324343  25.9237624  35.7549731
  84.6890988  25.5630512  37.4607904  82.6759857  25.3040654  36.8986088
  81.6133992  25.9077476  37.1397618  82.7378748  23.9986178  36.7252956
  81.8969869  23.4430676  36.7914110  83.6258898  23.5601083  36.5272059
  85.1738277  27.9546725  37.6708109  86.0043014  28.5103573  36.9394581
  85.4011727  27.6140887  38.9273534  84.7030858  27.1040686  39.4495157
  86.6285813  27.9486236  39.5827422  87.4964797  27.5299003  39.0733089
  86.7941806  29.4737587  39.6615705  86.6620579  29.8846761  38.6606760
  85.7841755  30.1033618  40.6041173  85.9159944  29.6932508  41.6053833
  85.9352772  31.1824967  40.6312594  84.7750774  29.8870094  40.2533833
  88.1942934  29.8216936  40.0898125  88.9057165  29.4222575  39.3670193
  88.3000660  30.9052816  40.1422423  88.3926359  29.3899041  41.0707911
  86.5892588  27.3732504  40.9709978  85.5558459  27.4213229  41.6166082
  87.6768103  26.7709760  41.4233365  88.4582084  26.5659422  40.8171372
  87.7393475  26.3130761  42.8234071  86.7450848  26.3578610  43.2678563
  88.2832360  24.8603460  42.9657433  87.6204932  24.1708392  42.4428173
  89.2820740  24.8017858  42.5333161  88.3453314  24.4871434  44.4275792
  89.0082976  25.1759752  44.9511129  87.3467175  24.5450262  44.8606138
  88.8784953  23.0630664  44.5671089  90.1259083  22.9232580  44.6767252
  88.0332736  22.1286246  44.5627456  88.5964068  27.3099563  43.5716238
  89.5951169  27.8249074  43.0255931  88.1682771  27.6505402  44.7870713
  87.2399473  27.4066413  45.1014220  89.0613108  28.3212525  45.7240878
  89.3636836  29.2863856  45.3176545  88.4535795  28.5446463  47.1251363
  88.0567131  27.6005790  47.4984099  89.5260888  29.0624382  48.0863357
  89.9231279  30.0067813  47.7139420  89.0872938  29.2168699  49.0720893
  90.3327833  28.3329626  48.1585222  87.2876225  29.5182691  47.0726100
  86.5117485  29.1217988  46.4176802  86.8816953  29.6542393  48.0750245
  87.6320752  30.4779907  46.6873989  90.2316145  27.4074448  45.9207157
  90.0440445  26.2063233  46.1776411  91.4312311  27.9572591  45.7276398
  91.5367385  28.7452484  45.1047109  92.6206561  27.4136312  46.3570220
  92.4695816  26.3543751  46.5649938  93.8492146  27.5649268  45.4462483
  94.1542411  28.5893005  45.6600627  94.6008814  26.8749942  45.8297716
  93.7110573  27.3787314  43.9290121  93.2516285  28.2631269  43.4875707
  95.1005583  27.1758834  43.3316389  95.5604665  26.2913425  43.7722868
  95.0169578  27.0422166  42.2531006  95.7181557  28.0489954  43.5422318
  92.7932873  26.2283189  43.5571716  91.7977054  26.4119109  43.9611642
  92.7348708  26.1456353  42.4718826  93.1872992  25.3001265  43.9710708
  92.8433615  28.1265896  47.7001879  92.6734929  27.5233419  48.7690976
  93.1106405  29.4332218  47.6361639  92.8110921  29.9659717  46.8320821
  93.8319852  30.1322540  48.7032992  93.9021684  29.4560166  49.5552831
  94.8330139  30.3575663  48.3355015  93.1680465  31.4217965  49.1497412
  92.9332230  32.3332243  48.3461603  92.9878728  31.5402485  50.4552295
  93.3584605  30.8429372  51.0849286  92.2469784  32.6248362  51.0085188
  91.9820577  33.3725902  50.2610028  90.9905323  32.1067530  51.6696464
  91.2601787  31.3803581  52.4362896  90.2251937  33.2652057  52.3119494
  89.9547830  33.9918359  51.5457985  89.3207041  32.8849164  52.7866907
  90.8540077  33.7454482  53.0616556  90.1776194  31.3567116  50.6137958
  90.0711021  32.0248408  49.7591858  90.7620326  30.4842489  50.3216151
  88.8149177  30.9150883  51.0781554  88.2297185  31.7871080  51.3700857
  88.3066070  30.3915213  50.2684660  88.9206492  30.2465175  51.9325171
  93.0860961  33.3654674  52.0053969  93.1728467  32.9757589  53.1724576
  93.7126578  34.4379788  51.5190753  93.4899022  34.7368006  50.5803609
  94.7465167  35.1917436  52.2705775  95.1621037  34.5411302  53.0400506
  95.9437549  35.7073639  51.3331287  95.3571033  36.4872346  50.8475973
  96.6066579  36.1585757  52.0714156  96.8150383  34.9350077  50.2361058
  97.3511234  34.1488135  50.7677188  96.0216250  34.3172394  49.0719381
  95.4856051  35.1029388  48.5395303  96.7082447  33.8187059  48.3877463
  95.3080391  33.5917218  49.4624759  97.9329517  35.8111660  49.6328395
  98.6080620  36.1357939  50.4246364  98.4900111  35.2334072  48.8952889
  97.4915401  36.6840493  49.1518723  94.0915824  36.4067677  52.9740407
  94.7519982  37.4458234  53.1180798  92.8858351  36.2003263  53.4809770
  92.4939279  35.2694793  53.4753199  92.1060186  37.2657583  54.0550779
  91.6871397  37.8947551  53.2695827  90.9577111  36.6716306  54.8691640
  90.1619646  36.3977196  54.1764450  91.3284030  35.7763109  55.3682534
  90.4508441  37.5768618  55.8372297  89.7342535  37.1597560  56.3210898
  92.9311980  38.1131801  54.9608600  93.6174954  37.6463179  55.8564725
  92.8645811  39.3976197  54.6439923  92.2847932  39.6699647  53.8631123
  93.5530074  40.4229120  55.3683614  93.3344371  41.4027837  54.9438879
  93.0908205  40.4059443  56.8078312  92.0816047  39.9962650  56.8496110
  93.7700338  39.7540915  57.3572466  93.1011475  41.7694245  57.4239492
  94.2016437  42.3407183  57.5621539  92.0101185  42.2773576  57.7511030
  95.0054086  40.0532687  55.2676409  95.4175918  39.4125064  54.3091751
  95.7835839  40.4170068  56.2718386  95.4525642  40.9823537  57.0405441
  97.1611905  40.0268577  56.2601085  97.6416481  40.2288993  55.3028003
  97.9639512  40.7155562  57.3648160  97.9800664  41.7907565  57.1865358
  97.5002584  40.5148410  58.3306330  99.3934225  40.1785830  57.3654632
 100.2347241  40.7795115  56.6452561  99.6304397  39.1725901  58.0861580
  97.1455604  38.5129881  56.4333960  97.9104050  37.7903528  55.8097447
  96.2508012  38.0426346  57.2944097  95.6433421  38.6847813  57.7830203
  96.1605434  36.6001946  57.6249947  97.1288961  36.1227009  57.7746344
  95.3057177  36.4065305  58.9128130  95.7603720  36.9825179  59.7188076
  93.8670541  36.8710707  58.7049321  93.4115588  36.2951799  57.8993423
  93.2999562  36.7211745  59.6236440  93.8605872  37.9291399  58.4431129
  95.3382136  34.9676575  59.4017798  96.3658862  34.6833621  59.6279817
  94.7298076  34.8752747  60.3014503  94.9422851  34.3110643  58.6270367
  95.5842535  35.7551169  56.4663836  94.9594709  36.2890351  55.5529827
  95.8510794  34.4497558  56.4739430  96.6741066  34.1019619  56.9448622
  95.0059272  33.4955968  55.7616583  94.4021900  34.0181215  55.0196553
  95.8729048  32.4431229  55.0394054  95.5632830  32.4656302  53.9945480
  96.9013294  32.7950183  55.1207229  95.7817375  31.0158915  55.5651669
  96.7923598  30.6242555  55.6807723  95.3024464  31.0772665  56.5422095
  94.9761180  30.0857652  54.6609250  95.4510977  28.9589515  54.3991634
  93.8611048  30.4626223  54.2307422  94.0778341  32.8799029  56.8055737
  94.4396164  32.8146277  57.9742480  92.8521722  32.5300136  56.4105138
  92.4470039  32.9575869  55.5900755  92.0359609  31.5690463  57.1726016
  92.6672907  30.9943577  57.8502851  90.9255214  32.2672145  58.0016198
  90.4287738  31.5173047  58.6172311  91.5113995  33.3705512  58.9080794
  92.0079405  34.1211177  58.2931026  90.7078383  33.8401198  59.4754363
  92.2327605  32.9307057  59.5967556  89.9505416  32.8344459  57.1206862
  89.2652906  33.2654120  57.6367285  91.4060981  30.5416545  56.2085683
  91.5030106  30.6862844  54.9885523  90.8419691  29.4708160  56.7644697
  90.8325884  29.3792235  57.7702640  90.2664403  28.3759209  55.9558652
  90.9039720  28.1906795  55.0913780  90.1554182  27.0755923  56.7730088
  90.3172736  27.3293485  57.8206298  89.1476534  26.6797976  56.6470853
  91.1576635  26.0382215  56.3482933  92.3661896  26.3662830  56.3440038
  90.7379010  24.9043107  56.0145874  88.8926581  28.7467245  55.4126295
  88.5804872  28.4641561  54.2578315  88.0489320  29.2955566  56.2788590
  88.2918848  29.3356682  57.2583815  86.7720188  29.8497291  55.8626636
  86.7340384  29.9337087  54.7765678  85.5796553  28.9814934  56.3337921
  84.7071306  29.2392956  55.7335097  85.8788101  27.4815900  56.1843097
  86.7509934  27.2229249  56.7847163  85.0196684  26.9035322  56.5246388
  86.0782619  27.2529229  55.1373947  85.2740687  29.2702526  57.7063110
  84.5343592  28.7282413  57.9903076  86.6429312  31.2241328  56.4660447
  87.2622565  31.5198620  57.4783368  85.8138342  32.0592670  55.8664423
  85.2864115  31.7766646  55.0527713  85.6748190  33.4263588  56.3363656
  85.6577151  33.5041840  57.4234488  86.8153581  34.3206197  55.7945271
  87.7725477  33.8559757  56.0311561  86.6923970  34.4880463  54.2895604
  85.7355872  34.9530859  54.0521701  87.5029266  35.1198717  53.9263265
  86.7503296  33.5114730  53.8088837  86.8485141  35.6665459  56.5026271
  87.0073028  35.5123561  57.5699198  87.6609798  36.2704014  56.0984520
  85.9010481  36.1826674  56.3476187  84.3270792  33.9610500  55.9034053
  83.8337729  33.6067459  54.8331117  83.7367683  34.8033401  56.7524268
  84.2688593  35.1513807  57.5371855  82.3365758  35.2196043  56.6223687
  81.7846998  34.5678330  55.9450753  81.6741930  35.1702064  57.9928248
  82.2102121  35.8250334  58.6798365  80.6391896  35.5015930  57.9088540
  81.6984217  34.1485879  58.3720449  82.2818629  36.6361939  56.0273272
  83.3194758  37.2811036  55.9080122  81.0772544  37.1207338  55.6415186
  79.7686734  36.6123806  56.0783088  79.6614246  36.7619319  57.1526609
  79.6983770  35.5486083  55.8512717  78.7943335  37.4344454  55.2807147
  77.8587028  37.5276820  55.8320777  78.6046295  36.9483154  54.3237449
  79.4363432  38.7442696  55.0863537  79.2188566  39.3774942  55.9464846
  79.1162235  39.2483939  54.1744975  80.9469519  38.4499398  55.0214906
  81.3384105  38.3821601  54.0064712  81.6835910  39.5218558  55.7704927
  81.9479333  39.3848586  56.9646116  81.9208052  40.6333638  55.0964272
  81.6658727  40.7032886  54.1216353  82.5535892  41.7876017  55.7316786
  82.0815976  42.7010592  55.3698518  82.4276640  41.7175680  56.8121126
  84.0245841  41.8361482  55.4118222  84.5130306  42.8029430  54.8270061
  84.7128333  40.7444103  55.6950366  84.2558413  39.9384164  56.0970708
  86.1371575  40.7277899  55.5785840  86.5649349  41.5393357  56.1672258
  86.7023112  39.4008896  56.0914855  86.1640318  38.5945202  55.5933661
  87.7559509  39.3584331  55.8155492  86.5648042  39.2434784  57.6179240
  86.7367526  40.2425650  58.0183746  85.5487926  38.9276168  57.8546749
  87.5617687  38.2649229  58.2434461  87.1070585  37.4019249  59.0422484
  88.7922373  38.3885159  57.9829201  86.6172419  41.0636442  54.1509878
  85.8249432  41.2508376  53.2024693  87.9264520  41.2457668  54.0563294
  88.4930960  41.0272951  54.8633511  88.5872265  41.7365276  52.8671196
  87.8520761  41.9997954  52.1066309  89.4018168  42.9894364  53.2163003
  89.7275907  42.8609890  54.2485172  90.2740431  43.0908215  52.5705120
  88.5817559  44.2555753  53.1226616  87.8783018  44.4680049  52.1347633
  88.7167125  45.1390876  54.1164889  88.1890641  46.0000967  54.0977699
  89.3457231  44.9416630  54.8816490  89.5128470  40.6578476  52.3335364
  90.6941155  40.6209602  52.6702694  89.0010097  39.8560267  51.4163413
  88.1058891  40.0619196  50.9962623  89.7114672  38.7016942  50.9650778
  90.3553616  38.3188647  51.7568738  88.7334575  37.6345411  50.5862332
  88.1591317  38.1144846  49.7938297  89.2939723  36.7966935  50.1715833
  87.7911937  37.1299502  51.6567059  88.2175316  36.2058160  52.0469786
  87.5616940  38.1083637  52.8047485  87.1349087  39.0326336  52.4152895
  86.8744276  37.6673740  53.5267552  88.5115602  38.3250524  53.2935232
  86.4714366  36.7631164  50.9948728  86.6416825  35.9859681  50.2497847
  85.7756377  36.3961647  51.7494002  86.0500478  37.6440086  50.5105594
  90.5343303  39.0100229  49.7347000  90.0375789  39.5941575  48.7621102
  91.7631041  38.5249352  49.7322667  92.3214809  38.5075767  50.5737020
  92.3568389  38.0451659  48.5067536  91.8663853  38.5152400  47.6543542
  93.8561560  38.3792955  48.4563581  94.3184871  37.8188751  49.2689332
  94.2188522  37.9993522  47.5012693  94.2191221  39.8582437  48.5868982
  93.7943952  40.3845274  47.7320687  93.7682048  40.2344511  49.5051812
  95.7520756  40.0941462  48.6295082  96.1760366  39.4438920  49.3947045
  96.1653556  39.8272006  47.6568628  96.0999362  41.5547323  48.9495256
  95.5356315  42.1730532  48.2514281  95.7534763  41.7456780  49.9652049
  97.5461085  41.8872622  48.8486219  97.8672434  41.7108056  47.9074337
  97.6839354  42.8620551  49.0741936  98.0691375  41.3147223  49.4957215
  92.1310948  36.5182684  48.4121299  92.1564839  35.7891859  49.4314710
  91.8685794  36.0486109  47.1960619  91.9662268  36.6570859  46.3958604
  91.5067098  34.6551037  46.9648261  91.7700261  34.0171347  47.8084844
  89.9937291  34.4909803  46.6435427  89.7805219  34.9868057  45.6965474
  89.6133885  33.0098402  46.5412926  89.8258929  32.5134123  47.4881304
  88.5505624  32.9218207  46.3160063  90.1928254  32.5393924  45.7469180
  89.0880135  35.2290509  47.6645530  89.6548730  36.0960613  48.0037640
  88.2118327  35.5631787  47.1088864  88.6439726  34.4127243  48.8667024
  89.5196563  34.0786131  49.4231623  88.0166520  35.0273907  49.5122668
  88.0766176  33.5457287  48.5282842  92.2461549  34.1633513  45.7515571
  92.0358262  34.6811373  44.6460240  93.0840911  33.1467265  45.9369409
  93.4125400  32.8952372  46.8583386  93.6439366  32.4449663  44.7881909
  93.8545159  33.1723843  44.0042147  94.9454685  31.6929605  45.1243621
  95.4819165  32.2911598  45.8608947  94.6607177  30.7394849  45.5692232
  95.8602423  31.4387326  43.9012971  95.5700779  30.4772979  43.4775650
  95.6577989  32.2295176  43.1789552  97.3542995  31.4201998  44.2314480
  97.6132106  30.4198895  44.5784974  97.9068267  31.6417691  43.3183652
  97.7418815  32.3918680  45.2639276  97.9855848  33.3140678  44.9318802
  97.8190698  32.1450330  46.5759873  97.5278338  30.9392513  47.0648903
  97.2444817  30.1988940  46.4390448  97.5919061  30.7717505  48.0588409
  98.1652733  33.1227199  47.4118338  98.3673308  34.0439699  47.0504873
  98.2241303  32.9382938  48.4031065  92.6259375  31.5066386  44.1571918
  92.0454716  30.6495747  44.8200114  92.4615899  31.6785714  42.8484363
  93.0881780  32.3207180  42.3846106  91.4696493  30.9699028  42.0383322
  90.7723694  30.4293310  42.6783963  90.6777475  31.9887889  41.1982204
  91.4177576  32.7762945  41.0556749  90.4430508  31.5330355  40.2362920
  89.4039476  32.5887113  41.8032137  88.6686311  31.7938414  41.9280827
  89.6901058  33.2334273  43.1560611  90.4250443  34.0287588  43.0319165
  88.7688238  33.6509243  43.5623080  90.0811809  32.4818572  43.8418476
  88.7681269  33.5776153  40.8218193  88.5141454  33.0598640  39.8968726
  87.8639381  33.9973011  41.2627362  89.4731117  34.3805285  40.6063530
  92.1741814  30.0227986  41.0738919  93.2264652  30.3839325  40.5445695
  91.5944308  28.8391141  40.8102174  90.8265618  28.5133576  41.3797428
  92.0396907  27.9904974  39.6780896  92.8608114  28.4785910  39.1530900
  92.5168506  26.6440239  40.1762949  93.4644917  26.8049499  40.6902779
  91.7756803  26.2794582  40.8875322  92.7080731  25.6141675  39.0698995
  92.6078346  26.1242090  38.1118230  93.7141427  25.2043587  39.1592458
  91.6908520  24.4839289  39.1517291  90.7063348  24.8983592  38.9347670
  91.9471994  23.7424933  38.3949870  91.6718931  23.8212403  40.5272037
  92.3068487  24.4066650  41.1921923  90.6463100  23.8392382  40.8959241
  92.1623724  22.4072980  40.4861905  93.1128340  22.3904385  40.1449598
  92.1312621  22.0130881  41.4155617  91.5738859  21.8645605  39.8703832
  90.9342127  27.7282305  38.7123037  89.9632515  27.1037621  39.0893020
  91.1257550  28.0769543  37.4426407  92.0272952  28.3961118  37.1178898
  90.0241653  28.0057446  36.4770076  89.5225440  27.0447121  36.5905497
  89.3202571  28.8099584  36.6911406  90.5059878  28.1417730  35.0588217
  91.6996443  28.3167973  34.8363705  89.5994572  27.9913524  34.0889980
  88.6703241  27.6600719  34.3059409  89.9624493  28.1810016  32.6669204
  90.9636259  27.8037917  32.4584565  88.9247704  27.5204906  31.6539127
  87.9165140  27.7549591  31.9952980  89.1144541  28.0426519  30.2189560
  90.1223982  27.8081287  29.8766868  88.3877710  27.5676299  29.5598761
  88.9677524  29.1226070  30.2023778  88.9865155  25.9571387  31.6902929
  89.4567731  25.6990464  32.6391591  87.9507628  25.6175826  31.6944729
  89.7380340  25.2801425  30.5506101  90.7740551  25.6188748  30.5460749
  89.7103384  24.1991876  30.6879742  89.2680458  25.5374131  29.6013880
  90.1532617  29.6956985  32.4266665  90.8543646  30.0858505  31.4941618
  89.6345776  30.5345253  33.3357762  89.0985537  30.1714058  34.1109677
  89.7445815  32.0039714  33.1852295  90.3492042  32.2462703  32.3112604
  88.3491467  32.6176981  33.0019181  87.7210802  31.8549934  32.5415777
  87.9677064  32.8502165  33.9961708  88.3300744  33.8821929  32.1399928
  87.5189357  34.5333971  32.4657040  89.2861883  34.3661815  32.3392429
  88.1977200  33.6150544  30.6436264  87.0610750  33.3428107  30.1839434
  89.2148452  33.7355605  29.9206211  90.4872574  32.6976275  34.3517936
  89.9128831  32.8482049  35.4608642  91.7191495  33.1877212  34.0642629
  91.9668395  33.3101579  33.0927907  92.7815114  33.3855334  35.0967015
  92.3362622  33.5097406  36.0838311  93.6800604  32.1677433  35.1211518
  94.2284059  32.1373337  34.1796149  94.3822923  32.2863499  35.9463203
  92.9014366  30.8656223  35.2988028  92.4198945  30.6909584  34.3366643
  93.6050225  30.0588406  35.5041547  91.8251418  30.9091719  36.4149350
  92.1900194  30.9801324  37.6042310  90.6029890  30.8249072  36.1105848
  93.6105698  34.7102237  35.0359735  94.2895639  35.0829422  35.9672639
  93.5069437  35.4247352  33.9453608  93.6121941  34.9629424  33.0533019
  93.2860909  36.8608869  33.9558091  92.7566839  37.1495445  34.8638312
  94.6298604  37.6031690  33.9142163  94.4868112  38.4939205  34.5259335
  95.3423099  36.9382778  34.4025148  95.1748783  38.0128344  32.5284361
  94.5484461  38.7395885  32.0112205  96.0799943  38.5035404  32.8863070
  95.5657098  36.8491452  31.5305167  94.8117767  36.6306562  30.5318884
  96.7107502  36.2993143  31.6081212  92.4214031  36.7996975  32.6589992
  92.0764739  35.6957490  32.2631463  91.9540532  37.9327917  32.1969464
  92.3177461  38.8153651  32.5269328  90.9103676  37.9524880  31.2155589
  91.0175450  38.8516115  30.6087730  90.9462727  36.7438348  30.3011589
  91.8627036  36.8041111  29.7141151  90.9776550  35.8559480  30.9326430
  89.7437686  36.6577528  29.3607666  90.0827299  36.1073858  28.4830980
  88.9513177  36.0972941  29.8567573  89.2106030  38.0187467  28.9316230
  90.0180178  38.9560433  28.8021728  87.9828942  38.1536683  28.7547699
  89.5749367  37.9764385  32.0380768  88.5046356  37.7096418  31.5152842
  89.6682968  38.2780259  33.3375886  90.6030267  38.4135777  33.6953665
  88.5494783  38.4300698  34.2555221  87.6279856  38.2032491  33.7193293
  88.6777709  37.4988196  35.4677157  87.6998013  37.3569819  35.9276699
  89.2145408  36.1685362  35.0102168  90.1927647  36.3095133  34.5505387
  89.3088107  35.5003584  35.8662263  88.5311819  35.7313425  34.2822185
  89.6113772  38.0310755  36.5510901  90.5865065  38.1979433  36.0935109
  89.2060456  38.9815191  36.8981673  89.7588918  37.0959714  37.7147691
  90.1646366  36.1454008  37.3685225  90.4352004  37.5331107  38.4493540
  88.7841746  36.9289748  38.1731776  88.6653054  39.8900336  34.6483271
  89.7520610  40.3284771  34.9595289  87.5825701  40.6416112  34.6529680
  86.6692329  40.2536714  34.4647735  87.6797797  42.0581031  34.9541238
  88.7160920  42.3389065  35.1420216  87.1707142  42.8510950  33.7668226
  86.1545181  42.4755819  33.6466782  87.1371887  43.8909234  34.0919888
  87.9016413  42.7596299  32.4445878  88.8156968  43.3496332  32.5116658
  88.2505756  41.3259119  32.1069101  87.3369300  40.7353477  32.0392012
  88.7746555  41.2942874  31.1516923  88.8917604  40.9142347  32.8863357
  87.0258228  43.3707169  31.3704763  86.8257837  44.4141339  31.6141253
  87.5361902  43.3140600  30.4090106  86.0843302  42.8243408  31.3142284
  86.8757771  42.5057457  36.1314670  85.9418717  41.8489658  36.5298157
  87.2298140  43.6417952  36.7005121  88.6159136  44.1909521  36.7463770
  88.7468426  44.9078089  35.9357759  89.3306528  43.3763705  36.6293143
  88.6956282  44.8316040  38.1004696  89.3695110  45.6878995  38.0732860
  89.0527952  44.1120734  38.8372253  87.2694616  45.2574440  38.4054318
  86.9719127  46.2094046  37.9657335  87.1434066  45.3022668  39.4871900
  86.4145635  44.1268067  37.8262991  86.3848438  43.3048280  38.5415375
  84.9729142  44.5830597  37.5067517  84.6802664  45.2662350  36.4814679
  84.0933099  44.2297888  38.4436203  84.4301607  43.8977145  39.3360090
  82.6594422  44.3028792  38.2334890  82.1501882  44.3288039  39.1968620
  82.4184238  45.2050739  37.6713020  82.1899140  43.1174559  37.4700345
  81.3077835  43.2342762  36.6169197  82.9689233  42.0483612  37.5957564
  83.9696410  42.1279208  37.4846995  82.4152311  40.7512320  37.8825991
  81.3824831  40.7339380  37.5344156  83.1898602  39.5852890  37.2005647
  84.2030778  39.4958384  37.5923400  82.6413649  38.6645849  37.3994538
  83.3156661  39.6981913  35.6954109  82.5690224  40.6276100  34.9561916
  81.8330005  41.2445008  35.4717663  82.7584751  40.7698492  33.5720396
  82.1909761  41.5205702  33.0220727  83.6657749  39.9574656  32.9035802
  83.7961868  40.0432756  31.8248173  84.4146041  39.0243207  33.6259668
  85.1396444  38.3962756  33.1083028  84.2365332  38.8941395  35.0098778
  84.8181803  38.1601191  35.5675520  82.4659357  40.5710908  39.3887220
  83.0440067  41.3957174  40.1310056  81.9868059  39.3840343  39.7665068
  81.8958379  38.7083313  39.0213560  81.6608336  38.9607040  41.1330175
  82.3028269  39.4971331  41.8317217  80.1755952  39.2499608  41.4700508
  79.7960734  38.4367525  42.0887235  80.0226819  40.5612033  42.2112759
  80.4015905  41.3750005  41.5930018  78.9693212  40.7335685  42.4322337
  80.5868876  40.5204196  43.1429989  79.3498721  39.3209719  40.1839074
  79.7008215  40.1927632  39.6317162  79.5728453  38.4177966  39.6158785
  77.8563897  39.4267608  40.3960424  77.6325865  40.3300006  40.9636425
  77.3539169  39.4716094  39.4298081  77.5046106  38.5550344  40.9478073
  81.8552788  37.4290916  41.1365300  81.7895068  36.7934061  40.0960517
  82.1253945  36.8338127  42.2755351  82.4272523  37.3380543  43.0969494
  81.9892904  35.4031136  42.3644503  82.2957674  34.9410368  41.4260176
  82.8551690  34.8687432  43.4672805  82.6348381  35.4882275  44.3366439
  82.6148340  33.8295800  43.6919557  84.3227991  34.9835700  43.1263146
  84.5163926  35.9774578  42.7228182  85.1775055  34.7647241  44.3679737
  84.9847898  33.7708005  44.7717997  86.2315304  34.8509850  44.1039825
  84.9286929  35.5155581  45.1179343  84.7052470  34.0105496  42.0233137
  84.1215490  34.2270671  41.1285979  85.7666275  34.1147279  41.7981037
  84.5022541  32.9909892  42.3510170  80.5307050  35.1222385  42.6503153
  79.8093423  36.0138004  43.0989836  80.0593292  33.9203529  42.3411147
  80.6046777  33.2634679  41.8014886  78.7067539  33.5359261  42.7388185
  78.4441360  34.0758404  43.6485567  77.6532144  33.8517576  41.6564364
  77.7738723  33.1438646  40.8364191  76.6609546  33.7361479  42.0925040
  77.6833849  35.5224403  40.8953903  76.6537349  35.3214258  40.0778866
  78.6673392  32.0704424  43.0562139  79.1771263  31.2412624  42.3008891
  78.0607173  31.7665990  44.1965218  78.0200869  32.4720807  44.9181477
  77.4788745  30.4378755  44.4818321  78.2670504  29.7308562  44.7406790
  76.4949578  30.5402884  45.6735050  77.0697694  30.5134334  46.5992315
  75.9920537  31.5034189  45.5865163  75.4495774  29.4173761  45.6882720
  75.8198191  28.2771104  46.0310622  74.2544306  29.6774280  45.3763184
  76.7475800  29.8618469  43.2443086  75.8896897  30.5277705  42.6568607
  77.0566379  28.6084225  42.8781167  78.1425481  27.7822344  43.4398124
  77.9710738  27.6414574  44.5069950  79.0948908  28.2906616  43.2893322
  78.0512865  26.5075488  42.6722774  77.4536283  25.7941010  43.2396362
  79.0549127  26.1071683  42.5289906  77.4150249  26.8310757  41.3623192
  76.7996668  26.0137684  40.9862310  78.1940696  27.0626258  40.6359766
  76.5393535  28.0756515  41.6091384  76.7527130  28.8288347  40.8506589
  75.0186084  27.7363035  41.5897656  74.4164905  27.6513085  40.5106605
  74.3936231  27.6118055  42.7572576  74.8993207  27.7177986  43.6250910
  72.9805955  27.2170961  42.8186627  72.7726830  26.4731672  42.0496105
  72.6486591  26.6158654  44.1809475  72.5452650  27.3807866  44.9505607
  71.6987968  26.0959558  44.0562252  73.6865623  25.6210536  44.6277722
  74.6208324  25.3088654  43.8819687  73.5793651  25.1722432  45.8731541
  74.2491692  24.5031488  46.2249707  72.8285339  25.5020951  46.4626886
  72.0547129  28.3867617  42.4855023  71.5914661  28.5005579  41.3509549
  71.7947775  29.2602756  43.4580151  71.8878587  28.9968257  44.4285971
  71.3056695  30.5947027  43.1496653  70.7219749  30.5597459  42.2297860
  70.4177164  31.1443916  44.2729634  70.5916824  30.5527083  45.1717103
  70.6865695  32.1831555  44.4647641  68.9288640  31.0807201  43.9262784
  68.3015968  29.9995132  43.9026904  68.3563722  32.2404081  43.6466755
  67.3751838  32.2714816  43.4091811  68.9032140  33.0891846  43.6720378
  72.5051591  31.4825317  42.8999851  73.2362188  31.8233399  43.8263859
  72.8181434  31.6569287  41.6186184  72.3333565  31.1102608  40.9213127
  73.8934648  32.5457044  41.1787189  74.5544836  32.7620820  42.0179651
  74.7253424  31.8918471  40.0499912  75.4455371  32.6797593  39.8295071
  75.2393684  31.0497675  40.5134339  74.0579814  31.4292166  38.7462380
  73.3375973  30.6497576  38.9944139  73.3472219  32.5651805  38.0234622
  74.0670967  33.3448682  37.7745321  72.8921986  32.1859476  37.1084556
  72.5727930  32.9791532  38.6692074  75.0954924  30.7952733  37.8316301
  75.5440595  29.9362620  38.3306158  74.6161227  30.4691646  36.9086139
  75.8706466  31.5255773  37.5994857  73.3006582  33.8945135  40.7423310
  72.1164557  34.1452389  40.9495269  74.1254939  34.7597167  40.1563109
  75.0226844  34.4436144  39.8168584  73.8047930  36.1766277  40.0445252
  73.1195431  36.4711645  40.8393710  75.0816994  37.0049184  40.1692390
  75.7359435  36.8555141  39.3103198  74.8564791  38.0662888  40.2734924
  76.0575704  36.5520089  41.6296385  77.0356372  37.4287080  41.4206356
  73.0888056  36.4717895  38.7368515  73.3425668  35.8163506  37.7198957
  72.1048325  37.3721183  38.8068155  71.8667284  37.7823450  39.6985104
  71.3748777  37.8215068  37.6182428  71.1308668  36.9548114  37.0039162
  70.0635583  38.5545929  37.9811355  70.2450818  39.4914385  38.5078885
  69.5388154  38.7588877  37.0478571  69.1267384  37.7590324  38.8334682
  68.7189727  36.4842094  38.4973439  69.0100031  35.9871351  37.6676945
  67.8975183  36.0296286  39.4269406  67.4744657  35.0278331  39.3525683
  67.7423792  36.9716148  40.3430682  68.4719283  38.0754146  39.9789786
  68.4389931  38.9766739  40.5911453  72.2955961  38.7833127  36.9374419
  73.1864591  39.3312014  37.5851357  72.0758491  39.0091922  35.6450775
  71.3719851  38.4819940  35.1483514  72.8988042  39.9499766  34.8887490
  72.9693408  40.8981950  35.4216708  74.3036234  39.3849608  34.7117492
  75.0274717  40.1934878  34.8138620  74.4852523  38.6358951  35.4824707
  74.4361459  38.8006659  33.4580474  75.3244008  38.4497292  33.3608537
  72.2595129  40.3017599  33.5341210  71.0264830  40.2908280  33.4100734
  73.0833481  40.6218252  32.5385480  74.0713145  40.4290438  32.6213554
  72.5996908  41.2534714  31.3083981  73.1858987  40.9364110  30.4458831
  71.5478361  41.0256692  31.1357503  72.7556144  42.7361554  31.4867969
  73.3803388  43.1372939  32.4388501  72.1480659  43.5458092  30.6107167
  71.4121171  43.1647294  30.0334327  72.6397062  44.9257563  30.3129301
  73.2133411  45.2980314  31.1617254  73.5537314  44.9374117  29.0505141
  74.1786625  45.8215260  29.1766177  74.1671137  44.0420917  29.1518265
  72.9044328  44.9611913  27.6461228  72.2128701  45.8024098  27.5992895
  73.6911241  45.0964929  26.9038882  72.1435078  43.6548823  27.3546435
  72.4285993  43.2951517  26.3660002  72.4190274  42.9129053  28.1040823
  70.6672834  43.8400628  27.3872398  70.3169908  44.6185909  26.8475283
  69.7814514  43.0641395  28.0491845  70.1682405  42.0125870  28.7739461
  71.1490461  41.7799271  28.8371108  69.4784203  41.4541533  29.2560245
  68.4817323  43.3554634  27.9980886  68.1668174  44.1537071  27.4654200
  67.8177845  42.7766277  28.4922759  71.5951282  46.0637211  30.2361590
  71.9556409  47.2224549  30.0841435  70.3075983  45.7183200  30.2932000
  70.0418667  44.7494821  30.1890882  69.2522787  46.7061584  30.5339028
  69.7109058  47.6879686  30.4163912  68.0006120  46.6174449  29.5798680
  67.3587734  45.7974562  29.9019891  67.2210987  47.9203541  29.6309837
  67.8621889  48.7407982  29.3085329  66.3570952  47.8536100  28.9698163
  66.8839133  48.1028288  30.6513314  68.3691022  46.3935560  28.2038888
  67.5767139  46.3470529  27.6639273  68.7717586  46.4564852  31.9167595
  68.8059953  45.3209474  32.3785471  68.2815357  47.5191855  32.5620366
  68.5001120  48.4337440  32.1933818  67.5358294  47.4356248  33.8606797
  66.7278698  46.7112218  33.7580119  68.4553859  46.9936921  35.0447132
  67.9240775  46.7477630  35.9641312  68.9904224  46.1134536  34.6883199
  69.4922161  48.0060902  35.4079681  70.6594416  48.0835037  34.6882669
  70.8370527  47.3760156  33.8783195  71.5906391  49.0333542  34.9789372
  72.5233863  49.0628274  34.4157190  71.3604468  49.9509165  35.9749678
  72.1020915  50.7149406  36.2080564  70.1971150  49.9000419  36.6711207
  70.0090978  50.6226434  37.4652219  69.2546706  48.9387616  36.3770053
  68.3095467  48.9181150  36.9196050  66.7775132  48.7471727  34.2330835
  67.1079895  49.8536716  33.7710159  65.7853813  48.5683852  35.1125580
  65.6458444  47.6321119  35.4647243  64.9290294  49.6281823  35.6158876
  64.9303033  50.4800104  34.9358240  63.5025548  49.0939692  35.7262710
  63.6179582  48.2223668  36.3705463  62.8301231  49.8090132  36.2002412
  62.9160656  48.6578211  34.3760051  63.1250123  49.3877700  33.3716297
  62.1510075  47.6433924  34.3479035  65.3915346  50.0420235  36.9987778
  65.7548613  49.1928210  37.8268930  65.3176995  51.3213870  37.3028538
  65.0647087  52.0463082  36.6466646  65.6854389  51.7042969  38.6211166
  65.1843715  51.0342726  39.3197567  67.1705476  51.5757700  38.8136368
  67.6859182  52.2475062  38.1271504  67.4284501  51.8378224  39.8397533
  67.4758028  50.5486421  38.6138196  65.2510880  53.0674679  38.9303496
  64.9472237  53.8639809  38.0335755  65.3052782  53.3368454  40.2248364
  65.8694873  52.7250856  40.7971278  64.6686710  54.4651580  40.8536925
  63.9429625  54.9148779  40.1760506  63.9379366  54.0038426  42.1167101
  63.5380856  53.0175913  41.8810690  64.7070917  53.9098298  42.8833013
  62.8252738  54.8892975  42.6262462  63.2737833  55.7187909  43.1729461
  62.2510057  55.2774725  41.7850338  61.8647216  54.1348802  43.5739782
  62.2113029  53.1006711  44.1596947  60.6387143  54.6532162  43.7067030
  59.9667759  54.2041621  44.3124675  60.3905684  55.4912680  43.2005467
  65.7969057  55.3649295  41.2347365  66.6249086  55.0109574  42.0685074
  65.7821433  56.5668468  40.6943645  64.9013766  56.9837326  40.4287415
  66.9894562  57.2860432  40.4059183  67.8639275  56.9210469  40.9445990
  67.2416535  57.1853136  38.8906813  66.4026028  56.6471695  38.4496650
  67.3827765  58.5627339  38.2112178  68.2219723  59.1013196  38.6514183
  67.5590510  58.4258052  37.1443164  66.4671822  59.1358991  38.3570530
  68.4772480  56.3115292  38.6380373  69.3236218  56.8295224  39.0890754
  68.3068194  55.3707540  39.1614830  68.7802797  56.0269883  37.1608825
  68.9512910  56.9673292  36.6368462  69.6706130  55.4026729  37.0858081
  67.9344869  55.5085625  36.7092531  66.8780970  58.7503496  40.8882696
  66.4088367  59.6125599  40.1561588  67.3435179  59.0585689  42.0910306
  67.8181562  58.3898526  42.6806375  67.1345030  60.4132782  42.6064699
  66.7227542  61.3452164  42.2191029  67.1325605  60.4758642  44.1316913
  66.2460067  61.0513714  44.3979863  67.1230143  59.1681750  44.8750618
  68.0095639  58.5922680  44.6096156  67.1225932  59.3596280  45.9481164
  66.2299573  58.6037032  44.6068780  67.4860811  61.7810605  44.8074094
  66.7805857  62.5528669  44.4996868  67.4375902  61.6556056  45.8890791
  68.4953413  62.0771791  44.5213878  68.1957647  61.3826528  42.1119707
  69.3286748  61.3490818  42.5299716  67.7538966  62.3207180  41.3069786
  66.7771407  62.3003923  41.0507873  68.5678042  63.3824279  40.7961032
  69.4960863  63.0185758  40.3556454  67.7752369  64.1511983  39.7464903
  66.7955389  64.3959056  40.1568689  68.4758848  65.4001451  39.3626761
  69.4555455  65.1562022  38.9517535  67.8895006  65.9304224  38.6123027
  68.5984575  66.0333395  40.2413911  67.5425892  63.2505258  38.5459483
  66.5679985  62.7840860  38.6898497  67.5085810  63.8994387  37.6708169
  68.5916611  62.1749254  38.3369914  68.6259308  61.5252953  39.2115805
  68.3374213  61.5848637  37.4564867  69.5665142  62.6406485  38.1925498
  68.9374914  64.3386825  41.8969217  68.0602231  65.0086793  42.4819839
  70.2230366  64.3764686  42.2181874  70.8746505  63.7523693  41.7643166
  70.7199277  65.2443744  43.2670958  69.8519949  65.5658912  43.8427857
  71.6882761  64.5059794  44.1796527  71.8251114  65.0823868  45.0946014
  71.1491172  63.1441476  44.5213804  71.0124461  62.5669473  43.6069071
  71.8524683  62.6277729  45.1746454  70.1911372  63.2493600  45.0305993
  73.0038753  64.2746468  43.5009276  72.8423619  63.6502380  42.6222195
  73.4153217  65.2357081  43.1924272  73.9667539  63.5932087  44.4281471
  73.5561745  62.6318032  44.7367307  74.9154490  63.4348031  43.9153268
  74.1291325  64.2172729  45.3069400  71.3926792  66.5049743  42.7920073
  71.2710809  67.5464943  43.4132569  72.1346510  66.4005429  41.7077892
  72.2263781  65.5338409  41.1973843  72.8162055  67.5627268  41.2056676
  72.4557424  68.4705860  41.6893590  74.2843675  67.4017804  41.5152082
  74.3385859  66.9712322  42.5151022  74.6709085  66.6854245  40.7902804
  75.1118827  68.6640407  41.4654860  75.2886249  68.9169628  40.4200706
  74.5531352  69.4684084  41.9439136  76.4401921  68.4820748  42.1724489
  77.2927644  69.3780615  42.0755914  76.6441444  67.4398848  42.8261893
  72.6961460  67.7355462  39.7424201  73.0985193  66.8714393  39.0048817
  72.1389744  68.8444044  39.3112005  71.6168354  69.4533280  39.9249449
  72.1103101  69.1125290  37.8995558  73.1285316  69.0759393  37.5122765
  71.2844414  68.1277757  37.1564470  71.6798951  67.1236745  37.3097321
  70.2409799  68.1585459  37.4700413  71.2949787  68.3683311  35.6981315
  70.9017803  69.5686643  35.1520462  70.5810884  70.3675441  35.6802958
  71.0127887  69.5010188  33.8399352  70.7368883  70.3507585  33.2154991
  71.4786909  68.3069213  33.5216096  71.6666883  67.5817241  34.6680192
  72.0533358  66.5641470  34.6119673  71.7381923  70.5213031  37.5623127
  70.8293789  71.0744291  38.1254857  72.4530720  71.0962833  36.6276332
  73.2487138  70.6098801  36.2397345  72.2169107  72.4584993  36.2158100
  72.1378951  73.0003728  37.1582690  73.4173963  72.9893204  35.4495436
  74.3223896  72.8312033  36.0361315  73.5043603  72.4626173  34.4992167
  73.2350908  74.4807793  35.1888912  72.3304800  74.6396573  34.6019176
  73.1485118  75.0082447  36.1388314  74.4396020  75.0133813  34.4200527
  75.3445960  74.8552630  35.0066389  74.5265638  74.4866789  33.4697256
  74.2572965  76.5048410  34.1594026  73.3526855  76.6637202  33.5724299
  74.1707206  77.0323044  35.1093427  75.4183654  77.0182334  33.4182911
  75.4985144  76.5299026  32.5378316  75.2976266  78.0060199  33.2456645
  76.2566514  76.8714960  33.9622063  70.9636748  72.7174257  35.4319312
  70.4038583  73.7919395  35.4852572  70.5524785  71.7485467  34.6478375
  71.0172449  70.8525136  34.6129623  69.4182524  71.9682333  33.7742708
  68.8745467  72.8589748  34.0890132  69.8871591  72.1661418  32.3401154
  69.0240519  72.4426373  31.7345617  70.6138632  72.9784606  32.3283025
  70.4855290  70.9843921  31.8043850  70.7671048  71.1493653  30.9015568
  68.5132480  70.7480059  33.9064531  68.0483376  70.4842629  35.0237869
  68.4079807  69.9166767  32.8509860  69.1563577  69.8837757  32.1735285
  67.2725219  68.9821344  32.6878383  66.8122463  68.7381190  33.6452839
  66.1789060  69.5209960  31.7057581  66.1256066  68.8487943  30.8493678
  64.8002339  69.6030863  32.3784396  64.8526313  70.2755177  33.2347054
  64.0688610  69.9814023  31.6642467  64.4996035  68.6106684  32.7143373
  66.5645264  70.8599578  31.1054654  66.1312110  71.6436807  31.7268485
  67.6514935  70.9377600  31.1288917  66.0764007  71.0198651  29.6756473
  64.9894086  70.9426373  29.6514819  66.3794018  71.9951283  29.2946601
  66.5096896  70.2367145  29.0535253  67.6095088  67.6529966  32.0599033
  67.0864937  67.3757359  30.9558056  68.1118158  66.7205990  32.8659036
  68.3620280  66.9264377  33.8225245  68.3696837  65.3319110  32.3434768
  68.9913647  65.3897490  31.4500190  69.0116489  64.3614976  33.3534780
  69.7427980  63.7517111  32.8227409  69.6903041  65.0893419  34.4809330
  68.9596462  65.6990260  35.0124638  70.1288706  64.3665147  35.1688872
  70.4749968  65.7307926  34.0798127  67.9696452  63.3988145  33.8848195
  67.0777185  63.9611657  34.1610958  67.7190696  62.6825843  33.1023071
  68.4831784  62.6747963  35.0702048  68.7335499  63.3903858  35.8533687
  67.7196040  61.9885338  35.4363975  69.3749029  62.1118058  34.7945802
  67.1290249  64.5662405  31.8064624  66.0963828  64.5274561  32.4497758
  67.3358840  63.7798342  30.7478324  68.2661717  63.4308090  30.5665990
  66.3087603  63.5603112  29.7414689  65.4354102  63.0550780  30.1538984
  65.8850210  64.9553695  29.2551281  64.9780932  65.2502534  29.7829772
  66.6827580  65.6628692  29.4813137  65.5350840  65.1458778  27.5382481
  65.2329825  66.4396080  27.6006598  66.7524299  62.5228627  28.6215886
  67.8846277  62.5411324  28.1639868  65.8584067  61.5638969  28.2653440
  64.5311889  61.9601688  27.7224567  64.6503660  62.8681552  27.1313071
  63.8551407  62.1553301  28.5549049  64.0915995  60.7756488  26.8870032
  64.4059703  60.9038148  25.8512216  63.0079572  60.6648142  26.9261998
  64.7725081  59.6030421  27.5243085  64.9043665  58.8561415  26.7414599
  64.2596328  59.1517515  28.3736584  66.1436620  60.1452826  27.9664331
  66.5862184  59.6838413  28.8492207  67.0677572  60.0212805  26.8361709
  66.8861231  60.6873207  25.8312920  68.0151215  59.1343365  26.9434882
  67.9655037  58.3632834  27.5939608  69.1927766  59.2492696  26.0998011
  69.6552655  58.2638318  26.0439824  68.8583933  59.5498901  25.1068689
  70.2322685  60.2614948  26.6050098  71.1529518  60.6532319  25.8647496
  70.0755651  60.6673259  27.8705430  69.1545591  60.6148140  28.2817483
  71.1735072  61.1952352  28.6884427  71.6158925  62.0527701  28.1814630
  70.6842104  61.6464933  30.0919721  69.8518575  62.3422484  29.9860819
  70.3196437  60.7041951  30.5009530  71.7217660  62.2378827  31.0307963
  72.3049008  63.4815200  30.7277750  72.0189718  63.9795867  29.8013445
  73.2313528  64.0787695  31.5840424  73.6719981  65.0432066  31.3314663
  73.5545099  63.4531668  32.8104321  74.5179719  64.0928886  33.5977040
  74.8518221  64.9001985  33.1997162  72.9543089  62.2115765  33.1609250
  73.2003134  61.7192653  34.1017820  72.0368355  61.6216121  32.2799127
  71.5541951  60.6809456  32.5450635  72.1969196  60.1133463  28.8410063
  71.9034679  58.9814318  29.3152896  73.4157963  60.5047286  28.5019910
  73.5604333  61.3588963  27.9827829  74.5254089  59.6749701  28.7430071
  74.2066470  58.6476243  28.9192194  75.4097655  59.6999273  27.5457972
  74.9010708  60.5252103  27.0475636  76.4748527  59.9203575  27.6172111
  75.2328259  58.4703834  26.7291044  74.4733076  58.4948128  25.7659797
  75.6509520  57.3281347  27.2922424  75.5587824  56.4572850  26.7890273
  76.0562763  57.3435041  28.2172163  75.2739439  59.9999909  30.0118979
  75.4214648  61.1791067  30.3642325  75.6849144  58.9490267  30.7338469
  75.4024277  58.0182452  30.4619161  76.4901639  59.1052921  31.9597720
  77.2562420  59.8564067  31.7672871  75.6226517  59.5801045  33.1236864
  74.8563451  58.8341071  33.3343092  76.2448455  59.7206429  34.0075553
  75.1467691  60.5249023  32.8610228  77.1931035  57.8191642  32.3311156
  76.9164064  56.7847317  31.7727269  78.0947365  57.9075285  33.2966936
  78.2452775  58.8019221  33.7410999  78.8050783  56.7382756  33.8279449
  78.9621575  55.9679393  33.0729566  80.1843149  57.0866225  34.4817507
  80.0080526  57.5783584  35.4384255  81.0100893  55.8176045  34.7053281
  81.1871643  55.3255293  33.7489770  81.9650287  56.0803765  35.1604568
  80.4670318  55.1418167  35.3660104  80.9907984  58.1397635  33.6894406
  80.4169930  59.0642363  33.6246381  81.9348791  58.3336480  34.1985771
  81.1902759  57.7654177  32.6853615  77.9942707  56.1869930  34.9614666
  77.3168022  56.9297847  35.6454680  78.1960939  54.9206930  35.2559909
  78.9580395  54.4085881  34.8349366  77.3417637  54.2340470  36.1630054
  76.7675702  54.9497337  36.7513875  76.3601496  53.3377606  35.3828834
  75.4834236  53.9695302  35.2403424  76.8244416  53.1382060  34.4171137
  75.9344181  52.0090085  36.0311954  76.7863140  51.3293792  36.0530595
  75.4508088  52.2583328  37.4463620  74.5985728  52.9375588  37.4252738
  75.1507935  51.3137482  37.9000705  76.2548886  52.7031925  38.0325837
  74.8460903  51.3570769  35.2131264  75.2154433  51.1611393  34.2065052
  74.5524593  50.4174816  35.6811464  73.9833970  52.0211972  35.1601799
  78.1712905  53.4092252  37.0706702  78.6807544  52.3865401  36.6806078
  78.2779295  53.7983156  38.3131479  77.8298172  54.6300027  38.6703470
  79.1146256  53.0206806  39.2190803  79.8210917  52.4201829  38.6460120
  79.8957877  53.9405814  40.1413022  79.2052180  54.5697484  40.7028728
  80.5063479  53.3628171  40.8352077  80.8163183  54.8546209  39.4268512
  82.1462682  54.9630957  39.7596210  82.6019436  54.4644516  40.5104963
  82.7208899  55.8228190  38.9372495  83.7793242  56.0610861  39.0423429
  81.8128868  56.2588046  38.0760057  80.6028289  55.6985317  38.3854714
  79.7141894  55.9719496  37.8165568  78.3066238  52.0806572  40.0308869
  77.7582947  52.4840673  41.0366944  78.3497223  50.8157715  39.6966836
  78.8967837  50.4821166  38.9159803  77.6895863  49.8554839  40.5194017
  77.0770508  50.3439121  41.2772522  76.8256029  48.9594164  39.6790555
  77.4580499  48.3595207  39.0246578  76.0153954  48.0493630  40.5666970
  75.3823104  48.6485699  41.2211090  75.3909227  47.4020464  39.9509731
  76.6862947  47.4385193  41.1707362  75.9435339  49.8257406  38.8104528
  75.5450574  50.6255904  39.4345983  76.5673796  50.2542165  38.0260267
  74.8110519  49.0664835  38.1886939  74.1864581  48.6380734  38.9725607
  74.2129981  49.7416203  37.5766309  75.2087807  48.2666976  37.5639906
  78.7706256  48.9972828  41.0958095  79.5268384  48.3954915  40.3638474
  78.8723101  48.9674281  42.4085829  78.3719055  49.6581001  42.9495698
  79.8598915  48.1461272  43.0855243  80.0870871  48.6136513  44.0435966
  79.4075441  46.7099512  43.3385406  80.2656203  46.1920025  43.7669489
  78.5653936  46.6484166  44.0278127  79.0161933  45.9494833  42.1183770
  79.5097728  44.6963878  41.8482511  80.1767124  44.2061813  42.4270333
  78.9782686  44.2476099  40.7284436  79.2556267  43.2704022  40.3331760
  78.1416277  45.1584399  40.2735867  78.1315916  46.2228078  41.1366685
  77.4776069  47.0735491  40.9452413  81.2265830  48.2570768  42.4515474
  81.6741928  49.3469441  42.1539795  81.8739246  47.1296810  42.2095608
  81.4777993  46.2268820  42.4289646  83.1751276  47.1730337  41.5985606
  83.8408693  47.8110705  42.1797629  83.8121852  45.7958382  41.4679846
  84.8506977  45.9179195  41.1602703  83.7612310  45.0583041  42.7660483
  82.7229416  44.9354236  43.0741959  84.2224755  44.0780391  42.6459105
  84.3010423  45.6225302  43.5265436  83.1387445  45.0515464  40.4526737
  83.5414641  44.1838742  40.3716659  83.0661173  47.7367560  40.2153686
  83.8888965  48.5143732  39.8056054  82.0388447  47.3556254  39.4896418
  81.3577034  46.7046353  39.8534518  81.9081549  47.7886227  38.1145729
  82.8256195  47.5713545  37.5676246  80.7680123  47.0661329  37.4477975
  80.9967852  46.0089257  37.3133541  79.8475384  47.1679119  38.0226618
  80.4073283  47.7077571  35.8150126  79.4051610  46.8726887  35.5557449
  81.7356404  49.2589559  37.8857408  81.2714722  49.9647910  38.7361970
  82.1280749  49.6908112  36.6945729  82.5802153  49.0458093  36.0624012
  82.0240448  51.0597735  36.3044715  81.1324655  51.4692126  36.7793872
  83.2918376  51.8665070  36.7832829  84.0850807  51.1633609  37.0371557
  83.7693819  52.7892484  35.6951792  82.9767830  53.4930364  35.4410728
  84.6447621  53.3383852  36.0419630  84.0330731  52.2058033  34.8130466
  82.9835551  52.7732437  38.0144321  83.4517636  53.7331691  37.7966596
  81.9001841  52.8925884  38.0272252  83.4584663  52.2722220  39.3837249
  84.5418692  52.1530713  39.3718474  83.1812895  52.9944668  40.1516016
  82.9902911  51.3124888  39.6024119  81.8082552  51.1576757  34.7999911
  82.7698834  51.2671531  34.0369926  80.5702022  51.0058993  34.3544165
  79.8024984  50.7951813  34.9759695  80.3135199  51.0256544  32.9257308
  81.2579756  51.1764622  32.4028927  79.6794430  49.7309175  32.4238336
  80.2207932  48.8997258  32.8756738  78.6434857  49.7160710  32.7624663
  79.7197037  49.5966753  30.8948548  78.7249514  49.9214840  30.5897844
  80.4663499  50.2692605  30.4726608  79.9746338  48.1458368  30.3771906
  81.0448515  47.5327052  30.7166282  79.1461669  47.6532125  29.5575359
  79.4921893  52.1879018  32.4993671  78.6913376  52.6803869  33.2267989
  79.7619360  52.6662488  31.3048501  80.4697687  52.2298803  30.7315660
  79.0759351  53.8084933  30.7834509  79.0840758  54.6164996  31.5149964
  79.7661993  54.2933840  29.5148314  80.7655482  54.6236948  29.7981965
  79.8435116  53.4382221  28.8433994  79.0444586  55.4187661  28.8145375
  78.2434666  55.7564612  29.4721655  79.7433510  56.2376347  28.6439419
  78.4573442  54.9733229  27.4925064  79.2657646  54.6618596  26.5821571
  77.2018821  54.9501390  27.3557828  77.6828966  53.3492568  30.5022561
  77.4615330  52.1550474  30.3388909  76.7317847  54.2775446  30.5686933
  77.0036452  55.2406160  30.7053851  75.2889527  53.9531716  30.5425171
  75.0654496  53.1373296  29.8550963  74.7619097  53.5678797  31.9634945
  75.3761615  52.7526271  32.3457995  74.8196799  54.7392679  32.9270600
  74.2052528  55.5548007  32.5456331  74.4443960  54.4274754  33.9017640
  75.8509374  55.0779111  33.0267119  73.3600847  53.0286254  31.8861868
  73.3461915  52.1405618  31.2543227  73.0149901  52.7675354  32.8866074
  72.7016461  53.7863954  31.4615175  74.4485102  55.1090838  29.9505134
  74.9106344  56.2716439  29.8302703  73.2394612  54.7499654  29.5338704
  72.9745678  53.7794742  29.6237466  72.2636162  55.6856783  28.9821215
  72.5806954  56.7154191  29.1470270  72.1523851  55.4443274  27.4789869
  73.1138056  55.7363105  27.0564756  72.0138067  54.3700482  27.3572486
  71.0446459  56.1785663  26.7630030  70.1008322  55.9540929  27.2599217
  71.2462984  57.2474597  26.8330205  70.9541647  55.7698725  25.2820224
  71.9875374  55.3203337  24.7095955  69.8405337  55.8933484  24.6877053
  70.9320964  55.3999766  29.6415866  70.6105269  54.2487979  29.9319616
  70.1741787  56.4289504  29.9568879  70.4959742  57.3852651  29.9120653
  68.8544261  56.1767642  30.4713867  68.7747465  55.1295947  30.7632537
  68.4981760  57.0598847  31.6538904  67.6648652  56.6073244  32.1913684
  69.6828394  57.2124526  32.5927540  70.5164511  57.6654060  32.0560739
  69.4025227  57.8493314  33.4317466  69.9806944  56.2322368  32.9649884
  68.0367979  58.4245797  31.1902960  68.7776919  58.8037445  30.4864417
  67.0828672  58.2961068  30.6788173  67.8695368  59.4167407  32.3348214
  68.8232304  59.5460921  32.8465213  67.5371672  60.3763434  31.9388513
  67.1284068  59.0384528  33.0388985  67.9341430  56.3596683  29.3012320
  67.8696263  57.4190717  28.6872712  67.3384617  55.2444447  28.9262906
  67.1319847  54.5463047  29.6263386  66.9442388  54.9833047  27.5618899
  67.6468059  55.4658567  26.8824473  66.9242511  53.4762221  27.2589716
  66.3813450  53.2989282  26.3305751  68.3225458  52.9787341  27.1192870
  68.8659810  53.1552739  28.0475173  68.3088216  51.9101943  26.9044999
  68.8167123  53.5064593  26.3035627  66.2754446  52.7586273  28.3155461
  66.2719215  51.8208292  28.1103083  65.5693527  55.4886555  27.2876092
  65.3462959  56.0722660  26.2229433  64.6033766  55.0849139  28.1305118
  64.4051185  54.1017574  28.2496605  63.6938742  56.0576450  28.7467331
  64.1851476  57.0055197  28.5269990  62.2794633  56.0759632  28.1175129
  61.7714945  55.1368220  28.3367881  61.7065139  56.9042778  28.5343152
  62.3631346  56.1997042  27.0377970  63.6306752  55.9344909  30.2600275
  64.1287756  54.9692123  30.8860996  63.2642754  57.0829451  30.8113252
  63.5242279  57.9288629  30.3245531  62.6070155  57.2040151  32.0897572
  62.9002530  56.3835952  32.7447550  63.0122527  58.5279396  32.7507564
  62.2789731  58.6742630  33.5438451  63.9975119  58.3752032  33.1912515
  63.0427567  59.7668943  31.8485830  63.9004994  59.6579552  31.1848733
  61.7747871  59.9692250  31.0143669  60.9166242  60.0787123  31.6774414
  61.8794581  60.8670141  30.4051712  61.6243829  59.1061825  30.3658019
  63.2528041  60.9677321  32.7096137  64.1977946  60.8713318  33.2442157
  63.2777909  61.8620366  32.0869610  62.4364485  61.0480788  33.4273929
  61.0585204  57.0715851  31.9508149  60.4708594  57.3234679  30.8577671
  60.4498278  56.7260340  33.1015720  60.8282197  57.1384577  33.9423012
  59.2226247  55.8801830  33.2174060  58.8755825  55.5687376  32.2321838
  59.4031092  54.6170511  34.1315920  59.6347929  54.9241689  35.1514458
  58.1067097  53.8312924  34.1230164  57.8745894  53.5234112  33.1034920
  58.2121777  52.9484265  34.7535123  57.2999038  54.4562626  34.5058684
  60.5924941  53.7526262  33.7250290  61.1951118  54.3499466  33.0408061
  61.1623292  53.5559145  34.6331546  60.2271314  52.4312601  33.0586008
  59.6576386  52.6271894  32.1500912  61.1372704  51.8872307  32.8060572
  59.6248537  51.8331580  33.7424394  58.1114068  56.6577198  33.9226501
  57.1548525  57.0993400  33.3118060  58.2568707  56.7704289  35.2284996
  59.1107889  56.4533466  35.6648274  57.2846181  57.3614542  36.0321058
  56.5846766  57.9269860  35.4170003  56.5261694  56.3094852  36.7740147
  56.5325616  55.3542010  36.2491428  56.9051443  56.1697473  37.7864135
  54.8066722  56.7685702  36.9472121  54.4383541  55.6787295  37.6146604
  57.9827636  58.2037215  37.0083209  58.6855367  57.7060814  37.8599530
  57.6933499  59.4810138  36.9653081  57.2165767  59.8602941  36.1597444
  58.0574753  60.3873341  38.0395065  59.1336339  60.5584515  38.0659756
  57.3660531  61.7031812  37.7737570  57.2001801  61.6773701  36.6967616
  56.4124800  61.8366733  38.2846173  58.2806885  62.8484289  38.1125899
  58.8066078  62.6029194  39.0352138  59.3116768  63.1213058  36.9874218
  58.7864777  63.3673555  36.0645327  59.9512060  63.9559777  37.2745213
  59.9232594  62.2327141  36.8309865  57.3947106  64.0393523  38.4952994
  56.7793031  63.7736393  39.3548165  58.0227285  64.8933996  38.7488698
  56.7512026  64.2990636  37.6547362  57.6435509  59.8407545  39.4300799
  56.8655961  58.9368549  39.4724339  58.2090530  60.3327165  40.5443854
  59.1255835  60.7547542  40.5001678  57.5899404  60.1339205  41.8776674
  56.5123512  60.2822318  41.9476987  57.9460777  58.7707787  42.5275786
  57.0267993  58.1929118  42.6229533  58.9526760  57.9864516  41.7118146
  59.8724498  58.5635232  41.6163919  59.1674928  57.0411696  42.2102081
  58.5435480  57.7893927  40.7209142  58.2975292  58.8790689  44.0252368
  57.4467856  59.2885114  44.5699333  58.5360504  57.8896600  44.4154641
  59.1585128  59.5356882  44.1503737  57.8288055  61.2322336  42.8828827
  58.9748940  61.6501392  43.0972610  56.7484682  61.6653866  43.5419517
  55.8432181  61.2751241  43.3221409  56.8130290  62.7765692  44.4944186
  57.5774062  63.4826379  44.1699288  55.4661994  63.5204431  44.5955105
  55.4034755  64.3018841  43.8382028  54.7205644  62.7530404  44.3876119
  55.1970185  64.1401207  46.0078615  56.1068858  64.7917842  46.6042171
  54.0248706  64.0336556  46.4896618  57.3021462  62.2740852  45.8515026
  57.0208849  61.1321014  46.3022699  58.1273324  63.1256063  46.4481679
  58.2114965  64.0641731  46.0847011  58.9684458  62.7431961  47.5654126
  59.3419929  61.7295362  47.4203081  60.1773502  63.7049098  47.6770099
  59.7848042  64.7215776  47.6571734  60.6516345  63.5178492  48.6404219
  61.1947569  63.5371768  46.5747221  61.4082163  62.4759742  46.4467184
  60.7844123  63.9390399  45.6483175  62.4711261  64.2694413  46.9193442
  62.2171496  65.3119277  47.1112221  62.8786393  63.8224716  47.8261244
  63.5172309  64.1959904  45.7983667  63.4093665  63.2120533  45.3419309
  63.2452676  64.9637466  45.0740148  64.9513419  64.3962855  46.2295462
  65.2036826  63.6847070  46.9004260  65.5573808  64.3299017  45.4243071
  65.0515992  65.3081357  46.6521298  58.1530465  62.7246899  48.8565867
  58.2652859  61.8234558  49.6671843  57.3172986  63.7204657  49.0301758
  57.2453299  64.4785977  48.3667335  56.5237798  63.7784972  50.2090457
  57.1560530  63.9161778  51.0861852  55.5700563  64.9483990  50.1122871
  55.2221966  64.9948753  49.0803313  54.7279866  64.7317013  50.7696005
  56.1850076  66.2843736  50.5003306  56.7177672  66.1709600  51.4444732
  56.8845931  66.5939261  49.7238904  55.0924150  67.3463207  50.6554493
  55.1644114  68.0251042  49.8056444  54.1283328  66.8382319  50.6332970
  55.2191375  68.1423002  51.9555367  56.0829591  67.7551694  52.4959464
  55.3955699  69.1841386  51.6880601  53.9950873  68.0489230  52.8318555
  53.8316743  67.0836589  53.0801721  54.1393559  68.5925919  53.6707302
  53.1946169  68.4079928  52.3314406  55.7474065  62.4618535  50.4385621
  55.7860477  61.8974947  51.5287869  55.1007020  61.9509678  49.3847964
  55.1944470  62.3962431  48.4831085  54.1509004  60.8348783  49.5162689
  53.7766194  60.8028398  50.5394924  52.9350311  60.9882526  48.5437674
  52.4969259  59.9984657  48.4153740  52.2130030  61.6443264  49.0299183
  53.2791319  61.5225815  47.2717166  52.4903128  61.5892787  46.7286552
  54.8317312  59.4692635  49.3477615  54.9607345  58.7188203  50.3162517
  55.3362038  59.1981832  48.1323057  55.6879335  59.9646608  47.5765201
  55.4033742  57.8195812  47.5606679  56.4477623  57.5417437  47.4186852
  54.9332756  57.1217565  48.2535945  54.6780541  57.7460585  46.2079872
  54.6554420  56.6838318  45.5076644  54.0548107  58.8716468  45.8585882
  54.2956380  59.7536347  46.2877721  53.0280084  58.8589712  44.8723010
  52.3677355  58.0129655  45.0631236  52.1868376  60.1525394  44.8802301
  51.5528845  60.1276143  45.7665604  52.8767112  60.9934602  44.9511290
  51.3092982  60.3138349  43.6268405  51.9602888  60.6790097  42.8325110
  50.9499683  59.3168522  43.3718760  50.1222847  61.2564556  43.7839365
  49.5287805  61.5694630  42.7263236  49.7770853  61.6793420  44.9342467
  53.7309147  58.7102345  43.5769882  54.3255391  59.6563520  43.0883007
  53.6916238  57.5212285  43.0071830  53.4514310  56.6796306  43.5112858
  54.0404925  57.4067845  41.6119732  55.0954952  57.6429599  41.4730859
  53.7929866  56.0025296  41.1237366  53.1839477  55.4995894  41.8748836
  53.2322552  56.0762080  40.1919362  55.0612426  55.2083048  40.8880194
  54.8622210  54.4822277  40.0997915  55.8353078  55.9005005  40.5566731
  55.5367232  54.4756206  42.1497519  55.8519210  55.2135803  42.8874272
  54.7080629  53.8923303  42.5512418  56.7150238  53.5378167  41.8263133
  57.5641091  54.1728587  41.5735754  56.9360552  52.9822543  42.7376830
  56.4573302  52.5688120  40.6962226  56.2529203  53.0834117  39.8515313
  57.2759525  51.9952694  40.5512864  55.6708526  51.9799880  40.9303985
  53.2486870  58.3794944  40.7648082  52.3509278  59.0387925  41.2368807
  53.6360537  58.5228962  39.5202187  54.2873624  57.8953472  39.0706872
  53.1189155  59.6009370  38.7696989  52.6045223  60.2917927  39.4376938
  54.2045474  60.3423912  38.0598178  54.9216413  60.7403448  38.7778069
  54.7186591  59.6817570  37.3617121  53.6114389  61.4061182  37.3496542
  54.2914208  61.8985309  36.8840856  52.1715569  59.1252321  37.7583999
  52.1739031  57.9714735  37.3708389  51.4657075  60.0721039  37.1883232
  51.7936057  61.0273795  37.1938481  50.2221089  59.7802990  36.5203632
  49.7295270  58.9244569  36.9818787  49.3044230  60.9933866  36.6390095
  49.7287116  61.7916393  36.0300177  48.3294064  60.7124612  36.2408592
  49.1439865  61.4847173  38.0890796  48.2227272  62.0652130  38.1381404
  49.0522840  60.6041838  38.7249676  50.3109028  62.3413081  38.5721539
  50.9420336  61.7447907  39.2308950  50.8929799  62.6688886  37.7107732
  49.7990645  63.5500162  39.3234569  48.8350863  63.3156341  39.7750226
  50.5096709  63.8198344  40.1046968  49.6404094  64.6946537  38.3787497
  48.9816578  64.4449945  37.6549981  49.2985941  65.5011940  38.8814971
  50.5336244  64.9122746  37.9605307  50.5602361  59.5293724  35.1169605
  50.5261794  58.4008548  34.6382309  51.1524391  60.5576190  34.5567261
  51.1331410  61.4549040  35.0199827  51.7477193  60.4770162  33.2680017
  51.2529102  59.7346480  32.6417809  51.6563490  61.8650408  32.5623019
  52.6211757  62.1003476  32.1130355  50.5415273  61.8375098  31.4351569
  49.5762705  61.6027073  31.8837621  50.4891209  62.8128391  30.9513332
  50.7917171  61.0780275  30.6944191  51.3588227  62.8913640  33.5337120
  51.3039694  63.7425934  33.0932577  53.2153342  59.9641581  33.3509659
  53.7813578  59.7628167  34.4363727  53.7551126  59.6530072  32.1714802
  53.1224787  59.5247824  31.3946714  55.2070420  59.5936455  31.9090375
  55.6662888  58.8417638  32.5508050  55.4797410  59.2184003  30.4362014
  54.4990348  59.0779372  29.9816854  55.9627026  60.0901821  29.9947892
  56.3330308  57.9877901  30.1879591  57.3670217  58.2289666  30.4345310
  55.9820846  57.1870841  30.8389650  56.2489300  57.5280481  28.7156024
  55.3085534  57.8794311  28.2909605  57.0816178  57.9636814  28.1633759
  56.3080590  56.0832992  28.5832833  55.6561464  55.6576423  27.9399127
  57.1308121  55.2853594  29.2836742  58.0563927  55.7829772  30.1055647
  58.1487453  56.7832349  30.2107102  58.6605244  55.1571689  30.6188759
  57.0654736  53.9624325  29.1317525  56.3961568  53.5634312  28.4891694
  57.6855900  53.3652980  29.6599426  55.7262806  60.9504561  32.0765681
  55.0042147  61.9028448  31.8009189  57.0242390  61.0503256  32.3600377
  57.8690541  60.1183250  33.1292686  58.6460511  59.6986925  32.4902971
  57.2624711  59.3114391  33.5404756  58.4221600  61.0167404  34.1935739
  59.4687137  60.7575275  34.3536771  57.8617634  60.8477747  35.1130888
  58.2717606  62.4576168  33.7220647  59.2866247  62.8382070  33.6067349
  57.7080660  63.1205509  34.3784688  57.5917807  62.3731091  32.3594048
  56.8014749  63.1083028  32.2077307  58.5928158  62.4847986  31.2569402
  59.3400469  61.5408769  31.0119022  58.5530976  63.6059545  30.5469810
  57.7972324  64.2573492  30.7033525  59.4950448  63.8797072  29.4471883
  59.4408205  63.0188301  28.7808179  59.0259550  65.1371292  28.6712175
  57.9965245  64.9979391  28.3410689  59.0832771  66.0091336  29.3226946
  59.9243321  65.3499138  27.4574359  60.9539278  65.4896470  27.7868415
  59.8671742  64.4784545  26.8052138  59.4628856  66.5868535  26.6941060
  58.4334545  66.4476652  26.3639586  59.5202097  67.4588572  27.3455835
  60.3135300  66.8253306  25.5066997  61.0740425  66.1867231  25.3225785
  60.1222427  67.8421616  24.6710177  59.1425521  68.7242962  24.8469306
  58.5180410  68.6303236  25.6351279  59.0275884  69.4841052  24.1915122
  60.9469078  67.9621122  23.6344656  61.6898546  67.2905088  23.5037795
  60.8264226  68.7242551  22.9827599  61.0272761  64.0009062  29.9200234
  61.9545904  63.9304800  29.0871234  61.2541847  64.0754652  31.2464967
  60.4879898  63.8886445  31.8774822  62.5680252  64.3623167  31.8179759
  63.2584789  63.5403930  31.6287292  63.1048467  65.5881697  31.1806078
  64.0764324  65.8619560  31.5919004  63.1987934  65.4226222  30.1073566
  62.2379390  66.7492722  31.3494948  62.2513236  67.4642864  32.5364091
  62.8799523  67.1165363  33.3561626  61.4926565  68.5886345  32.6878014
  61.5206913  69.1505794  33.6213605  60.6979107  69.0072866  31.6649737
  60.0804209  69.8985966  31.7762065  60.6766825  68.2922406  30.4753252
  60.0528100  68.6405052  29.6521635  61.4326408  67.1554017  30.3303861
  61.3855557  66.5841179  29.4032844  62.5438480  64.6535561  33.3143479
  61.5538600  65.0552648  33.8579644  63.6750567  64.6127435  33.9494424
  64.5618064  64.5086103  33.4772871  63.6802425  64.8106574  35.3498657
  63.1502858  65.4245778  36.0781147  64.1757138  63.5219474  36.0552740
  63.4101391  63.2963761  36.7976433  64.4279260  62.3240159  35.2290232
  65.1937779  62.5486909  34.4866669  64.7685013  61.5077450  35.8660560
  63.5078983  62.0302632  34.7236917  64.7868096  63.6185087  37.4109557
  64.0637882  64.0446661  38.1064642  65.0754119  62.6241524  37.7516373
  65.6688539  64.2574422  37.3677985  64.6891768  65.8850051  35.5989493
  65.8490735  65.6571906  35.2490849  64.3289891  66.9565042  36.3443535
  63.3460010  67.1134883  36.5152035  65.3258074  67.9708892  36.8841788
  66.1745281  68.0441841  36.2041787  64.6881236  69.3502406  37.0183548
  64.1462257  69.3498557  37.9641062  65.5081656  70.0664292  37.0703632
  63.7444180  69.7423646  35.8946695  64.2835534  70.4020791  35.2148088
  63.4533764  68.8351324  35.3652107  62.4715329  70.4671224  36.4195111
  61.6520085  70.2012892  35.7518200  62.2679599  70.0773195  37.4168632
  62.6034912  72.0024316  36.4850061  61.7195479  72.3857963  36.9946886
  63.4904961  72.2301085  37.0761785  62.7228196  72.6511737  35.1311755
  61.9008043  72.4406826  34.5833762  62.8056008  73.6515067  35.2433413
  63.5420776  72.2963930  34.6588979  65.9645897  67.6032226  38.2623963
  65.9503824  66.4601349  38.7100006  66.5439699  68.5831281  38.9310881
  66.5054677  69.5460270  38.6286933  67.3334961  68.2594919  40.1294399
  68.0377378  67.4619868  39.8925258  68.1349878  69.4977439  40.6370617
  68.4105020  70.0512318  39.7393745  67.4238025  70.0828749  41.2201032
  69.4032816  69.2291776  41.4879430  69.1720355  68.9504175  42.5160086
  69.9210504  68.4055242  40.9964020  70.3403571  70.4604958  41.5083073
  71.0500041  70.7418393  40.5393924  70.2686674  71.2262091  42.5667305
  70.8569446  72.0443469  42.6351547  69.6253809  70.9956115  43.3104432
  66.4089444  67.7464639  41.1744354  65.2114659  67.8125873  41.0162619
  66.9565450  67.3775324  42.3117186  67.8854687  66.9828986  42.3499823
  66.2109924  67.5364628  43.5760091  66.7821088  67.1062101  44.3986925
  65.9640243  69.0502672  43.8773544  66.2660322  69.5473231  42.9554944
  64.9096626  69.2499100  44.0685720  66.8147974  69.5895952  45.0581949
  66.7053263  68.9836476  46.1597827  67.5088498  70.6690598  44.8997234
  64.8436580  66.8418079  43.5266495  63.9619276  67.1923629  44.3538935
  64.7671891  65.7692710  42.6839674  65.6572106  65.3384781  42.4781066
  63.5203158  65.1668990  42.0736389  62.6630679  65.3210571  42.7289713
  63.2417894  65.8375489  40.7483156  63.1811932  66.9030009  40.9702150
  64.1221506  65.6440907  40.1354223  61.9916826  65.4046596  39.9920447
  62.0598250  64.3649849  39.6718354  61.1352712  65.5245394  40.6555884
  61.7796755  66.2872473  38.7524859  62.6555380  67.0558567  38.3990167
  60.6661175  66.1555391  38.0826631  60.5025333  66.7240479  37.2640426
  59.9738344  65.4857999  38.3864637  63.7329033  63.6685340  41.8173448
  64.8318988  63.2517638  41.6517051  62.6988274  62.8521930  41.8085472
  61.7542170  63.1990798  41.8950344  62.9006667  61.3844503  41.6514889
  63.9568605  61.1621866  41.4993287  62.3958805  60.5726633  42.8592421
  61.3089607  60.6433633  42.9005458  62.8069539  59.1034494  42.7383494
  63.8938348  59.0319058  42.6974546  62.4392138  58.5504307  43.6026631
  62.3810061  58.6801139  41.8287027  62.9192915  61.1426053  44.1570264
  62.5806200  62.1730466  44.2647032  62.5463860  60.5490338  44.9917204
  64.0089914  61.1174740  44.1521953  62.1429466  60.8786433  40.4428726
  61.1330670  61.4579556  40.0825166  62.6427389  59.8210853  39.7931251
  63.5100496  59.4182196  40.1180416  61.9578565  59.1830077  38.6305538
  60.8895906  59.3923693  38.6860036  62.4915798  59.7114969  37.2955408
  61.9710776  59.2369486  36.4636871  62.3619648  60.7921016  37.2355946
  64.3090674  59.3922070  37.0184530  64.3710079  59.9703609  35.8222926
  62.2528675  57.7209905  38.7079379  63.0092036  57.2824417  39.5851675
  61.6298484  56.9566098  37.8239819  60.8929538  57.3405263  37.2497922
  61.9880116  55.5308879  37.6458970  62.8903879  55.3164420  38.2184606
  60.8679206  54.5325863  38.0516531  60.6782353  53.8429665  37.2291299
  61.3130001  53.7454827  39.2834640  61.5024401  54.4344365  40.1066018
  60.5290813  53.0444961  39.5701516  62.2254155  53.1952609  39.0535656
  59.5795925  55.3094669  38.3056538  59.8538195  56.1316279  38.9666770
  59.2770894  55.7079555  37.3372540  58.4382628  54.5412552  38.9093709
  58.7398805  54.1428232  39.8780703  57.5825474  55.2036623  39.0400126
  58.1631519  53.7191489  38.2486479  62.2771928  55.3784501  36.1988908
  61.6996679  56.0928064  35.3917668  63.3303119  54.6465755  35.8850805
  63.8152690  54.0663613  36.5546083  63.8332062  54.7165388  34.5798432
  63.0219917  54.7844726  33.8549879  64.6923468  55.9250600  34.4469710
  65.5145111  55.8672183  35.1602733  65.0932288  55.9769868  33.4346975
  64.0992332  56.8170767  34.6485193  64.5748841  53.4953283  34.2735025
  64.9909756  52.7775660  35.1948613  64.6064858  53.1906482  32.9739686
  64.1108455  53.7846935  32.3246996  65.2868735  52.0311084  32.4561491
  65.5544659  51.3661562  33.2773264  64.3966172  51.2707702  31.4855098
  63.4281195  51.1415980  31.9686516  64.2794846  51.8936252  30.5987000
  64.9537494  49.8931060  31.0754814  65.9321100  50.0744604  30.6304847
  65.0740353  49.3211728  31.9955497  64.0722427  49.0903932  30.0784066
  64.6423102  48.9567736  29.1590221  63.8657809  48.1164212  30.5220861
  62.7941217  49.7390204  29.7501592  62.8536641  50.6031853  29.2307624
  61.5913734  49.2943006  30.1075315  61.4695358  48.1353783  30.7503383
  62.2932494  47.5925807  30.9670565  60.5539176  47.8039714  31.0185033
  60.4976481  50.0002164  29.7898306  60.5903561  50.8672951  29.2802427
  59.5855277  49.6620076  30.0614000  66.5731705  52.4347482  31.7568031
  66.6757978  53.5266413  31.1932935  67.5533106  51.5340232  31.7889085
  67.3178653  50.5561376  31.8805850  68.9613962  51.8991356  31.6813126
  69.0708736  52.8527438  31.1648387  69.5519818  52.0347491  33.0928177
  68.8765568  51.4680743  33.7337388  70.5159746  51.5283602  33.0439495
  69.7420512  53.4343940  33.6668786  70.1828450  54.0725404  32.9009995
  68.4419213  54.0063708  34.0990287  68.0007078  53.3689727  34.8652879
  68.6009205  55.0052290  34.5053567  67.7682615  54.0654352  33.2441636
  70.6684657  53.4181461  34.8716326  71.6433100  53.0305142  34.5757957
  70.7825577  54.4315072  35.2565788  70.2448775  52.7807472  35.6477735
  69.7213608  50.7847270  30.9142008  69.6604458  49.6235897  31.3233786
  70.4173053  51.1341961  29.8104411  70.2758248  52.0569774  29.4250099
  71.3183127  50.1812553  29.0695034  71.2318384  49.1922504  29.5194931
  70.9547854  50.0749484  27.5655015  70.9523930  51.0871187  27.1610205
  71.7404276  49.4933559  27.0831982  69.5891349  49.4126899  27.2995370
  69.3320220  48.8606670  28.2035638  68.8754206  50.2236238  27.1542782
  69.5409828  48.4667678  26.0917963  69.8692775  47.4795219  26.4168613
  68.5100032  48.4095439  25.7426462  70.3920187  48.9021572  24.9766177
  71.2107203  48.3406082  24.7909037  70.1743770  49.9804351  24.2205531
  69.1185018  50.7666308  24.4249667  68.4660277  50.5486151  25.1644575
  68.9753139  51.5770873  23.8395121  71.0127990  50.2609264  23.2326046
  71.8056163  49.6591836  23.0610052  70.8548458  51.0750606  22.6561196
  72.8007816  50.5300156  29.2168580  73.2699280  51.5760667  28.7731657
  73.5347072  49.5988203  29.7852086  73.0862093  48.7689710  30.1461782
  74.9759206  49.7004305  29.8881126  75.2743924  50.7198296  30.1327336
  75.5141324  48.7503409  30.9859499  76.5011342  49.0929628  31.2966556
  74.5942247  48.7359727  32.1709124  73.6070808  48.3929899  31.8610587
  74.9903186  48.0624355  32.9308838  74.5159412  49.7420399  32.5829818
  75.6513463  47.4110196  30.4718615  75.9854719  46.8353920  31.1636803
  75.6108287  49.2844547  28.5623940  75.5148752  48.1231052  28.1650575
  76.3464725  50.1854221  27.9227760  76.5104861  51.0993934  28.3200860
  76.8446962  49.9151163  26.5588266  75.9513675  49.7140620  25.9675227
  77.5517196  51.1417854  25.9755756  78.4532784  51.3502464  26.5516274
  77.8213411  50.9470296  24.9375608  76.8845354  52.0025004  26.0217739
  77.7577940  48.6765826  26.4565645  78.3564657  48.4323609  25.3864090
  77.8673518  47.9107237  27.5486801  77.6551098  48.2956049  28.4580310
  78.2906897  46.5131900  27.4689398  78.3286868  46.2342849  26.4159121
  79.2893057  46.4406085  27.8997500  77.3642070  45.5541393  28.2020875
  76.2799794  45.2047320  27.6891205  77.8409541  45.0545132  29.3503108
  78.7287781  45.3907904  29.6949638  77.1375725  44.0269645  30.1263410
  76.0634424  44.2119087  30.1145354  77.4005971  42.6010714  29.5793135
  77.9895269  42.7000954  28.6674713  78.1582454  41.6891645  30.5899573
  77.5696741  41.5892868  31.5019375  78.3117645  40.7048630  30.1475982
  79.1241529  42.1344070  30.8284574  76.1527571  42.0013193  29.2453004
  76.3039264  41.1165050  28.9049304  77.5903508  44.0895841  31.5434195
  78.7629594  44.3369080  31.8281722  76.6811961  43.7972107  32.4345141
  75.7845349  43.4225175  32.1593722  76.9139367  44.0455629  33.8190381
  77.9360027  44.3949676  33.9653140  75.9261422  45.1329626  34.2924187
  74.9426615  44.8921373  33.8888480  75.8439092  45.2237691  35.7945521
  76.8269849  45.4650397  36.1988433  75.1354327  46.0036727  36.0736794
  75.5097533  44.2683627  36.1990736  76.3422282  46.5025987  33.7901664
  76.2109487  46.5093227  32.7081215  75.6728947  47.2350429  34.2414066
  77.7777760  46.8553970  34.1269388  78.4477737  46.1236083  33.6756205
  78.0093627  47.8472528  33.7387520  77.9097202  46.8493262  35.2089063
  76.7346570  42.7266482  34.5407173  76.5803002  41.7002501  33.8924103
  76.8510044  42.7249315  35.8666910  77.5689874  43.2765085  36.3143098
  76.0642189  41.7900078  36.6991340  75.2392823  41.3801575  36.1163806
  76.9392231  40.6410092  37.1780107  76.8200631  40.4626773  38.2467005
  76.7307557  39.7213869  36.6312602  78.6882865  40.9891367  36.9215672
  79.1336603  39.8409684  37.4238121  75.2606597  42.4398158  37.8838230
  75.7720027  42.6074032  39.0157333  73.9715340  42.7065132  37.6029308
  73.6231629  42.4256081  36.6974866  73.0502638  43.3519220  38.5270038
  73.5315794  44.1949419  39.0227376  71.8580468  43.8646295  37.7498206
  71.5567016  43.0121861  37.1410263  71.0405386  44.1424092  38.4151166
  72.1948632  45.0348136  36.8482237  73.2743245  45.0858599  36.7058923
  71.5116558  44.8473108  35.4952908  70.4320658  44.7966367  35.6367704
  71.7533745  45.6887156  34.8458982  71.8612130  43.9225637  35.0362125
  71.8187474  46.3621186  37.5240604  72.3720202  46.4646848  38.4575853
  72.0679240  47.1911225  36.8616670  70.7490509  46.3736587  37.7331419
  72.5192935  42.4225117  39.5881413  72.4862270  41.2123543  39.3909698
  72.0646568  43.0201576  40.6955960  72.5323766  43.8569589  41.0135601
  70.9303670  42.5173287  41.4782808  70.4468450  41.7026026  40.9392752
  71.3940920  41.9960619  42.8374736  71.8778121  42.8287747  43.3480650
  70.4992316  41.7039939  43.3870382  72.3566072  40.8139656  42.7683437
  73.1497740  41.0956283  42.0757735  72.7760037  40.6810234  43.7656060
  71.7188530  39.5061656  42.3064069  70.4928093  39.2946793  42.5567256
  72.4848008  38.6970866  41.6919354  69.9164912  43.6245980  41.6974509
  70.2487683  44.7928622  41.6431489  68.6829461  43.2534679  42.0084538
  68.4132714  42.2812783  41.9613126  67.6657841  44.2412659  42.4019276
  67.7932889  45.1410696  41.8001012  66.2274437  43.7148267  42.2039286
  65.5322052  44.5511512  42.2767631  66.0796843  43.0442565  40.8281383
  66.7743302  42.2074903  40.7547294  65.0592502  42.6802505  40.7085010
  66.3005812  43.7689962  40.0445201  65.9151421  42.7599753  43.2155612
  65.0202406  42.4375629  43.0859392  67.8773537  44.5940843  43.8474322
  68.2690490  43.7564915  44.6335303  67.6054586  45.8345809  44.1642197
  67.1735987  46.4617910  43.5007412  67.7865658  46.2847125  45.4922629
  68.8335131  46.1870957  45.7794414  67.3889181  47.7338266  45.6066943
  67.7767022  48.2680960  44.7393541  66.3053568  47.8451364  45.6467584
  67.9342737  48.4247828  46.8130511  68.5403965  47.7295683  47.8206289
  68.6347418  46.6466417  47.7401996  69.0254409  48.3771231  48.9199862
  69.5226527  47.8129061  49.7089985  68.8879401  49.7319769  49.0316722
  69.2712958  50.2505126  49.9104549  68.2694238  50.4355694  48.0405324
  68.1505360  51.5158691  48.1237103  67.7979347  49.7795853  46.9396919
  67.3034220  50.3363447  46.1437170  66.7329288  45.4191110  46.0701107
  66.0096332  44.7990752  45.3156042  66.6823834  45.2977745  47.3839644
  67.3254143  45.8049638  47.9750395  65.6914368  44.4492150  48.0158445
  65.6179252  44.6091294  49.0915408  64.3086767  44.6437223  47.3980099
  63.9634196  45.6593807  47.5912318  64.3642812  44.4779324  46.3221279
  63.3315522  43.6489297  48.0154560  63.6759244  42.6329698  47.8222357
  63.2750600  43.8144185  49.0913389  61.9505587  43.8431865  47.3984097
  61.6053014  44.8588452  47.5916294  62.0061640  43.6773947  46.3225284
  60.9734341  42.8483946  48.0158581  61.3178060  41.8324345  47.8226391
  60.9169411  43.0138867  49.0917392  59.6422479  43.0356446  47.4210642
  59.6942902  42.8819187  46.4241892  58.9951024  42.3768000  47.8299976
  59.3227785  43.9768626  47.6003602  66.1404157  43.0459735  47.7909286
  66.3560776  42.3115442  48.7362924  66.3122363  42.6640116  46.5373423
  66.1389701  43.2795615  45.7555644  66.7827673  41.3219648  46.2634191
  66.0980231  40.5986490  46.7061818  66.8601798  41.0654127  44.7719241
  65.9588549  41.4663745  44.3083054  67.7322236  41.5936402  44.3864174
  66.9791587  39.6038780  44.4520143  67.2539110  38.8159503  45.3744162
  66.7934690  39.2374706  43.2791461  68.1599238  41.2599796  46.8778641
  68.5404568  40.2845779  47.4989921  68.8898943  42.3471806  46.6948968
  68.4774154  43.1042623  46.1687904  70.2222970  42.5306651  47.2326166
  70.2985095  42.0008337  48.1821267  71.2863325  42.0050170  46.3002714
  70.8790804  41.7712947  45.3165952  72.0785535  42.7466680  46.1980972
  71.9241561  40.7723136  46.7963496  72.5343319  40.7663358  48.0238327
  72.5512243  41.6822500  48.6145236  73.1193663  39.6253257  48.5108190
  73.6035774  39.6314390  49.4873449  73.0938125  38.4720560  47.7636717
  73.5584635  37.5621011  48.1433840  72.4794411  38.4685851  46.5333393
  72.4560438  37.5580011  45.9346829  71.8935478  39.6184534  46.0589544
  71.3987928  39.6173534  45.0877098  70.3605221  44.0115612  47.3612301
  69.6088093  44.7274190  46.7140165  71.3219627  44.4784295  48.2386052
  72.2690217  43.9812547  49.3143939  73.2856696  43.9312911  48.9244824
  71.9622847  42.9925098  49.6555610  72.1102893  45.0292002  50.3789422
  73.1021123  45.3642695  50.6824465  71.6024893  44.5792944  51.2320690
  71.3072588  46.1493886  49.8120612  71.7717971  47.1008691  50.0708816
  70.2638316  46.1574655  50.1271706  71.3935785  45.9245470  48.3195149
  70.5706390  46.3205146  47.7244700  72.6960597  46.5069427  47.8262137
  72.7012350  47.3640462  46.9627458  73.8036670  46.0209710  48.3476715
  73.7681081  45.2969318  49.0509511  75.0970285  46.5782086  47.9989590
  75.0978129  47.6521027  48.1856408  76.1958839  45.9400969  48.8311093
  77.0808701  45.8872561  48.1969907  76.3883540  46.6122046  49.6673668
  75.8707887  44.5607015  49.3580888  75.0332201  44.1580010  48.7885170
  76.7388620  43.9133633  49.2335730  75.4937773  44.5852079  50.8164272
  75.5773709  45.6171784  51.4679769  75.0842908  43.4465145  51.3387520
  74.8192932  43.4075298  52.3125887  75.0373902  42.6181833  50.7627579
  75.4413302  46.4753197  46.5388137  76.2539310  47.2207113  46.0276901
  74.8341581  45.5251502  45.8752581  74.1694090  44.9280522  46.3460892
  75.1051279  45.2799368  44.4823078  76.0261405  45.7803913  44.1833426
  75.2634031  43.8130750  44.2538115  74.3039623  43.4249359  43.9118749
  76.0094429  43.6776733  43.4707463  75.6980371  43.0613163  45.5034727
  76.4294075  43.6749733  46.0294224  74.8209311  42.9208136  46.1351737
  76.4251172  41.4592611  45.1373801  76.0465411  41.2317481  43.3769574
  76.4989355  42.0385184  42.8002772  76.4467860  40.2757687  43.0393067
  74.9662194  41.2441287  43.2325521  74.0164663  45.7969349  43.5780700
  74.1089411  45.6798478  42.3526195  73.0071165  46.4166840  44.1746914
  72.9334087  46.4095295  45.1819725  71.9767705  47.1241925  43.4070666
  72.2595487  47.0297759  42.3586291  71.0445518  46.5868490  43.5812211
  71.7672514  48.6037577  43.7348740  70.7912295  49.2017101  43.2961904
  72.5660400  49.1511910  44.6379324  73.1505766  48.5917911  45.2424885
  72.5911699  50.5793025  44.7968155  71.6544149  50.9814948  44.4110298
  72.7583243  51.0369927  46.2631815  72.3589715  52.0500290  46.3119056
  72.1350211  50.3721390  46.8611470  74.1961755  51.0254202  46.8141070
  74.8577417  50.6669597  46.0254772  74.4659698  52.0482666  47.0769726
  74.3386896  50.1254128  48.0495092  73.8142528  49.1954962  47.8296909
  75.4019933  49.9212916  48.1752840  73.8170855  50.6724666  49.2969988
  73.3693083  51.5771808  49.2640249  73.8921890  50.0416802  50.4702890
  73.3993103  50.6187439  51.5717504  72.9712309  51.5315527  51.5115170
  73.4574763  50.1390341  52.4586522  74.4516953  48.8275735  50.5507790
  74.8184534  48.3877542  49.7188250  74.5043372  48.3573069  51.4430665
  73.7281188  50.9781735  43.9590702  74.5765061  50.1787900  43.6525739
  73.6141655  52.1494084  43.4106512  72.8585084  52.7708773  43.6613666
  74.5602860  52.5954936  42.4706055  75.5739081  52.3740110  42.8046936
  74.3131248  51.8738075  41.1706337  75.1946367  51.9259071  40.5316333
  74.0702539  50.8299592  41.3693661  73.1878396  52.4282562  40.3856528
  73.3498804  53.5327739  39.6124203  74.3094354  54.0488463  39.5804305
  72.2977599  53.9972810  38.8698596  72.4604983  54.8576179  38.2206776
  71.0491934  53.4009348  38.9292317  70.2143336  53.7881118  38.3451058
  70.8748522  52.3279295  39.7231200  69.8953485  51.8592772  39.8181865
  71.9576058  51.8194107  40.4240324  71.8433197  50.9161044  41.0232622
  74.4077206  54.0619560  42.2350616  73.3099368  54.6039878  42.3559010
  75.4372120  54.6614364  41.6915436  76.2336227  54.1408571  41.3526831
  75.4479328  56.0656149  41.5533669  74.4948849  56.5120217  41.8371269
  76.5340995  56.6492256  42.4278059  76.1124884  56.8609535  43.4104124
  77.7105775  55.6796830  42.5755512  78.1330308  55.4678300  41.5933337
  78.4747169  56.1287968  43.2099697  77.3624181  54.7514617  43.0286415
  76.9749182  57.8722997  41.8767901  77.6647453  58.2431917  42.4319279
  75.7300037  56.3161054  40.1213346  76.7764317  55.9632837  39.6518706
  74.8135020  56.9331175  39.4015940  73.8429776  56.9739444  39.6782074
  75.2151870  57.6226069  38.1724766  75.6354653  56.8924562  37.4808514
  74.0589443  58.3157867  37.4973650  73.3177569  58.4872295  38.2779724
  74.3999666  59.2735088  37.1042085  73.4347059  57.5022159  36.3768231
  74.1605844  57.3658506  35.5751962  73.0249370  56.1726060  36.9062047
  72.2986652  56.3081477  37.7076137  72.5761959  55.5847339  36.1054934
  73.8994841  55.6499882  37.2936817  72.2358944  58.1871546  35.7478525
  72.5423722  59.1463480  35.3305771  71.8326406  57.5583785  34.9540464
  71.4701848  58.3495175  36.5064209  76.2055586  58.6688551  38.5248794
  76.1489048  59.1735961  39.6302535  77.0839585  59.0187864  37.5798012
  76.9665037  58.6487171  36.6474105  78.2317302  59.9117882  37.8394102
  77.9340195  60.7189190  38.5087436  79.3603045  59.1290319  38.4936286
  78.9146274  58.2563696  38.9710505  80.0321027  58.8043941  37.6990234
  80.1375310  59.9199077  39.5171522  81.2005518  59.8161406  39.2996205
  79.8508830  60.9682702  39.4342611  79.8620283  59.4338792  40.9144323
  80.2799631  60.1508117  41.6211411  78.7829053  59.3725324  41.0552497
  80.4501886  58.1070880  41.1832177  79.9357561  57.3058558  40.8463415
  81.5947652  57.8980359  41.8536077  82.3338905  58.9304079  42.2850596
  82.0285780  59.8761912  42.1051197  83.1925262  58.7574776  42.7879904
  82.0229106  56.6472936  42.0798514  81.4818400  55.8631608  41.7444732
  82.8844434  56.4952534  42.5845727  78.6778371  60.4892510  36.4973292
  78.6735797  59.7956293  35.5089119  78.8526323  61.7938298  36.4067811
  78.7257991  62.3942574  37.2089653  79.1871346  62.4190542  35.1089069
  79.7424628  61.7059423  34.4996605  77.9083843  62.8482295  34.3311381
  77.2322162  62.0031509  34.2017624  77.4380966  63.5944455  34.9715218
  78.2221762  63.4812422  32.9386097  78.6040326  62.7581561  31.9766673
  78.0119510  64.6980429  32.7872643  80.0849693  63.6069347  35.3890101
  79.8848303  64.3111520  36.3996942  81.1023729  63.8106847  34.5453715
  81.1412936  63.3367448  33.6543241  82.1596646  64.7722590  34.8673436
  82.9886227  64.6573913  34.1689648  81.6264286  66.2137537  34.7655326
  80.7841398  66.2667487  35.4553445  82.4319646  66.8530995  35.1267094
  81.1830188  66.6862301  33.3852026  82.0936013  66.9488615  32.8467185
  80.6819484  65.8654721  32.8719932  80.2446610  67.9100882  33.4357485
  80.2465597  68.6856887  32.4641301  79.5306480  68.1229310  34.4512988
  82.5984379  64.5451177  36.3327278  82.7342067  65.5083964  37.0903207
  82.6154663  63.2914666  36.7900307  82.2266684  62.5387874  36.2401130
  83.1963749  62.9689154  38.0989428  83.3086700  61.8854557  38.1389938
  84.1800123  63.4371891  38.1346726  82.3823322  63.4293883  39.3071336
  82.5310714  62.8595022  40.4034308  81.4334266  64.3519086  39.0813007
  81.4463301  64.8893088  38.2262370  80.3350974  64.5878493  40.0400571
  80.7587416  64.8622236  41.0061541  79.4134744  65.6977018  39.5834574
  79.3213856  65.6145792  38.5005402  78.4421247  65.5197996  40.0449015
  79.8898583  67.0692772  39.9388562  79.0618287  67.6417982  40.3568127
  80.6880805  66.9939213  40.6772767  80.4141523  67.7706443  38.6961761
  81.5031520  67.7259985  38.7097952  80.0402933  67.2419050  37.8193844
  79.9659390  69.2278431  38.6403055  80.5477560  69.7285942  37.8664593
  78.9105147  69.2442488  38.3684425  80.1559843  69.9374354  39.9448063
  81.1339608  69.9227216  40.1966897  79.8455912  70.8944292  39.8558175
  79.6166046  69.4738400  40.6619171  79.4609786  63.3914538  40.2091733
  79.2286277  62.6334297  39.2760342  78.7911265  63.3750074  41.3402669
  79.1100349  63.9267847  42.1238092  77.6228178  62.5123287  41.5283662
  77.7015786  61.6452290  40.8725964  77.5282476  62.0192589  42.9896686
  77.2606010  62.8664420  43.6211322  76.5031520  60.9373168  43.1450946
  76.7703887  60.0895518  42.5142391  76.4667917  60.6174189  44.1864603
  75.5255783  61.3168749  42.8477972  78.8157807  61.4965971  43.3885638
  78.7682706  61.1870776  44.2960552  76.3487053  63.2232311  41.1235242
  75.9787515  64.2393096  41.6887530  75.6654522  62.6251861  40.1778162
  75.9249758  61.6923294  39.8905442  74.5983667  63.2670795  39.4958703
  74.4124302  64.2832889  39.8434986  74.9262174  63.2917358  38.0262067
  75.9940806  63.4720817  37.9027406  74.5562486  61.9571297  37.3760723
  73.4883746  61.7762991  37.4987343  74.7989941  61.9901268  36.3139581
  75.1174181  61.1527762  37.8516807  74.2256150  64.4626619  37.3539826
  73.1509966  64.3324689  37.4818337  74.5421355  65.3782541  37.8535876
  74.5511519  64.5555674  35.8744353  74.2344776  63.6404583  35.3740429
  74.0274806  65.4068159  35.4394138  75.6256175  64.6862413  35.7457969
  73.2086242  62.5865253  39.7286100  72.1653671  63.1559393  39.3547646
  73.2095767  61.3806636  40.3364411  74.1070880  60.9490612  40.5046433
  71.9838638  60.6525886  40.7681130  71.3280973  61.3161807  41.3317753
  71.2282380  60.1343672  39.5642397  71.8689144  59.4611605  38.9946551
  70.3403423  59.5961390  39.8959806  70.9302736  60.9719042  38.9334877
  72.3501249  59.4590807  41.6656991  73.4620296  58.9502372  41.6316073
  71.3864742  58.9559444  42.4171398  70.5769354  59.5016823  42.6758219
  71.5526705  57.6318261  43.0200872  72.2134434  57.0594301  42.3690563
  72.1396596  57.6754953  44.4290821  71.6223665  56.9625774  45.0711540
  73.6049974  57.3094568  44.3478975  74.1230783  58.0222486  43.7063207
  74.0422937  57.3351806  45.3460011  73.7071051  56.3067846  43.9327811
  72.0111190  59.0558162  45.0348482  72.8122449  59.1741107  45.7644402
  72.1398602  59.7833709  44.2334810  70.7001989  59.2774610  45.6988001
  70.5709362  58.5505222  46.5006423  70.6682233  60.2848787  46.1137535
  69.8985510  59.1597800  44.9696830  70.3046447  56.7942860  43.0123237
  69.1878749  57.3079810  43.1382184  70.5083989  55.4929616  42.8364964
  71.3729936  55.0787354  43.1542887  69.5171074  54.6250324  42.1924303
  68.5235958  55.0378400  42.3674268  69.7162699  54.6005395  41.1210603
  69.5664859  53.2066706  42.7373280  70.6582560  52.6351140  42.8345095
  68.4158276  52.6929513  43.2145240  67.6197618  53.3011424  43.3429068
  68.2674355  51.2748724  43.5495748  69.2278765  50.8775270  43.8778564
  67.2339687  51.0715358  44.6843350  66.2968211  51.4677385  44.2933400
  67.1490422  49.9915666  44.8049752  67.5381806  51.7260780  46.0661047
  68.1889988  51.0264817  46.5906059  68.0895488  52.6406638  45.8478660
  66.2983552  52.0653629  46.9694733  66.5426955  51.7298608  47.9773597
  66.1928806  53.1502327  46.9637983  64.9519125  51.4077808  46.5126628
  64.7997313  51.7656708  45.4944014  65.1580076  50.3376035  46.4941008
  63.7143577  51.6648669  47.3234290  63.5229657  52.6564217  47.3403965
  62.9327792  51.1781598  46.9082768  63.8550087  51.3329236  48.2668960
  67.7846337  50.6385700  42.2435937  67.1094411  51.3077380  41.4384855
  68.2269267  49.4036511  41.9711617  68.9235188  48.9580718  42.5510910
  67.7803248  48.7095427  40.7730373  67.3559511  49.3958183  40.0402125
  68.8468430  47.8315149  40.0699178  69.0407727  48.2763934  39.0939190
  70.1485137  47.7157643  40.8400938  69.9554443  47.2705112  41.8160932
  70.8446787  47.0865277  40.2855525  70.5821066  48.7069616  40.9728597
  68.2961153  46.4565691  39.7277718  67.4413075  46.5628878  39.0598631
  69.0696917  45.8668273  39.2359549  67.9818889  45.9527024  40.6418182
  66.5861267  47.8924009  41.1413063  66.4805462  47.3449550  42.2540933
  65.6487385  47.8593433  40.2169441  65.8359261  48.2242963  39.2939764
  64.3258242  47.3356083  40.4935096  64.1985806  47.1693292  41.5632103
  63.2801260  48.3421599  40.0294102  63.4964417  48.4911746  38.9715343
  62.2764816  47.9316405  40.1401889  63.3652757  49.6741268  40.7560246
  64.4077014  49.9881557  40.8092724  62.5559369  50.7266224  40.0105297
  61.5132420  50.4134924  39.9572778  62.6225474  51.6780285  40.5382514
  62.9518354  50.8428418  39.0016403  62.8994050  49.5066388  42.2041576
  63.5356840  48.7799693  42.7093309  62.9627265  50.4648283  42.7198750
  61.8675286  49.1556593  42.2161292  64.1189267  46.0103002  39.7942294
  63.9844845  44.9951881  40.4437245  64.0677542  46.0490692  38.4582379
  64.1365421  46.9441844  37.9954891  63.8958146  44.8502603  37.6312319
  63.6648691  44.0001504  38.2731638  62.7479245  45.0249267  36.6108610
  62.1303216  45.8518406  36.9614024  63.2041185  45.2915472  35.6574982
  61.8716644  43.7720097  36.4276226  62.5328171  42.9060574  36.3943888
  61.2163172  43.6950415  37.2952043  61.0223426  43.8174629  35.1465681
  60.7801921  44.8599889  34.9401664  61.6228296  43.4159921  34.3302741
  59.7289291  43.0091178  35.2734249  59.2601477  42.9427485  34.2916206
  59.9754320  42.0076837  35.6262212  58.7877296  43.6541631  36.2298039
  58.5588500  44.5819662  35.9028553  57.9441174  43.1027180  36.2955821
  59.2217600  43.7153717  37.1397326  65.1954712  44.5894573  36.9034932
  66.2351342  45.1636823  37.2282474  65.1478265  43.6816249  35.9491393
  64.3328845  43.0916325  35.8603816  66.2381928  43.4842033  35.0270417
  66.8313067  44.3951740  34.9467448  67.1579625  42.3346681  35.5351375
  66.5447572  41.4685791  35.2862031  68.0411004  42.3495842  34.8964317
  67.5999549  42.2470524  37.0339167  67.5229533  43.2525702  37.4475657
  66.7613114  41.2714431  37.8919806  66.8381978  40.2655647  37.4791903
  67.1357768  41.2731391  38.9156376  65.7179961  41.5869846  37.8867839
  69.0761356  41.8702438  37.1002327  69.6685607  42.6284894  36.5881825
  69.3892590  41.8078383  38.1424230  69.2272244  40.9046876  36.6175605
  65.5743284  43.1437495  33.6818442  64.7325573  42.2731427  33.6084395
  65.8661805  43.8965816  32.6423538  66.6170052  44.5710060  32.6812568
  65.0214194  43.8718028  31.4569271  64.1244948  43.2677016  31.5936284
  64.5981448  45.3104240  31.1223560  65.5012667  45.9030836  30.9766692
  63.7354970  45.3830926  29.8682412  62.8319058  44.7910059  30.0133520
  63.4623455  46.4203011  29.6741092  64.2943326  44.9900205  29.0189481
  63.8504400  45.8840913  32.3137457  64.5022142  45.8826505  33.1874106
  63.5426235  46.9060306  32.0924117  62.9692065  45.2758082  32.5175102
  65.7475256  43.1299615  30.3166555  67.0004830  43.1730228  30.2507647
  64.9729943  42.4032339  29.4474069  64.4187781  42.9583870  28.1905130
  64.8245532  43.9572953  28.0304223  63.3334100  43.0165006  28.2723536
  64.8713210  41.9606340  27.1189600  65.4631030  42.4927024  26.3741135
  63.9881330  41.5340312  26.6434704  65.6818535  40.8921301  27.8045274
  66.7531807  41.0843884  27.7462709  65.4683867  39.9023670  27.4009180
  65.2144383  40.9741409  29.2688153  64.2558221  40.4741491  29.4072402
  66.2412238  40.3736677  30.2194995  65.8565836  39.8407338  31.2567215
  67.4436174  40.4891280  29.9928690  47.4479739  40.1538210  66.5677826
  48.2256783  39.5104678  66.5307218  46.9833183  40.1533936  65.6710132
  46.9198761  39.9765110  67.4102631  47.9948771  41.5339677  66.7280954
  47.6828074  42.1583898  65.8909522  47.4684333  42.1647150  68.0382346
  47.5121214  41.4342169  68.8460484  48.1111001  43.0113808  68.2795565
  46.0079219  42.6723115  67.9071575  45.7509068  43.7363079  67.3322385
  45.0528529  41.8952298  68.4155317  44.0865290  42.1826694  68.3547338
  45.2994171  41.0221643  68.8594499  49.5296878  41.5712310  66.6085942
  50.1543844  40.5614333  66.2100257  50.0930388  42.7770149  66.7511834
  49.5234336  43.5309921  67.1077892  51.4746254  43.0824959  66.3296912
  52.0371886  42.1554237  66.2194231  51.4845652  43.8365990  64.9651272
  52.2574375  43.3347924  64.3829265  50.5398765  43.7990537  64.4226758
  51.8844117  45.3090011  65.0451700  51.2237379  46.1892136  65.8959091
  50.4216898  45.8139493  66.5315156  51.5756755  47.5335679  65.9415208
  51.0902020  48.1952217  66.6588982  52.5373973  48.0322923  65.0815545
  52.7911820  49.0921993  65.0985995  53.1776784  47.1819572  64.1982656
  53.9467190  47.5664893  63.5283314  52.8385110  45.8345267  64.1661617
  53.3179021  45.1688063  63.4484567  52.1954597  43.8802752  67.4337148
  51.5398936  44.3892206  68.3523930  53.5318398  43.9167082  67.3743600
  54.0134941  43.5158261  66.5822729  54.3357745  44.4377669  68.4871609
  53.8692285  44.1479695  69.4286764  55.7598285  43.9003012  68.4642293
  55.6857905  42.8187985  68.3503459  56.2906410  44.3196279  67.6095345
  56.5210415  44.2250086  69.7435685  55.9158809  44.1550972  70.8440435
  57.7135260  44.5797292  69.6474697  54.3478368  45.9740977  68.5264664
  55.0153898  46.6438521  67.7209652  53.6205286  46.5166020  69.4995126
  53.1581036  45.9209879  70.1714548  53.3781399  47.9810348  69.5717782
  53.1276637  48.3839953  68.5904609  52.2319638  48.3447400  70.5679232
  51.5461811  49.0217508  70.0585524  51.4579667  47.1012258  71.0582239
  52.1430493  46.4239173  71.5681403  50.6726111  47.4101070  71.7480848
  51.0112669  46.5908755  70.2049347  52.7654488  49.0562068  71.6921557
  52.0544299  49.2755270  72.2987455  54.6125261  48.8389498  69.9216306
  54.5691370  50.0596019  69.8256104  55.7040908  48.1937897  70.3347939
  55.6687805  47.1945756  70.4777054  56.9632094  48.8986685  70.6355931
  56.7476372  49.8867253  71.0422522  57.7790784  48.1112076  71.6679521
  58.8149489  48.4475571  71.6239009  57.3740834  48.3126092  72.6596761
  57.7233376  46.7177000  71.4088565  58.2408040  46.2488013  72.0676148
  57.8257651  49.1263475  69.3815273  58.7265021  49.9580911  69.3948514
  57.4901398  48.4112296  68.3111204  56.7278980  47.7516341  68.3745281
  58.2724613  48.4541326  67.0684710  59.3055828  48.3003566  67.3800990
  57.8663224  47.3027953  66.1161887  57.9494855  46.3506775  66.6402640
  56.8369609  47.4477734  65.7883225  58.7899388  47.2970859  64.9027124
  58.7069738  48.2487767  64.3778294  60.2301305  47.0936138  65.3610507
  60.3139865  46.1418455  65.8856497  60.8907393  47.0894551  64.4940562
  60.5165126  47.9039018  66.0315126  58.3899225  46.1631081  63.9647858
  57.3605618  46.3080883  63.6369190  59.0498018  46.1585780  63.0972375
  58.4730834  45.2109900  64.4888606  58.2116397  49.8237349  66.3360618
  59.2410344  50.3379250  65.8691568  57.0105148  50.4114975  66.2254313
  55.6844477  49.8859398  66.5772612  55.4536690  50.1376747  67.6123801
  55.6762039  48.8026458  66.4568241  54.7785841  50.5773327  65.6001098
  53.7869535  50.6906484  66.0382050  54.7065286  49.9860824  64.6872393
  55.4071875  51.8989380  65.3288626  55.1000766  52.5976239  66.1070785
  55.1565921  52.3113637  64.3515159  56.9147234  51.6490934  65.4193238
  57.3803451  51.4594225  64.4522045  57.6051055  52.8362231  66.0926748
  58.1376486  53.6875079  65.4002579  57.6112342  52.8770870  67.4267548
  57.1556837  52.1392309  67.9445787  58.2072806  53.9801560  68.1734787
  57.9584470  54.9375062  67.7155903  57.6890482  53.9797030  69.6305318
  56.5998433  54.0152156  69.6088091  58.1453678  52.7253571  70.3929949
  59.2345410  52.6893964  70.4155390  57.7623115  52.7600521  71.4128789
  57.7632817  51.8359191  69.8919852  58.1656649  55.1401082  70.3110355
  57.8421333  55.1364935  71.2148687  59.7567528  53.9604997  68.1972786
  60.4009806  54.9731716  68.5098551  60.3320048  52.8050606  67.8778796
  59.7488667  51.9902290  67.7509989  61.7874000  52.6353457  67.8137880
  62.2742346  53.4035281  68.4146099  62.1964510  51.2559097  68.3548846
  63.2071930  51.0371328  68.0104480  62.1851209  51.2964049  69.4440732
  61.3191767  50.2419342  67.9128298  61.6027230  49.3962892  68.2679155
  62.3655783  52.8685348  66.4091792  63.5673129  52.6940864  66.1990776
  61.5046341  53.2229359  65.4519228  60.5205173  53.1178008  65.6533180
  61.8980299  53.6543495  64.1014662  61.0411655  53.5896772  63.4308694
  62.3883387  55.0768595  64.1193450  63.2229258  55.1331849  64.8181947
  62.7116526  55.4271721  63.1391158  61.3690740  56.0389068  64.5981504
  60.6305936  56.8188484  63.7406984  60.7210179  56.8141893  62.7347653
  59.7965998  57.5632479  64.4406761  59.1327467  58.2694053  63.9419380
  59.9505247  57.2743349  65.7196156  60.9193297  56.3126651  65.8434666
  61.1812163  55.9265756  66.8285816  62.9162604  52.7731378  63.4315756
  63.9252512  53.2475608  62.8868807  62.6221431  51.4770574  63.4323907
  61.7515321  51.1557405  63.8310025  63.5671537  50.4814822  62.9435245
  64.5311580  50.6366748  63.4279933  63.1007972  49.0336049  63.2233331
  63.1758632  48.4555552  62.3022881  63.9662100  48.3835625  64.3050736
  63.8912845  48.9608331  65.2266182  63.6199049  47.3658700  64.4852786
  65.0047553  48.3603004  63.9749476  61.7386555  49.0351533  63.6593465
  61.4565706  48.1337126  63.8309075  63.8466014  50.6539579  61.4427550
  64.8907653  50.2162300  60.9584647  62.9250096  51.3077404  60.7331649
  62.0907175  51.6026331  61.2200882  63.0357656  51.6041956  59.3026960
  63.2185427  50.6911199  58.7361409  61.7223419  52.2259726  58.8185551
  61.7913269  52.2862307  57.7324109  60.9086225  51.5549816  59.0937493
  61.4510191  53.6122804  59.3872885  60.8129462  53.7798060  60.6181838
  60.5041048  52.8955551  61.1756933  60.5723939  55.0339970  61.1294426
  60.0907477  55.1535756  62.0999166  60.9345543  56.1470552  60.3964615
  60.6944368  57.4076859  60.8811620  60.2688571  57.4039431  61.7416663
  61.5532076  56.0144722  59.1751520  61.8356861  56.8963670  58.6002015
  61.8155652  54.7552663  58.6793003  62.3163241  54.6415675  57.7178362
  64.1835534  52.5701386  58.9469680  64.4041823  52.8728674  57.7662961
  64.8734041  53.0753381  59.9655334  64.6601907  52.7684267  60.9038536
  65.9009275  54.0615222  59.7892624  65.7336575  54.6371808  58.8789123
  65.8651026  55.0047515  60.9709527  65.3339334  54.4581897  61.7502016
  66.8958947  55.1719697  61.2833720  65.1877238  56.3348736  60.7382639
  64.1176883  56.1887364  60.5907210  65.4171725  57.2143885  61.9698080
  66.4870389  57.3613647  62.1177358  64.9352511  58.1807764  61.8216626
  64.9928541  56.7282304  62.8482752  65.7221762  57.0312683  59.4858841
  65.5454105  56.3999631  58.6150759  65.2101931  57.9843273  59.3530193
  66.7923704  57.2065393  59.5957182  67.2726851  53.4195551  59.6820366
  68.2485690  54.0534554  59.3496903  67.3520507  52.1632597  60.0464897
  66.5270905  51.6235135  60.2660666  68.6389724  51.5162039  60.1428296
  68.6932894  50.7694444  59.3506811  69.4035345  52.2755409  59.9786607
  68.8909768  50.8458236  61.4656002  68.3200923  51.1654702  62.4932003
  69.7796116  49.8647623  61.4429530  70.4910513  49.8200103  60.7274461
  69.7186895  48.7979255  62.4164857  68.6827979  48.4697985  62.5022793
  70.5660090  47.6204602  61.9228825  71.6076016  47.9309763  61.8406348
  70.4883642  46.7946324  62.6300458  70.2056497  47.2970058  60.9463490
  70.1873743  49.2237699  63.8038184  69.5191180  49.0058550  64.8222268
  71.3732099  49.8182138  63.8318948  71.9550571  49.8057766  63.0064261
  71.8906654  50.4521929  65.0275186  71.0963744  50.5056162  65.7720634
  73.0415276  49.5844301  65.5931870  72.6715644  48.5806102  65.8019263
  73.8484488  49.5290538  64.8624944  73.5654397  50.2118687  66.8829800
  73.0219481  49.8512744  67.9610292  74.5041428  51.0457698  66.7778835
  72.3973280  51.8972089  64.7736566  73.0586533  52.1792690  63.7784074
  72.0330102  52.7990712  65.6788146  71.3615659  52.5580250  66.3937683
  72.6252692  54.0936738  65.7176899  73.2927417  54.2249549  64.8660181
  71.5441318  55.1624795  65.6573632  71.3198043  55.4524588  66.6838565
  71.9630670  56.0150341  65.1228130  70.2693431  54.7115459  64.9695482
  70.5357517  53.9516777  64.2348866  69.6179408  54.2728314  65.7253966
  69.3956152  56.0568750  64.1416604  68.1458315  55.0211283  63.3786823
  67.5850739  54.4974010  64.1528654  67.4657828  55.6415934  62.7950235
  68.6260292  54.2940401  62.7238127  73.3131721  54.2139626  67.0539123
  72.9045935  53.5728734  68.0056276  74.3423945  55.0454419  67.1386327
  74.7292475  55.4482394  66.2970875  74.9698270  55.3886566  68.4325067
  75.3135446  54.4855880  68.9369118  76.1807400  56.3383436  68.2363812
  76.9347084  55.8447197  67.6232202  75.8506502  57.2511987  67.7405625
  76.7733029  56.6828149  69.5818584  76.0200060  57.1769198  70.1954583
  77.1040661  55.7704421  70.0781153  77.9652090  57.6175985  69.3888119
  77.7321190  58.8558510  69.3898930  79.0974112  57.0844985  69.2421055
  73.9294171  56.0575503  69.3323476  73.2275868  56.9586630  68.9323149
  73.8367764  55.5954848  70.5770882  74.4369194  54.8395953  70.8746766
  72.7963550  56.0632677  71.5012486  72.1091611  56.7225575  70.9709650
  71.9974404  54.8841964  72.0805674  72.6205206  54.4250198  72.8480484
  71.1030066  55.3028353  72.5419020  71.5886828  53.8152031  71.0415753
  70.6478834  53.3748996  71.3719240  71.4310499  54.3455945  70.1024608
  72.6392271  52.6924048  70.8311385  73.4206324  52.4126781  71.7765081
  72.6834883  52.0684629  69.7283242  73.4112511  56.9507318  72.5789712
  74.5857693  56.7877060  72.9870102  72.6167085  57.8971404  73.0584541
  71.6551606  57.9506947  72.7540582  73.0947979  58.8870500  74.0249211
  74.0973639  58.6230982  74.3615067  73.1441291  60.2688872  73.3849006
  72.1519263  60.3834276  72.9484221  73.3506054  61.1128652  74.0430562
  74.1091573  60.3565889  72.2697043  73.8690812  59.6614671  71.1147779
  72.9417174  59.1003209  70.9998372  74.7698123  59.6707371  70.1300858
  74.5643685  59.1519243  69.1937489  75.9740239  60.3454116  70.3016452
  76.7056798  60.3293492  69.4938571  76.2482193  61.0222649  71.4609465
  77.1778964  61.5752526  71.5951302  75.3307322  60.9922947  72.4526199
  75.5455279  61.4701582  73.4084489  72.1394318  58.8934567  75.2012751
  70.9683378  59.2447137  75.0533308  72.6632073  58.4831766  76.3686193
  73.5934431  58.0898029  76.3728415  71.9115125  58.4910609  77.6153493
  70.9057212  58.1136106  77.4309197  72.5889594  57.5927523  78.6638985
  72.6479599  56.5723372  78.2852545  73.5938839  57.9634546  78.8659046
  71.8799212  57.5192596  79.9950503  72.3650673  56.7504727  81.0465723
  73.2029079  56.1866236  81.0325344  71.5385306  56.8866894  82.0667112
  71.7357491  56.3623189  83.0017189  70.5649099  57.6925545  81.7221188
  70.7384861  58.1099172  80.4394343  70.0175912  58.7896958  79.9852174
  71.7453841  59.9572704  78.1000894  72.6481880  60.5463696  78.7346264
  70.5835442  60.5121892  77.7948517  70.0164813  60.1383959  77.0473107
  70.0883359  61.6735649  78.5235033  69.0141419  61.7163988  78.3435820
  70.2717211  61.4770002  79.5798326  70.7060812  63.0146676  78.1548039
  70.5543707  63.5019044  77.0277616  71.5253904  63.5732701  79.0464101
  72.5029691  63.5895797  78.7930855  71.1197738  64.1891349  80.3473127
  70.2013213  63.7547851  80.7421347  72.2574478  63.8801654  81.3107776
  72.1330188  64.5196851  82.1846375  72.1632705  62.8359879  81.6089788
  73.6584484  64.1162292  80.6939565  74.2806967  64.5017461  81.5015979
  74.0227691  63.1341791  80.3923772  73.7232168  65.0879827  79.4808130
  73.3811882  64.5795299  78.5793746  73.0933801  65.9576883  79.6679422
  75.0857985  65.5374803  79.2719919  75.5906301  65.1558354  78.4848505
  75.7012977  66.4223330  80.0524977  76.9859545  66.6930926  79.8513235
  77.4869146  66.2266699  79.1086332  77.4559694  67.3641599  80.4419624
  75.0350703  67.0448762  81.0351828  74.0572637  66.8416112  81.1857741
  75.5139643  67.7143399  81.6204841  70.8773443  65.6995810  80.5372931
  70.8661924  66.1801864  81.6711463  70.7960587  66.4420557  79.4568765
  70.6292938  66.0224327  78.5534357  71.0144648  67.8941650  79.5211213
  71.5341067  68.1520970  80.4439119  71.8593005  68.4208806  78.3048979
  72.8588140  68.6566217  78.6702731  71.9615935  67.3808188  77.1435898
  70.9624303  67.1449179  76.7773613  72.5561932  67.7994020  76.3315932
  72.4376253  66.4714697  77.5104392  71.2735724  69.6262286  77.7884300
  71.7940462  69.9424387  77.0463259  69.6761460  68.6313339  79.5890981
  68.9447816  68.6618690  78.5930480  69.3371748  69.1876488  80.7675336
  69.7516275  68.8418756  81.6212133  68.2695327  70.1927033  80.8685626
  67.9318697  70.4627919  79.8679952  67.0586993  69.6525485  81.6708402
  67.5536707  69.1177140  82.4814293  66.4530461  70.4587572  82.0847386
  66.1399462  68.6642655  80.8789663  66.0410297  69.0320020  79.8576504
  66.7193030  67.2392874  80.8566884  66.8180848  66.8706735  81.8777000
  66.0518010  66.5838301  80.2972981  67.6990958  67.2522935  80.3792605
  64.6654474  68.6412244  81.3468267  64.2321406  69.6349376  81.2333419
  64.1031601  67.9290908  80.7428400  64.6207259  68.3433892  82.3943921
  68.8116404  71.4943122  81.4206238  69.6617867  71.4884188  82.2800809
  68.3513782  72.6203133  80.8512749  67.5624662  72.5375661  80.2260788
  68.8174787  73.9547256  81.2018619  69.8435528  73.8795390  81.5618870
  68.7824389  74.9466764  80.0034284  67.8335756  75.3472907  79.6466849
  69.3553576  75.7416241  80.4808403  69.5538750  74.5317507  78.7922174
  70.8891307  74.1856819  78.8447783  71.4288982  74.0967596  79.6938033
  71.3374720  73.9925559  77.6131544  72.3569750  73.6471122  77.4417447
  70.3661946  74.2855798  76.7642927  69.2542084  74.6731181  77.4762827
  68.3611225  75.0112429  76.9507636  67.8023942  74.5616667  82.1607070
  66.5827878  74.4747564  81.9189390  68.2966360  75.1785970  83.2161150
  69.2936305  75.2781065  83.3433905  67.4107405  75.6047329  84.3045930
  66.6551765  74.8376936  84.4745135  68.1927739  75.8279030  85.6197469
  69.2208308  76.0386131  85.3251292  67.7818562  76.6901671  86.1448635
  68.1667067  74.5901221  86.5578221  67.1484533  74.3740380  87.2628671
  69.1848064  73.8698371  86.6098647  66.5619038  76.8436264  83.9119901
  66.9182555  77.6085567  82.9886954  65.4248780  76.9892531  84.5867132
  65.2667367  76.4799197  85.4444253  64.3185117  77.7455689  84.0194125
  64.2069200  77.5136120  82.9602419  63.0287834  77.3777703  84.7358650
  62.8566678  78.0394432  85.5847846  62.2415772  77.5241871  83.9962918
  63.0164219  75.9113229  85.2163193  64.1060875  75.3759598  85.5436804
  61.9169225  75.3235406  85.3292702  64.5918060  79.2692679  83.9714467
  65.3853738  79.8556417  84.7463905  63.9541978  79.8852053  82.9958659
  63.5017160  79.2789289  82.3266960  64.0198771  81.3415246  82.6968603
  63.3762601  81.5555905  81.8436124  63.5586155  82.2124162  83.8973092
  64.0533804  81.9016726  84.8174969  63.8824533  83.2191843  83.6334016
  61.9860433  82.2023548  84.1131178  61.2844332  81.4867784  83.3743189
  61.4684799  82.8484131  85.0775813  65.3599570  81.7963276  82.1140078
  65.5067164  82.9563520  81.7365398  66.2954248  80.8493575  81.9507603
  66.0913184  79.9060949  82.2485782  67.6221802  81.1355753  81.4282113
  68.0912408  81.9243916  82.0163016  68.5076293  79.8731470  81.5010023
  69.5175304  80.1533600  81.2015366  68.5181417  79.5293064  82.5352959
  68.0419780  78.8400102  80.6686946  68.6223122  78.0793665  80.7476444
  67.5892482  81.6777221  79.9817296  66.5561166  81.6254890  79.2858044
  68.7166585  82.2766930  79.5599927  69.4270067  82.5459134  80.2255940
  68.8817050  82.6825191  78.1740270  67.9781697  82.4184089  77.6245100
  69.1245577  84.1717180  78.0203160  69.8450176  84.5519717  78.7445010
  69.4467622  84.4382716  77.0137210  67.5928479  85.0814092  78.3130037
  68.1093885  86.2908541  78.1146923  69.9469742  81.8620947  77.5056391
  71.1164297  81.9038234  77.8735163  69.5141829  81.1054037  76.5048916
  68.5438863  81.1683054  76.2316388  70.3723758  80.1829618  75.7865757
  71.3852195  80.2183970  76.1878129  69.8380320  78.7680514  75.9406508
  68.9714160  78.6913123  75.2840024  70.6228739  78.1004256  75.5851242
  69.4430926  78.3773875  77.3400469  68.8441648  79.0923916  77.9040997
  68.8606072  77.4723448  77.1676796  70.6416736  78.0246338  78.1428280
  70.8022340  76.8846479  78.5761980  71.5772718  78.9325443  78.1902152
  72.4199890  78.7577780  78.7187849  71.4545181  79.8059658  77.6981096
  70.4153093  80.5525252  74.2963630  69.4745296  81.1250910  73.7415136
  71.4890578  80.1424234  73.6537327  72.3486600  79.9916692  74.1621190
  71.5376443  80.1386649  72.2083403  70.6075305  80.4478243  71.7314671
  72.6719075  81.0297510  71.6925888  73.2592600  81.3524149  72.5522424
  73.5818817  80.3132343  70.6938562  72.9952845  79.9906585  69.8336530
  74.3665087  80.9938254  70.3633162  74.0333320  79.4438131  71.1717694
  72.0703262  82.3224730  71.1185410  71.5185433  82.8452412  71.8997906
  72.8707187  82.9633734  70.7487867  71.3944974  82.0768357  70.2993837
  71.4858736  78.6971862  71.6992207  72.2692552  77.8366647  72.1102426
  70.4763694  78.4104383  70.9042321  69.7495374  79.0927574  70.7421976
  70.3484145  77.0894724  70.2666384  71.2148884  76.4748488  70.5106871
  69.1000138  76.4270027  70.7889647  68.2372079  76.8776208  70.2984449
  69.1122750  74.9374200  70.5195094  69.9746035  74.4859999  71.0101314
  68.1978523  74.4897175  70.9087322  69.1732117  74.7624582  69.4453705
  68.9998682  76.6395942  72.2894972  69.8551245  76.1451056  72.7500606
  69.0577988  77.7121588  72.4748311  67.7144818  76.0907768  72.8884406
  67.6560633  75.0181020  72.7038983  67.7059249  76.2751037  73.9627077
  66.8587371  76.5851540  72.4286668  70.2961759  77.1900758  68.7292682
  69.6360475  78.0505029  68.1925218  71.0635294  76.3366235  68.0191148
  71.8574512  75.2283532  68.5819968  71.4039289  74.8721818  69.5069614
  72.8767689  75.5589268  68.7815255  71.7912579  74.2187546  67.4856374
  70.8816447  73.6231666  67.5629540  72.6595091  73.5603947  67.5139852
  71.7940459  75.0516023  66.2460060  71.3902224  74.4693289  65.4177649
  72.7735267  75.4427998  65.9709035  70.8674938  76.1797964  66.5739452
  71.0890372  77.1423137  66.1128841  69.4729818  75.7442506  66.1844195
  68.8970345  74.9515045  66.8803421  68.9447974  76.2507296  65.0867555
  69.4612428  76.9460508  64.5672251  67.6770841  75.7582136  64.5239598
  67.2128988  74.9964577  65.1503456  66.6746295  76.9224541  64.3362824
  67.0958801  77.6466732  63.6390351  65.3498123  76.3972576  63.7859016
  64.9276968  75.6732768  64.4828745  64.6541910  77.2267544  63.6588328
  65.5209640  75.9164845  62.8227474  66.4409855  77.6935492  65.6335861
  67.3848882  78.1116082  65.9834096  65.7309435  78.5008595  65.4541704
  66.0401264  77.0193302  66.3904491  67.9061943  75.2473443  63.1653127
  68.2741184  76.0686202  62.3255659  67.6080449  73.9567547  62.9018636
  67.2657705  73.3249033  63.6115898  67.7669352  73.4349568  61.4975467
  68.7285602  73.7938223  61.1306790  67.7198500  71.9103053  61.3387675
  66.6990763  71.7795051  60.9795856  68.4186759  71.7109712  60.5263585
  67.9825458  70.9424481  62.4818184  67.3752321  71.2473570  63.3340516
  67.6379621  69.4999232  62.0998893  68.2452518  69.1941262  61.2479584
  67.8404061  68.8415937  62.9447085  66.5826312  69.4359132  61.8347860
  69.4271625  71.0044645  62.9345762  69.6587660  72.0137078  63.2749984
  69.5826136  70.3010297  63.7525711  70.0808279  70.7433341  62.1023314
  66.7091093  73.8966860  60.5581593  65.5506464  73.7608939  60.8496267
  67.1092388  74.2593897  59.3866848  68.3124304  73.6679079  58.8071321
  68.1365053  72.6192490  58.5674132  69.1432659  73.7453289  59.5084290
  68.5193592  74.5265851  57.5630988  68.6744521  73.8748269  56.7032985
  69.3992976  75.1536999  57.7064051  67.2548655  75.3851724  57.3959322
  66.8866379  75.2652682  56.3770454  67.4029757  76.4444563  57.6058861
  66.2553552  74.7959621  58.3796214  65.6091360  75.5402104  58.8450175
  65.3726649  73.6909765  57.6966831  65.7068623  72.4471534  57.6371667
  64.2152662  74.1028659  57.2706487  63.9443001  75.0750671  57.3093981
  63.3038610  73.1454740  56.5996083  62.6376985  73.7071921  55.9447805
  64.0429152  72.0839799  55.7580062  64.4424232  71.3931554  56.5004710
  63.2468638  71.5937540  55.1975771  65.1420350  72.4958443  54.8128451
  64.9026091  73.4471280  54.3376236  66.0603033  72.5999686  55.3908100
  65.3676536  71.4459057  53.7202921  66.4841682  70.9466262  53.5276655
  64.2866944  71.0811741  53.0181837  64.3735647  70.3924758  52.2845287
  63.3897421  71.4965369  53.2256725  62.5477844  72.2912181  57.5657512
  61.7029598  71.5101595  57.1065282  62.9034994  72.2548494  58.8443919
  63.6895481  72.7543576  59.2351839  62.1161612  71.4282305  59.7210479
  61.7147604  70.5920387  59.1485447  62.9075959  70.8680356  60.9247255
  63.0019416  71.6421301  61.6862869  62.1801018  69.6743401  61.5063365
  62.0857750  68.8995863  60.7454423  62.7422817  69.2834303  62.3544188
  61.1877694  69.9794265  61.8384516  64.2981005  70.4507206  60.4948451
  64.8287962  71.3135349  60.0923337  64.8422107  70.0585284  61.3540477
  64.2257533  69.6792435  59.7282358  61.0177454  72.3076421  60.1861261
  61.2836382  73.3534372  60.7322202  59.7907683  71.9540437  59.8877798
  59.6021904  71.1162799  59.3560942  58.6739088  72.7627205  60.3078425
  59.0254809  73.4902574  61.0394067  58.0084332  73.5248348  59.1307133
  58.5453017  73.2478239  58.2234447  56.9778863  73.1762412  59.0632182
  58.0224364  75.0449908  59.2864302  56.9753250  75.3444045  59.2415975
  58.4082710  75.2238068  60.2900529  58.9829331  76.0366069  58.0877586
  60.5184904  75.1317300  57.8359123  60.2959317  74.1394707  57.4434990
  61.1459612  75.6703742  57.1258113  61.0447435  75.0366263  58.7857092
  57.6849923  71.8572700  60.9235888  57.1344614  71.0244026  60.2688075
  57.5114953  71.9868474  62.2255207  57.9585011  72.7533088  62.7080369
  56.7043824  71.0863428  62.9860392  55.7124459  71.0332829  62.5373235
  57.3050194  69.6606447  63.0281712  56.6003673  69.0134917  62.5059091
  58.2404576  69.7033975  62.4702935  57.5724183  69.0975745  64.4346351
  58.5348113  69.4843458  64.7697600  56.7850622  69.4630263  65.0938903
  57.6052637  67.2862710  64.4928045  56.3361797  66.9892037  65.7065968
  55.3914112  67.4028927  65.3539314  56.2264542  65.9160966  65.8631286
  56.6128894  67.4665591  66.6466313  56.6928072  71.7130174  64.3626220
  57.6465062  72.4300859  64.7329932  55.5901216  71.5887402  65.0802247
  54.7504088  71.1549990  64.7240641  55.5396983  72.2080924  66.3719357
  56.4028403  72.8692473  66.4491326  54.2669435  73.0149353  66.5534814
  53.4004084  72.3540707  66.5316834  54.3305963  73.7084900  67.8747669
  55.1966776  74.3699299  67.8971520  53.4230815  74.2938868  68.0225105
  54.4185499  72.9685143  68.6702537  54.1592433  74.0904896  65.4301206
  53.5957983  74.9198008  65.8577578  55.1790481  74.4139822  65.2216739
  53.4857828  73.6336801  64.1170985  52.4657176  73.3104555  64.3246865
  53.4667835  74.4631563  63.4101986  54.0489667  72.8046349  63.6886037
  55.7393054  71.0915514  67.3411076  54.9550206  70.1423154  67.3472879
  56.8581252  71.1074320  68.0450962  57.3947565  71.9564389  68.1514615
  57.3608972  69.8879412  68.6706020  56.8877725  69.0080775  68.2346067
  58.8550974  69.8016332  68.4338706  58.8962612  70.1310012  67.3956407
  59.3440753  70.5406299  69.0686025  59.5704656  68.4615976  68.5704942
  60.0312594  68.1889750  67.6210487  60.6535328  68.5903579  69.6445517
  60.1934206  68.8625278  70.5944565  61.1735596  67.6385447  69.7528311
  61.3659312  69.3618189  69.3522559  58.6336660  67.2700948  68.8374428
  57.9262521  67.1718396  68.0140286  59.2220001  66.3563492  68.9213069
  58.0883132  67.4370136  69.7663278  57.0528032  69.9144187  70.1711366
  57.1255439  70.9898024  70.8017455  56.6433312  68.7825332  70.7277199
  56.7081090  67.9060860  70.2299815  56.1402699  68.7652464  72.0880495
  56.0509470  69.7807492  72.4738923  54.8075001  68.0692465  72.1930059
  54.9161142  67.0247458  71.9009071  54.3131991  68.1450610  73.6335502
  54.2038907  69.1893252  73.9262354  53.3491938  67.6428005  73.7143511
  55.0326779  67.6573291  74.2912485  53.7882874  68.6799458  71.2277931
  53.2386322  69.4534954  71.7640775  54.3365599  69.1314932  70.4009911
  52.8093172  67.6463011  70.6834394  52.2603072  67.1946212  71.5096798
  52.1083150  68.1314115  70.0042022  53.3582356  66.8726173  70.1465950
  57.0855887  67.9889388  72.9745820  57.5680323  66.9285555  72.5882279
  57.3712117  68.5307605  74.1622885  57.2122115  69.9349996  74.5303802
  56.1567409  70.2043645  74.4913346  57.7720312  70.5595163  73.8341907
  57.7748165  69.9893377  75.9356891  57.1346182  70.6113651  76.5612506
  58.7790576  70.4123872  75.9105839  57.8035724  68.5691186  76.4220013
  56.8333177  68.2657345  76.8152735  58.5734091  68.3806034  77.1702747
  58.1077557  67.8040550  75.1727998  59.1662282  67.8666074  74.9201711
  57.6985965  66.3485508  75.2743493  56.4950887  66.0366282  75.3770683
  58.6843990  65.4543824  75.1840703  59.6328909  65.7671512  75.0336108
  58.4380999  64.0186161  75.2965736  59.3209556  63.5655523  75.7475705
  57.5819007  63.8802725  75.9567882  58.1574709  63.3415884  73.9823705
  58.2825698  62.1192876  73.8838714  57.7522418  64.1238220  72.9698499
  57.6784294  65.1213941  73.1094957  57.4461213  63.5873204  71.6528934
  56.7513829  62.7537072  71.7554932  56.8127032  64.6403547  70.7571233
  55.8545140  64.9357926  71.1845448  57.4724000  65.5068705  70.7118404
  56.5980537  64.1028356  69.3730771  57.5428239  64.1782416  68.8347241
  56.2915881  63.0580202  69.4234938  55.5653706  64.8644938  68.6276186
  54.7002820  64.2638160  67.9376877  55.6396552  66.2001041  68.7204463
  54.9654142  66.7752088  68.2359309  56.3695096  66.6249360  69.2744606
  58.7265821  63.1501680  71.0001974  59.7441330  63.7728788  71.1837384
  58.6749121  62.1061199  70.1939351  57.8679690  61.5005381  70.1468946
  59.8451387  61.7226653  69.4907415  60.7141189  62.2149566  69.9273441
  60.0683200  60.2315465  69.5247253  59.5661809  59.8175713  70.3991286
  59.5043383  59.5709970  68.2463651  60.0063587  59.9841608  67.3715103
  59.6739427  58.4950636  68.2876040  58.4343885  59.7672416  68.1771107
  61.4719626  59.9839558  69.6304866  61.6290624  59.0371695  69.6531919
  59.8448793  62.2978877  68.0679137  58.8123536  62.4232186  67.4424276
  61.0244936  62.6930863  67.5883961  61.8499181  62.5683974  68.1569263
  61.1775614  63.3063986  66.2669286  60.2427828  63.2032307  65.7158891
  61.5298329  64.8061398  66.3642682  60.5748143  65.2544258  66.6382727
  62.2444039  64.9510256  67.1745128  62.0675438  65.4825054  65.0727832
  62.9427445  64.9247958  64.7394898  61.0214057  65.5124466  63.9487247
  60.1460380  66.0704204  64.2811332  61.4466083  65.9950192  63.0687092
  60.7280604  64.4931789  63.6974430  62.5789534  66.8875244  65.3573038
  63.3879223  66.8396061  66.0862568  62.9483693  67.3341485  64.4341786
  61.7673354  67.4964535  65.7555257  62.3030334  62.6009182  65.4874035
  63.4604159  62.7223214  65.8524129  61.9581445  61.9321980  64.3673232
  60.6431549  61.6004116  63.8128304  60.2037263  62.4933530  63.3682425
  59.9964887  61.2369246  64.6114535  60.9533713  60.5182301  62.7745785
  60.8907773  60.9348380  61.7692831  60.2465574  59.6940140  62.8704082
  62.3174209  60.0775466  63.0879707  62.7818427  59.7361379  62.1628483
  62.4248269  59.3086961  63.8531063  62.9729066  61.3597267  63.5494452
  63.8640804  61.1833037  64.1517594  63.3211065  62.3289385  62.3790703
  62.4501750  63.1153966  61.9077275  64.5942066  62.3153175  61.9678530
  65.2639761  61.6992641  62.4060155  65.0602197  63.2161747  60.9580699
  64.2381837  63.6229151  60.3690721  65.7330472  64.3323507  61.6672456
  66.0227257  63.9525802  62.6470210  66.6106942  64.7316113  61.1588886
  64.7118710  65.4230872  61.8347690  63.7657133  64.9690114  62.1292204
  65.1436917  66.4343638  62.8967801  66.0896102  66.8892272  62.6027794
  64.3828085  67.2089822  62.9922984  65.2669880  65.9269573  63.8535649
  64.4801851  66.0565365  60.4329272  64.1163050  65.2937182  59.7445967
  63.7428147  66.8553705  60.5119874  65.4188707  66.4649871  60.0585792
  65.9819931  62.5497849  59.9333165  66.5906172  61.5065167  60.2172657
  66.0210606  63.0974460  58.7191098  65.2794709  63.7169563  58.4252543
  67.0064352  62.6951272  57.7403389  67.8871056  62.3479860  58.2807201
  66.5530291  61.5997673  56.8004796  65.5057817  61.7846468  56.5613320
  67.1515696  61.6770239  55.8928008  66.7001753  60.2028356  57.3876057
  67.7227307  60.1082736  57.7530360  66.0044269  60.0488589  58.2124253
  66.4562962  59.1237504  56.3358377  67.3103822  58.8770915  55.4718461
  65.2894919  58.5137331  56.3692859  65.0807317  57.7922761  55.6939931
  64.6088971  58.7702240  57.0700743  67.5278706  63.8867933  57.0143789
  66.7787077  64.6971194  56.4340923  68.8403429  64.0600510  57.1489272
  69.3973483  63.3838297  57.6514899  69.4872493  65.3011603  56.7021256
  68.7441598  65.9966686  56.3120161  70.1908601  65.9522056  57.8751890
  70.9789571  65.2805531  58.2156082  70.6271571  66.9110349  57.5952047
  69.1770864  66.1630711  59.0042234  68.6309027  65.2296603  59.1403430
  69.8247471  66.5588697  60.3034602  70.3707740  67.4925017  60.1682391
  69.0577033  66.6943209  61.0659545  70.5155943  65.7769085  60.6186856
  68.1802293  67.2350109  58.5872401  67.6603595  66.9166867  57.6836337
  67.4560644  67.3893680  59.3871528  68.7093628  68.1677250  58.3918912
  70.3956926  65.0609534  55.5040072  71.1205738  64.0599643  55.4228650
  70.2725393  65.9380255  54.5084824  69.7525694  66.7938062  54.6402777
  70.9012264  65.6989772  53.2018415  71.4109218  64.7355577  53.1903264
  69.8311796  65.6887598  52.1468385  69.1627003  66.5476338  52.2065888
  70.3371622  65.6892916  51.1813948  68.9765169  64.4856955  52.1750008
  68.4342318  64.0147792  53.3762712  68.6429882  64.5550469  54.2996517
  67.6497702  62.8901228  53.4021914  67.2316340  62.5222601  54.3391759
  67.3883237  62.2129299  52.2055893  66.8256008  61.2799816  52.2379981
  67.8401344  62.7193671  50.9734211  67.5747284  62.2375734  50.0323926
  68.6356965  63.8510124  50.9708020  69.0031861  64.2566828  50.0282083
  71.9146289  66.8078391  52.8452076  73.0364283  66.5209532  52.3588141
  71.5497300  68.0395347  53.1758095  70.6386336  68.2342304  53.5658046
  72.4155519  69.1588002  52.8594958  72.8973606  68.9891045  51.8966028
  71.6299804  70.4344655  52.7842071  71.2763011  71.0461811  53.6141554
  72.4344805  70.9562738  52.2659448  70.5078139  70.3304368  51.8271479
  69.2855834  69.8403329  52.2219197  69.0219202  69.6610630  53.1802744
  68.5286134  69.6466965  51.1614923  67.4909524  69.3289993  51.2636063
  69.2544565  69.9025547  50.0889908  70.5166462  70.2717283  50.4810787
  71.2886146  70.4526354  49.7331224  73.5531349  69.2357389  53.8282368
  73.3802842  69.0234903  55.0372030  74.7692120  69.4637201  53.2851989
  75.0622553  69.9871051  51.9505432  74.3631859  70.7877054  51.7087970
  74.9680471  69.1886438  51.2145518  76.4677610  70.4741964  52.0855611
  76.4703104  71.5290958  52.3599328  76.9980658  70.3433643  51.1422896
  77.0702585  69.6336839  53.1542399  77.8832236  70.1909631  53.6196715
  77.4341098  68.6552758  52.8405051  75.9332460  69.4704992  54.1338901
  76.0027966  68.5168896  54.6572348  75.8288524  70.5916806  55.1426459
  76.3951223  70.4083700  56.2289647  75.0607420  71.6788246  54.8413465
  74.7392493  71.8411849  53.8977465  74.7401668  72.6820282  55.8703694
  75.6863670  73.1584724  56.1268945  73.7117685  73.7821177  55.5215971
  73.0324847  73.8353879  56.3723820  74.2798741  74.7097763  55.4522737
  72.9399617  73.5899962  54.2926835  72.5279420  72.5821636  54.3438120
  72.1321587  74.3046373  54.1350619  73.8708738  73.6640037  53.1383649
  73.9855507  72.7222075  52.3664724  74.6402221  74.7587253  53.0669092
  75.2929946  74.8645169  52.3034974  74.5638518  75.4731106  53.7767842
  74.2427419  72.0379091  57.1384408  74.8925649  72.1575318  58.1823303
  73.0891084  71.3563758  57.0372860  72.5817146  71.3929162  56.1647519
  72.4873667  70.6354932  58.1604044  72.2894033  71.3229567  58.9827812
  71.1596839  69.9969314  57.7238002  71.4167144  69.1912936  57.0360632
  70.7095506  69.5765107  58.6230924  70.1444610  70.9624717  57.0370635
  69.6197241  71.4863234  57.8360200  70.7379735  71.6752539  56.4645395
  69.1024978  70.2738706  56.0926312  69.2216928  69.0539835  55.7572179
  68.1433048  70.9792492  55.6867103  73.4714392  69.5923898  58.7234495
  73.7311049  69.5736453  59.9120518  74.0323034  68.7746992  57.8390196
  73.8476184  68.9418156  56.8602127  74.9001339  67.6616650  58.1976129
  74.4495624  66.8768507  58.8051909  75.3525659  67.0588342  56.8884375
  75.5918056  67.8721421  56.2033142  76.5709622  66.1693459  57.0627567
  76.3323375  65.3554842  57.7474380  76.8617611  65.7571309  56.0965191
  77.3945732  66.7560587  57.4696163  74.1949264  66.3258861  56.2621032
  73.3767924  67.0234503  56.0827629  74.5113288  65.8867964  55.3159587
  73.8578920  65.5363575  56.9337826  76.1387216  68.0894313  59.0166139
  76.6521236  67.3285409  59.8696163  76.5957495  69.3201190  58.7821882
  76.2126817  69.8628473  58.0213963  77.6479234  69.9241991  59.6065125
  78.4910319  69.2398732  59.7011972  78.1480777  71.2417744  58.9386729
  78.4234970  70.9994189  57.9122679  77.3109782  71.9398770  58.9345081
  79.2694581  71.8431534  59.6058215  79.5236881  72.6456022  59.1442559
  77.1494877  70.2602179  60.9827400  77.7601917  69.8695982  62.0109335
  76.0471477  70.9954927  61.0134553  75.6490589  71.2743608  60.1280982
  75.4653703  71.5027688  62.2006879  76.0952021  72.2363006  62.7040190
  74.1846990  72.2063192  61.7116085  74.2911704  73.2478726  62.0148075
  74.2138277  72.1402564  60.6240023  72.8740507  71.6722023  62.2098557
  72.1005366  71.8552264  61.4640147  72.9623243  70.6000644  62.3854411
  72.4195688  72.4848546  63.7419116  73.8404204  73.5693449  64.1057396
  73.9750251  74.2788776  63.2893182  73.6553195  74.1130530  65.0321411
  74.7411674  72.9650695  64.2134771  75.2572010  70.3979501  63.2741287
  75.4992208  70.6089056  64.4415529  74.8385120  69.2257269  62.8335536
  74.7951143  69.1198166  61.8300602  74.5584512  68.0795045  63.6517860
  73.9403136  68.2730761  64.5284473  73.8434814  67.0531340  62.7651138
  74.4410429  66.8829535  61.8695369  73.6578520  65.7345494  63.5104905
  73.0599529  65.9038564  64.4060086  73.1486708  65.0197281  62.8640653
  74.6321543  65.3368835  63.7945655  72.5263442  67.6074801  62.2587630
  72.7114903  68.5089133  61.6746046  72.0353689  66.8632632  61.6317191
  71.8838660  67.8493833  63.1054067  75.8306137  67.3621472  64.1145981
  76.0159202  67.0726811  65.3126619  76.6969454  67.0662137  63.1436343
  76.4504538  67.2631710  62.1841818  77.9462970  66.3565940  63.4059026
  77.7166810  65.3522537  63.7618187  78.8289187  66.2424624  62.1344613
  78.1685468  66.4270624  61.2871532  79.5654734  67.0431383  62.2015826
  79.5598309  64.8797308  61.9359950  80.4698555  64.9044119  62.5354504
  78.9007730  64.0957911  62.3090678  79.9223737  64.5892299  60.4608167
  79.6620200  65.4674862  59.8700708  80.9976743  64.4199083  60.4046188
  79.2270413  63.4131182  59.8933387  78.6720382  62.8559052  60.5270457
  79.2781430  63.0539717  58.6028689  79.9837870  63.7727223  57.7240981
  80.4835033  64.5940492  58.0336231  80.0140207  63.4911918  56.7546002
  78.6326411  61.9630935  58.1844049  78.1050581  61.4083598  58.8432120
  78.6747650  61.6974132  57.2108864  78.6904829  67.0239596  64.5731954
  79.1815578  66.3256708  65.4873250  78.7165889  68.3552578  64.5691146
  78.3755553  68.8567968  63.7614922  79.2922710  69.1244534  65.6700062
  80.1843729  68.6309530  66.0556367  79.6754041  70.4818417  65.1688007
  78.7590519  70.8946274  64.7468932  80.0457363  71.1449772  65.9505970
  80.7251640  70.3959036  64.0645478  80.3935662  70.1448739  62.9022062
  82.0096521  70.4956460  64.4440827  82.7430680  70.4449521  63.7515286
  82.2363194  70.6208932  65.4203183  78.3937827  69.2703523  66.8977201
  78.8718022  69.3914227  68.0164123  77.0888353  69.2773122  66.6707271
  76.7457970  69.2617636  65.7208943  76.1141177  69.3221144  67.7587787
  76.2720994  70.2291777  68.3421971  74.7112111  69.3210194  67.2492948
  74.6971802  69.7347223  66.2409534  74.2597729  68.3289355  67.2407399
  73.9251077  70.2252925  68.1768618  74.0304259  69.8432816  69.1922812
  74.4138224  71.6711986  68.1240647  74.3083763  72.0540748  67.1089855
  73.8203615  72.2809655  68.8053058  75.4620392  71.7120168  68.4201656
  72.4713855  70.1408416  67.7940095  72.1278812  69.1112756  67.8944981
  71.8845887  70.7846802  68.4491755  72.3477904  70.4653445  66.7608003
  76.2873632  68.1253631  68.6772319  76.1773895  68.2613678  69.8941434
  76.5926837  66.9730634  68.0945572  76.5975026  66.8891505  67.0880609
  76.8013741  65.7834905  68.8801566  75.9119018  65.6352352  69.4924952
  77.0353701  64.5979442  68.0705425  77.9815953  64.6778577  67.5354050
  77.0895095  63.4078287  69.0237476  76.1433972  63.3269851  69.5589452
  77.2641365  62.4941967  68.4555200  77.8997258  63.5508713  69.7387214
  75.8993435  64.4417439  67.0850928  75.5852354  65.4351593  66.7648386
  76.2671930  63.8826160  66.2247660  74.7307934  63.7183083  67.6892058
  74.3620797  64.2771131  68.5493727  73.9366305  63.6272428  66.9481851
  75.0440382  62.7245701  68.0093024  77.9095238  65.9317713  69.9079991
  77.8081135  65.4025763  71.0064156  78.9672997  66.6074932  69.5315207
  79.0628338  67.0021230  68.6067289  80.0658904  66.7309371  70.4378529
  80.3919143  65.7475343  70.7765662  81.2189671  67.4054321  69.7331348
  81.0101995  68.4738815  69.6789941  82.1227676  67.2416340  70.3200036
  81.4195374  66.8588306  68.3342548  80.6340617  67.2749280  67.7033890
  82.3932005  67.1575226  67.9458411  81.3248642  65.3538181  68.2923801
  80.9159229  64.7766753  67.2935387  81.6707151  64.7148128  69.3971337
  81.6275480  63.7062082  69.4280335  81.9764583  65.2382761  70.2049756
  79.7032386  67.4681543  71.6777260  80.0838299  67.0608873  72.7605823
  78.9505170  68.5421840  71.5383440  78.7064521  68.9132256  70.6312277
  78.5979907  69.3107008  72.7104025  79.3296451  69.0141217  73.4619489
  78.7601104  70.8077177  72.4338010  79.7649348  71.0016674  72.0585536
  78.0280719  71.1216086  71.6896961  78.5400474  71.5898310  73.7243418
  77.5352010  71.3967340  74.0999719  79.2720647  71.2767958  74.4688293
  78.7015335  73.0810165  73.4488183  79.7063569  73.2749671  73.0735691
  77.9694935  73.3949064  72.7047148  78.4814724  73.8631290  74.7393604
  77.4766266  73.6700318  75.1149918  79.2134914  73.5500949  75.4838448
  78.6371324  75.3005337  74.4737728  77.9586332  75.5908906  73.7842575
  78.4913884  75.8185234  75.3284922  79.5683194  75.4797357  74.1260998
  77.2295682  68.9734267  73.2832219  77.0277631  67.8999837  73.8245424
  76.3014474  69.9040766  73.1553017  76.5665362  70.7453092  72.6632092
  74.9539076  69.8111117  73.6807301  74.9671981  69.6482690  74.7584150
  74.2391319  71.1244083  73.3960569  74.6915133  71.5510499  72.5008323
  73.1877362  70.9101038  73.2043783  74.3512016  72.1007271  74.5250476
  74.3868720  71.6551015  75.6853194  74.3893760  73.3152896  74.2543639
  74.0465796  68.7279285  73.1698925  73.2022624  68.2224963  73.8862441
  74.1646459  68.4115991  71.9062636  74.8775800  68.8105789  71.3124291
  73.1852154  67.4923606  71.3008196  73.5022931  67.2829560  70.2791980
  73.0385579  66.1494302  72.0586655  72.5764362  66.4050964  73.0121736
  72.3418933  65.5575857  71.4649665  74.2819600  65.3563623  72.3045934
  74.8979353  65.3725721  71.4054758  74.8333406  65.8061550  73.1302859
  73.9344523  63.9279124  72.6506631  73.4393734  63.4686944  71.7950261
  74.8536586  63.3855668  72.8720687  73.0506130  63.8384858  73.8043481
  72.0667254  63.9744640  73.6211145  73.4385597  63.5881162  75.0639700
  74.7252834  63.4213231  75.3835062  75.4328927  63.4833179  74.6654911
  74.9843498  63.2340199  76.3415781  72.5270454  63.5086918  76.0251867
  71.5502778  63.6369100  75.8025096  72.8142771  63.3203932  76.9749973
  71.7508798  68.0118890  71.1274286  70.8854849  67.3005106  70.6229007
  71.4911100  69.2418588  71.5690166  72.2404731  69.7889863  71.9680226
  70.1589141  69.8426943  71.4908130  69.4640126  69.1024128  71.0943356
  69.5626653  70.4269750  72.8349686  68.7514626  71.1054722  72.5709761
  69.0429162  69.3602363  73.7583528  69.8537131  68.6815772  74.0231733
  68.6470896  69.8228548  74.6624571  68.2506219  68.8018497  73.2597802
  70.5281475  71.2071790  73.5306890  70.1407820  71.5483868  74.3400873
  70.1562081  70.9946748  70.5441136  71.0730882  71.8610589  70.5633905
  69.1150187  70.9960665  69.7232867  68.4491517  70.2397837  69.7922558
  68.8653449  72.0442264  68.7566328  69.5848097  72.8495841  68.9045133
  68.9952753  71.5373609  67.3500029  68.7010413  72.3554241  66.6925091
  70.0025467  71.2096138  67.0929303  68.1023925  70.4187403  67.0512303
  68.2497034  69.2154260  67.7193830  68.9196695  69.1537490  68.5769618
  67.5664585  68.1175340  67.3127204  67.7196252  67.1550447  67.8008342
  66.6736236  68.2267384  66.2742508  66.1299571  67.3445403  65.9362372
  66.4638507  69.4408579  65.6615394  65.7255007  69.5330917  64.8650268
  67.1818527  70.5286124  66.0530967  67.0211536  71.4912604  65.5677261
  67.4408016  72.5153623  68.9605869  66.7099476  71.9072490  69.7278864
  67.0648595  73.5589433  68.2413746  67.6471094  73.8620464  67.4737725
  65.8548931  74.3008017  68.5185898  65.3813116  73.9826075  69.4473374
  66.2308300  75.7509703  68.6433428  66.6980719  76.0866660  67.7175493
  65.3361389  76.3436928  68.8338894  66.9312505  75.8755310  69.4691727
  64.8177691  74.1033687  67.3775376  65.1491992  74.1721228  66.1754195
  63.5758176  73.8381965  67.7714034  63.3490971  73.7727780  68.7534510
  62.5198120  73.6654677  66.8169931  62.8259923  73.7199356  65.7722988
  61.9329243  72.3255200  67.0700921  61.5650612  72.2750944  68.0949010
  60.7913322  72.0945774  66.1153770  61.1585305  72.1443979  65.0902993
  60.3575037  71.1114463  66.2979871  60.0305353  72.8605035  66.2658663
  63.0357157  71.2760290  66.9576210  63.8122074  71.4838308  67.6938147
  62.6166823  70.2867634  67.1416434  63.4668268  71.3070420  65.9569801
  61.4921039  74.7391579  67.0513653  61.0982281  74.9768470  68.2052226
  61.0055437  75.3656081  65.9718760  61.3069476  75.0902976  65.0480474
  60.1804261  76.5616341  66.1023971  60.0988867  76.8329335  67.1549403
  60.7949429  77.7525306  65.3314232  60.7602231  77.4278667  64.2914775
  60.1567260  78.6267297  65.4600892  62.2677031  78.1212055  65.7137717
  62.9043825  77.2732342  65.4614135  62.7603885  79.3572988  64.9856504
  62.1244368  80.2058503  65.2378895  63.7864040  79.5711997  65.2850487
  62.7248690  79.1843613  63.9100430  62.5161781  78.3336833  67.1958481
  62.2737605  77.4208425  67.7399574  63.5646935  78.5843559  67.3567209
  61.8887856  79.1486670  67.5567900  58.7072599  76.3121790  65.7446953
  58.4047924  75.6912780  64.7675232  57.8322552  76.8894033  66.5459823
  58.1431990  77.1963247  67.4565934  56.4529932  77.0778130  66.1990713
  56.0498961  76.2460004  65.6214039  55.6368418  77.2345504  67.4468390
  56.0227525  78.0695987  68.0315332  54.5978193  77.4279027  67.1801044
  55.6957227  76.3202697  68.0373667  56.3604280  78.3446003  65.2963229
  56.8697473  79.4401519  65.6208005  55.8586865  78.1288503  64.1085362
  55.7261475  77.1831631  63.7795857  55.4483235  79.2166542  63.2501889
  55.7452143  80.1781602  63.6690699  56.1430313  79.0378377  61.8884082
  56.0330040  78.0318631  61.4834288  55.5282066  79.7298750  61.3129301
  57.6023394  79.4628993  61.8010444  58.6437367  78.5652593  62.0713998
  58.4071078  77.5600169  62.4201031  59.9618613  78.9448365  61.8994938
  60.7764670  78.2539673  62.1167934  60.2417371  80.2234678  61.4152672
  61.5276201  80.6612550  61.2887272  62.1751055  80.0074487  61.5624049
  59.2315798  81.0921231  61.0746484  59.4570587  82.0797240  60.6722752
  57.9265745  80.7026534  61.2467049  57.1156608  81.3669384  60.9479667
  53.9109937  79.0828064  63.0945936  53.4462264  78.0557133  62.5690947
  53.1274087  80.1401309  63.4045637  53.3722768  80.7681717  64.1566965
  51.8545259  80.3923122  62.6540840  51.2421241  79.4912892  62.6890247
  51.0403918  81.5664588  63.2460015  50.4181132  81.1868741  64.0564237
  51.7340513  82.3098431  63.6388326  50.2029963  82.1742690  62.2416462
  49.7089111  82.8986185  62.6325394  52.3054256  80.6938479  61.1891851
  53.1702631  81.5298514  61.0106601  51.7176357  80.0960686  60.1718690
  50.9467043  79.4530630  60.2828101  52.2216457  80.3439440  58.8291745
  53.2496736  79.9906298  58.7490068  51.3819057  79.6367509  57.7788313
  51.4107583  78.5612366  57.9535759  50.3515063  79.9868425  57.8405813
  51.9073758  79.9161562  56.3780101  52.8911275  80.6339824  56.2124827
  51.2475739  79.3458019  55.3672770  51.5548228  79.4988032  54.4173883
  50.4441697  78.7639061  55.5571181  52.2253105  81.8163443  58.5678068
  52.9965932  82.3202089  57.7760793  51.3501923  82.5175859  59.2450868
  50.7098224  82.0773659  59.8902475  51.2753153  83.9473823  59.0764020
  51.0965062  84.1772006  58.0260163  50.1263552  84.5376400  59.9111183
  49.1824529  84.0917307  59.5975698  50.3643027  84.2377049  61.3872768
  51.3078666  84.6837207  61.7016938  49.5502338  84.6558457  61.9793499
  50.4051255  83.1588609  61.5373793  50.0693908  86.0471354  59.7018262
  49.8993499  86.2620317  58.6468344  49.2552071  86.4659968  60.2932311
  51.0128448  86.4938320  60.0156055  52.5687874  84.6263981  59.5064410
  52.8790443  85.7225627  59.0578780  53.3293297  83.9843896  60.3776307
  53.0608762  83.0827671  60.7452024  54.5241942  84.6183121  60.9111306
  54.1654666  85.5144073  61.4175170  55.1991030  83.7146022  61.9388619
  54.4774932  83.4337387  62.7059957  55.5716654  82.8170570  61.4451922
  56.3627524  84.4594797  62.5843864  57.0850525  84.7402856  61.8178804
  55.9908815  85.3569660  63.0786863  57.0639268  83.5899485  63.6181922
  56.6734432  82.4457368  63.8389678  58.1034151  84.1365498  64.2529478
  58.6040802  83.6023737  64.9487148  58.3844238  85.0817572  64.0345019
  55.5293467  85.0494988  59.8724986  56.0978086  86.1305214  59.9934669
  55.7585218  84.2381107  58.8543768  55.3136147  83.3353776  58.7693474
  56.7157348  84.6334000  57.8344579  56.9012552  83.7988355  57.1583044
  56.1983077  85.8150114  57.0199220  55.2685587  85.5359037  56.5241750
  56.0164873  86.6615741  57.6820194  57.2257914  86.1995320  55.9823665
  58.1557369  86.4792288  56.4774140  57.4078070  85.3535602  55.3195685
  56.7078857  87.3822419  55.1670760  56.9835266  88.5371767  55.5886787
  56.0415627  87.1194822  54.1304607  58.0348894  84.9920897  58.4918966
  58.6149906  86.0354031  58.2094202  58.4732023  84.1150596  59.3861080
  57.8187493  83.4012613  59.6729575  59.7428034  84.2219720  60.1059780
  59.9592672  83.1607752  60.2288761  60.8066588  84.8333608  59.2168658
  60.7916046  84.3446386  58.2426876  60.6086190  85.8979002  59.0918220
  62.1766494  84.6435513  59.8593008  62.1926202  85.1324320  60.8333856
  62.3756082  83.5791710  59.9842495  63.2473222  85.2588591  58.9644930
  63.2322676  84.7701390  57.9903138  63.0492823  86.3233986  58.8394513
  64.5932891  85.0933641  59.5572708  64.6739337  84.6177631  60.4446261
  65.7014982  85.5423188  58.9748510  65.6760086  86.1778666  57.8068057
  64.7947529  86.3305640  57.3375809  66.5380242  86.5048809  57.3943856
  66.8597411  85.3390879  59.5961974  66.8755945  84.8561063  60.4830895
  67.7181329  85.6686714  59.1783014  59.7991051  84.8703863  61.4730160
  60.8362894  84.7924850  62.1189651  58.7229822  85.4849346  61.9339159
  57.8663948  85.5580373  61.4038091  58.7592680  86.0588741  63.2601266
  59.7328028  86.4255870  63.5854740  57.7458981  87.1790315  63.4052788
  58.0433283  88.0218633  62.7813645  56.7640435  86.8243014  63.0918651
  57.6847830  87.6185395  64.8486076  57.3869476  86.7762967  65.4731250
  58.6662308  87.9738604  65.1626241  56.6650529  88.7457234  64.9946716
  55.4748571  88.4167472  65.2452903  57.0860171  89.9249888  64.8542351
  58.4035578  84.8949385  64.1463620  57.3215822  84.8423488  64.6943622
  59.3036019  83.9356637  64.2754290  60.2012315  83.9757464  63.8141765
  59.0053987  82.7609736  65.1361636  57.9893305  82.3914602  64.9977280
  59.9688570  81.6279898  64.8841783  60.9903177  81.9802260  65.0278714
  59.7642087  80.8146862  65.5804230  59.8492302  81.2691997  63.8618974
  59.1440828  83.2228402  66.5747987  60.0732359  83.9946019  66.8792597
  58.2007236  82.8322996  67.4367857  57.4763220  82.1880305  67.1534854
  58.0672189  83.5074171  68.7525945  58.9735679  84.0792835  68.9515905
  56.8413630  84.4819698  68.7932576  55.9765545  83.9280615  68.4280301
  56.6822004  84.7569252  69.8359305  57.0301852  85.7718990  67.9392086
  58.0953974  85.9451679  67.7862325  56.5598642  85.5377470  66.9841834
  56.3928611  87.0689679  68.5004940  56.7785343  88.1742097  68.1010021
  55.3865601  86.9304752  69.3700405  54.9434472  87.7502016  69.7596571
  55.0741645  86.0067723  69.6332575  58.1157640  82.5375900  69.9156846
  58.6684997  82.8666122  70.9675670  57.7709913  81.2821415  69.6608592
  57.3444122  81.0617053  68.7723000  57.9368188  80.1876863  70.6542624
  58.6925315  80.4857277  71.3810146  56.5997943  79.8598593  71.4232728
  55.9046244  79.2722034  70.8236908  56.8797191  79.2946563  72.3122541
  55.8238666  81.0943390  71.9129299  55.0567070  81.8748594  71.0287540
  55.0115799  81.5867171  69.9784981  54.3578203  83.0052596  71.4763619
  53.8037945  83.6198649  70.7668434  54.3715449  83.3400532  72.8174133
  53.8309572  84.2174695  73.1723858  55.0796360  82.5509372  73.7142393
  55.0760331  82.8064170  74.7738700  55.7959359  81.4321854  73.2651850
  56.3413730  80.8125811  73.9770057  58.4529270  78.9231746  69.9557300
  58.4497869  78.8148130  68.7217555  58.8902369  77.9642182  70.7616063
  58.8811471  78.1113055  71.7607970  59.3954957  76.6755037  70.2484559
  58.6174434  76.2566753  69.6102424  60.2790138  76.8929686  69.6482858
  59.7576695  75.6665241  71.3059376  59.4582159  75.8650870  72.4677054
  60.5652330  74.6957410  70.9397037  61.0184844  74.7307045  70.0377946
  60.8328081  73.5308477  71.8157660  60.7865618  73.7395861  72.8845918
  59.7773372  72.4958362  71.4780877  60.0710193  71.9682348  70.5706254
  59.6359590  71.5025300  72.6172014  59.3418225  72.0293684  73.5249594
  58.8753889  70.7640378  72.3637028  60.5890041  70.9999113  72.7820651
  58.5330934  73.1873530  71.1819934  57.8534615  72.5447225  70.9658293
  62.2539241  72.9733592  71.5568164  62.6716954  72.7990021  70.4097455
  62.9998117  72.7158562  72.6338090  62.6984122  73.0156766  73.5499779
  64.2973591  72.0761234  72.5112254  64.8349934  72.4958364  71.6609963
  65.1817285  72.2342760  73.7881160  66.1463667  71.7565816  73.6167056
  65.3938967  73.7058124  74.0982504  64.4296637  74.1841126  74.2702482
  66.0119962  73.8041409  74.9906537  65.8925173  74.1867980  73.2567452
  64.5846889  71.5901109  74.9261108  65.1511035  71.7051898  75.6926170
  64.0731693  70.6137739  72.1718322  63.1903453  69.9617223  72.7337332
  64.8489780  70.1069436  71.2161372  65.4282008  70.7153952  70.6554350
  64.8957185  68.6992682  70.9594634  64.2762596  68.1190742  71.6433821
  64.4344829  68.4403104  69.5601552  65.0512185  69.0074301  68.8629375
  64.5217750  67.3765002  69.3392745  63.3939056  68.7480473  69.4572179
  66.3165672  68.2330543  71.1219150  67.2560258  68.8625608  70.6461432
  66.4758150  67.1143641  71.7870236  65.6427368  66.5656612  71.9451541
  67.7616174  66.5667605  72.2255535  68.5621080  67.2993583  72.1225270
  67.6190513  66.2069674  73.6942511  67.2974296  67.1283284  74.1797949
  66.8098605  65.4774690  73.7280492  68.8281484  65.6524183  74.4158164
  69.2784147  64.7208058  74.0730931  69.5223537  66.4752403  74.2451060
  68.5229965  65.5506309  75.8867286  68.8515235  66.5082582  76.6392916
  67.7494996  64.6339146  76.2328076  68.0049990  65.2927867  71.4763585
  67.1308210  64.4249102  71.4904029  69.1711033  65.1530339  70.8256758
  69.8084634  65.9276437  70.7079852  69.4183816  63.9459423  70.0798847
  68.4509778  63.5852676  69.7303950  70.3388607  64.1288265  68.9052185
  71.3735120  64.1669900  69.2460127  70.1579159  62.9389012  67.9521609
  69.1235457  62.9003534  67.6105574  70.8193470  63.0563855  67.0937862
  70.4022028  62.0139344  68.4745205  69.9820169  65.4348678  68.1782682
  69.3441220  65.1693776  67.3352344  69.4185115  66.0496154  68.8801561
  71.1790252  66.2096718  67.6791763  71.7428064  65.5956955  66.9768347
  70.8419623  67.1172152  67.1783241  71.8171974  66.4759313  68.5217568
  69.8141694  62.7830070  70.9845765  70.7483639  62.8674248  71.7759616
  69.0585015  61.6894235  70.8752325  68.2559296  61.6979962  70.2621223
  69.3305281  60.4690701  71.6513930  70.0990021  60.6737543  72.3968133
  68.0708127  59.9866261  72.3686647  68.2536550  59.2793299  73.1776147
  67.7961274  60.9544675  72.7881060  66.9235763  59.4673165  71.4828746
  66.8558172  58.1386774  71.1133995  67.6705042  57.4761663  71.4057410
  65.7894770  57.6437192  70.3909857  65.7793227  56.6040903  70.0636163
  64.7113778  58.4616935  70.1233418  63.6312910  57.9902344  69.3797426
  63.7380181  57.0780853  69.1001124  64.7200893  59.7725261  70.5559860
  63.8706751  60.4251184  70.3541958  65.8085328  60.2538347  71.2451411
  65.8075238  61.2775997  71.6193127  69.8606487  59.3092893  70.8214714
  70.2195979  58.2625559  71.3729509  69.8294680  59.4637066  69.5105359
  69.4614697  60.3102844  69.1006791  70.3151328  58.4287170  68.6256521
  71.1426420  57.8592226  69.0487406  69.2055517  57.4756989  68.2747386
  68.3731322  58.0301460  67.8414185  69.5689425  56.7440416  67.5531259
  68.8693802  56.9613251  69.1750205  70.8269216  59.1145854  67.3945222
  70.3111061  60.1528320  67.0225029  71.8450915  58.5556152  66.7616499
  72.2913231  57.7155175  67.1010795  72.3769595  59.1810618  65.5760285
  71.5844977  59.5767233  64.9407685  73.2433005  60.3302802  66.0401925
  72.5876691  61.1498784  66.3343104  73.7339731  59.9230392  66.9242147
  74.2774760  60.8374198  65.0852912  74.0238789  60.9472735  63.7417978
  73.0522016  60.6346062  63.3594604  74.9744096  61.4432694  62.8806854
  74.7642744  61.5184875  61.8137800  76.1813330  61.8501820  63.3683369
  77.1439890  62.3380410  62.5233729  76.8653407  62.3507636  61.6047909
  76.4479826  61.7682184  64.7029548  77.4117183  62.0924526  65.0956203
  75.4944170  61.2741733  65.5515379  75.6924294  61.2208451  66.6220738
  73.1526731  58.2023167  64.7387499  73.7560702  57.2856185  65.2662698
  73.1302464  58.3935482  63.4300690  72.5945940  59.1542067  63.0369093
  73.8709996  57.5417673  62.5306786  74.7544430  57.1513428  63.0358475
  73.0221152  56.3831889  62.0823784  72.1654417  56.3185105  62.7532185
  72.6756902  56.5955882  61.0709554  73.7670270  55.0753603  62.0929112
  74.6547084  55.1820206  62.7164062  73.1191916  54.3057804  62.5126230
  74.1774489  54.6801804  60.6995797  74.4956249  55.5631411  60.1452842
  74.9992955  53.9657251  60.7467087  73.0662066  54.0651148  59.9965577
  72.7131438  54.5273194  59.1708381  72.4888237  52.9400987  60.3859325
  71.4822232  52.4385438  59.6900826  71.1568314  52.9167682  58.8621203
  71.0435203  51.5795989  59.9898378  72.9146331  52.3227561  61.4794001
  73.6788200  52.7140495  62.0113851  72.4728365  51.4640607  61.7752996
  74.2426948  58.3884853  61.3535782  73.4520444  59.2011786  60.9241001
  75.4374507  58.1898234  60.8181552  76.0480997  57.4860753  61.2079574
  75.9202573  58.9747278  59.6796207  75.1161951  59.5945642  59.2829017
  77.1001674  59.8913342  60.0779054  76.7723340  60.5944380  60.8435878
  77.9167793  59.2841917  60.4685753  77.5763658  60.6544143  58.8650392
  77.9048166  59.9519393  58.0990432  76.7603730  61.2621870  58.4740568
  78.7415645  61.5595890  59.2583562  79.9017174  61.0759185  59.1705536
  78.4603771  62.7260762  59.6428577  76.3699134  58.0286863  58.5777102
  77.4818729  57.5814270  58.6067481  75.5083393  57.7774047  57.5974951
  74.5351566  58.0198783  57.7167490  75.8681272  56.9347942  56.4969025
  76.8419084  56.4901505  56.7021863  74.8616979  55.8144752  56.2568949
  75.4201611  55.0598711  55.7030080  74.6310476  55.4367104  57.2529843
  73.5695625  56.1277028  55.5228979  73.0445096  56.7788455  56.2217782
  73.7115698  56.6502187  54.5769010  72.7398069  54.8561862  55.2858323
  72.1693657  54.3256754  56.3001168  72.7771765  54.3276587  54.1252375
  76.2668174  57.7118844  55.2603609  75.6256844  58.6972787  54.8234713
  77.3537602  57.2460606  54.6686715  78.0452521  56.7276620  55.1913580
  77.6639551  57.6142301  53.2577270  76.8108801  58.1464855  52.8369343
  78.9125596  58.5164263  53.1460406  79.2219156  58.4638451  52.1021856
  78.5682900  59.5256375  53.3720301  80.1034137  58.1676112  54.0506734
  79.7800723  57.5091838  54.8569145  80.8408007  57.6523810  53.4351246
  80.7567691  59.4030582  54.6625390  81.2682492  60.2506138  53.9464695
  80.7082717  59.5195766  55.9904232  81.1276308  60.3211177  56.4396128
  80.2524114  58.8057306  56.5406200  77.7599121  56.3906793  52.3551941
  78.6737076  56.2798705  51.5480137  76.7244983  55.5718680  52.3670873
  75.9251933  55.7806345  52.9481445  76.7240866  54.3222365  51.6125744
  77.7321714  53.9095451  51.5732015  75.8092317  53.3080201  52.2841140
  74.8623060  53.8235536  52.4442895  75.6483304  52.4468900  51.6355266
  76.3499044  52.8503634  53.5886003  77.1004586  53.6591672  54.2286970
  76.0734945  51.6723208  53.9373615  76.3133240  54.5605123  50.1848389
  77.1093137  54.3306382  49.2426355  75.0818580  55.0656174  50.0367628
  74.4864757  55.1857232  50.8437287  74.5307376  55.3842225  48.7090068
  74.4365452  54.4586122  48.1411400  73.1624491  56.0550780  48.7781481
  73.0275362  57.0727658  49.1444940  72.9192484  56.0164758  47.7163274
  72.1599470  55.2193335  49.4722877  71.6306458  54.0963984  48.8174030
  71.8815682  53.9191436  47.7715930  70.7840776  53.2044183  49.4978990
  70.3307241  52.3713088  48.9607772  70.5223110  53.3835655  50.8622913
  69.8556817  52.6978184  51.3852216  71.1187890  54.4462568  51.5552150
  70.9270777  54.5835268  52.6194067  71.9679490  55.3378932  50.8720424
  72.4836883  56.1268486  51.4194567  75.5625460  56.2431293  48.0391498
  75.8025307  56.0409688  46.8680809  76.2688731  57.0925276  48.8041867
  76.1759444  57.0810145  49.8098362  77.2004679  58.0664522  48.1977420
  78.0600039  58.1782994  48.8586408  77.5309084  57.6740239  47.2360204
  76.5533109  59.4454768  47.9801920  76.8252472  60.1788564  47.0061078
  75.7095702  59.8251608  48.9054885  75.0199354  59.1934167  49.2868054
  75.7522837  61.1707221  49.4076941  76.6963450  61.6431660  49.1363195
  74.5749118  62.0596001  48.9328243  74.9080387  62.6608573  48.0868830
  73.3835658  61.2049022  48.5110330  73.0495610  60.6036634  49.3566413
  72.5701964  61.8515798  48.1818841  73.6785922  60.5479693  47.6928046
  74.1872390  63.0687626  50.0496618  73.8403534  62.4777782  50.8973106
  75.1008432  63.5959062  50.3245190  73.1136786  64.0806768  49.6625034
  72.1995653  63.5542595  49.3879463  72.9131197  64.7395629  50.5073374
  73.4600546  64.6723863  48.8151526  75.6951875  60.8627826  50.8807627
  75.2666916  59.7587386  51.2845883  76.2957189  61.7312023  51.6798943
  76.7798873  62.5279064  51.2913807  76.3241929  61.5390027  53.1552050
  76.4867627  60.4785742  53.3479784  77.4134791  62.3450576  53.8875356
  77.0743469  62.4196027  54.9207498  78.3105644  61.7274620  53.8437901
  77.7326474  63.7518097  53.3498096  78.1256717  63.6049068  52.3438015
  76.8075932  64.3259665  53.2976764  78.7663833  64.5193175  54.1980595
  78.7158697  65.7894001  54.1848092  79.6441593  63.8594274  54.8439638
  74.9663555  61.9192656  53.6640663  74.3132418  62.8304855  53.1036792
  74.4582079  61.0872184  54.5375378  75.0281118  60.3490109  54.9252988
  73.0614609  61.2084311  54.9986496  72.5672143  62.1517201  54.7662161
  72.2653382  60.0360754  54.3611130  72.9790807  59.2651173  54.0707757
  71.2414475  59.4449941  55.3072376  70.5270386  60.2152979  55.5976728
  70.7146042  58.6302969  54.8104425  71.7446127  59.0632995  56.1956255
  71.6314805  60.4649681  53.0298649  72.4151474  60.9651311  52.4608272
  71.3390941  59.5487608  52.5168601  70.4232800  61.3876212  53.1499555
  70.7150173  62.3043037  53.6624810  70.0510323  61.6310575  52.1548326
  69.6389645  60.8879337  53.7185164  73.1749337  61.0795834  56.5044189
  73.9595002  60.2680681  56.9835215  72.4443608  61.9105098  57.2519591
  71.9125654  62.6537119  56.8219084  72.4339676  61.8069509  58.6793724
  73.0107781  60.9309002  58.9758922  73.0323919  63.0421131  59.3632413
  72.3869853  63.9045780  59.1967963  73.1427255  62.7786154  60.8302098
  73.7883977  61.9165082  60.9974805  73.5674805  63.6516086  61.3257564
  72.1528803  62.5752771  61.2388193  74.4084082  63.3804025  58.8264122
  74.3421857  63.5833030  57.7575119  74.7927276  64.2617373  59.3398780
  75.0815486  62.5398568  58.9951302  71.0018741  61.5911673  59.1536419
  70.1023255  62.3969805  58.8676729  70.7938411  60.4606861  59.8374786
  71.5423614  59.7898203  59.9362495  69.5130746  60.1471399  60.4218919
  68.7831701  60.8737912  60.0650772  69.0225079  58.7537784  60.0701279
  69.3541869  58.1018392  60.8782513  67.9337615  58.8060387  60.0697779
  69.4928036  58.2082150  58.7686547  68.8180935  58.5209705  57.9717537
  70.4979485  58.5728976  58.5570122  69.5113616  56.6989525  58.8492979
  70.4020312  56.3986761  59.4012407  68.6225545  56.3762756  59.3915165
  69.5271000  56.0497771  57.4646916  70.0720527  56.7174875  56.7973912
  70.0655051  55.1061375  57.5528016  68.1624722  55.7946706  56.9087010
  67.6635611  56.6689946  56.8265730  68.2447793  55.3671012  55.9973778
  67.6574918  55.1756338  57.5266714  69.6424899  60.2759344  61.9447591
  70.5830531  59.7621987  62.5448961  68.7228504  61.0186451  62.5444623
  68.1213749  61.6099295  61.9888461  68.7074664  61.1806697  63.9702991
  69.2104684  60.3290746  64.4284191  69.4164751  62.4801132  64.4290792
  69.6774870  62.3916225  65.4836604  70.6520506  62.7007323  63.6294002
  70.3917742  62.7897898  62.5746842  71.1413487  63.6165756  63.9609403
  71.3292750  61.8576441  63.7660425  68.5414613  63.7007974  64.2708801
  67.6385475  63.5813251  64.8696916  69.0850239  64.5840546  64.6062843
  68.2683672  63.8192961  63.2223199  67.3154641  60.9850046  64.5644933
  66.2962405  61.1307679  63.8965859  67.3055430  60.5912822  65.8282517
  68.1774804  60.3211305  66.2605047  66.0954815  60.5382400  66.6281284
  65.2270131  60.7964089  66.0221493  65.9116734  59.1265986  67.1645502
  66.7349514  58.9373848  67.8533976  64.9696648  59.1138057  67.7127802
  65.8895139  58.0657751  66.1118032  65.0770219  58.2666638  65.4135186
  66.8382912  58.0693914  65.5752302  65.6801933  56.7203108  66.7502677
  66.4309123  56.5451550  67.5208782  64.6856717  56.6607991  67.1924040
  65.8137914  55.6754258  65.6725702  65.2450500  56.0265342  64.8115495
  66.8701259  55.6168380  65.4102266  65.3314821  54.3403751  66.0681486
  64.3525683  54.3943610  66.3108690  65.4526704  53.6971065  65.2989810
  65.8586501  54.0146646  66.8657109  66.2288353  61.5077730  67.7879403
  66.9918247  61.2570740  68.6852241  65.4782208  62.6031823  67.7472318
  64.9431694  62.8125169  66.9165704  65.4381410  63.5496656  68.8492898
  66.2734523  63.3364126  69.5162810  65.5885728  64.9464320  68.3243031
  64.7545217  65.1779381  67.6618352  65.5962000  65.6493771  69.1573159
  66.5244847  65.0285897  67.7716565  64.1602568  63.4447393  69.6592722
  63.1838143  62.9054827  69.1984651  64.1821190  63.9766838  70.8711791
  65.0467343  64.3677052  71.2170720  63.0198438  63.9996007  71.7408246
  62.1035659  63.7600505  71.2012417  63.2198271  62.9891513  72.8865281
  63.4591490  62.0182291  72.4527822  64.3333791  63.4146511  73.8115242
  64.0945418  64.3853476  74.2460421  64.4463502  62.6786958  74.6075820
  65.2648185  63.4877297  73.2501158  61.9424182  62.7919651  73.6837866
  62.0064629  63.4140024  74.5765736  61.1085839  63.1272671  73.0670269
  61.7204892  61.3380267  74.0919635  62.5537521  61.0021369  74.7091757
  60.7931345  61.2567866  74.6589841  61.6558754  60.7154010  73.1996283
  62.8390927  65.4112786  72.2878983  63.7875359  66.0155192  72.7565866
  61.6350974  65.9558786  72.1684492  60.8866969  65.4454126  71.7218840
  61.3532480  67.2988521  72.6735248  62.0169525  67.9978738  72.1646396
  60.3180633  67.5405684  72.4325576  61.5560058  67.4293686  74.1820077
  61.0771076  66.5818012  74.9673623  62.2526887  68.4930483  74.5903844
  62.5870497  69.1731972  73.9227770  62.6139330  68.6630984  75.9849852
  62.2400863  67.8070191  76.5466489  64.1164333  68.7682642  76.2016972
  64.4822733  69.4987809  75.4801672  64.2566934  69.1540123  77.2114623
  64.8911434  67.4676685  76.0436396  64.4871618  66.9710829  75.1614251
  65.9291985  67.7450983  75.8604007  64.8217618  66.5230933  77.2327611
  65.8296870  66.2023111  77.4959805  64.3739816  67.0436011  78.0793212
  64.0091292  65.3279501  76.9284949  63.1211856  65.5012666  76.4794772
  64.3584353  64.0585771  77.1880143  65.5281798  63.7596992  77.7601857
  66.1701458  64.4995724  78.0062898  65.7651481  62.7952529  77.9440032
  63.5157807  63.0763571  76.8785192  62.6257870  63.2938401  76.4534164
  63.7700415  62.1178499  77.0701280  61.9633328  69.8691854  76.6534435
  61.2151409  69.7119288  77.6038457  62.2760006  71.0676456  76.2004303
  62.8911151  71.1835986  75.4077839  61.7955824  72.2787830  76.8974113
  61.0242180  72.0154821  77.6211301  62.9312360  72.9261715  77.6236565
  63.5044267  73.5198932  76.9115847  62.5222274  73.5793902  78.3944466
  63.8290716  71.9031417  78.2594013  63.3056858  71.0770970  78.7408762
  64.4425325  71.5183475  77.4447227  64.7133673  72.5453455  79.2536358
  65.3189254  73.5552129  78.9522833  64.7105161  72.0446926  80.4804363
  65.3003417  72.4538599  81.1909217  64.1185293  71.2562138  80.6994208
  61.1260033  73.2870360  75.9910568  61.4798151  73.4579525  74.8288749
  60.2032904  74.0287152  76.5516769  59.8666376  73.8146995  77.4795570
  59.5887714  75.1343749  75.8329559  59.6217615  74.9440297  74.7602120
  58.1443969  75.2925593  76.2514211  58.1447014  75.5954577  77.2984892
  57.7193012  76.0907758  75.6429442  57.3082950  74.0308424  76.0887710
  57.3007755  73.7446656  75.0370357  57.7559501  73.2313498  76.6791258
  55.8820579  74.2699689  76.5588637  55.5684783  75.2682261  76.2534962
  55.2268416  73.5282579  76.1020751  55.7656893  74.1669659  78.0050096
  55.5759674  73.2451572  78.3715799  55.8724869  75.1827967  78.8619249
  56.1080943  76.4213491  78.4726087  56.2146822  76.6267971  77.4894860
  56.1807603  77.1582004  79.1595362  55.7559994  74.9387747  80.1388885
  55.5885157  73.9946789  80.4562720  55.8338906  75.6951928  80.8036165
  60.3683581  76.4191282  76.0642015  60.7754048  76.7200490  77.1781246
  60.4901160  77.2010865  75.0090706  60.2167989  76.8744126  74.0932752
  61.1093060  78.4953231  75.1147934  61.0918828  78.8174154  76.1559717
  62.5679679  78.4670421  74.6340786  63.0279724  79.4551534  74.6455274
  63.1155304  77.8041420  75.3040330  62.7579530  77.9068420  73.2042788
  62.5413673  78.7071379  72.0709797  62.2387201  79.7466686  72.1969974
  62.7091040  78.1861280  70.8043949  62.5624029  78.8214418  69.9309214
  63.0637274  76.8565361  70.6422943  63.1023620  76.4317668  69.6392099
  63.3654168  76.0742331  71.7324006  63.7163746  75.0510408  71.5982128
  63.2208914  76.5937613  73.0044658  63.4671257  75.9837051  73.8735457
  60.3693894  79.6090867  74.3980178  59.5788471  79.3560760  73.4909156
  60.7372007  80.8326536  74.7681636  61.3753414  80.9070761  75.5474820
  60.3236715  82.0514621  74.0991461  59.4324802  81.8703784  73.4982417
  60.0024904  83.1093579  75.1347562  59.7525332  82.5689839  76.0477822
  60.9246480  83.6704341  75.2861464  58.8606917  84.0831134  74.7858005
  59.2460442  84.8386578  74.1011423  58.0640248  83.5226885  74.2965686
  58.3000791  84.7756307  76.0582841  57.9375878  83.9930843  76.7248576
  59.1256808  85.3043425  76.5346716  57.1661643  85.7603722  75.7641203
  56.3219136  85.2002334  75.3621427  56.8736024  86.2353119  76.7005705
  57.5831512  86.8142000  74.7772597  57.8538751  86.3743469  73.9093095
  56.8106468  87.4428480  74.6095137  58.3651694  87.3336327  75.1497328
  61.4877350  82.5435369  73.2633588  62.6342787  82.5836947  73.7112459
  61.1858150  82.9262980  72.0308085  60.2473343  82.7926075  71.6822683
  62.1770948  83.5363435  71.1407097  63.1551812  83.0605970  71.2122050
  61.7251937  83.5029559  69.6882233  60.6814614  83.8125586  69.6346679
  62.5806169  84.4451432  68.8383703  63.6244934  84.1358757  68.8910613
  62.2431190  84.4082446  67.8025932  62.4844196  85.4633812  69.2152510
  61.7653102  82.0572928  69.1931485  61.0987137  81.4458065  69.8012897
  61.4433360  82.0200217  68.1524549  62.7825284  81.6737283  69.2721807
  62.3998384  84.9818156  71.5466241  61.4736205  85.7415269  71.7111185
  63.6512711  85.3465317  71.6931240  64.3820003  84.6510100  71.6443013
  64.0343795  86.7398154  71.9120772  63.2130467  87.3325563  72.3147804
  65.1363673  86.7039365  72.9202412  66.0073609  86.2242720  72.4737087
  65.4178933  87.6860965  73.2999844  64.6163251  85.8452339  74.0684362
  63.9435497  85.1031373  73.6385911  65.7055507  85.1449634  74.8503018
  66.3785038  85.8864815  75.2808642  65.2575237  84.5542767  75.6493398
  66.2666280  84.4888060  74.1849070  63.8000193  86.7272439  74.9826928
  62.9657652  87.1546615  74.4264251  63.4166033  86.1344626  75.8131769
  64.4276052  87.5301878  75.3693659  64.5261438  87.3527817  70.5980661
  63.8437443  88.1837218  69.9781601  65.6691994  86.8432194  70.1070508
  66.1500054  86.1427221  70.6531539  66.2174635  87.2007562  68.8058287
  65.5432170  87.8708700  68.2725010  67.5249832  87.9057096  69.0186147
  67.7793071  87.7942306  70.0726502  68.2677224  87.3902911  68.4096956
  67.5085015  89.3472376  68.6636199  67.1745627  89.4355701  67.6298002
  66.8248641  89.8933322  69.3136351  68.8719912  89.9150813  68.7924160
  69.7890833  89.1431456  69.1911483  69.0092813  91.1249855  68.5256518
  66.5421978  85.9814293  67.9191729  66.9061370  84.9216835  68.4162577
  66.6113779  86.2331265  66.6260509  66.3376802  87.1487880  66.2993201
  67.0902151  85.2592477  65.6422740  67.4299661  84.3466794  66.1320571
  65.9416742  84.9138326  64.7190670  65.3810437  85.8432439  64.6191301
  66.3737914  84.6453314  63.7550744  65.0159017  83.8156883  65.1778582
  64.7423492  83.9813500  66.2198880  63.7615104  83.8199167  64.3179690
  64.0342350  83.6538394  63.2757894  63.0911577  83.0264985  64.6484470
  63.2588200  84.7824481  64.4124990  65.7201396  82.4753629  65.0896663
  66.6057020  82.4871350  65.7250717  65.0450705  81.6870378  65.4227225
  66.0164979  82.2872631  64.0577316  68.2285502  85.8193622  64.7840444
  68.0058150  86.6862104  63.9100963  69.4247244  85.2670171  64.9764924
  69.5410211  84.5803266  65.7079503  70.6111463  85.6148986  64.1356651
  70.4525317  86.5566243  63.6102193  71.8350820  85.7683550  65.0649947
  72.2357078  84.7672888  65.2245710  72.5661414  86.3698543  64.5247626
  71.5381547  86.4200705  66.4172232  72.2812777  87.2000516  66.5830499
  70.5466934  86.8695125  66.3614697  71.5804641  85.4230647  67.5732822
  70.8831501  85.7478196  68.3455427  71.2821342  84.4416859  67.2045082
  72.9196164  85.3162785  68.1637786  73.4312725  84.4662926  67.9744872
  73.4955980  86.2519312  68.9308785  74.7037175  86.0409878  69.4329007
  75.1853742  85.1755488  69.2351073  75.1372758  86.7466242  70.0110044
  72.8733005  87.3934753  69.2087486  71.9495336  87.5647263  68.8380359
  73.3271808  88.0841860  69.7892743  70.9244635  84.5109088  63.0946234
  70.7099819  83.3717507  63.3717057  71.3513287  84.8967718  61.8922646
  71.5426667  85.8755602  61.7326952  71.4095933  83.9756728  60.7406692
  71.0782543  82.9737920  61.0137050  70.4989049  84.5056912  59.5901510
  70.9886301  84.3122447  58.6357675  69.1130865  83.7992633  59.6140699
  68.6225256  83.9926534  60.5680352  68.4944476  84.1841562  58.8033649
  69.2499134  82.7253067  59.4875942  70.3147512  85.9414276  59.7030640
  69.7528206  86.2491619  58.9881276  72.8501371  83.6519685  60.2414917
  73.2906792  84.1255100  59.1715051  73.5479289  82.7889000  60.9891468
  73.2582952  82.5552655  61.9280965  74.7906058  82.1934488  60.4741166
  75.6535600  82.8481067  60.5959039  75.0987994  80.8378231  61.1528535
  75.2867098  80.9969479  62.2146765  74.2473305  80.1682264  61.0314412
  76.3314623  80.2144427  60.5066620  76.1441298  80.0545830  59.4448464
  77.1835103  80.8833022  60.6280832  76.6686089  78.8759538  61.1479610
  75.9798367  78.4320279  62.0639098  77.7331989  78.2323240  60.6635931
  78.0006079  77.3399152  61.0537217  78.2663372  78.6407360  59.9092294
  74.5564105  82.0571739  58.9355583  73.4393256  81.6648778  58.5008917
  75.4949110  82.5550651  58.1114956  76.3705851  82.9165998  58.4616197
  75.2432591  82.6165843  56.6572863  74.2513404  83.0322389  56.4800073
  76.2691756  83.4898862  55.9522289  76.0050468  83.5645114  54.8973516
  76.2561062  84.4832788  56.4006713  77.5560099  82.9377304  56.0747791
  78.1900165  83.5008502  55.6247440  75.2685500  81.2485548  56.0392552
  75.2219436  81.1313537  54.8371796  75.5327013  80.2478989  56.8797039
  75.9397978  80.5031522  57.7680830  75.4321715  78.7993962  56.5379737
  75.7378513  78.6431218  55.5034509  76.3701691  77.9386809  57.4779454
  76.4799929  76.9263254  57.0891339  77.3308543  78.4515109  57.4311552
  75.8886349  77.8769574  58.9511286  74.9745933  77.1022608  59.2093807
  76.4697249  78.5330718  59.8487362  73.9614199  78.2314564  56.4839094
  73.7281297  76.9915905  56.5849742  73.0009016  79.1216349  56.2076468
  73.2251579  80.1040907  56.1399037  71.6351711  78.7176307  56.0003484
  71.0609350  79.5574492  55.6091234  71.6020455  77.8926035  55.2887781
  71.0165094  78.2639760  57.3129950  69.8714286  77.8204459  57.3330231
  71.7799759  78.3561537  58.4005873  72.7149645  78.7299478  58.3220141
  71.3140150  77.9386603  59.7092525  70.3566852  77.4178663  59.6894390
  72.3499517  77.0648356  60.3863363  73.3393511  77.4420533  60.1276936
  72.1888499  77.0666248  61.8758355  71.1997900  76.6890719  62.1352870
  72.9500347  76.4286306  62.3249033  72.2993475  78.0834751  62.2525381
  72.3066833  75.6555724  59.7785715  71.5301710  75.6915815  59.0144820
  73.2771887  75.5134482  59.3031564  72.0322988  74.4985120  60.7251133
  71.0616878  74.6397078  61.2005898  72.0294453  73.5632706  60.1652789
  72.8087048  74.4615760  61.4892660  71.0670384  79.1571454  60.5663274
  71.8547272  80.0998543  60.5852032  69.9923737  79.0877501  61.3656603
  69.3268934  78.3382262  61.2413651  69.7701302  80.0428498  62.4617047
  70.1655531  81.0197308  62.1834181  68.3075425  80.1838466  62.7534069
  67.8428425  79.2119459  62.5873882  68.2055930  80.4602302  63.8028440
  67.6341652  81.2096156  61.9009018  67.3615769  82.0107628  62.5878950
  68.2637041  81.6111266  61.1068164  66.3906412  80.6617345  61.2913025
  65.8092846  79.6872636  61.8095544  66.0230703  81.1964085  60.1191381
  65.1882273  80.8660559  59.6565305  66.5824886  81.9273970  59.7034358
  70.3867803  79.5964367  63.7426743  70.4096866  78.4619132  64.0229968
  70.8420405  80.5624680  64.5316937  71.0899342  81.4595394  64.1393788
  71.0781028  80.3400784  65.9600824  70.7336652  79.3385269  66.2176797
  72.5839984  80.4663836  66.3533351  72.5889590  81.0187407  67.2930033
  72.9199079  79.4448037  66.5312095  73.5267146  81.1471678  65.3563177
  72.9183561  81.6219918  64.5865496  74.1095894  81.9064222  65.8777503
  74.4977572  80.1603845  64.6778281  74.7869618  79.0892429  65.2329032
  75.0174233  80.5224836  63.4783427  75.6575059  79.9037882  63.0012559
  74.7619398  81.4091640  63.0677000  70.1850037  81.3504761  66.7252102
  70.0860554  82.5348490  66.3768094  69.3886843  80.7961294  67.6303120
  69.5998070  79.8513923  67.9184063  68.2351862  81.4601600  68.2281191
  67.9915841  82.3723826  67.6835025  67.0455402  80.5180865  68.1539434
  67.2708672  79.6035613  68.7025520  66.1722522  80.9994243  68.5941503
  66.8387913  80.2744329  67.1118364  68.4839000  81.8342663  69.7087253
  68.7936273  80.9374364  70.5104829  68.3586014  83.1407358  70.0215060
  68.2955603  83.8125505  69.2699808  68.4308160  83.6256313  71.3528450
  69.1634511  83.0375516  71.9055721  68.8386573  85.0785154  71.4065224
  69.3906432  85.2912781  70.4910210  67.9225692  85.6689381  71.4233655
  69.7024784  85.4415524  72.6196466  69.0815488  85.3768732  73.5131587
  70.5150992  84.7184472  72.6894203  70.2919813  86.8716461  72.5024625
  71.3622808  86.7631100  72.3270265  69.8275473  87.3389697  71.6341254
  70.0626188  87.7530905  73.7430413  70.3759081  88.7660291  73.4902454
  68.9942125  87.7469747  73.9588414  70.8168169  87.2840242  74.9467814
  71.8068767  87.2900266  74.7471685  70.6263972  87.8997791  75.7243971
  70.5263544  86.3455891  75.1814515  67.0970273  83.3577944  72.0687167
  66.0164823  83.7469145  71.6060753  67.1824361  82.6232969  73.1745176
  68.0407630  82.5730246  73.7044675  66.0541630  81.7696457  73.5888948
  65.0803015  82.1777148  73.3183907  66.1883831  80.3553883  72.9683282
  66.9334506  80.4023004  72.1741161  66.6079339  79.3175095  73.9950413
  65.8630683  79.2696913  74.7893898  66.6890681  78.3424882  73.5145716
  67.5731558  79.5945310  74.4189604  64.8929339  79.9539958  72.2814187
  64.6638797  80.6683925  71.4906763  65.0027437  78.9587839  71.8506117
  64.0820312  79.9466105  73.0097614  65.9575975  81.7435854  75.1104637
  66.9430961  81.4427618  75.7884163  64.7915009  82.1367267  75.6385770
  64.0798772  82.5446060  75.0492336  64.5644532  82.1095403  77.0784017
  65.4985013  81.9062615  77.6021678  64.0323889  83.4537050  77.5397953
  64.8288254  84.1736272  77.3513806  63.1813172  83.6775847  76.8966353
  63.6079982  83.5411857  78.9819030  63.5065704  82.5414658  79.4042458
  64.3670210  84.0937157  79.5357055  62.2650894  84.2734204  79.1256465
  61.9386327  85.1795935  78.3498280  61.4786499  83.8655034  80.1100559
  60.5829171  84.3094894  80.2537241  61.7782480  83.1123090  80.7125843
  63.6540226  80.9269559  77.4601507  62.5088953  80.8244248  77.0081950
  64.1842730  80.0305270  78.2941942  65.1197525  80.1587623  78.6527093
  63.4428275  78.8595316  78.7136754  63.1144744  78.2828707  77.8489525
  64.2300092  77.9710425  79.6393228  64.2911487  78.4379212  80.6223724
  63.5391944  76.6087656  79.7632724  63.4780976  76.1410386  78.7806233
  64.1129752  75.9695541  80.4343052  62.5344467  76.7453616  80.1631757
  65.6542765  77.8482132  79.1314668  66.1369806  78.8162196  79.2658584
  66.1599417  77.1023756  79.7447598  65.7345241  77.4440127  77.6811043
  65.2294401  78.1896607  77.0671020  66.7798258  77.3739382  77.3802171
  65.2523988  76.4758171  77.5460031  62.1769516  79.2402740  79.4568546
  62.2169881  80.0655874  80.3879120  61.0626879  78.6317742  79.0765937
  61.0571974  78.0548027  78.2476347  59.8198986  78.7845497  79.8194709
  59.7966150  79.7633056  80.2986307  58.6174985  78.6686440  78.8897340
  58.6866461  77.6703212  78.4576813  57.7009201  78.7483338  79.4742282
  58.5987474  79.7152114  77.7617043  59.5274264  79.6572429  77.1939933
  57.4279193  79.4392677  76.8427405  56.4987879  79.4975204  77.4096800
  57.4114769  80.1788878  76.0422453  57.5292268  78.4424151  76.4136462
  58.5244144  81.1556000  78.2814855  59.3917441  81.3612508  78.9088182
  58.5143340  81.8465457  77.4385183  57.6142412  81.2845395  78.8671973
  59.7380801  77.7182748  80.8840312  59.7860365  76.5523978  80.5877711
  59.5205894  78.1446774  82.1627824  58.9801997  79.4833506  82.4707402
  58.0455659  79.6300752  81.9294160  59.6994198  80.2433909  82.1655190
  58.7856581  79.4452111  83.9516670  57.7180954  79.5212993  84.1581117
  59.3012275  80.3014539  84.3865669  59.3591237  78.1452812  84.4762521
  58.6578076  77.8076005  85.2392897  60.3668722  78.1613744  84.8913228
  59.3073681  77.2201389  83.2873850  60.0553278  76.4278674  83.2563928
  57.9212506  76.6108822  83.1797301  56.9905506  77.3132354  82.7689107
  57.7533998  75.3279433  83.5357466  58.5439507  74.7107137  83.6547266
  56.4031698  74.7699715  83.6972309  55.7556378  75.1747399  82.9194365
  56.3974485  73.2348831  83.5921740  56.6196079  72.9910141  82.5532937
  57.2042951  72.8740805  84.2300769  55.0784373  72.5623235  84.0052056
  55.2941799  71.5694984  84.3999895  54.6865041  73.1928313  84.8032955
  54.0396592  72.4514828  82.8861773  54.3732811  71.9435552  81.7931119
  52.8653514  72.8269622  83.1220533  55.8651016  75.2395720  85.0429597
  56.4050533  74.9176948  86.1193464  54.7703593  76.0095343  84.9439481
  54.3326427  76.1590400  84.0460887  54.2794169  76.7567540  86.0777388
  55.1074925  76.9683652  86.7542081  53.6430685  78.0922566  85.6453563
  53.5407811  78.7411323  86.5151821  54.2833791  78.5741492  84.9065182
  52.0065778  77.9945271  84.9000563  51.8667238  79.3019026  84.6997851
  53.3384462  75.8534538  86.9077574  52.2836078  75.3816037  86.4490588
  53.8147672  75.5431135  88.1164431  54.6621673  75.9874880  88.4397753
  53.1815228  74.5535804  88.9782963  52.3440580  74.0489497  88.4965290
  54.1483279  73.4903210  89.5223526  53.8116679  73.1735478  90.5094767
  54.1876104  72.2889195  88.5908644  54.5246472  72.6048456  87.6035966
  54.8762467  71.5430781  88.9878546  53.1901314  71.8564835  88.5125298
  55.5281336  74.0810774  89.7880421  55.4455822  74.8825346  90.5221768
  56.1888771  73.3038941  90.1721043  55.9380292  74.4798520  88.8601060
  52.5000634  75.1929085  90.1727224  53.0812607  75.9933989  90.9297256
  51.2505801  74.7268850  90.3400026  50.9695753  73.9799325  89.7209730
  50.3007612  75.1669300  91.3834768  50.6550356  76.0967203  91.8285374
  48.8939394  75.4075524  90.7913408  48.6074610  74.3815044  90.5605706
  48.3116969  75.7644769  91.6408693  48.6211205  76.3015888  89.5721255
  48.5566204  75.6859316  88.6749595  47.3104614  77.0398725  89.7739668
  47.3743611  77.6561429  90.6707536  47.1140143  77.6752367  88.9103572
  46.5004088  76.3191960  89.8859509  49.7276505  77.3040235  89.2845896
  50.6595440  76.7722013  89.0926544  49.4622013  77.8980999  88.4101119
  49.8555657  77.9613996  90.1445858  50.1327104  74.0553056  92.4260276
  50.1306344  72.8698332  92.0602997  49.9712898  74.4369686  93.7035462
  49.7207992  75.8155859  94.1368991  48.8490646  76.2041490  93.6104034
  50.5903154  76.4291614  93.9011756  49.4932097  75.6902701  95.6123374
  48.4746261  76.0165642  95.8223819  50.1974159  76.3516300  96.1171128
  49.7066063  74.2715667  96.0231942  48.8736257  74.0171988  96.6785867
  50.6467417  74.0586293  96.5320190  49.6178547  73.4625415  94.7350240
  50.3175998  72.6273788  94.7040669  48.2055481  72.9504762  94.4815576
  47.6541518  73.2108423  93.4094598  47.6161229  72.2176408  95.4264783
  48.1222719  71.9051847  96.2427404  46.2148639  71.8165123  95.2826658
  46.0604944  71.3936468  94.2899654  45.8226579  70.7660317  96.3293319
  46.2094090  69.7971564  96.0134150  46.2697332  71.0411892  97.2845869
  44.4147377  70.6886553  96.4718710  44.1957899  70.0258471  97.1309211
  45.3272029  73.0543181  95.4253436  45.7565007  74.0674998  95.9821695
  44.0896733  72.9625809  94.9669619  43.8061954  72.1645148  94.4166620
  43.1398082  74.0357370  95.1579730  43.5504813  74.9733781  94.7834387
  41.8686722  73.7072616  94.3671839  41.0065270  73.8248851  95.0236675
  41.7220334  74.6327522  93.1663591  42.5836446  74.5153426  92.5091371
  40.8126874  74.3800127  92.6210963  41.6646838  75.6661420  93.5082907
  41.9482189  72.3495208  93.8885388  41.1541402  72.1381785  93.3921783
  42.8425314  74.2908083  96.6482206  42.4181507  75.3950781  97.0306161
  43.1044715  73.2897324  97.4877029  43.5495702  72.4494192  97.1473205
  42.7077290  73.3419472  98.8860169  41.9069649  74.0688675  99.0218956
  42.2046057  71.9738970  99.3321800  42.9689707  71.2410641  99.0737204
  42.0826123  72.0044367 100.4149011  40.8862735  71.5804651  98.6848559
  41.0790176  71.3562435  97.6357252  40.5183412  70.6849311  99.1856020
  39.6336222  72.8799971  98.7945803  38.5999829  72.4858074  97.3802963
  38.1937231  71.4809132  97.4953599  37.7815782  73.2029265  97.3166199
  39.1962789  72.5339468  96.4691350  43.8249990  73.8044130  99.8236896
  43.5677100  74.3007490 100.8961415  45.0638389  73.6027535  99.4277285
  45.2076848  73.0693871  98.5821943  46.2318494  74.0409287 100.1729425
  46.3427901  73.4590788 101.0879518  47.4744150  73.8363153  99.3113480
  47.4623485  74.5571433  98.4938147  48.3616539  73.9971128  99.9237624
  47.4983063  72.5210397  98.7812036  48.2845864  72.4075133  98.2422460
  46.2057188  75.4841936 100.6732751  47.0805210  75.8738461 101.4295984
  45.2230461  76.2724651 100.2477973  44.5097426  75.8894190  99.6439984
  45.1384032  77.6983335 100.6122599  46.1062844  78.0852630 100.9309930
  44.6577506  78.5142979  99.4017001  43.6852961  78.1445090  99.0766025
  44.5715957  79.5642100  99.6816328  45.3750015  78.4136689  98.5871301
  44.1538983  77.8741060 101.7868445  44.2989991  78.7173542 102.6518274
  43.1347398  77.0544546 101.7484579  43.2010342  76.2522570 101.1383896
  41.9291248  77.2330730 102.5109368  41.8084342  78.1166171 103.1377404
  40.7855019  77.2019387 101.4781608  41.2104823  77.4310124 100.5009115
  40.0780438  75.8426415 101.4215996  39.6523792  75.6130757 102.3984365
  39.2818422  75.8775129 100.6779952  40.7963147  75.0697317 101.1481058
  39.8557926  78.3700292 101.6738830  40.4107164  79.3006357 101.5549999
  39.0567000  78.3270280 100.9338144  39.4259692  78.3292340 102.6747269
  41.7910161  76.0944736 103.5556829  40.8514023  76.1061812 104.3718844
  42.7502813  75.1654799 103.5360861  43.5805079  75.3251232 102.9835129
  42.6353491  73.8985283 104.2700630  41.6664197  73.4358464 104.0824453
  43.7379444  72.9390897 103.7950240  43.6605089  72.8937946 102.7087223
  44.6868747  73.3981712 104.0722883  43.6699240  71.5317318 104.3667993
  44.6637899  71.0841534 104.3690262  43.3082330  71.6172505 105.3914789
  42.7295543  70.6221272 103.5943270  42.8716751  70.4447127 102.3880829
  41.7855153  70.0160952 104.2980198  41.1324372  69.3997773 103.8356967
  41.7229413  70.1729932 105.2937953  42.7549567  74.1081466 105.7678241
  43.7346870  74.6474644 106.2583328  41.7560922  73.6358439 106.4860642
  40.9215919  73.3091245 106.0202713  41.8147077  73.5494185 107.9343877
  41.8707151  74.5467488 108.3706154  40.5422167  72.8512265 108.4611375
  40.6196963  71.8835957 107.9653687  40.5843371  72.7099615 109.5411237
  39.2131811  73.5123649 108.0845976  39.1359703  73.4867199 106.9976377
  37.9813875  72.8298955 108.7017881  38.0576623  72.8555615 109.7888126
  37.0792210  73.3555183 108.3888712  37.9327839  71.7940954 108.3658473
  39.2602499  75.0109824 108.4006290  40.0645815  75.4776652 107.8319838
  38.3098558  75.4702116 108.1286714  39.4398430  75.1526263 109.4663598
  43.0234029  72.7335453 108.3379332  43.2627047  71.6978002 107.7428662
  43.7897510  73.2193879 109.3161195  43.5723583  74.1090874 109.7418832
  45.0266674  72.5447368 109.7116717  45.5980766  72.2904451 108.8189643
  45.8921034  73.4327987 110.6101196  45.2228960  73.9484999 111.2988233
  46.5563457  72.7766975 111.1726260  46.7240159  74.4623850 109.8402269
  45.9999988  75.0977132 109.3300720  47.2991247  75.0619178 110.5458539
  47.6705802  73.8390052 108.8104188  48.7512221  73.3443515 109.2048866
  47.3553337  73.8852590 107.5973416  44.7657842  71.1948635 110.3624182
  45.5438280  70.2603536 110.1762699  43.6697528  71.0870350 111.1093835
  43.0815167  71.8915124 111.2733771  43.3334058  69.8274646 111.7890371
  44.1806805  69.5050262 112.3942298  42.1135434  69.9967878 112.7040466
  42.0697047  69.1415240 113.3783620  42.2447274  70.9100484 113.2844308
  40.9061858  70.0769302 111.9632661  40.1669534  70.1821374 112.5666456
  43.0969968  68.6649346 110.8071487  43.3406852  67.5038566 111.1526105
  42.6343668  68.9868967 109.5941628  42.4590960  69.9592118 109.3844420
  42.2935945  67.9890083 108.5849716  42.0657790  67.0343764 109.0591838
  41.0644552  68.4519878 107.8042005  41.4138491  69.3234062 107.2504377
  40.7625422  67.6737796 107.1032435  39.8634852  68.8482110 108.6777313
  40.1233689  69.7465257 109.2377242  38.6256075  69.1186473 107.8299100
  38.3648195  68.2205823 107.2699389  37.7943185  69.3963325 108.4779458
  38.8313915  69.9326539 107.1348225  39.5723657  67.7773678 109.7202865
  40.4439630  67.6476695 110.3618438  38.7183728  68.0814459 110.3255417
  39.3460615  66.8353123 109.2208699  43.4663589  67.6904304 107.6383391
  43.3831158  66.7740490 106.8198553  44.5636002  68.4226894 107.7968075
  44.5699553  69.2230071 108.4128842  45.7951080  68.0870959 107.0836682
  45.6716872  68.3041921 106.0226613  46.9839164  68.9031292 107.6170597
  46.8728362  69.1015827 108.6830694  47.8666084  68.2850009 107.4531322
  47.1758429  70.2221521 106.8964045  47.4736847  71.2422877 107.5223100
  47.0721597  70.1988222 105.5709659  47.1915920  71.0515528 105.0430585
  46.8744501  69.3284773 105.0981959  46.1510528  66.6065583 107.2366306
  46.5306504  65.9409998 106.2662345  46.0051507  66.0991848 108.4584054
  45.7198354  66.7206654 109.2016795  46.3811584  64.7294896 108.8059788
  47.4150230  64.5391682 108.5178797  46.2486117  64.5236375 110.3172886
  45.2382549  64.8068189 110.6123931  46.4066336  63.4668121 110.5323448
  47.2629433  65.3611828 111.1018893  48.2266335  64.8566983 111.0319072
  47.3271627  66.3350793 110.6166022  46.8932348  65.5481348 112.5681080
  46.5341621  64.5900967 112.9440452  47.7986287  65.8320729 113.1045225
  45.8236847  66.6094827 112.7814821  46.1730309  67.2979971 113.5509012
  45.6866666  67.1507593 111.8453492  44.5252220  66.0105070 113.2034675
  44.6518737  65.5092627 114.0711157  43.8430977  66.7437106 113.3346882
  44.2011233  65.3728041 112.4904499  45.6295539  63.6709252 107.9933232
  46.0404898  62.5155984 107.9649933  44.5686258  64.0670153 107.2954785
  44.2919834  65.0383540 107.2871486  43.7447676  63.1083855 106.5726309
  44.0068241  62.0920191 106.8666120  42.2734507  63.3442933 106.8937556
  41.8972794  64.2247987 106.3728865  41.6714447  62.4772074 106.6220006
  41.9694099  63.6345374 108.6542608  40.6529868  63.7889884 108.5443810
  43.9598231  63.1737130 105.0639916  43.3416274  62.4157331 104.3131512
  44.8068559  64.1003919 104.6436279  45.3767454  64.6082996 105.3049562
  44.8832009  64.4759531 103.2264680  43.8760925  64.5307821 102.8131574
  45.5676309  65.8474373 103.0417281  45.9980777  66.1173305 104.0060789
  46.3670933  65.7053283 102.3145658  44.6391402  66.9677086 102.5663059
  43.6564406  66.8763795 103.0289735  45.1067729  67.8981071 102.8884554
  44.4616622  67.0099735 101.0418079  44.0855705  66.0113889 100.4210520
  44.6711698  68.1864832 100.4442742  44.5671336  68.2664142  99.4428308
  44.9326214  68.9905452 100.9967492  45.5981419  63.4149337 102.3984425
  45.3246508  63.2809006 101.2033690  46.4835729  62.6440640 103.0357485
  46.8217467  62.8976487 103.9530449  47.0337085  61.4493009 102.4008106
  47.0616013  61.5875234 101.3199704  48.4506927  61.0815123 102.9111451
  48.3661275  60.5411606 103.8539967  49.1588103  60.2005303 101.8807883
  49.2441662  60.7404152 100.9377405  50.1542373  59.9445396 102.2436857
  48.5834051  59.2878867 101.7255795  49.2689348  62.3498122 103.2028560
  49.0745391  63.0470651 102.3879023  48.8873128  62.7659717 104.1352054
  50.7645391  62.1204294 103.3262102  51.1469873  61.7046828 102.3940149
  51.2622360  63.0680847 103.5319926  50.9597607  61.4235871 104.1413171
  46.0743468  60.2712235 102.6266287  45.5996281  60.0315336 103.7414637
  45.7926303  59.5550887 101.5409305  46.1187888  59.8786607 100.6414745
  45.0295221  58.3036048 101.5948473  44.5754588  58.1864579 102.5788200
  43.9249885  58.3177299 100.5481568  44.2942945  58.0090416  99.5701875
  43.1293682  57.6433871 100.8649377  43.3036474  59.6499429 100.3653519
  42.7708170  60.3281375 101.4573582  42.8071748  59.8595004 102.4407997
  42.2039680  61.5726169 101.3090701  41.7823575  62.0954287 102.1675647
  42.1718474  62.1590735 100.0598039  41.7249499  63.1451914  99.9334944
  42.7079703  61.4942972  98.9647794  42.6788183  61.9592959  97.9793726
  43.2758149  60.2495599  99.1222839  43.7055614  59.7339476  98.2634697
  45.9181463  57.0798035 101.3186743  46.9752185  57.2019496 100.6763569
  45.4635752  55.8807120 101.7479375  44.8942136  55.6550100 103.0887637
  43.8455089  55.9521947 103.0887443  45.4410176  56.2539063 103.8170684
  45.0774512  54.1669410 103.3100820  44.1923247  53.7647817 103.8029491
  45.9506941  54.0017883 103.9411706  45.2729735  53.5599080 101.9604009
  44.2961240  53.3876348 101.5085315  45.8485575  52.6344146 101.9441327
  46.0145986  54.6468845 101.1921020  47.0864231  54.6183681 101.3882583
  45.7715567  54.5797377  99.6861634  44.6906405  54.9151658  99.2083883
  46.7823049  54.1468575  98.9451049  47.6255177  53.8120785  99.3889683
  46.7541167  54.2324912  97.4833819  46.3996414  55.2179325  97.1811371
  48.1459889  54.0154151  96.9002192  48.8736755  53.9950045  97.7114866
  48.1664563  53.0630467  96.3704309  48.4690490  55.0597816  96.0040737
  49.3465731  54.9122871  95.6438007  45.7382777  53.2554172  96.8415169
  45.3649389  52.2220265  97.4267917  45.2963191  53.6348304  95.6493893
  45.7391116  54.4284556  95.2087156  44.1685185  53.0053239  94.9688012
  43.3266190  52.9129082  95.6549235  43.7263045  53.8595807  93.7550524
  42.6499092  53.7181544  93.6577328  43.9335601  54.8965283  94.0194097
  44.4063661  53.5268785  92.4253763  45.4786641  53.4387146  92.6000325
  44.0171660  52.5730848  92.0691418  44.1505464  54.5988724  91.3817148
  44.3329435  54.1842275  90.3903017  43.1136258  54.9273386  91.4524617
  45.0726703  55.7823256  91.6123060  44.9274146  56.1366239  92.6328323
  46.1016285  55.4446732  91.4884711  44.7982404  56.8841677  90.6644763
  43.8449631  57.1974788  90.7793600  45.4291791  57.6511758  90.8480925
  44.9331955  56.5561941  89.7187916  44.4930926  51.5808390  94.5110804
  45.5105671  51.3478388  93.8767725  43.5822086  50.6281084  94.7784397
  42.5412579  50.6743075  95.8249675  42.1493032  51.6882162  95.9053466
  42.9711175  50.3746678  96.7807581  41.5170003  49.6987860  95.3279290
  40.8103201  50.2118062  94.6756160  40.9823506  49.2676236  96.1743037
  42.2791246  48.6488109  94.5878852  41.6699375  48.2983236  93.7547292
  42.5499090  47.8032953  95.2202448  43.5564609  49.3375217  94.0521004
  44.4736375  48.8014437  94.2960388  43.4531168  49.5071384  92.5292346
  42.8382151  50.4693437  92.0755168  44.0517346  48.5908172  91.7709898
  44.4972104  47.7926649  92.2006450  44.2306702  48.7952166  90.3197297
  44.3149236  49.8518583  90.0657436  45.4811155  48.0483286  89.7647931
  45.6428238  48.3491782  88.7296897  46.7178579  48.3869330  90.5915889
  46.5570703  48.0859323  91.6267926  47.5808886  47.8563852  90.1893480
  46.9004305  49.4607355  90.5501506  45.2684265  46.5393680  89.7111430
  44.4221543  46.3140490  89.0621770  46.1647446  46.0593209  89.3183730
  45.0661222  46.1645355  90.7144747  42.9586978  48.4702761  89.5086230
  42.5018256  47.3193456  89.4172623  36.0794829  50.6223323  92.7076635
  35.2210199  51.1536028  92.7375331  37.0245812  50.8875459  91.6157546
  38.0416468  50.9017838  92.0075122  36.9299230  49.7963856  90.5299526
  37.5424487  50.1043946  89.6825790  37.3237816  48.8681761  90.9439604
  35.5938159  49.5918042  90.0978320  35.5764798  48.9077922  89.4244622
  36.7447881  52.2713926  91.0139462  37.5458912  52.7967864  90.2139580
  35.5691102  52.8073604  91.3601425  34.8773986  52.1977086  91.7724036
  35.1768144  54.1768198  91.0282103  36.0685039  54.7983015  90.9460551
  34.4086762  54.2339801  89.6856566  34.8501890  54.9574765  89.0002962
  34.6030914  53.2247862  89.3225721  32.9230830  54.4606208  89.7651280
  32.4131672  55.7146574  90.0660150  33.1067611  56.5299185  90.2718703
  31.0555493  55.9389911  90.1071851  30.6661749  56.9144154  90.3987960
  30.1881823  54.9236133  89.7724144  28.8432851  55.1510245  89.8172877
  28.6228163  56.0439299  90.0924479  30.6654059  53.6845574  89.3990926
  29.9791296  52.8842203  89.1223514  32.0289461  53.4633321  89.3782022
  32.4196001  52.4981181  89.0559422  34.4327593  54.7863901  92.2215125
  34.2953802  56.0139595  92.2816653  34.0562205  53.9619051  93.2158474
  33.9616553  52.9739504  93.0284912  33.7172257  54.4514342  94.5578819
  32.9436349  55.2149404  94.4759385  33.1991133  53.3232580  95.4597311
  32.4993394  53.7858452  96.1557403  32.6611009  52.6344977  94.8083848
  34.2634549  52.5568431  96.2424335  34.8313376  51.9452255  95.5413387
  34.9287893  53.2793173  96.7151524  33.6426820  51.6607098  97.3124668
  34.3860185  50.9169361  97.5994342  33.4020233  52.2841378  98.1735826
  32.3798919  50.9559282  96.8265284  31.5923300  51.7023767  96.7232744
  32.5906664  50.5138145  95.8527683  31.9349000  49.8928722  97.7676554
  31.7391268  50.3024033  98.6699064  31.0991613  49.4537673  97.4087297
  32.6643634  49.2008719  97.8631431  34.9472906  55.1150445  95.1769480
  34.8324117  56.0875208  95.9432107  36.1207135  54.5867165  94.8118957
  36.1360483  53.7352741  94.2688395  37.3905401  55.1640688  95.2253685
  37.4483540  55.1624449  96.3138326  38.5657556  54.3796765  94.6767491
  38.3935495  53.3735070  95.0589365  38.7395021  54.3346051  93.6016301
  39.8242457  54.8548486  95.2888816  40.2762228  54.5661315  96.5459389
  39.6876360  53.8567888  97.1277449  41.4304623  55.2693628  96.8111481
  41.9833888  55.1985381  97.6533806  41.7132669  56.0755942  95.7381068
  42.7694999  56.9625748  95.5351259  43.5165027  57.0714078  96.3214089
  42.8007118  57.6469189  94.3488123  43.6104055  58.3513858  94.1584903
  41.8121020  57.4636810  93.3668635  41.8459169  58.0151219  92.4272524
  40.7649098  56.5766679  93.5636588  40.0474492  56.4365857  92.7551243
  40.7056838  55.8628554  94.7699681  37.5093908  56.6194630  94.8020007
  38.0671056  57.4251551  95.5359711  36.9783897  56.9609065  93.6335106
  36.6251890  56.2491166  93.0100495  37.0006624  58.3411057  93.1647622
  37.9303726  58.8161734  93.4778898  36.9069391  58.4080293  91.6345112
  36.1429942  57.6743178  91.3773053  36.6509101  59.3695796  91.1895728
  38.1576779  57.9614398  90.9856296  38.4558867  56.7015408  90.5880948
  37.6666330  55.9560207  90.6849367  39.7444608  56.6425449  90.1311864
  40.1985160  55.8229707  89.7540505  40.3140276  57.8797418  90.2552124
  41.5884067  58.3149327  89.9243396  42.2872860  57.5960066  89.4967748
  41.8895279  59.6288142  90.1574135  42.8798516  60.0078403  89.9050285
  40.9510402  60.5026776  90.7152992  41.1999975  61.5466366  90.9057443
  39.6796890  60.0686062  91.0418617  38.9841893  60.7862595  91.4770107
  39.3438819  58.7339625  90.7999098  35.9408718  59.1906449  93.8141683
  36.1288472  60.3905661  93.9810829  34.8291767  58.5753722  94.1997903
  34.6131382  57.6359761  93.8981917  33.8410438  59.2895599  94.9882688
  33.6915443  60.2797356  94.5578025  32.4947867  58.5616200  95.0200069
  32.6984523  57.4909158  95.0054446  31.9999518  58.8241298  95.9550615
  31.5847113  58.9242220  93.8415178  30.7342997  59.4923534  94.2185162
  32.1575046  59.5435567  93.1512756  31.0618257  57.7087934  93.0859168
  29.8739399  57.6057245  92.7910102  31.9543025  56.7881060  92.7633426
  31.6634868  55.9610771  92.2617942  32.9227337  56.9161010  93.0199737
  34.3916464  59.5267261  96.3808944  34.1942770  60.6079011  96.9513284
  35.0999108  58.5226082  96.8978952  35.0945562  57.6252698  96.4343712
  35.8229916  58.6453399  98.1587747  35.1062582  58.9410122  98.9249145
  36.4525699  57.3064513  98.5667297  35.6740034  56.5478970  98.6475319
  37.1793135  57.0016653  97.8137030  37.1513307  57.4626320  99.9131937
  37.9303941  58.2207468  99.8330503  36.4250849  57.7669760 100.6668805
  37.7769165  56.1322390 100.3185602  36.9983512  55.3736836 100.3993609
  38.5036609  55.8274550  99.5655339  38.4756754  56.2884202 101.6650257
  39.2547383  57.0465355 101.5848835  37.7494285  56.5927611 102.4187108
  39.0787005  55.0060091 102.0557708  39.7520020  54.7240336 101.3577346
  39.5414842  55.1094461 102.9475287  38.3569154  54.3034850 102.1305044
  36.9001167  59.7547422  98.0834540  36.8731197  60.7164407  98.8592356
  37.8156404  59.6065225  97.1250901  37.8180362  58.7345870  96.6153627
  38.8321055  60.6158980  96.7860651  39.6453914  60.5937354  97.5114437
  39.4156026  60.3074298  95.3739693  39.7255965  59.2624404  95.3734214
  38.5903257  60.4414216  94.6746379  40.5927735  61.1887615  94.9484662
  41.8189033  61.1159168  95.6089762  41.9384621  60.3895903  96.4128760
  42.8727182  61.9434099  95.2614775  43.8189055  61.8852344  95.7994804
  42.7253385  62.8329302  94.2259512  43.7755248  63.6591317  93.9038723
  44.5440938  63.5242262  94.4630698  41.5331295  62.8991723  93.5300182
  41.4211094  63.6019476  92.7043919  40.4821095  62.0730268  93.8819183
  39.5488375  62.1090110  93.3199498  38.2671633  62.0365370  96.7948378
  38.7814475  62.9210209  97.4904592  37.2089451  62.2452329  96.0149621
  36.8525459  61.4972107  95.4374314  36.5742921  63.5611729  95.9162522
  37.3185276  64.2905667  95.5965687  35.4241066  63.5701847  94.9182932
  35.8374230  63.3444746  93.9352756  34.7281512  62.7831526  95.2086837
  34.6883758  64.9049147  94.8657483  34.2327133  65.1659911  95.8208983
  35.4448928  65.6467364  94.6098486  33.6259889  64.9196772  93.8082298
  33.7661040  65.5797411  92.7951201  32.5899413  64.1192374  93.9998425
  31.8453607  64.0900222  93.3180452  32.5484801  63.5411630  94.8270138
  36.0608427  64.0651963  97.2589830  36.1981527  65.2524427  97.5607842
  35.4581668  63.1715247  98.0495821  35.3109101  62.2281972  97.7201160
  34.8590761  63.5622242  99.3291681  34.2906525  64.4639761  99.1014899
  33.8979498  62.5029376  99.8757612  33.1418125  62.2753472  99.1243903
  34.4539542  61.5969714 100.1169753  33.2197707  63.0330704 101.1345927
  33.9752941  63.2604655 101.8866411  32.6631501  63.9388398 100.8940571
  32.2625460  61.9780824 101.6789695  31.5064094  61.7504898 100.9275987
  32.8185517  61.0721175 101.9201848  31.5843657  62.5082170 102.9378001
  32.3398883  62.7356133 103.6898487  31.0277440  63.4139836 102.6972622
  30.6616658  61.4912768 103.4625441  31.1773125  60.6520384 103.6858985
  30.2125090  61.8423821 104.2962607  29.9612481  61.2807346 102.7659910
  35.9136314  63.9587874 100.3520624  35.6778191  64.8738794 101.1374860
  37.0693002  63.2878085 100.3307317  37.2082888  62.5603257  99.6440365
  38.1206238  63.5086622 101.3349524  37.6136703  63.8273367 102.2457454
  38.8834134  62.2033587 101.6273576  38.1789447  61.4323545 101.9394081
  39.4037165  61.8764992 100.7270534  39.8973486  62.4455751 102.7404124
  40.6024816  63.2161864 102.4288895  39.3777110  62.7720391 103.6412454
  40.6527793  61.1528682 103.0299952  39.9483114  60.3818627 103.3420441
  41.1730833  60.8260108 102.1296911  41.6479170  61.3501066 104.1075848
  41.7300898  62.2656714 104.5260199  42.4389327  60.3767850 104.5501228
  42.3894663  59.1457371 104.0491494  41.7357646  58.9305443 103.3099158
  43.0058288  58.4317307 104.4102476  43.2982202  60.6645381 105.5236340
  43.3332321  61.6003906 105.9018590  43.9118023  59.9458838 105.8802174
  39.1021771  64.6129512 100.9424616  39.5237324  65.3888142 101.7908864
  39.4662728  64.6828931  99.6619818  39.1112747  64.0111853  98.9964863
  40.4057754  65.6989362  99.1878001  41.2776249  65.7252723  99.8414699
  40.8719382  65.3865910  97.7623382  41.1593647  64.3354518  97.7380169
  40.0205520  65.5453271  97.1004891  42.0469810  66.2468899  97.2960052
  41.6539388  67.2115765  96.9750713  42.7175450  66.3919357  98.1430044
  42.8143712  65.6017799  96.1444331  43.0938069  64.5916362  96.4438062
  42.1541000  65.5539887  95.2784900  44.0663540  66.3884285  95.7844760
  43.7916133  67.4376931  95.6764863  44.7825235  66.2829199  96.5993799
  44.6819154  65.9032975  94.5165265  44.0186082  66.0013781  93.7612096
  45.5072389  66.4486639  94.3127707  44.9369592  64.9311596  94.6165254
  39.8199251  67.1122401  99.1948285  40.4764469  68.0696807  99.6026171
  38.5900680  67.2351429  98.7342467  38.0747606  66.4176616  98.4405087
  37.9533610  68.5394935  98.5976757  38.7015457  69.3298798  98.6577439
  37.2650668  68.6328768  97.2739855  36.5325089  67.8337247  97.1607870
  36.7669191  69.5977651  97.1794368  38.1862568  68.5224960  96.1361722
  39.2517140  69.3691576  96.0403281  39.4282531  70.1106114  96.8195457
  40.0922445  69.2891838  94.9755522  40.9365005  69.9735185  94.8917762
  39.8748836  68.3384969  93.9987284  40.5585591  68.2769321  93.1520304
  38.8120971  67.4769444  94.0856211  38.6229470  66.7362251  93.3086673
  37.9877028  67.5572811  95.1629864  37.1589283  66.8572053  95.2684690
  36.9606731  68.7990613  99.6945469  35.9861564  69.5369360  99.4978870
  37.2218060  68.2399109 100.8684095  38.0437430  67.6670481 100.9962661
  36.3160952  68.4035285 101.9900908  35.3428707  67.9781861 101.7451067
  36.8625103  67.6917841 103.2221787  36.8525154  66.6219782 103.0135772
  37.8752865  68.0017832 103.4796374  36.0295357  67.8964777 104.4441357
  36.1534088  69.0092817 105.2498395  36.8192025  69.7541375 105.1014872
  35.2722812  68.9401209 106.2301954  35.2151457  69.7276733 106.9815912
  34.5748442  67.8262966 106.0864353  35.0182930  67.1630857 104.9668531
  34.5502196  66.2252285 104.6678007  36.0825786  69.8640315 102.3262501
  34.9381328  70.3132298 102.4990088  37.1728928  70.6129377 102.3888232
  38.0768341  70.2037919 102.2001724  37.1205980  72.0131252 102.8301239
  36.4322142  72.1153573 103.6690372  38.5104953  72.4719618 103.2790654
  39.2677975  72.2014118 102.5432697  38.5322609  73.5493781 103.4427737
  39.0318616  71.7190681 104.8336564  40.2142327  72.3252741 104.8920623
  36.5516430  72.9848475 101.7942614  36.7050560  74.2046443 101.9415953
  35.9206069  72.4603346 100.7447150  35.9670555  71.4651876 100.5785092
  35.1676832  73.2812956  99.8093542  35.8225018  73.9819084  99.2912291
  34.4846611  72.3989723  98.7755910  33.8185693  71.6979824  99.2786168
  33.9073545  73.0205423  98.0911438  35.2379113  71.8452219  98.2151680
  34.1279015  74.0833876 100.5525973  33.7882071  75.2037334 100.1578835
  33.6343021  73.5109565 101.6545176  33.8948741  72.5664803 101.8998058
  32.5865928  74.1542564 102.4186946  31.7928581  74.4586830 101.7364858
  31.9821267  73.2282276 103.4975225  31.4202428  73.7638707 104.2626840
  31.3030259  72.5982991 102.9229685  33.0132909  72.3344821 104.1848720
  33.8504084  72.7970390 104.9584820  32.8627295  71.0345031 104.0068841
  33.5122512  70.3906470 104.4354523  32.0987636  70.6902336 103.4430265
  33.0045766  75.4942687 102.9928335  32.1437059  76.2948397 103.3625576
  34.3215901  75.7353850 103.0192034  34.9399323  75.0018613 102.7034579
  34.9151379  76.9917041 103.4856681  34.3113018  77.4070925 104.2924727
  36.3121834  76.7591778 104.0004227  36.8530374  76.4423454 103.1086866
  36.6676323  77.7418833 104.3103358  36.5493007  75.7636170 105.1136702
  37.1657263  74.9352899 104.7643931  37.2732287  76.4988361 106.2212510
  36.6571801  77.3270813 106.5713835  37.4647139  75.8144141 107.0476896
  38.2198198  76.8851832 105.8433599  35.2742394  75.1506764 105.6475322
  34.7576350  74.6270926 104.8431198  35.5148024  74.4458512 106.4434292
  34.6298508  75.9366216 106.0414263  34.9749558  78.0053492 102.3546317
  35.2158667  79.1967983 102.5727718  34.7614230  77.5133835 101.1365544
  34.4780421  76.5486777 101.0409645  34.8489866  78.3244818  99.9410824
  35.2833434  79.2959703 100.1769710  35.6854287  77.6690225  98.8274411
  36.2977406  78.4416233  98.3624010  36.5774145  76.5720501  99.3586715
  35.9657409  75.7988050  99.8234801  37.1487452  76.1382321  98.5380119
  37.2624018  76.9863228 100.0984492  34.8090901  77.1398693  97.8196695
  35.3303926  76.7309858  97.1249334  33.4759935  78.4865684  99.3574166
  32.5069734  78.0781813  99.9278525  33.4120478  79.0622366  98.1732410
  34.2555457  79.3791676  97.7169895  32.1381142  79.3165332  97.5204773
  31.3199124  79.1172242  98.2125184  32.0540029  80.7891135  97.0687354
  31.2833242  80.8625922  96.3014320  31.7657690  81.3901080  97.9311893
  33.2864525  81.2678196  96.5489569  33.1865864  82.1844788  96.2818193
  31.9024192  78.3881019  96.3224171  31.2265315  78.7717257  95.3470737
  32.4889723  77.2003044  96.3326910  33.2563052  77.0138167  96.9623908
  32.1435807  76.1773916  95.3304595  31.1345378  76.3422542  94.9526342
  33.1174139  76.2622935  94.1673608  34.1339969  76.5565128  94.4283079
  33.1345513  75.2827747  93.6895018  32.6587974  77.2007908  93.1697543
  31.4953653  77.1429952  92.4567169  30.8561544  76.2786486  92.6367560
  31.3831440  78.2293213  91.6380601  30.6433206  78.4034050  90.9728866
  32.4657046  79.0309030  91.8455166  32.8022690  80.2113283  91.2535728
  32.1209447  80.6516066  90.5255268  33.9814032  80.7654059  91.6177082
  34.3005419  81.6963297  91.1490599  34.8138099  80.1680212  92.5927306
  35.7537512  80.6358303  92.8855867  34.4728978  79.0091479  93.1862897
  35.1654657  78.5666883  93.9023064  33.2812869  78.4052810  92.8164666
  32.0234771  74.7483185  95.8456239  32.4817882  74.4289561  96.9349143
  31.4180367  73.8578521  95.0352299  30.6427959  74.1719531  93.8186843
  31.2920196  74.6735232  93.1010240  29.8158234  74.8312473  94.0824013
  30.1742552  72.8336731  93.3336016  30.8651867  72.4552535  92.5802681
  29.1797717  72.9302150  92.8979599  30.1452547  71.9589250  94.5293209
  30.3305096  70.9238232  94.2423645  29.1939256  72.0243450  95.0573292
  31.2756556  72.4591331  95.4277878  31.0211872  72.4503534  96.4876307
  32.5225415  71.6081414  95.1973474  33.3757200  71.9789476  94.4209349
  32.5634102  70.4546379  95.8535450  31.8737942  70.2993991  96.5749534
  33.6108193  69.4233802  95.6477448  34.5808401  69.8067044  95.9643222
  33.2833873  68.1721350  96.4761841  32.3326338  67.7699004  96.1263636
  34.0711250  67.4371241  96.3108714  33.1850689  68.4860945  97.9688314
  34.0319692  69.1248721  98.2194786  32.2572035  69.0374790  98.1209601
  33.1959198  67.2626749  98.8586177  33.5581139  66.4030007  98.2948139
  33.8492730  67.4373414  99.7134398  31.8531927  66.9683289  99.3488119
  31.6041882  67.3517483 100.2494149  30.9442716  66.2502550  98.6901683
  31.2324048  65.6994674  97.5159685  32.1507886  65.8245846  97.1146994
  30.5317367  65.1581724  97.0300018  29.7401542  66.0707009  99.2210090
  29.5214170  66.4786849 100.1186744  29.0487406  65.5269971  98.7245897
  33.7936230  69.0712261  94.1801657  34.9179732  69.0232237  93.6917188
  32.6807238  68.8596580  93.4793922  31.7870183  68.9588800  93.9393322
  32.6983227  68.4070452  92.0754560  33.3890022  67.5686788  91.9848871
  31.2991176  67.9523698  91.5818484  31.3522046  67.6166255  90.5462053
  30.9479209  67.1343974  92.2108811  30.2377522  69.0238441  91.6344728
  29.3539924  69.2136769  92.6189977  29.3606839  68.4830553  93.4278531
  28.6109833  70.3251681  92.3810950  27.8823521  70.6837304  92.9816191
  28.9686677  70.8452608  91.1752093  28.4486766  71.9272904  90.4770817
  27.6443586  72.5029183  90.9351469  28.9779513  72.2008087  89.2620356
  28.5746148  73.0191380  88.6655820  30.0279694  71.4581742  88.7571871
  30.4879320  71.7211905  87.8046346  30.5291396  70.3594653  89.4414736
  31.3556827  69.8041593  88.9981199  29.9810999  70.0406209  90.6684540
  33.2327296  69.4406583  91.1122367  33.5820290  69.0928196  89.9726981
  33.3097585  70.7004066  91.5473558  32.8798664  71.0004609  92.4106399
  33.9308612  71.7117804  90.6944780  33.7701166  71.4282009  89.6543612
  33.3851537  73.0787996  90.9039817  32.3044049  73.0161969  90.7768515
  33.6112949  73.5290940  91.8705195  33.9771779  73.9356032  89.7947225
  34.6370619  73.3158699  89.1876108  32.8811495  74.5217577  88.9155673
  32.2210887  75.1420316  89.5219326  33.3306471  75.1299034  88.1305760
  32.3058781  73.7136001  88.4638545  34.8687327  74.9966025  90.4216552
  35.6685245  74.5141642  90.9835143  35.3003527  75.6187988  89.6376417
  34.2771214  75.6182417  91.0937115  35.4256952  71.6983312  90.8592217
  36.1622676  71.5543222  89.8966524  35.8731220  71.8370197  92.0950962
  35.2326396  72.0570420  92.8444104  37.2787899  71.7425730  92.4028323
  37.8137696  72.5767434  91.9488986  37.4968939  71.7866683  93.9096260
  36.8050687  71.1074883  94.4078144  38.5191885  71.4423838  94.0660934
  37.3413441  73.1639773  94.4791646  38.3648786  74.0771777  94.4047929
  39.2928390  73.7753423  93.9191137  38.2399230  75.3571963  94.9290263
  39.0829183  76.0472143  94.8924757  37.0566919  75.7513216  95.4938471
  36.9169083  77.0353669  96.0005900  37.7114834  77.5653597  95.9038553
  36.0100505  74.8600756  95.5504968  35.0628112  75.1611478  95.9979271
  36.1600664  73.5740273  95.0367334  35.3273140  72.8717164  95.0739230
  37.8518153  70.4491348  91.7915219  39.0462445  70.3568400  91.4920648
  36.9788118  69.4751689  91.5737482  36.0372345  69.5460980  91.9322180
  37.3949327  68.2229477  90.9837951  38.3664200  67.9655840  91.4057850
  36.4372303  67.0568897  91.2171485  35.7848483  67.2917297  92.0581878
  35.8343483  66.9036412  90.3220796  37.1757190  65.8642447  91.5048067
  36.5656930  65.1373238  91.6499074  37.7298951  68.3877715  89.5228196
  38.6292693  67.7356043  89.0398135  37.0661117  69.3068979  88.8375099
  36.3515420  69.8385388  89.3137949  37.3527681  69.6277457  87.4244201
  37.3814711  68.7128419  86.8326209  36.2653129  70.5370080  86.8632632
  36.4177979  71.4566890  87.4280945  36.5280245  70.7049088  85.8188054
  34.8207282  70.1247949  86.9568827  34.4225314  70.3448336  87.9473993
  34.0557590  70.9238103  85.9147919  34.4531103  70.7039319  84.9239012
  33.0006101  70.6527822  85.9509198  34.1641134  71.9886158  86.1210658
  34.6573393  68.6203948  86.7460236  35.2209007  68.0827827  87.5085662
  33.6026995  68.3550727  86.8197815  35.0316888  68.3485438  85.7590796
  38.6613022  70.3995136  87.1898765  38.9341232  70.8236191  86.0822641
  39.3879346  70.7172604  88.2554268  38.9839930  70.6131758  89.1752620
  40.7315176  71.3344935  88.1434088  41.0676444  71.3211903  87.1066152
  40.6696753  72.7835728  88.6173811  40.3914893  72.8825240  89.6666287
  41.7137743  73.0696030  88.4903215  39.7817001  73.6989164  87.7647851
  38.4090360  73.5550548  87.7396616  37.9686685  72.7136382  88.2746327
  37.5892476  74.4516627  87.0537555  36.5083910  74.3113570  87.0666058
  38.1337045  75.5334224  86.4056710  37.3255530  76.4300627  85.6776035
  36.3948867  76.1952183  85.6951570  39.4995766  75.6986440  86.4401550
  39.9512521  76.5416032  85.9171736  40.3048947  74.7976738  87.1372673
  41.3814374  74.9590987  87.1929261  41.8053940  70.5203508  88.8846849
  42.8785677  71.0159604  89.2404014  41.4888990  69.2558745  89.1526786
  40.6122085  68.9014450  88.7978647  42.3470917  68.3487732  89.9073815
  43.0223402  68.9297658  90.5355425  41.5337266  67.4259298  90.7943552
  40.8270726  67.9959535  91.3975238  40.9863649  66.7807176  90.1071896
  42.4133788  66.5650576  91.7137164  43.4269852  67.0775457  92.2584061
  42.0435706  65.3939826  91.9378934  43.1174883  67.4989671  88.9258549
  42.5464552  66.6118506  88.3063821  44.4196313  67.7495832  88.8331172
  44.8007513  68.5055352  89.3839196  45.3152018  67.0258796  87.9397927
  45.1593025  67.3746418  86.9189306  46.7470538  67.3210503  88.3390423
  46.9211307  66.9692878  89.3559299  47.4274456  66.8109011  87.6571955
  46.9238907  68.3955614  88.2915659  45.0600622  65.5165358  87.9534316
  44.8873622  64.8915294  86.9160138  45.0010065  64.9568146  89.1472170
  45.0798006  65.5240255  89.9791802  44.8581621  63.5184203  89.3045672
  45.6878422  63.0048524  88.8187914  44.8593907  63.1516270  90.7949696
  43.9189925  63.5143268  91.2099387  44.8854188  62.0634350  90.8520729
  46.0253884  63.7311923  91.5940519  46.0927595  64.7980378  91.3809728
  45.7926623  63.5858946  92.6489577  47.3516563  63.0666801  91.2726943
  48.3973923  63.6026509  91.6964119  47.3569380  62.0027534  90.6137967
  43.5488547  63.0354802  88.6382475  43.5312421  62.0283878  87.9035559
  42.4699698  63.7860033  88.8425207  42.5135078  64.5963087  89.4438599
  41.1724156  63.4102456  88.2765593  40.9489180  62.3615364  88.4724088
  40.0481974  64.2711677  88.8718312  40.2405519  65.3162801  88.6292615
  38.6778021  63.8558708  88.3024323  38.4845281  62.8109328  88.5450213
  37.8980904  64.4799308  88.7391221  38.6800817  63.9825753  87.2198237
  40.0510705  64.1377578  90.3035946  39.3486912  64.6755470  90.6764839
  41.1655557  63.4963720  86.7554741  40.8375427  62.5347217  86.0790200
  41.5381964  64.6595236  86.2354269  41.8373248  65.3890309  86.8666484
  41.5764680  64.9259758  84.8058718  40.5664744  64.9912965  84.4012172
  42.2820286  66.2543456  84.5697934  43.2530125  66.1246379  85.0477741
  42.4177390  66.3490179  83.4924263  41.6181000  67.5064653  85.1069797
  41.3874428  67.3574486  86.1618220  42.5303011  68.7072175  84.9543787
  42.7610427  68.8571567  83.8996866  42.0328621  69.5942379  85.3466160
  43.4539533  68.5350213  85.5069323  40.3177610  67.7259594  84.3621316
  39.6632048  66.8673560  84.5119841  39.8295777  68.6245597  84.7393529
  40.5233331  67.8441536  83.2982382  42.3620615  63.8590144  84.0795268
  41.8925481  63.3208955  83.0853909  43.5539321  63.5541121  84.5860998
  43.9012707  64.0987071  85.3625478  44.4290328  62.5248612  84.0110736
  44.6984298  62.8030377  82.9921809  45.7076414  62.3742063  84.8295283
  45.4434038  62.3993695  85.8867154  46.1565060  61.4100849  84.5905920
  46.7078295  63.4903381  84.5279083  47.0089027  63.3524595  83.4894261
  46.1547090  64.4246104  84.6243191  48.1736890  63.5625998  85.5629416
  48.8380165  61.9022184  85.3647483  49.0622303  61.7231542  84.3131955
  49.7506977  61.8029566  85.9523372  48.1041355  61.1732674  85.7084784
  43.6849703  61.1906114  83.8814799  43.7881798  60.5067489  82.8509126
  42.9191249  60.8561903  84.9182366  43.0171270  61.3566972  85.7900094
  42.0897714  59.6575637  84.8989779  42.6821681  58.8370767  84.4940504
  41.5823915  59.2588388  86.2611428  41.9650195  60.0363216  86.9223657
  40.4938780  59.2401677  86.3148984  42.1263559  57.9283983  86.6874794
  43.3132158  57.8957037  87.0582294  41.4144151  56.9058410  86.5579309
  40.9721566  59.7154373  83.8549248  40.7430183  58.7574037  83.1493376
  40.2964735  60.8464269  83.7473333  40.4667074  61.5934849  84.4053790
  39.2538111  61.0403237  82.7251396  38.5043155  60.2541323  82.8160172
  38.5615802  62.3996124  82.8935078  39.3451800  63.1248797  83.1127289
  38.1040152  62.6388624  81.9335631  37.4995159  62.4508225  83.9903058
  36.6071929  61.9337528  83.6374611  37.8859096  61.9450175  84.8751579
  37.1468480  63.8871756  84.3415894  36.3974317  63.8879931  85.1330902
  38.0431066  64.4004159  84.6900208  36.6083425  64.6140524  83.1820925
  36.3524046  64.0735981  82.3681488  36.4512077  65.9349031  83.1423939
  36.7843578  66.6567250  84.2114113  37.1494960  66.1972491  85.0333943
  36.6702613  67.6601250  84.1949816  35.9559553  66.5416209  82.0551536
  35.6955683  65.9922840  81.2486007  35.8453021  67.5455086  82.0471479
  39.8407734  60.9267598  81.3238746  39.2019944  60.3954899  80.4253593
  41.0623595  61.4199718  81.1496270  41.4985631  61.9308273  81.9038500
  41.7894807  61.2923222  79.8870094  41.1164333  61.5779319  79.0785952
  43.0259231  62.1987807  79.8664873  43.5851660  62.0703129  80.7932255
  43.9035054  61.8318210  78.6947382  43.3450602  61.9604887  77.7675467
  44.7818303  62.4771728  78.6818057  44.2183325  60.7923995  78.7873985
  42.5939563  63.6502377  79.7179933  42.2754016  63.7777528  78.6834096
  41.7401898  63.7921038  80.3806066  43.6593395  64.6687202  80.0453496
  44.5132980  64.5277692  79.3827883  43.2568793  65.6726082  79.9099467
  43.9780880  64.5421184  81.0799854  42.2081338  59.8326539  79.6597756
  42.0774029  59.3227837  78.5518222  42.6925963  59.1653263  80.7069905
  42.9005579  59.6478027  81.5695841  43.0537367  57.7494643  80.5985182
  43.8976363  57.6520830  79.9155471  43.4423211  57.1475874  81.9401352
  42.9563511  57.7309791  82.7221752  43.0708147  56.1232240  81.9677507
  44.9487004  57.1474919  82.1688897  45.4214580  56.6669200  81.3123550
  45.2817177  58.1833807  82.2332004  45.3377002  56.4092872  83.4436070
  44.5960468  56.6307652  84.2110682  45.3373486  55.3390825  83.2368193
  46.7169604  56.8308942  83.9341034  47.1861894  55.9533418  84.3788803
  47.2899545  57.1459175  83.0620155  46.6847117  57.9409135  84.9368153
  46.1541716  57.6490546  85.7451750  47.6278580  58.1686483  85.2173715
  46.2503365  58.7543061  84.5247355  41.9615114  56.9211934  79.9312016
  42.2283204  56.1991174  78.9847529  40.7386062  57.0483265  80.4048408
  40.5756920  57.6748391  81.1801087  39.5988386  56.2834289  79.8746357
  39.7406963  55.2177654  80.0544606  38.3111767  56.7331735  80.5807600
  38.2836514  57.8211785  80.5208695  37.4794138  56.3173493  80.0121118
  38.1956270  56.3010162  82.0408252  37.9994593  55.2290212  82.0619411
  39.1477219  56.5053440  82.5305878  37.0739680  57.0396107  82.7775729
  37.5282469  57.8047803  83.4070530  36.4347925  57.5145596  82.0332761
  36.2366835  56.1010830  83.6422783  35.3144806  55.8802531  83.1048061
  36.8022816  55.1804424  83.7858712  35.9086917  56.6925760  84.9665560
  35.3842228  57.5454476  84.8337321  35.3560025  56.0371324  85.5004363
  36.7630832  56.8968813  85.4649271  39.4006963  56.4251228  78.3614455
  39.1144858  55.4469354  77.6782771  39.5790009  57.6321018  77.8355149
  39.7631781  58.4301867  78.4264789  39.5208556  57.8410821  76.3752716
  38.5808957  57.4322443  76.0045612  39.6043606  59.3296770  75.9728179
  40.6546091  59.6061281  76.0658352  39.3092619  59.3730069  74.9244194
  38.7523104  60.2975956  76.7794126  38.6670595  59.8744153  77.7802880
  39.2346561  61.2733115  76.8379188  37.3605545  60.4790988  76.2105777
  36.9026293  61.6096123  76.0064290  36.6582492  59.3695204  75.9995401
  35.7237467  59.4312698  75.6213952  37.0626538  58.4702640  76.2183922
  40.6826828  57.1309606  75.7029041  40.4972880  56.4323272  74.7265347
  41.8858119  57.3146773  76.2424422  41.9592423  57.8796817  77.0763951
  43.1124619  56.6779973  75.7168137  43.2926625  57.0207616  74.6979223
  44.3314684  57.0353388  76.5770812  43.8992920  56.9051879  77.5692423
  45.0516587  56.2393544  76.3877808  45.0337039  58.3817825  76.5032103
  44.4347280  59.1342492  77.0161651  46.4070358  58.2763962  77.1763130
  47.0067923  57.5243985  76.6635846  46.9125394  59.2407062  77.1246103
  46.2796108  57.9890461  78.2200051  45.1455954  58.8583898  75.0611681
  44.1483268  58.9598973  74.6330900  45.6515486  59.8234991  75.0351567
  45.7171107  58.1333892  74.4816481  43.0324914  55.1553064  75.7628043
  43.7673956  54.4700079  75.0538094  42.1767530  54.6415050  76.6455126
  41.6739693  55.2762411  77.2491830  41.9876052  53.2089553  76.8379746
  42.9643024  52.7251724  76.8272138  41.2887131  52.8714112  78.1585225
  41.8391771  53.3680173  78.9575663  40.2780835  53.2765967  78.1079995
  41.2217353  51.3627208  78.4439420  40.6233350  50.9054925  77.6559317
  42.2391538  50.9742564  78.3985875  40.6103835  51.0310935  79.8047849
  39.5242071  51.0769088  79.7259126  40.9111022  50.0236170  80.0922892
  41.0442947  51.9637153  80.8434281  40.3456046  52.5958198  81.2072625
  42.2812666  52.0277976  81.3399398  43.2230803  51.1854614  80.9231957
  43.0014845  50.4904701  80.2246383  44.1552943  51.2448901  81.3073117
  42.5817936  52.9474262  82.2548298  41.8718062  53.5931862  82.5694916
  43.5183533  52.9949925  82.6299191  41.2147257  52.6141408  75.6716886
  41.3480569  51.4251889  75.3732643  40.3347397  53.4570684  75.1499552
  40.2533856  54.3682233  75.5780644  39.4686781  53.1434372  74.0374095
  38.9153962  52.2294147  74.2531432  38.4768135  54.2623276  73.7862324
  39.0343256  55.1919561  73.6719063  37.9435109  54.0429990  72.8612549
  37.4800825  54.4067501  74.9227421  37.0665449  53.4210507  75.1360122
  38.0202784  54.7704425  75.7968219  36.3614093  55.3592935  74.5921782
  35.6362439  55.7785524  75.5166241  36.2133627  55.6878585  73.4005150
  40.3729782  52.9279712  72.8731987  40.1513357  52.0553692  72.0533126
  41.4216245  53.7273063  72.8063821  41.4939244  54.5569685  73.3778125
  42.3974202  53.5301668  71.7572431  41.8861087  53.4521311  70.7977796
  43.3716602  54.6777490  71.6917174  43.7150431  55.0245738  72.6663456
  44.2328382  54.4617702  71.0593997  42.6535419  55.8245259  71.0586852
  41.7159031  55.7380709  70.0815342  41.4695435  54.7379286  69.7249924
  41.2693431  56.9779063  69.7469534  40.5769173  57.1848336  69.0413847
  41.9158363  57.9009980  70.5185628  41.8031451  59.2711204  70.5409776
  41.0974976  59.7494825  69.8617649  42.5871770  59.9451567  71.4175990
  42.5271810  61.0325992  71.4619748  43.4630971  59.2881052  72.2589784
  44.0860659  59.8449453  72.9589345  43.5764095  57.9333435  72.2419175
  44.2888649  57.4660012  72.9216963  42.7914357  57.2099980  71.3557717
  42.9586297  52.1268058  71.9802494  43.3607156  51.4513270  71.0485943
  42.9516003  51.7012033  73.2419352  42.8919932  52.4276420  73.9411013
  43.2179151  50.3430046  73.6813197  42.7307103  50.1425296  74.6355422
  42.6582909  49.3734958  72.6317872  41.7268572  49.7882405  72.2464078
  43.3885221  49.3102863  71.8250239  42.4038075  48.0016036  73.1843339
  42.7023827  47.7685327  74.3749958  41.8918794  47.1578309  72.4211325
  44.5138830  49.7500104  74.1504659  45.6153016  50.1277515  73.7850214
  44.2623064  48.7842949  75.0216690  43.3173148  48.8111925  75.3771502
  45.1925187  47.8636338  75.6236882  44.6850431  47.2836450  76.3945194
  45.7569195  46.9053855  74.5873799  46.2285530  47.5046947  73.8086054
  46.5118448  46.2943001  75.0821145  44.7053984  46.0045127  73.9650646
  44.0397627  46.6248569  73.3648955  45.2350306  45.3072574  73.3158928
  43.8891898  45.2261106  74.9861561  43.5363858  45.7821099  76.0473757
  43.5819411  44.0464593  74.7149678  46.2800225  48.4302919  76.4765675
  47.2341427  47.7324445  76.7832082  46.1643717  49.6681960  76.9098625
  45.4385454  50.3350601  76.6894813  47.2795161  50.1085398  77.7481918
  48.1636193  50.1825896  77.1149641  46.9773115  51.4934338  78.3312888
  46.7850305  52.1956924  77.5201413  46.0997551  51.4335846  78.9750379
  48.1494873  52.0093736  79.1536611  49.1683713  51.3337721  79.2796736
  48.0028414  53.2119357  79.7145206  48.7508154  53.6010081  80.2706297
  47.1445932  53.7271627  79.5801636  47.6011443  49.1162787  78.8808304
  48.1201003  49.5047346  79.9334679  53.1661879  52.0699593  83.5233665
  53.7543796  52.8006048  83.8979156  52.3244612  52.3810554  82.3567769
  52.3848979  51.5721521  81.6286821  50.8489779  52.5464346  82.7905220
  50.8310987  52.8120053  83.8475233  50.4093255  53.3545391  82.2059086
  50.0987554  51.3518132  82.5884650  49.1912791  51.4926953  82.8681771
  52.8360179  53.6186133  81.5682841  53.5719141  53.4699652  80.5989309
  52.4913957  54.8246301  82.0447334  51.8439550  54.8508096  82.8194815
  52.9173188  56.1074387  81.4428558  53.8793361  55.9814414  80.9461200
  51.8839517  56.5832810  80.4020505  52.1619359  57.6279590  80.2625089
  52.0598830  56.0343423  79.4769480  50.3997037  56.4951999  80.7735535
  50.1092149  55.4449489  80.7998189  50.1337200  57.1280631  82.1293986
  50.4235492  58.1785111  82.1037710  49.0724282  57.0501638  82.3653903
  50.7141404  56.6100703  82.8928749  49.5085864  57.1282862  79.7083289
  49.6539547  56.6127792  78.7590028  48.4646659  57.0445577  80.0105222
  49.7698465  58.1802804  79.5936539  53.1553415  57.1173461  82.5908638
  53.2920444  56.6944508  83.7470428  53.3594831  58.4258632  82.2741757
  52.9377372  59.2482354  81.1205803  51.8871339  59.0523132  80.9062267
  53.5407923  58.9830008  80.2522059  53.1809545  60.6637293  81.5785632
  52.2374084  61.0963204  81.9112563  53.5721394  61.2449586  80.7435493
  54.1689674  60.5972192  82.6880211  53.9942891  61.4135847  83.3888306
  55.2034097  60.6278785  82.3458388  53.8844145  59.2591620  83.3681296
  54.7895756  58.7824797  83.7443684  52.8867331  59.4346282  84.5150504
  51.6737618  59.3066536  84.3245824  53.4227869  59.7061818  85.7087217
  54.4293362  59.7438428  85.7831495  52.6227601  59.9779875  86.9151096
  51.6359014  59.5281265  86.8063242  53.3012680  59.3861352  88.1808785
  54.0048946  60.1307589  88.5530939  52.5206211  59.2214607  88.9235580
  53.9891934  58.1638332  87.9369516  54.3848151  57.8508082  88.7537126
  52.5023942  61.4958919  87.1143564  51.5143623  61.9912164  87.6541969
  53.5503898  62.1857757  86.6940854  54.3709955  61.6822077  86.3889218
  53.5979488  63.6255338  86.7065640  53.2702095  64.0062574  87.6738983
  55.0382207  64.0925493  86.4582671  55.6391219  63.8682814  87.3395847
  55.4238370  63.5349766  85.6047375  55.1511463  65.5808823  86.1583089
  54.2042114  66.3555364  86.3202513  56.3387425  65.9862106  85.7285576
  56.4874638  66.9609153  85.5096227  57.0888504  65.3182771  85.6222378
  52.6377737  64.1794187  85.6578666  52.7434856  63.8565245  84.4615747
  51.7129576  65.0471286  86.1012612  51.6492939  65.5819601  87.4765601
  52.6577454  65.6653625  87.8817390  51.0615659  64.9097416  88.1016978
  50.9891407  66.9173965  87.2942403  51.7288898  67.6783624  87.0456419
  50.4599751  67.2085405  88.2016102  50.0349972  66.6970173  86.1688634
  49.8158832  67.6315208  85.6523451  49.1044759  66.2466046  86.5143460
  50.7620713  65.7342477  85.2196697  50.0886374  64.9746953  84.8225989
  51.4138461  66.4965384  84.0582358  50.8803067  66.4729422  82.9704032
  52.5427392  67.1524152  84.2840609  52.8991617  67.1944348  85.2281460
  53.2955369  67.8230775  83.2303472  52.7569697  68.6769995  82.8194192
  54.6435024  68.2908650  83.7899666  55.1899615  67.4250546  84.1639388
  55.4604233  68.9771878  82.7141403  54.9147768  69.8434293  82.3399797
  56.4133831  69.3015048  83.1322153  55.6416233  68.2810611  81.8951937
  54.4112217  69.2179682  84.9904737  54.1032065  70.1831813  84.5884896
  53.5928813  68.7874619  85.5676069  55.6147279  69.4062915  85.8862037
  56.4333880  69.8372227  85.3098412  55.3565587  70.0761003  86.7064501
  55.9230643  68.4415022  86.2889569  53.5473371  66.8681472  82.0407326
  53.2124103  67.1632355  80.8793864  54.1173368  65.7159185  82.3434905
  54.4648641  65.5395790  83.2752782  54.4525804  64.7736329  81.2958171
  54.9064004  65.3041290  80.4587266  55.4354087  63.7291841  81.7991743
  55.0395040  63.4633458  82.7793216  55.4756227  62.8395537  81.1706518
  56.8492598  64.3075668  81.9581970  57.0624299  65.1460340  82.8609386
  57.7137497  64.0107213  81.1077354  53.2033897  64.2235663  80.6245970
  53.1028644  64.2171108  79.4087681  52.2479876  63.8011269  81.4297030
  52.3815306  63.8425218  82.4299790  51.0150893  63.2469250  80.9268470
  51.2185788  62.3086103  80.4108464  50.0358312  62.9736872  82.0703962
  50.4797470  62.4849977  82.9377027  49.6384338  63.9449412  82.3650844
  48.8666904  62.1398499  81.6621974  47.9202455  62.6442017  80.7919375
  48.0160656  63.6716412  80.4408158  46.8675363  61.8685073  80.3683404
  46.1082618  62.2942243  79.7123159  46.7712247  60.5544027  80.7718527
  45.9459928  59.9311384  80.4274201  47.7259102  60.0291408  81.6157903
  47.6588410  58.9888450  81.9342028  48.7684743  60.8215922  82.0584210
  49.5228456  60.4064895  82.7267874  50.3909185  64.2038237  79.9358119
  50.0558746  63.8130128  78.8493541  50.2830541  65.4689086  80.3208516
  50.6695067  65.7240911  81.2184236  49.6389291  66.5171106  79.5158339
  48.5999599  66.2511312  79.3211618  49.6701832  67.8554047  80.2667840
  48.9922539  68.5449277  79.7637242  49.3226100  67.6833339  81.2854520
  50.9751141  68.4150009  80.3003339  50.9538247  69.2481961  80.7767081
  50.3302796  66.7278789  78.1807260  49.6775980  67.0049350  77.1810142
  51.6571554  66.5948970  78.1795028  52.1411781  66.4633855  79.0561590
  52.4586655  66.6548796  76.9382967  52.0947039  67.4654404  76.3069312
  53.9168912  66.9024098  77.2492750  54.0187849  66.1729726  78.0527912
  54.5918194  66.6410497  76.4342518  54.2625672  68.2652371  77.7657853
  54.0083643  69.4198600  77.0156980  53.4636857  69.3303607  76.0757967
  54.4387441  70.6651509  77.4526065  54.1956064  71.5720700  76.8989970
  55.1704295  70.7449546  78.6234686  55.6463424  71.9283402  79.1217569
  55.4184357  72.6840987  78.5754170  55.4731294  69.6100617  79.3398993
  56.0566029  69.6852445  80.2575086  55.0409382  68.3837522  78.8999201
  55.3115331  67.4815373  79.4484516  52.4016584  65.3778922  76.0633777
  52.5161656  65.4444797  74.8442681  52.2718979  64.2270109  76.7094355
  52.3435820  64.2298726  77.7168840  52.1169964  62.9460120  76.0312767
  52.8897293  62.8113459  75.2744094  52.2529139  61.8228370  77.0797305
  53.3224224  61.6881095  77.2412831  51.7933499  62.2036618  77.9918015
  51.6282660  60.4974443  76.7175520  51.6975304  59.8432414  77.5866446
  50.5794479  60.6730539  76.4782947  52.3123053  59.8410114  75.5360398
  52.2107025  60.4689494  74.6509016  53.3694888  59.6901691  75.7544635
  51.7042720  58.5493195  75.2629580  51.0808513  58.4892800  74.4705937
  51.9145593  57.4537794  75.9905810  51.2633759  56.3361795  75.6929626
  50.6146625  56.3241742  74.9189297  51.4195612  55.5028828  76.2418910
  52.7683338  57.4687974  77.0178670  53.2617673  58.3194678  77.2480481
  52.9165158  56.6294135  77.5596931  50.7834779  62.8613892  75.2586077
  50.7463782  62.3905354  74.1346881  49.6949011  63.3063913  75.8599817
  49.7155949  63.6128427  76.8221452  48.4063067  63.2838663  75.1665509
  48.3229684  62.4105063  74.5197152  47.2322931  63.2827991  76.1407381
  46.3022175  63.1620381  75.5853324  47.3846610  62.1376484  77.1279918
  48.3143521  62.2579770  77.6841361  46.5438894  62.1409797  77.8216721
  47.4051898  61.1914201  76.5873142  47.1365994  64.6071853  76.8643235
  46.9916031  65.4081996  76.1394414  46.2928268  64.5848596  77.5539966
  48.0562965  64.7844838  77.4218388  48.2761564  64.4357651  74.2010650
  47.5250987  64.3590502  73.2408144  49.0196880  65.5004094  74.4428486
  49.5294310  65.5661327  75.3122978  49.1003610  66.6164736  73.5082719
  48.1163882  67.0701280  73.3895525  50.0602901  67.6698510  74.0327748
  51.0522101  67.2329760  74.1482522  50.1093637  68.5003429  73.3285198
  49.7092786  68.0333836  74.9985564  49.5526581  66.1315324  72.1326435
  48.9905202  66.5250201  71.1059028  50.5618551  65.2702916  72.1142148
  51.0149129  65.0104263  72.9786846  51.0952823  64.7257169  70.8561863
  51.1926566  65.5617578  70.1636164  52.4646663  64.1357195  71.0960333
  52.3823255  63.2915538  71.7806531  52.8851873  63.7956640  70.1496588
  53.1162280  64.8935106  71.5311415  50.1958458  63.6746520  70.2005449
  50.3042817  63.4278272  69.0094512  49.3211920  63.0472332  70.9782803
  49.3335920  63.2291533  71.9716838  48.3208140  62.0893902  70.4520316
  48.7969819  61.3900588  69.7647915  47.6979613  61.2912596  71.6135698
  47.2005234  61.9774910  72.2989466  46.9701705  60.5831532  71.2173300
  48.8499820  60.3167720  72.6244567  47.9300193  59.8275567  73.4510372
  47.1850943  62.7861759  69.7066648  46.6030549  62.2681722  68.7739643
  46.8372578  63.9821524  70.1555124  47.3632582  64.3585783  70.9312226
  45.8198795  64.8001080  69.5637235  44.8550920  64.2956813  69.6169973
  45.7193473  66.1244309  70.3128938  46.7630996  66.4052972  70.4535863
  45.2447915  66.8244196  69.6252074  45.0035531  66.1628163  71.6442692
  45.5837933  65.6414810  72.4056047  44.8512328  67.6249983  72.0360463
  44.2706656  68.1469219  71.2753648  44.3373536  67.6931399  72.9948923
  45.8363958  68.0839955  72.1189667  43.6571550  65.4656054  71.5553602
  43.8046816  64.4248900  71.2668349  43.1615153  65.5064420  72.5252958
  43.0376306  65.9644079  70.8100519  46.0981545  65.2140271  68.1417745
  46.9418125  66.0399412  67.9436631  45.2990884  64.7301548  67.1817168
  44.0161614  64.0679280  67.4673389  43.3927871  64.7283243  68.0701502
  44.1987404  63.1426396  68.0137868  43.4401557  63.8211150  66.0935712
  42.5332277  64.4157441  65.9840406  43.1934286  62.7632056  66.0038222
  44.4919885  64.2208852  65.0735391  43.9719384  64.7026199  64.2455423
  45.1246548  63.4211479  64.6885023  45.3373533  65.2384078  65.8126380
  46.3783475  65.3155379  65.4988224  44.6766716  66.6036274  65.7137788
  43.4477167  66.6830197  65.5835726  45.4599735  67.6592213  65.8540123
  46.4427779  67.5356460  66.0513043  44.9359188  69.0155738  65.7806179
  43.9204575  69.0043064  65.3846247  44.9464151  69.7321999  67.1524512
  45.0588031  70.8048172  66.9944596  43.6547690  69.4645917  67.8907942
  43.5418993  68.3921413  68.0495744  43.6741601  69.9739497  68.8542666
  42.8155648  69.8344458  67.3016902  46.1437066  69.3011032  68.0077556
  45.9177814  68.3162985  68.4166790  47.0094922  69.2306435  67.3493103
  46.4483752  70.2620194  69.1425279  45.5831560  70.3326489  69.8016992
  47.3062023  69.8974488  69.7076121  46.6748647  71.2469951  68.7343303
  45.7446115  69.8248222  64.7778023  46.6450433  69.2859873  64.1437807
  45.3822141  71.0918066  64.5854908  44.5555457  71.4587672  65.0350003
  46.0069399  71.8856479  63.5301792  46.6592540  71.2473154  62.9342621
  44.9352878  72.5194768  62.5900490  45.1983088  72.4938807  61.5325690
  44.1019676  71.8411382  62.7731729  44.5303581  73.9391565  62.9791704
  45.2807147  74.8987608  62.6653273  43.3815710  74.1106399  63.4419215
  47.0832541  72.8528412  64.0648708  47.0115277  73.3142021  65.2008226
  48.1278570  73.0559840  63.2554934  48.1286486  72.6355530  62.3371599
  49.3339951  73.7402438  63.7030336  49.8242311  73.0379356  64.3772228
  50.2762746  74.0167997  62.5060657  50.4756922  73.0848551  61.9770939
  49.8029353  74.7255478  61.8265615  51.5904060  74.6025836  63.0175782
  52.5097068  73.7903615  63.3052983  51.6624174  75.8566900  63.1157167
  49.0486674  75.0228348  64.5289376  49.8370799  75.3694431  65.4085088
  47.9238291  75.6981889  64.2832920  47.3402304  75.4625598  63.4933612
  47.6099033  76.9089518  65.0402912  48.5138756  77.4303623  65.3550362
  46.7119103  77.9041084  64.2473234  46.9056070  77.7651550  63.1837104
  45.2295319  77.6820559  64.5268801  45.0349654  77.8213015  65.5902970
  44.6399824  78.3974018  63.9534587  44.9524388  76.6684981  64.2370151
  47.1137841  79.3468025  64.5632842  48.1549295  79.5044597  64.2817485
  46.4785099  80.0325560  64.0026876  46.9945152  79.5322604  65.6307490
  47.0446767  76.6268180  66.4375740  47.3364766  77.3488518  67.3776065
  46.2507892  75.5748552  66.5683216  46.0191882  75.0500428  65.7370381
  45.7780068  75.0709871  67.8639137  45.2864176  75.8596400  68.4335328
  44.7635607  73.9535000  67.5985938  44.9321428  73.8172580  66.5303629
  45.1280005  73.0791395  68.1378315  43.2805802  74.1243741  67.8577463
  42.7040448  73.8635925  66.9702212  42.9086955  73.1845698  68.9991690
  43.4845298  73.4450457  69.8872377  41.8446740  73.2788528  69.2161242
  43.1306282  72.1569448  68.7113616  42.8928797  75.5765659  68.1312298
  43.1537273  76.1912316  67.2696939  41.8194400  75.6391159  68.3098800
  43.4284641  75.9369279  69.0095166  46.8849431  74.3957399  68.6802637
  46.8969329  74.4817909  69.9088602  47.7743533  73.6754186  68.0013398
  47.6661366  73.5510495  67.0048857  48.8904081  72.9929581  68.6716527
  48.5287576  72.3278438  69.4558282  49.6313434  72.1544692  67.6201693
  48.8895958  71.4582278  67.2288157  49.9177195  72.8572007  66.8377007
  50.8574133  71.3822201  68.0808905  51.3994074  71.0727669  67.1872563
  51.4742642  72.0698996  68.6594178  50.5319549  70.1556138  68.9282516
  51.4180610  69.9308435  69.5218788  49.7116371  70.4313244  69.5909445
  50.1470346  68.9467368  68.1780038  49.2366016  68.5689058  68.3981283
  50.9192746  68.2853846  67.3100541  52.0992966  68.7577693  66.9316065
  52.4304609  69.6368811  67.3025414  52.6613639  68.2362365  66.2741998
  50.4619160  67.1731033  66.7518583  49.5387763  66.8368373  66.9860339
  51.0387642  66.6671987  66.0950437  49.8200704  74.0056897  69.3555069
  50.3661972  73.7262807  70.4458693  49.9778665  75.1897769  68.7405517
  49.4800230  75.4155053  67.8912591  50.8056772  76.2328542  69.3607397
  51.6509426  76.0395682  70.0212442  51.0446192  77.5636070  68.5884614
  50.2628366  78.2637141  68.8830230  52.4160000  78.1807988  68.8743546
  53.1983548  77.4814114  68.5796022  52.5239621  79.1057577  68.3078777
  52.5035610  78.3953209  69.9394426  50.3050278  77.7281250  67.2560277
  50.6112425  76.9076318  66.6070870  49.2374198  77.6493702  67.4612359
  50.5929150  79.0570944  66.5649971  51.6603392  79.1363742  66.3590357
  50.0379085  79.1078430  65.6282518  50.2865183  79.8781132  67.2131861
  50.1711264  76.7898327  70.6212500  50.8705018  77.2473793  71.5311209
  48.8426327  76.7568225  70.6765936  48.3336468  76.4664248  69.8539747
  48.0766927  77.2130561  71.8448576  48.3859076  78.2226133  72.1155596
  46.5757574  77.2267442  71.5366890  46.4637275  76.9277503  70.4945032
  46.1134628  76.4784939  72.1805098  45.8949289  78.5759315  71.7547558
  46.0716335  78.8626506  72.7914180  46.3206785  79.3295549  71.0922672
  44.3890813  78.5118912  71.5164453  43.6501535  77.9378431  72.3163849
  43.9328152  79.0661132  70.3907570  42.9435062  79.0491551  70.1880710
  44.5790494  79.4998016  69.7470201  48.3468689  76.4027996  73.0937200
  48.6938119  76.9758453  74.1047859  48.1823150  75.0750255  73.0260528
  47.9478562  74.6823869  72.1255178  48.4607098  74.1548668  74.1352157
  47.7043816  74.2539856  74.9138313  48.4346803  72.7253545  73.6106302
  48.7244538  72.8507925  72.5673680  49.2462931  72.2453429  74.1574149
  47.1950059  71.8624940  73.6889256  46.3856170  72.4293100  74.1490454
  46.7828770  71.4375161  72.2856343  47.5916387  70.8702133  71.8250143
  45.8894519  70.8156031  72.3414620  46.5721736  72.3221565  71.6847052
  47.4915989  70.6399840  74.5339834  47.7832722  70.9527509  75.5365815
  46.6011046  70.0142498  74.5938001  48.3040491  70.0724064  74.0802442
  49.8863654  74.3267460  74.6249959  50.1922227  74.3505860  75.8352983
  50.7701442  74.3479022  73.6335704  50.4520645  74.2125187  72.6845731
  52.1828803  74.5266753  73.8622557  52.5788940  73.7026647  74.4557864
  52.9235996  74.5563275  72.4980839  52.2879965  73.8069955  72.0262690
  52.7310102  75.5304732  72.0485847  54.4146037  74.1757789  72.2889434
  54.5216534  73.8843920  71.2440823  55.4230528  75.3027236  72.6156114
  55.3169123  75.5943413  73.6605000  56.4376693  74.9452266  72.4399697
  55.2260587  76.1636879  71.9768358  54.7446117  72.8703364  73.0025340
  54.1190504  72.0706629  72.6059300  55.7941029  72.6233370  72.8423443
  54.5570605  72.9819422  74.0704608  52.4325246  75.8309803  74.6373816
  53.2346158  75.8501587  75.6062422  51.7242696  76.8943806  74.2487693
  51.2342398  76.8884732  73.3656298  51.8157251  78.1529073  74.9804594
  52.8632323  78.3547698  75.2042437  51.2486215  79.3335204  74.1848243
  50.4648140  78.9511659  73.5309511  50.8168633  80.0392120  74.8945316
  52.3158734  80.0446319  73.3418625  53.1392129  80.3134448  74.0036424
  52.6704181  79.3403797  72.5892477  51.7872836  81.2964881  72.6558181
  51.2650418  81.8980029  73.3998223  52.6376583  81.8572300  72.2678352
  50.8364705  80.9634328  71.5148844  51.3653756  81.1203830  70.5748170
  50.5552451  79.9139564  71.6021244  49.6096514  81.8102427  71.5418774
  49.8699927  82.7827236  71.4606177  49.0087476  81.5569863  70.7705954
  49.1191832  81.6646368  72.4127040  51.2553894  78.0585025  76.4039511
  51.6297616  78.8647535  77.2498599  50.3957911  77.0681726  76.6727475
  50.1082919  76.4514465  75.9263612  49.7441870  76.9309599  77.9759995
  49.4880641  77.8888056  78.4288040  48.4860501  76.0737080  77.8530049
  48.5774067  75.4376569  76.9725542  48.3034558  75.2040412  79.0906300
  48.2115553  75.8394460  79.9714908  47.4015792  74.6015854  78.9821576
  49.1664177  74.5480412  79.2049100  47.2903382  76.9977752  77.5755366
  47.1507042  77.6076454  78.4680956  47.5746729  77.6373376  76.7399451
  45.9947147  76.2812372  77.2453697  45.7094769  75.6417910  78.0807426
  45.2089190  77.0148314  77.0651925  46.1334465  75.6714810  76.3525928
  50.7111465  76.4181427  79.0596170  51.4555653  75.4233324  78.8576190
  50.7233361  77.1191837  80.1963584  49.9786724  77.7680928  80.4072901
  51.8053250  76.9707268  81.1626268  52.6574224  76.5472722  80.6309169
  52.0595762  77.9690238  81.5187992  51.4814151  76.0952906  82.3463480
  52.3828227  75.6219847  83.0371287  50.1864128  75.8011598  82.5244408
  49.4725747  76.2708842  81.9860231  49.7736380  74.8592050  83.5275400
  50.5912183  74.6940833  84.2292497  48.5671320  75.3719803  84.2989242
  48.8166313  76.3266002  84.7621198  47.7332113  75.5096299  83.6106445
  48.2025856  74.4435224  85.3006636  47.4410116  74.7748408  85.7821540
  49.4491364  73.4825512  82.9541045  48.7232635  73.3502133  81.9562667
  49.9254164  72.4563191  83.6617704  50.6089838  72.6292232  84.3849156
  49.5243536  71.0911983  83.4106071  49.8227062  70.7836372  82.4083641
  50.1836410  70.1675673  84.4175509  49.8871592  70.4573093  85.4256422
  49.8710095  69.1406251  84.2284700  51.2670999  70.2402311  84.3230202
  48.0160289  70.9684240  83.4942565  47.4269697  70.3733218  82.6173372
  47.3994625  71.5503963  84.5309860  47.9524655  72.0694783  85.1979500
  45.9565605  71.4379907  84.7625826  45.6433366  70.3961746  84.8304742
  45.5329008  72.1818950  86.0325608  45.6077781  73.2571295  85.8701894
  44.1048479  71.8216057  86.3637927  44.0292638  70.7465116  86.5267663
  43.7969486  72.3480474  87.2672073  43.4557365  72.1097388  85.5369114
  46.4810849  71.8845668  87.2227569  47.4862186  71.8069899  86.8082827
  46.4279015  72.7476227  87.8863875  46.1583733  70.6255270  88.0044634
  46.2118144  69.7619326  87.3415543  46.8775560  70.5059699  88.8147607
  45.1534957  70.7025646  88.4196574  45.1594702  71.9844742  83.5891872
  44.2679171  71.3171792  83.0798215  45.4929872  73.2070568  83.1700771
  46.2782033  73.6682905  83.6068818  44.8507944  73.8620939  82.0213975
  43.7856291  73.9858873  82.2168387  45.4654339  75.2401315  81.7730939
  46.5264250  75.0502318  81.6108127  45.0127624  75.5872447  80.8442769
  45.3019227  76.2906493  82.8319373  44.2596627  76.5409780  83.0297514
  45.7547303  75.8822185  83.7354037  46.0426120  77.5617838  82.4493014
  47.2639936  77.5475566  82.2208375  45.2977333  78.6537705  82.2883082
  45.7361113  79.5273890  82.0339132  44.2977992  78.6033891  82.4213303
  45.1305173  73.1211574  80.7162713  44.3484287  73.2020171  79.7554278
  46.2847842  72.4470539  80.6715681  46.9771320  72.5636762  81.3976212
  46.6270098  71.6356552  79.5189525  46.3811776  72.1937594  78.6155227
  48.1174277  71.2593525  79.4738322  48.6597006  71.9221541  80.1481714
  48.2222679  70.2295333  79.8152718  48.6902339  71.3886919  78.0635339
  48.0657861  70.7928732  77.3978268  48.6274943  72.4384534  77.7768866
  50.1174305  70.9254299  77.9597694  50.2920250  70.1109388  78.6627773
  50.3192377  70.5792901  76.9460828  51.0315895  72.0144379  78.2713649
  51.1412244  72.7339822  77.5711252  51.7098375  72.1275823  79.4082440
  51.6125694  71.1993651  80.3560550  51.0163743  70.3967081  80.2132497
  52.1353545  71.3014991  81.2141715  52.5056040  73.1723824  79.5929424
  52.5903041  73.8727984  78.8702091  53.0232465  73.2628087  80.4554782
  45.7292532  70.4025507  79.4487202  45.0898144  70.1622798  78.4397188
  45.6550386  69.6530323  80.5382501  46.2308378  69.8989901  81.3307520
  44.7881277  68.4718480  80.6470117  45.0757849  67.7133499  79.9189780
  44.9381366  67.8897253  82.0375208  44.7493688  68.7416854  82.6906900
  44.1393635  67.1576119  82.1561443  46.2654774  67.2539284  82.4069239
  47.0301960  67.6929973  81.7662018  46.6481695  67.4623106  83.8734111
  45.8841006  67.0230687  84.5147879  47.6070258  66.9830332  84.0708664
  46.7264315  68.5295112  84.0809162  46.1622214  65.7807417  82.0956120
  45.9575625  65.6467903  81.0334109  47.1011925  65.2886099  82.3490699
  45.3532303  65.3413619  82.6792023  43.3238631  68.7978797  80.4037333
  42.6543957  68.0713585  79.6851350  42.8259062  69.8699786  81.0253704
  43.4037352  70.3606091  81.6928244  41.4456797  70.3189646  80.8405799
  40.7625715  69.5202283  81.1295136  41.1414170  71.5685629  81.7065581
  42.0971737  71.9697002  82.0437780  40.6490985  72.2971674  81.0624634
  40.2513955  71.2773981  82.9227533  39.2581595  71.0358824  82.5442652
  40.6695920  70.4058312  83.4263255  40.1507795  72.4381810  83.9128960
  39.3893767  72.1947554  84.6539146  41.1149195  72.5541202  84.4079632
  39.7948179  73.7097258  83.2734226  40.5631130  74.3198657  83.0335238
  38.5535981  74.1014756  82.9765330  38.3479116  75.2912140  82.4116323
  39.1331522  75.8934791  82.2097068  37.4077685  75.5849449  82.1881315
  37.5240337  73.3039208  83.2244897  37.6805459  72.3965952  83.6396575
  36.5879046  73.6073120  82.9970810  41.1591773  70.5956587  79.3653424
  40.3507935  69.9091649  78.7361089  41.8396363  71.5910347  78.8181996
  42.4365602  72.1719722  79.3894201  41.6881629  71.9297557  77.4168054
  40.6921215  72.3309913  77.2296939  42.7203327  72.9887359  77.0358073
  42.2563107  73.9739266  76.9890956  43.5347396  73.0052475  77.7600785
  43.4795659  72.7236796  75.4438415  44.2665374  73.7950703  75.4850240
  41.7957581  70.7012606  76.4970357  41.0623929  70.5829950  75.5091897
  42.7037888  69.7980408  76.8369771  43.2962543  69.9853003  77.6332296
  42.8603232  68.5131698  76.1380891  43.1003905  68.6773583  75.0876088
  44.0113587  67.7213235  76.7883249  44.1904901  68.1784627  77.7614821
  43.6470689  66.7034249  76.9271611  45.3069533  67.6913227  75.9975003
  45.2638502  66.8103442  75.3570944  45.3536947  68.5875854  75.3789313
  46.5502264  67.6176158  76.8809506  47.6117282  68.1208742  76.4581209
  46.4761843  67.0431092  77.9840398  41.6491024  67.5810566  76.2072499
  41.3595754  66.8765247  75.2626876  40.9848333  67.5330276  77.3537828
  41.3380180  67.9874881  78.1837380  39.7494937  66.7594331  77.4599316
  39.9203155  65.7504581  77.0845803  39.2843245  66.6689520  78.8854055
  39.6833394  67.5508189  79.3866012  38.1967141  66.6716467  78.9574906
  39.8283975  65.4269191  79.5452054  40.8312811  65.2249045  79.1690200
  39.8843852  65.6348539  81.0495745  38.8817313  65.8364747  81.4265801
  40.2776465  64.7371291  81.5265822  40.5339915  66.4803119  81.2760980
  38.9845274  64.2182392  79.1672237  39.0038744  64.0848730  78.0855867
  39.3875092  63.3278519  79.6498388  37.9569133  64.3750396  79.4951289
  38.6736621  67.3547709  76.5999012  37.8872002  66.6258002  76.0051952
  38.6443867  68.6863773  76.5268365  39.2669414  69.2399878  77.0978358
  37.6643287  69.3794460  75.7021626  36.6663146  69.1078784  76.0461364
  37.8061203  70.9127736  75.7636104  37.1986743  71.2652587  76.5971947
  38.8535252  71.1475106  75.9531928  37.3441361  71.6188576  74.4473775
  36.4576238  71.0921501  73.7163685  37.8836260  72.7076110  74.1470147
  37.7369699  68.9006984  74.2540076  36.7437193  68.4380184  73.6938652
  38.9203266  68.9936014  73.6645019  39.6841265  69.4206430  74.1688278
  39.1463006  68.5857235  72.2858564  38.5256492  69.1615218  71.5993089
  40.6231417  68.8107868  71.9493676  41.2300444  68.4325472  72.7719880
  41.0019960  68.1043714  70.6838678  40.3957944  68.4824327  69.8606486
  42.0559127  68.2817735  70.4696507  40.8303383  67.0341673  70.7991760
  40.8832485  70.3083572  71.8053113  41.1621364  70.4914569  70.7676230
  39.9482657  70.8233365  72.0259986  41.9688561  70.8254675  72.7161423
  42.9043191  70.3112484  72.4957165  42.0973479  71.8962077  72.5576986
  41.6904491  70.6431257  73.7540927  38.7188847  67.1388198  72.0260284
  38.0861575  66.8528905  71.0122031  39.0455166  66.2418394  72.9588707
  39.5094421  66.5500647  73.8014083  38.7372165  64.8102346  72.8161554
  39.1743714  64.4268817  71.8941818  39.3093612  64.0278639  73.9869579
  39.0891560  64.6112164  74.8809985  38.7601786  63.0870229  74.0232441
  40.7727252  63.7468403  73.9250749  41.0042438  63.1702181  73.0295266
  41.3318244  64.6823863  73.9088302  41.2476629  62.8000954  75.3762877
  42.8655136  63.4960885  75.6889756  42.7720647  64.5667450  75.8708022
  43.3050556  63.0165476  76.5635864  43.5066851  63.3296890  74.8233478
  37.2366496  64.5166755  72.7917614  36.7961881  63.5964434  72.1217774
  36.4653834  65.2860758  73.5474005  36.8749402  65.8655505  74.2661297
  35.0176676  65.2028479  73.4720794  34.7098600  64.1792885  73.2583507
  34.4082564  65.6272056  74.8072137  34.8193794  66.6109066  75.0339500
  33.3217265  65.6925029  74.7498640  34.7828741  64.6645495  75.9443965
  35.9631867  64.4310174  76.2228890  33.7762659  64.0547187  76.5569814
  33.9642579  63.4108849  77.3121217  32.8266527  64.2371430  76.2653360
  34.4649915  65.9685217  72.2774403  33.6786610  65.4239234  71.5112385
  34.9218196  67.2069877  72.0866547  35.6429329  67.5531848  72.7032928
  34.3412942  68.1344207  71.1016900  33.2649454  67.9897888  71.1947168
  34.6846941  69.6326167  71.4786864  34.3796806  69.8281955  72.5067014
  35.7580812  69.7953918  71.3815035  33.9407274  70.5763401  70.5397912
  34.2455846  70.3816570  69.5115590  32.8671840  70.4144636  70.6367577
  34.2716288  72.0200030  70.9030633  33.9666174  72.2155824  71.9310787
  35.3450155  72.1827773  70.8058784  33.5276598  72.9637260  69.9641687
  33.8325156  72.7690430  68.9359362  32.4541179  72.8018503  70.0611385
  33.8466290  74.3553218  70.3143382  34.8412975  74.5056459  70.2241334
  33.3539014  74.9803454  69.6925142  33.5638321  74.5360505  71.2669463
  34.7221719  67.8523410  69.6316025  34.0397908  68.3030709  68.7029990
  35.7791506  67.0673459  69.3899957  36.2682953  66.6358917  70.1611532
  36.2597530  66.8076913  68.0296583  35.6936026  67.4028164  67.3131396
  37.7571700  67.1883728  67.9157781  38.2056936  67.1816233  68.9091966
  38.2653703  66.4605006  67.2832952  38.1270025  68.8100744  67.2100913
  39.4494075  68.7048253  67.3053062  36.1299006  65.3212462  67.6038830
  37.1346103  64.5949540  67.4449740  34.9186174  64.9540825  67.2186133
  34.1499960  65.6050102  67.2935379  34.6364907  63.5994390  66.7435339
  35.1638554  62.8682611  67.3562039  33.1498867  63.3308146  66.8419132
  32.8789286  62.5714683  66.1083771  32.7853102  62.8445860  68.2299300
  33.0555653  63.6036506  68.9640164  31.7126825  62.6572782  68.2797769
  33.3250493  61.9225572  68.4459049  32.4511271  64.5474741  66.5698404
  31.5054024  64.3933040  66.6284632  35.1115716  63.3096684  65.3002716
  35.4998714  62.1695774  65.0108277  35.0531782  64.2854248  64.4085812
  34.8993767  65.2357244  64.7141547  35.2961860  64.0408484  62.9634415
  35.2367418  62.9739129  62.7484666  34.2458258  64.7630242  62.1338305
  33.8393390  64.0756750  61.3919283  33.4444893  65.1056837  62.7884635
  34.8330018  65.8863583  61.4713362  34.1638640  66.3362550  60.9503301
  36.6084444  64.6060869  62.4635044  37.0633945  65.6085093  62.9673474
  37.1389572  64.0086814  61.3954927  36.6198535  63.2556125  60.9671028
  38.4255171  64.4142583  60.7805871  38.7443958  65.3659657  61.2056383
  39.5197556  63.3738602  61.0345122  39.0277615  62.4410297  60.7590702
  40.3456658  63.5645486  60.3492310  40.0538317  63.2648123  62.4529781
  39.2407313  63.4854899  63.1445488  40.6026321  61.8720824  62.7421810
  41.4161344  61.6508589  62.0512592  40.9752639  61.8331551  63.7657683
  39.8094065  61.1351193  62.6165670  41.1077306  64.3487702  62.6632955
  40.6563486  65.3293314  62.5121222  41.5002727  64.2825967  63.6780039
  41.9202279  64.2095358  61.9501608  38.2514939  64.5200359  59.2692115
  37.9113627  63.5634522  58.5934487  38.5197187  65.6886472  58.7549539
  38.9646772  66.3926360  59.3263654  38.0999045  66.0586939  57.3889559
  37.6167684  65.2187083  56.8898538  37.0879094  67.2201540  57.4912807
  37.6200998  68.1679874  57.5718069  36.4519224  67.2352114  56.6061853
  35.9197763  67.1474975  58.9746333  35.2619630  68.2674699  58.6885532
  39.3205675  66.3836249  56.5397730  40.4282287  66.5934566  57.0515107
  39.1348443  66.3498828  55.2296321  38.2420902  66.0187061  54.8928658
  40.1230728  66.7871488  54.2519149  41.0317838  66.1864805  54.2911734
  39.4630993  66.5928410  52.8715434  39.2978322  65.5261193  52.7202464
  38.5043709  67.1114117  52.8764565  40.3378656  67.1747189  51.4097182
  39.4111037  66.7971886  50.5336580  40.4210372  68.2611391  54.5002268
  39.4950930  69.0557790  54.4916319  41.6742480  68.6189433  54.8081178
  42.4404737  67.9609842  54.7987702  41.9346301  69.9697865  55.2611352
  41.1926183  70.2439990  56.0110187  43.3166025  70.1040119  55.8744750
  43.2652750  69.7151453  56.8914546  43.9995812  69.4914907  55.2858682
  43.8240125  71.5464713  55.9056041  43.8716292  71.9036177  54.8768768
  43.0999395  72.1408469  56.4628635  45.1923697  71.6800162  56.5514272
  45.5124941  70.6990792  56.9026849  45.8983932  72.0467833  55.8063688
  45.1448080  72.6534454  57.7313244  46.1751493  72.8366810  58.0361558
  44.7050126  73.5804021  57.3633157  44.3541818  72.1574214  58.9105430
  44.7617991  71.2987150  59.2519683  44.3704888  72.8524653  59.6431739
  43.3993101  71.9879764  58.6283950  41.7391350  70.9547443  54.1017557
  41.2374085  72.0699244  54.3024988  42.1064914  70.5124633  52.8946924
  42.4740172  69.5740213  52.8287317  42.0829927  71.3289251  51.6933561
  42.5907317  72.2802321  51.8524640  42.8222445  70.5569383  50.5950897
  43.8534240  70.9097762  50.6116288  42.7935253  69.5064810  50.8845976
  42.2622887  70.7097535  49.2064678  42.8973466  70.1631633  48.5093011
  41.2499770  70.3075557  49.1669186  42.2224816  72.1453140  48.7915454
  41.1631679  72.6754185  48.4228914  43.3755513  72.7932017  48.8299734
  43.4138597  73.7660757  48.5613659  44.2120710  72.3118780  49.1277378
  40.6410951  71.7177431  51.2619272  40.3185282  72.9053115  51.2013223
  39.7876372  70.7354349  50.9647722  40.0848622  69.7708869  51.0022413
  38.4361035  71.0249207  50.4991019  38.3982309  72.0076629  50.0291205
  38.0253700  69.9826740  49.4768046  37.0881055  70.2541058  48.9910483
  38.7988370  69.8444970  48.7213206  37.7527021  68.3548357  50.2194563
  37.4265319  67.7382694  49.0870442  37.4537022  71.0900008  51.6828393
  36.2407372  71.2903074  51.5152291  38.0114888  70.8881655  52.8690524
  38.8844329  70.3805673  52.8893490  37.3870057  71.2536079  54.1504574
  38.0741063  71.0646327  54.9752485  37.0377520  72.7432148  54.1365597
  37.6037393  73.2006703  53.3250845  35.9714141  72.8235565  53.9254463
  37.3520593  73.4618495  55.4425387  36.5268058  73.3434825  56.1447116
  38.2499100  73.0036869  55.8573316  37.6122793  74.9498363  55.2434084
  38.2717552  75.3396241  54.2811034  37.0625090  75.7905346  56.1348790
  37.2082409  76.7856856  56.0424771  36.5058336  75.4237888  56.8936356
  36.1644651  70.4354770  54.5788324  36.1732616  69.7681601  55.6227437
  35.1084449  70.4793323  53.7755522  35.1284462  71.0301423  52.9292026
  33.8159632  69.8602035  54.1853689  33.8221151  69.7183066  55.2660754
  32.5838332  70.7394588  53.8047909  32.7282595  71.0363965  52.7660088
  31.7103509  70.0916626  53.8788764  32.3658683  72.0016006  54.6768801
  33.3413543  72.2946780  55.0649954  31.9930888  72.7778961  54.0086736
  31.3850115  71.8171820  55.8444625  31.0591897  72.8226116  56.5337436
  30.9344231  70.6786092  56.0706798  33.6691367  68.4127807  53.6779961
  32.5738791  67.9509857  53.3570770  34.7578920  67.6569808  53.6883196
  35.6390597  68.0965691  53.9128301  34.7499340  66.2073603  53.4094719
  33.7504404  65.8375221  53.1807111  35.7147262  65.8627403  52.1836824
  36.7065162  66.2537787  52.4107106  35.8074919  64.3374925  51.9276438
  34.8160869  63.9457923  51.7000769  36.4738250  64.1497471  51.0857108
  36.1979171  63.8423802  52.8167628  35.3016871  66.5232188  50.9718838
  35.9036176  66.2924332  50.2605343  35.2594377  65.3929299  54.6444092
  36.4118611  65.4790171  54.9874826  34.4296244  64.4567104  55.1226475
  33.4588274  64.4721327  54.8444126  34.8338330  63.5341454  56.2026370
  35.5322042  64.0668662  56.8480712  33.6528548  62.9936941  57.0805623
  33.2375804  63.8408149  57.6264860  32.8985848  62.5938533  56.4028426
  34.0831141  61.8874495  58.0886897  34.0035753  60.9635355  57.5158395
  35.1250119  62.0575728  58.3599943  33.2285611  61.7727331  59.3726119
  33.7355708  61.1972159  60.3562699  32.0475417  62.1986506  59.3960073
  35.7559333  62.3874108  55.6953059  35.4718267  61.6320755  54.7262765
  36.8756425  62.2584607  56.3567356  37.1697462  62.9540578  57.0273673
  37.7840534  61.1341702  56.0727470  37.5817394  60.6485383  55.1181109
  39.2462941  61.6300346  56.0979370  39.4131522  62.1487663  57.0419583
  40.2479136  60.4779962  55.9645546  40.0819667  59.9590406  55.0204956
  41.2631529  60.8740691  55.9872750  40.1120931  59.7802595  56.7908810
  39.4841459  62.7154110  54.9929693  38.9245375  63.5931551  55.3162407
  40.5513967  62.9352601  55.0202028  39.0753096  62.3476735  53.5634732
  38.0080193  62.1281272  53.5353544  39.2916621  63.1825807  52.8969743
  39.6348773  61.4702302  53.2393173  37.5327733  60.0000666  57.0723376
  37.3690542  58.8343798  56.6891439  37.5012884  60.3549291  58.3446187
  37.6021490  61.3306700  58.5851517  37.5193202  59.3685531  59.4253677
  36.7934210  58.5734920  59.2549347  38.9612049  58.7160747  59.5771877
  39.5022252  58.8699811  58.6435335  39.7459929  59.3201501  60.7194440
  39.2057844  59.1662196  61.6535638  40.7233780  58.8417738  60.7824822
  39.8754466  60.3886123  60.5470175  38.8720267  57.2875251  59.7699217
  39.7548220  56.9208488  59.8583601  36.9242684  59.9901174  60.7371273
  36.5616555  61.1770989  60.7932399  36.7536644  59.1602873  61.7540960
  37.1418029  58.2299872  61.6909333  36.1594629  59.5772678  63.0193501
  35.8796688  60.6303874  62.9918990  34.9239089  58.7584316  63.2667192
  34.1754552  59.3989487  63.7332547  34.3400125  58.1570129  61.9233746
  35.0877852  57.5159698  61.4564706  33.4474616  57.5717261  62.1444884
  34.0822758  58.9687480  61.2431110  35.2944797  57.7068140  64.1517523
  34.5283661  57.1582166  64.3353581  37.0373178  59.2287069  64.2085482
  38.0186566  58.4941452  64.0549703  36.6637646  59.7344359  65.3887610
  35.9350112  60.4326522  65.4276422  37.3595878  59.3897345  66.6264831
  38.4213085  59.5814536  66.4712666  36.8975942  60.1661157  67.8645119
  37.0595689  61.2246443  67.6610894  35.8304656  59.9787212  67.9837589
  37.6415371  59.7702076  69.1696014  38.1275772  58.8109855  68.9913912
  38.3988039  60.5310841  69.3585879  36.6937689  59.6530459  70.4184959
  36.6071529  60.6516488  70.8467352  35.7200389  59.3307624  70.0496020
  37.1876879  58.6626186  71.5100066  36.4235672  57.8877007  71.5710174
  38.1103847  58.2324504  71.1205389  37.4386256  59.2291947  72.8832425
  36.5836515  59.6274653  73.2444900  37.7534885  58.4929554  73.4988015
  38.1469541  59.9469733  72.8269966  37.2449498  57.9169398  66.8346173
  38.2404920  57.2844892  67.0915240  36.0435744  57.3616342  66.6740128
  35.2530200  57.9701522  66.5164407  35.7977791  55.9154456  66.7950673
  35.7616739  55.6419529  67.8495801  34.4372854  55.5080942  66.1240228
  34.5692999  55.3659892  65.0514196  34.1538714  54.5610801  66.5833057
  33.2932185  56.5315873  66.3515479  32.6886455  57.0385668  65.3808506
  32.9536897  56.7882534  67.6232156  32.2146899  57.4473335  67.8221945
  33.4385145  56.3213145  68.3762187  36.9328022  55.0561095  66.2126694
  37.2855429  54.0251893  66.7766547  37.4839223  55.4890432  65.0801249
  37.1719766  56.3629016  64.6811755  38.3950046  54.6573123  64.2986329
  38.2314726  53.6064812  64.5376108  38.1558966  54.8623048  62.7895777
  38.6029662  55.8218243  62.5296731  38.6900784  54.0623829  62.2768645
  36.6504384  54.8510043  62.3494769  36.2402529  55.4309730  63.1762083
  36.4914804  55.3889385  61.4148869  35.9295455  53.4566088  62.2799305
  35.5098357  53.0596299  61.1518837  35.6192300  52.8321844  63.3493132
  39.8756074  54.8028239  64.6907066  40.6898586  53.9501583  64.3426802
  40.2103884  55.8257201  65.4274942  39.4926463  56.4765448  65.7127535
  41.5588074  56.0375598  65.9079650  42.3258351  56.0747575  65.1344121
  41.5571701  57.3368657  66.6776522  40.6376258  57.3997451  67.2595325
  42.7464861  57.4123545  67.6062609  43.6664714  57.3500013  67.0250211
  42.7241756  58.3567721  68.1500239  42.7080981  56.5848305  68.3146602
  41.4843638  58.5246210  65.7081691  42.3741142  58.4924889  65.0793507
  40.5973728  58.3913191  65.0888331  41.4114634  59.8712040  66.4154828
  42.2984018  60.0054325  67.0346943  41.3620712  60.6691596  65.6745870
  40.5216610  59.9042617  67.0441788  41.9751278  54.9375128  66.8707900
  41.2666701  54.6332782  67.8127868  43.1341597  54.3570118  66.6430872
  43.6185468  54.4986811  65.7682167  43.7672600  53.4988063  67.6618518
  43.4419573  53.7985926  68.6580473  43.3778363  52.0734683  67.4412732
  43.6745082  51.3829225  68.2307234  42.2914606  52.0780290  67.3525770
  43.9114517  51.5108284  66.1554848  43.2706496  51.7859195  64.9545741
  42.3816409  52.4165816  64.9599305  43.7390070  51.2791460  63.7803667
  43.2007279  51.4468873  62.8475113  44.9028809  50.5499222  63.7800645
  45.2829022  50.1456900  62.8418321  45.5889262  50.3279474  64.9537042
  46.5177686  49.7576581  64.9426485  45.1056125  50.8221004  66.1303675
  45.6640227  50.6728544  67.0544906  45.2731154  53.5554951  67.6156804
  45.8480157  53.9219060  66.5890521  45.8575170  53.1442683  68.7316379
  45.2859814  52.7000912  69.4360193  47.2975810  53.3017334  68.9981142
  47.6806944  54.1781051  68.4753371  47.5388036  53.4876371  70.5217866
  46.7230792  52.9925489  71.0486457  48.4807142  52.9982983  70.7696818
  47.5967748  54.8555179  70.9152261  47.7468419  54.9101130  71.8618512
  48.0419588  52.0905018  68.5343247  48.1707957  51.1473336  69.2879218
  48.4914969  52.0816611  67.2850519  48.2187512  52.7943347  66.6233832
  49.3923842  51.0554245  66.8463157  48.9789535  50.0776068  67.0933922
  49.6074655  51.1248983  65.3554756  49.3492779  52.1473322  65.0796725
  50.6731652  50.9634572  65.1932381  48.8172709  50.1596352  64.5046797
  47.8373253  50.5847046  64.2876001  49.5568481  49.9066362  63.2059600
  50.5367727  49.4811049  63.4222231  48.9861711  49.2098241  62.5920533
  49.6801815  50.8467925  62.6683770  48.6101061  48.8473221  65.2272772
  48.0644344  49.0244716  66.1540781  48.0384142  48.1693198  64.5935719
  49.5779478  48.4010088  65.4557194  50.7066147  51.2473187  67.5275035
  51.3562642  50.2944736  67.8997169  51.1254151  52.4879361  67.6235336
  50.5798572  53.2444558  67.2360496  52.3632899  52.8087889  68.2878252
  53.0882095  52.0214676  68.0811470  52.9535067  54.1619449  67.8154537
  53.1815218  54.0803117  66.7527005  52.1979314  54.9329642  67.9662359
  54.1508110  54.5147927  68.5379721  54.4826953  55.3560506  68.2158887
  52.0808820  52.8953023  69.7479876  51.0209645  53.3113916  70.1566631
  53.0784257  52.5661278  70.5555671  53.9532720  52.2111860  70.1967362
  52.9285761  52.6932968  71.9699978  52.0850348  52.0768053  72.2806029
  54.1742886  52.2580403  72.7628833  54.1713492  51.1782602  72.6140026
  55.1091547  52.6735981  72.3868020  54.0402925  52.5739137  74.2887336
  53.0175073  52.9048249  74.4690367  54.3526557  51.3658126  75.1845721
  55.3754979  51.0345990  75.0051555  54.2416995  51.6503719  76.2309064
  53.6627345  50.5539912  74.9542349  54.8546710  53.8178397  74.6971448
  54.4999824  54.6843037  74.1389911  54.7315499  53.9988632  75.7649336
  55.9090111  53.6509765  74.4766395  52.6369331  54.1595553  72.2431556
  51.7862488  54.4972845  73.0359811  53.3225992  55.0237314  71.5352102
  54.0668475  54.7195870  70.9239083  53.2284067  56.4052652  71.8445616
  53.1898384  56.5246699  72.9273146  54.3897953  57.1766467  71.3218790
  54.8113102  56.7971118  70.3910849  54.2254354  58.2506268  71.2343995
  55.6670816  56.9678869  72.5690610  56.5883072  57.6993238  71.9483825
  51.9163727  57.0394996  71.5929220  51.5889778  57.9779444  72.3087089
  51.1382704  56.5716637  70.6369077  51.4423239  55.8658218  69.9815924
  49.8030164  57.0815703  70.5162354  49.2295927  56.7575591  71.3847406
  49.8493063  58.1704285  70.4976735  49.1300397  56.6097086  69.2945325
  49.6991794  55.8654103  68.5062019  47.9651068  57.1654403  69.0332695
  47.1348489  58.0045156  69.9163660  47.7455234  58.8056366  70.3327579
  46.7368000  57.3932988  70.7263475  46.0530594  58.5179779  68.9979413
  46.3088270  59.5239428  68.6652000  45.1049368  58.5435800  69.5350720
  45.9900463  57.5596681  67.8461441  45.6591870  58.0822606  66.9486319
  45.3360737  56.7076267  68.0317378  47.4262733  57.0835000  67.6683467
  47.4937130  56.0433003  67.3497014  48.1695551  57.9690570  66.6723452
  47.9016942  57.9298434  65.4914694  49.0600338  58.8111075  67.1940959
  49.1440569  58.8592546  68.1994422  49.9359092  59.6384088  66.3918759
  49.9601461  59.2627942  65.3689265  49.4606151  61.0358510  66.3701343
  48.4032786  61.0433084  66.6348663  50.0242802  61.6020566  67.1116146
  49.6401426  61.6562112  65.0326601  50.6664863  62.0035087  64.9139000
  49.4083395  60.9346547  64.2492537  48.5179826  63.0630592  64.8944324
  49.4874193  64.4090593  65.5586870  50.3926808  64.5333466  64.9644200
  48.9032008  65.3287095  65.5265483  49.7585931  64.1873747  66.5908798
  51.3487204  59.6854026  66.9353185  51.5735610  59.8356829  68.1435886
  52.2969838  59.5827724  65.9867377  52.0122864  59.3112957  65.0564974
  53.7131202  59.8487283  66.2276948  53.8900053  60.4839794  67.0956043
  54.4789686  58.5400382  66.4162723  54.3190223  57.8969147  65.5508768
  55.5431204  58.7526971  66.5185337  54.1218619  58.0356135  67.3141196
  54.2354203  60.5890482  65.0016189  53.5754030  60.6587606  63.9825746
  55.4853221  61.0330878  65.0736847  55.9563781  61.0664531  65.9664850
  56.1990239  61.5234234  63.8939362  55.4996456  61.8812850  63.1383542
  57.1097279  62.6935306  64.3158085  57.8216713  62.3484603  65.0655838
  57.6508094  63.0654589  63.4457508  56.5015425  63.4951861  64.7348054
  57.0270370  60.3801812  63.2464823  57.6139894  59.5223230  63.9122933
  56.9813779  60.3474591  61.9134281  56.2998030  60.8967090  61.4095635
  57.8260992  59.4322564  61.1576007  58.6271220  59.0660156  61.7997294
  57.0197983  58.2228954  60.6360081  56.3037379  58.6344045  59.9246594
  57.7022437  57.5505757  60.1160518  56.2730981  57.4507958  61.7198600
  56.9144271  56.5288252  62.5343545  57.9863131  56.3752554  62.4095497
  56.2116134  55.8025449  63.5020145  56.7308112  55.0626638  64.1112035
  54.8432390  55.9843778  63.6473191  54.1522072  55.2960313  64.6129235
  54.7123640  54.7150187  65.1327776  54.1790010  56.9036885  62.8543211
  53.1076387  57.0679855  62.9696029  54.8974223  57.6251568  61.8975353
  54.3856601  58.3488212  61.2630990  58.5318176  60.2155268  60.0415975
  57.9235868  61.1170351  59.4220563  59.8243990  59.9031867  59.7787629
  60.3751113  59.3205478  60.3930487  60.4615868  60.4289730  58.5558649
  59.9405916  61.2971027  58.1521152  61.9666244  60.7221951  58.5670719
  62.3752170  60.4715405  57.5881318  62.2468904  62.1920078  58.8742507
  61.8389694  62.4433074  59.8533063  63.3230898  62.3649106  58.8743357
  61.7788877  62.8181350  58.1146192  62.7184447  59.7489473  59.4159370
  62.5707461  58.7400909  59.0305852  63.7805439  59.9931563  59.3957699
  62.3532179  59.8026709  60.4415217  60.3263123  59.5192872  57.3909913
  60.4745460  58.3261926  57.5476349  60.1432277  60.1005152  56.2069288
  59.8398090  61.0612607  56.1361861  60.2323449  59.3142158  54.9872000
  60.0952472  58.2626419  55.2391834  59.1532951  59.7195347  53.9242917
  59.2141037  58.8684835  53.2459751  58.1373163  59.8042659  54.3099182
  59.4869709  60.9899117  53.1446477  60.1979980  61.8275809  53.6194737
  58.8120151  61.1906634  52.0345344  58.9923607  62.0150202  51.4795469
  58.1162496  60.5196067  51.7417989  61.6496515  59.3759691  54.4481539
  62.5391089  59.9770952  55.0831671  61.9243379  58.6921520  53.3232221
  60.9909121  57.8771885  52.5516719  60.4160418  58.5098351  51.8753711
  60.3114099  57.3531579  53.2238086  61.8938323  56.9577018  51.8363108
  61.4327139  56.6487147  50.8982299  62.0850159  56.0795946  52.4531396
  63.1424003  57.7202757  51.6001752  63.0232501  58.3375131  50.7097145
  64.0227553  57.0874587  51.4878484  63.2914039  58.5942692  52.8101993
  63.9085449  58.2034535  53.6192101  63.8722148  59.9086205  52.3213740
  65.0848999  60.0952545  52.4124992  63.0379464  60.8026356  51.7970000
  62.0811839  60.5447398  51.6015654  63.5120620  62.0836157  51.3257100
  64.5495859  62.0044803  51.0010855  62.6797562  62.5344431  50.1637493
  61.7292496  62.2483024  50.6140380  62.6135703  63.5586131  49.7966047
  62.8628782  61.6709487  48.9777106  63.8924105  61.8848955  48.0925760
  63.9206844  60.8930501  47.2172930  64.6302806  60.9036600  46.3899723
  62.9977131  60.0107963  47.5561781  62.7678785  59.1629035  47.0578270
  62.3907911  60.4335634  48.7093666  61.6751242  59.7870214  49.2172105
  63.6402613  63.1136641  52.4275536  63.9828089  64.2812130  52.1751910
  63.4393961  62.6681748  53.6643755  63.0916385  61.7308569  53.8078992
  63.7071054  63.4967084  54.8408830  63.9908182  62.8171668  55.6445182
  64.5544862  64.1342521  54.5887258  62.5481102  64.3743921  55.3170138
  62.6948342  65.1729020  56.2360138  61.3636915  64.0997211  54.7493642
  61.3782733  63.4211668  54.0013998  60.0815675  64.6980397  55.1174838
  60.2209140  65.7562417  55.3385954  59.0391058  64.5616709  53.9372694
  59.0527893  63.5539160  53.5221282  58.0847312  64.7365301  54.4339518
  59.2204403  65.5768572  52.8131144  59.1827715  66.9337819  53.0959240
  58.8941437  67.2344834  54.1030844  59.4989097  67.9025835  52.1418819
  59.4884068  68.9552285  52.4246009  59.8088794  67.5460473  50.8757118
  60.0824594  68.6006514  49.9889952  60.0139039  69.4648355  50.4014097
  59.8436150  66.1776771  50.5414688  60.1151713  65.8754779  49.5300177
  59.5293016  65.2016788  51.5079156  59.5269598  64.1461889  51.2358205
  59.4553091  64.0495504  56.3521511  59.3610285  62.8277496  56.4532450
  58.9171902  64.8970892  57.2357189  58.8754068  65.8901427  57.0562804
  58.3548041  64.3928228  58.4954079  58.7107440  63.3855092  58.7115684
  58.6154358  65.2745864  59.7146409  57.7584867  65.9253764  59.8884508
  58.8321463  64.3849595  60.9320112  59.6892754  63.7341599  60.7591221
  59.0190907  65.0061401  61.8079604  57.9433616  63.7770883  61.1012921
  59.7773829  66.2393520  59.4956906  59.5551554  66.8907050  58.6504354
  59.9222127  66.8436843  60.3911829  60.6858973  65.6737417  59.2888393
  56.8347396  64.2558207  58.4413702  56.1130892  65.1619160  57.9437960
  56.3392596  63.1522363  58.9868782  56.9272631  62.4616001  59.4311449
  54.8922114  62.8779218  58.8844369  54.3562796  63.7896480  58.6205585
  54.6365759  61.8332707  57.8052814  55.3966539  61.0571678  57.8949742
  53.6472599  61.3838814  57.8913230  54.7408748  62.3761921  56.4138731
  53.9323616  63.3921611  55.9462255  53.2054228  63.8407654  56.4851261
  54.2616650  63.6760261  54.6968657  53.7270360  64.4472935  54.1424132
  55.2651822  62.8932393  54.3438048  55.5878378  62.0755873  55.4023379
  56.4029686  61.3581071  55.3080767  54.3780048  62.4412125  60.2187167
  54.6788663  61.3373853  60.6723385  53.5474048  63.2976778  60.8063433
  53.4292416  64.2393913  60.4609270  52.8372517  62.9134121  62.0043013
  53.4629803  62.2427056  62.5931270  52.4790351  64.1332416  62.8659433
  51.4626162  64.4122308  62.5881722  52.4907840  63.7877654  63.8996784
  53.3966362  65.3467823  62.7244011  54.3999771  64.9926309  62.4877899
  53.0136658  65.9354143  61.8907674  53.4465267  66.2154808  63.9803548
  53.5267832  65.6411993  65.1162601  53.4235201  67.4810263  63.8026638
  51.5854965  62.1322973  61.5190493  50.5724998  62.7186380  61.1017206
  51.6834496  60.8148244  61.5178198  52.5363810  60.3484773  61.7919142
  50.6503798  60.0383868  60.9347525  49.8952341  60.6905109  60.4959036
  51.1392553  59.0810536  59.8711478  51.4218310  59.6476047  58.9838648
  52.3153735  58.3175920  60.3668062  52.0334299  57.7503857  61.2538713
  52.6573014  57.6321205  59.5913623  53.1186090  59.0099229  60.6189790
  50.0582735  58.1972769  59.5054115  50.3598269  57.5853631  58.8299655
  49.7936503  59.3669961  61.9772126  50.2850596  58.9158229  63.0056389
  48.4925301  59.3350980  61.6797114  48.2215270  59.6397481  60.7556742
  47.4574128  58.8598192  62.5784256  47.8166169  58.7872283  63.6049743
  46.3448448  59.8759741  62.5280497  46.8556214  60.8283373  62.6702146
  45.9578645  59.8201554  61.5105869  45.1981359  59.7671935  63.5103783
  44.7805208  58.7626681  63.4423556  45.6547418  60.0296857  64.9342645
  46.0720821  61.0342633  65.0031829  44.8045790  59.9427908  65.6108539
  46.4158612  59.3007322  65.2125174  44.1586873  60.7947831  63.0869893
  43.8222609  60.5757541  62.0736073  43.3086864  60.7544378  63.7681441
  44.5995077  61.7912583  63.1155144  46.9180417  57.5145978  62.1104564
  46.4549171  57.3955402  60.9950941  46.9783988  56.5262073  62.9772766
  47.3370003  56.7106219  63.9032871  46.5871650  55.1610861  62.6467131
  46.8378460  54.9711135  61.6030807  47.4897678  54.2365456  63.5598604
  46.8830797  53.4487578  64.0064253  48.5244784  53.6407807  62.7344016
  49.1319074  54.4279964  62.2878357  49.1562439  52.9996931  63.3492008
  48.0633846  53.0466391  61.9454220  48.1911067  55.0233682  64.5601108
  48.7316008  54.4437768  65.1019044  45.0708694  54.9704442  62.9043380
  44.6445950  55.1329007  64.0170568  44.3025345  54.6828243  61.8662700
  44.7252139  54.6085894  60.9519776  42.8744892  54.5783133  61.9662803
  42.5527996  54.4321309  62.9974183  42.2029257  55.8708459  61.4137834
  41.1215861  55.7341945  61.4023646  42.5518777  57.0563275  62.2865054
  43.6330997  57.1939016  62.2980475  42.0762553  57.9530601  61.8893221
  42.1980512  56.8773571  63.3018270  42.5962701  56.1843130  59.9895052
  42.3031572  55.3587209  59.3409802  42.0942185  57.0959864  59.6656294
  43.6756884  56.3247565  59.9326475  42.3743245  53.3024398  61.2636054
  43.0572133  52.8270508  60.3681959  41.2913515  52.6940635  61.7781479
  40.7356127  53.1660058  62.4770929  40.8851327  51.3530024  61.3586262
  41.7634463  50.7189561  61.2375904  40.0053830  50.7491937  62.3716117
  39.6395340  51.6382376  62.8852795  39.1627130  50.2010781  61.9502133
  40.7234440  49.8855261  63.3328711  41.4393948  48.7735906  62.8971740
  41.5458277  48.5934706  61.8274412  42.0153419  47.8977223  63.8101864
  42.6134891  47.0568324  63.4591507  41.8609669  48.1235941  65.1900010
  42.4016339  47.2481205  66.1080288  42.8656659  46.5143155  65.6983897
  41.1260798  49.2075134  65.6408478  40.9930464  49.3848969  66.7080580
  40.5556412  50.0732293  64.7165400  39.9621251  50.9212598  65.0581289
  40.1354390  51.3468444  60.0469203  40.4940951  50.6137142  59.1714004
  39.0900943  52.1425204  59.8702706  38.5279833  52.4710906  60.6423925
  38.6275269  52.4375452  58.4825953  39.2760748  51.8559143  57.8274690
  37.1739861  51.9825454  58.2655606  37.0833849  50.9244819  58.5113091
  36.5114346  52.5623085  58.9082116  36.7855775  52.2003622  56.8070274
  36.8754931  53.2583385  56.5606493  37.4474408  51.6205107  56.1637459
  35.3447685  51.7493501  56.5918934  35.2541658  50.6912872  56.8376434
  34.6822181  52.3291149  57.2345435  34.9563615  51.9671654  55.1333591
  35.0462777  53.0251412  54.8869798  35.6182231  51.3873116  54.4900801
  33.5675157  51.5324211  54.9259852  32.9540096  52.0699019  55.5216566
  33.3102753  51.6766776  53.9600052  33.4840749  50.5519990  55.1538213
  38.8468973  53.9058520  58.1123130  39.4561890  54.7162868  58.8679703
  38.3457960  54.2672260  56.9298667  38.0404680  53.5609439  56.2756192
  38.2732446  55.6876620  56.5146945  37.5798934  56.1988280  57.1825811
  39.6384998  56.3397919  56.6411017  40.3416627  55.8446182  55.9714264
  39.5642867  57.3940028  56.3742083  39.9910857  56.2495958  57.6685486
  37.7502311  55.8574871  55.0703686  37.9698481  54.9985573  54.1723860
  37.0312208  56.9457160  54.8725149  37.0415650  57.7025788  55.5412085
  36.1531456  57.0522207  53.7321195  36.0775055  56.0872106  53.2309875
  34.7257043  57.4917800  54.1861427  34.7520122  58.5711258  54.3358754
  34.0402685  57.2549802  53.3723837  33.9743943  56.7841168  55.7078230
  32.8324075  57.4610169  55.6267623  36.7128080  58.0237103  52.6832741
  37.6224339  58.8069465  52.9591339  36.1096716  57.9775601  51.4954535
  35.4724825  57.2169692  51.3067980  36.3403981  58.9768161  50.4338736
  35.8090847  58.6863434  49.5275454  35.8318828  60.3462179  50.8800841
  36.4164612  60.5835475  51.7689271  35.9816617  61.1222403  50.1294473
  34.3878863  60.3162935  51.2532068  34.0733843  60.1606986  52.4077737
  33.4999103  60.3595797  50.2622785  32.5121497  60.3413985  50.4722742
  33.8180696  60.4104033  49.3050468  37.7815731  59.1352999  50.0527183
  38.2430336  60.2506246  49.8489804  38.5107224  58.0291031  49.9133772
  38.1282260  57.1354389  50.1875309  39.8818523  58.0680283  49.3874688
  40.1235050  59.0968329  49.1205151  40.9259350  57.5645721  50.4033414
  40.5098142  56.5921511  50.6666665  41.8902659  57.4262066  49.9144437
  41.1131573  58.4012261  51.6745954  40.1253022  58.6542303  52.0596044
  41.9075760  57.6553024  52.7555708  42.8957824  57.4023536  52.3714302
  42.0118857  58.2914339  53.6345229  41.3800030  56.7416620  53.0294837
  41.7338398  59.7477087  51.3237406  41.0787784  60.2820925  50.6356797
  41.8636722  60.3362313  52.2319729  42.7037428  59.5894597  50.8522064
  40.0018843  57.2119129  48.1263155  39.3044356  56.2063196  47.9282966
  40.9829581  57.5690622  47.3167178  41.4501604  58.4537214  47.4552801
  41.4752020  56.6799108  46.2550914  40.7450120  55.8855211  46.1006024
  41.6953887  57.4006557  44.9351310  42.3689636  58.2448575  45.0825062
  42.1543406  56.6851169  44.2528792  40.4305193  57.9012755  44.3211578
  39.3711792  57.8252812  44.9123883  40.5434294  58.4527763  43.1349963
  39.7226971  58.8107231  42.6676930  41.4504930  58.5165058  42.6953658
  42.8421528  56.1505015  46.6562863  43.6500275  56.8584600  47.2856330
  43.1356106  54.9579793  46.1648005  42.4006130  54.4029597  45.7502754
  44.4594222  54.4098719  46.2071927  45.0972966  55.0195863  46.8470863
  44.4170940  53.0335825  46.7542768  44.0349790  52.4426304  45.9218929
  45.4086412  52.6740945  47.0294177  43.4950132  52.8991742  47.9260240
  43.0091811  53.8585107  48.1041850  42.4109280  51.8101230  47.6535065
  42.8960127  50.8503435  47.4757000  41.7515738  51.7288307  48.5176502
  41.8269524  52.0894758  46.7765602  44.3469045  52.6329186  49.1605843
  45.0347165  53.4644192  49.3142751  43.7013665  52.5300720  50.0328254
  44.9150300  51.7134869  49.0192419  45.0474303  54.3904893  44.7791550
  44.3300895  54.2860577  43.7755344  46.3287429  54.7029798  44.7154629
  46.8000851  55.0131526  45.5531554  47.0738349  54.6869395  43.4749684
  46.4907099  54.2111617  42.6864889  47.4507030  56.1043230  43.0448005
  48.2070675  56.0450500  42.2621768  46.2398179  56.8471234  42.5207453
  45.4831473  56.9072088  43.3030112  46.5320429  57.8534047  42.2205734
  45.8313306  56.3162442  41.6608589  48.0708945  56.8964584  44.1921966
  47.5559650  57.8546811  44.2611715  47.9183394  56.3354031  45.1141746
  49.5577613  57.1344516  43.9844296  49.7110862  57.6958961  43.0628161
  49.9564526  57.7017418  44.8254566  50.0734605  56.1766173  43.9158169
  48.2872511  53.8127784  43.6622983  48.9515867  53.8833836  44.7108435
  48.5817729  52.9967333  42.6549987  48.0196193  52.9830230  41.8160144
  49.7385082  52.0884344  42.7354132  50.0073523  51.7624424  41.7306489
  50.5793507  52.6193610  43.1817317  49.4174908  50.8634106  43.5853769
  48.2527775  50.6409456  43.9671036  50.4525685  50.0867837  43.9024429
  51.3717453  50.3337504  43.5644771  50.2940869  48.8339952  44.5995300
  49.2557971  48.7043668  44.9048987  50.6860032  47.6619002  43.6721100
  51.3566332  48.0659686  42.9137675  51.2242002  46.9377354  44.2836894
  49.4856855  46.9639667  42.9812734  49.4213596  45.9559437  43.3909716
  48.5901181  47.5233570  43.2517243  49.5998006  46.8876732  41.4412730
  48.6901880  46.4257076  41.0574872  49.6799232  47.9047470  41.0575535
  50.7597084  46.1115145  40.9675594  51.5029726  46.6337997  40.5261119
  50.9028999  44.7875887  41.1036174  52.0143935  44.1968691  40.7004333
  52.7548335  44.7473922  40.2896134  52.1181720  43.1976736  40.8050184
  49.9546041  44.0542364  41.6633712  49.1085004  44.4954277  41.9943681
  50.0811571  43.0565909  41.7571078  51.0596281  48.8320429  45.9302381
  52.0121159  49.6015285  46.1440111  50.5973341  48.0029128  46.8454940
  50.1667264  46.6591635  46.4550061  50.9979687  46.1255099  45.9941912
  49.3421262  46.7284139  45.7455430  49.7508600  46.0590395  47.7511960
  50.0191985  45.0026060  47.7447388  48.6696227  46.1581586  47.8471271
  50.4573994  46.7982073  48.8533874  51.1922275  46.1111733  49.2730431
  49.8001156  47.1551354  49.6462809  51.1673835  47.9785240  48.1945210
  50.9718802  48.9380221  48.6733114  52.6751820  47.7289219  48.1518286
  53.1363555  46.8363037  47.4577027  53.4233535  48.5457514  48.9025368
  52.9616211  49.2614954  49.4453195  54.8629855  48.4722956  48.9516693
  55.2171083  47.5284413  48.5371390  55.4320944  49.6137567  48.1187902
  55.5290532  49.2789394  47.0860290  54.7430062  50.4571125  48.1636064
  56.6883816  50.0105458  48.6013687  57.0259954  50.7292496  48.0618489
  55.3582967  48.5651789  50.4310782  54.8531357  49.3724909  51.2194694
  56.3707443  47.7635666  50.7197258  56.7208442  47.1641564  49.9860796
  57.0024934  47.6975288  52.0191492  56.3086307  48.0716385  52.7719411
  57.3825162  46.2555720  52.3765272  56.4822594  45.7038304  52.6471174
  58.0390393  45.5946900  51.2081705  58.9396883  46.1456394  50.9372722
  58.3053349  44.5710443  51.4714864  57.3516785  45.5846202  50.3622779
  58.2993433  46.2487779  53.4770089  58.5319236  45.3430390  53.6941349
  58.2634185  48.5307148  52.0448193  59.0406781  48.4391583  52.9892842
  58.4914674  49.3197602  51.0072668  57.8434025  49.4069996  50.2375263
  59.6958621  50.1147937  50.9812290  60.5701997  49.4743225  51.0971154
  59.8035184  50.8511608  49.6470612  60.0170678  50.1029609  48.8837181
  58.8312520  51.3029299  49.4503309  60.8790603  51.9286112  49.6161542
  60.7816440  52.5132827  50.5309056  61.8454735  51.4245351  49.6089345
  60.7811534  52.8442278  48.4219413  59.8194356  52.7146091  47.6500587
  61.6718261  53.6974071  48.2565136  59.6666315  51.1489218  52.0679671
  58.7571899  51.9404373  52.1430018  60.6887565  51.1531633  52.9009932
  61.4093691  50.4482029  52.8389635  60.8161698  52.1715319  53.9083065
  61.6585027  51.9710357  54.5704061  61.0640330  53.4905067  53.1921325
  61.7494926  53.3534854  52.3557894  60.1121764  53.8717662  52.8223892
  61.6473521  54.5603051  54.0507315  61.6023492  55.8921475  53.7031261
  61.1744469  56.2510359  52.8615808  62.1991116  56.6073493  54.6333535
  62.2639340  57.6919909  54.5470420  62.6377972  55.7855089  55.5679128
  62.3072805  54.5004351  55.2260868  62.5888528  53.6734973  55.8780011
  59.5536777  52.2650389  54.7054703  59.1533244  53.3491036  55.0872004
  58.9049350  51.1482216  54.9772459  59.1713095  50.2364246  54.6340692
  57.6676676  51.2652813  55.7416380  57.1736844  52.1901161  55.4437112
  56.7220659  50.1353451  55.5404701  56.3874443  50.0948028  54.5038969
  57.1925999  49.1889813  55.8071031  55.6081412  50.3643751  56.3878756
  54.9745184  49.6507941  56.2833571  57.8943627  51.4366239  57.2490033
  58.7128942  50.7371328  57.8583171  57.1356393  52.3633382  57.8165096
  56.4023986  52.7796800  57.2605268  57.2550506  52.7614088  59.2069407
  58.2868174  53.0048636  59.4604878  56.4029312  53.9992591  59.4038292
  55.4133647  53.7544945  59.0178919  56.3186439  54.3171522  60.4430307
  56.8649018  55.1439141  58.6584554  58.1199738  55.4291753  58.3748407
  58.8726999  54.7035310  58.6829698  58.1927552  56.6203852  57.7319433
  59.0476361  57.0753049  57.4450179  56.9346437  57.1224699  57.5685411
  56.5001786  58.3129609  56.9628388  57.2508415  58.9509764  56.4964270
  55.1700789  58.6000120  56.9934604  54.7999175  59.5230223  56.5472179
  54.2787733  57.7424994  57.5802572  53.2125835  57.9682079  57.6001143
  54.7120152  56.5414522  58.1767905  53.9621596  55.8919479  58.6284115
  56.0730103  56.2367258  58.1649054  56.7180039  51.7357908  60.1882463
  56.9047866  51.8534892  61.3963519  55.9769470  50.7812660  59.6601192
  55.8884472  50.7326221  58.6551810  55.3139701  49.7694223  60.4579394
  55.5501435  49.9009472  61.5138857  53.8092871  49.8991500  60.2765729
  53.5970013  49.8547193  59.2083689  53.2592268  49.1098348  60.7889352
  53.2612833  51.1794917  60.7628577  53.2870402  51.4894883  62.1161291
  53.6838168  50.7572030  62.8192838  52.8295540  52.6783427  62.5654459
  52.8883364  52.9444824  63.6208203  52.2851478  53.5545451  61.6691088
  51.9241198  54.5254875  62.0082688  52.1919623  53.2101594  60.3319237
  51.7225259  53.8961010  59.6267897  52.6812352  52.0267212  59.8996147
  52.6052696  51.7577372  58.8460604  55.7313328  48.3726338  59.9714404
  55.0904636  47.8103649  59.0580695  56.7987979  47.8225976  60.5784456
  57.0325103  47.9998217  62.0268433  56.0771458  47.9586870  62.5499942
  57.4978096  48.9707249  62.1969685  57.9396007  46.8579664  62.3909140
  57.3872589  46.1680771  63.0289346  58.7928825  47.2559525  62.9401122
  58.3866209  46.1882382  61.1097465  58.3870796  45.1154761  61.3028278
  59.3593128  46.4869601  60.7189330  57.2925363  46.5337366  60.1031007
  57.6727635  46.6380677  59.0869115  56.1394816  45.5174832  60.1160997
  55.4192652  45.3778485  61.1283148  55.9282514  44.8787598  58.9710285
  56.5428525  45.0411690  58.1861794  54.8324768  43.9439206  58.8041283
  55.2352394  42.9813569  58.4889256  54.3198461  43.8275867  59.7589977
  53.8422466  44.4247102  57.7700860  53.1165284  43.6085320  57.1912249
  53.8195955  45.7421164  57.5483456  54.4952316  46.3320596  58.0126539
  52.8311847  46.3778377  56.6590613  52.1227528  45.6328758  56.2967697
  52.0647809  47.4504277  57.4114846  52.8813307  47.9723420  57.9104346
  51.5105565  48.1538531  56.7900925  51.1517911  46.8647436  58.4336674
  51.6433443  46.4954907  59.6713926  52.6782711  46.7262287  59.9239515
  50.8440489  45.8451375  60.5784691  51.2433986  45.5418606  61.5462732
  49.5589954  45.5040896  60.2275053  48.7941614  44.9105019  61.1707490
  49.2530067  44.7917306  62.0055868  49.0414966  45.8273134  58.9967196
  48.0204980  45.5589974  58.7252998  49.8345837  46.4999541  58.1024387
  49.4462644  46.7598472  57.1176729  53.4332308  47.0391088  55.4183615
  54.5628047  47.4831155  55.4325724  52.6691548  47.0579853  54.3480482
  51.8180941  46.5148833  54.3769471  52.9852198  47.7848902  53.1216314
  54.0028618  48.1742144  53.1521411  52.8617674  46.8517864  51.9450602
  51.8455006  46.4607902  51.8958280  53.0871733  47.3930578  51.0261926
  53.5631924  46.0255250  52.0607947  52.0466700  48.9718272  52.9548117
  50.8790134  48.9264258  53.3180497  52.5211945  49.9814123  52.2766727
  53.4511747  49.9364943  51.8852414  51.7672618  51.2215972  52.1278577
  50.8413718  51.1705393  52.7007625  52.6064162  52.4052168  52.6516912
  52.0424583  53.3208996  52.4739955  52.7885409  52.2929102  53.7204839
  53.9844963  52.5998500  51.9873605  55.1886314  52.2504999  52.4965729
  55.1998824  51.8085232  53.4928810  56.1683039  52.5451672  51.6024824
  57.1588185  52.4275790  51.7610803  55.6011359  53.1030530  50.4847530
  56.1841519  53.5752328  49.3242550  57.2580155  53.4407311  49.1945442
  55.3785657  54.1807460  48.4126407  55.8159561  54.6297623  47.5209154
  54.0250591  54.2404298  48.5884010  53.3763002  54.6488965  47.8135679
  53.4443957  53.7906275  49.7389634  52.3588890  53.8487769  49.8189298
  54.2478371  53.2127433  50.7200474  51.3330848  51.4661378  50.6878534
  52.0417041  51.1368434  49.7238778  50.1763613  52.0777715  50.5614850
  49.5911027  52.2162152  51.3729066  49.6761222  52.5233169  49.2618404
  50.4662445  52.5138760  48.5110297  48.6083279  51.5584047  48.8453191
  47.6386996  51.9778830  49.1135711  48.6509372  51.2926552  47.3246670
  49.6201665  50.8727070  47.0557105  47.8633441  50.5886059  47.0561325
  48.4994203  52.2288142  46.7873128  48.8531348  50.3234699  49.5607551
  48.1862881  49.6763586  49.3195854  49.1884239  53.9050095  49.4057041
  48.5443175  54.2232286  50.4100335  49.6069013  54.7809152  48.4875930
  50.1524514  54.4749613  47.6945819  49.2951701  56.2239137  48.6109094
  49.6442268  56.5237211  49.5990259  49.9760324  57.1195825  47.5546623
  50.1112199  56.5369501  46.6434197  49.1381397  58.3587090  47.2466003
  49.0029044  58.9421279  48.1573334  49.6481740  58.9661662  46.4989631
  48.1644701  58.0534748  46.8633235  51.2924994  57.6213005  48.0670953
  51.9432622  56.7752587  48.2880547  51.7608834  58.2515805  47.3111434
  51.1319022  58.2023731  48.9752055  47.8112518  56.3968789  48.4780954
  47.1864813  55.8205397  47.5753950  47.2704548  57.1747345  49.4001481
  47.9326959  57.6325689  50.0100036  45.8551536  57.4796070  49.5641642
  45.1511800  56.8781651  48.9890225  45.5518665  57.3027970  51.0375495
  46.2428737  57.9061723  51.6262322  44.5292557  57.6216163  51.2393459
  45.6649007  56.2531812  51.3088964  45.6490757  58.9091114  49.2053341
  46.3363235  59.6744704  49.7773804  44.6835552  59.2682821  48.3486960
  44.2610529  58.6080862  47.7117247  44.3212528  60.6825009  48.2246195
  44.5885052  61.2020052  49.1448318  45.0380513  61.3479178  47.0672305
  44.9037125  62.4244474  47.1727590  46.0970290  61.1043212  47.1528284
  44.5255803  60.9051824  45.7087848  43.9114417  60.0569426  46.0111485
  43.9250366  61.5947256  45.1155062  45.6539112  60.4013920  44.8609224
  46.0701335  59.2530988  45.0067981  46.3157231  61.3202574  44.1527442
  47.0861448  61.0402167  43.5627195  46.0427452  62.2909541  44.2104717
  42.8396209  61.0073549  48.1354124  42.0535098  60.1959798  47.7081680
  42.4678703  62.2139528  48.5298513  43.2029441  62.8480557  48.8085614
  41.0710942  62.6859676  48.6036662  40.5383212  62.1227103  49.3698211
  41.0046101  64.1989057  48.9622024  41.6917882  64.3929005  49.7857626
  41.3101814  64.7778348  48.0906707  39.3740605  64.8834665  49.4847335
  39.7999101  66.1294804  49.6718160  40.3771690  62.4678105  47.2730591
  40.7348866  63.1091917  46.2492670  39.4154533  61.5840640  47.2966577
  39.3697723  60.9589465  48.0886430  38.4691501  61.3892050  46.2084728
  38.9643554  60.7455695  45.4814211  37.2052202  60.6602293  46.7362574
  37.4977560  59.7269911  47.2174937  36.6934783  61.2961000  47.4586760
  36.2683992  60.3591185  45.5712154  35.9750458  61.2919748  45.0897347
  36.7793214  59.7228640  44.8485530  35.0261412  59.6426445  46.0899493
  35.3186760  58.7094070  46.5711875  34.5143993  60.2785167  46.8123663
  34.0893216  59.3415321  44.9249059  33.7959684  60.2743877  44.4434240
  34.6002437  58.7052760  44.2022470  32.8918658  58.6509001  45.4249323
  32.4180516  59.2404772  46.0942593  32.2714150  58.4514735  44.6533302
  33.1634357  57.7862611  45.8707441  38.0745380  62.6970347  45.4761040
  38.0036248  62.7279336  44.2538902  37.8314811  63.7642453  46.2275066
  38.0112103  63.7177633  47.2202988  37.3347153  65.0270867  45.6687515
  36.6555077  64.8913873  44.8271092  36.6450843  65.9448466  46.7608548
  37.4011056  66.5708501  47.2348293  35.5947273  66.8275782  46.1056509
  34.8380610  66.2022403  45.6318268  35.1244189  67.4560208  46.8619382
  36.0676340  67.4581989  45.3528056  36.0737383  65.1709076  47.9926983
  36.8117891  64.4077292  48.2395598  36.0154678  65.8954681  48.8049273
  34.7069803  64.5135140  47.7975159  34.7645844  63.7884397  46.9856977
  34.4124600  64.0066577  48.7164575  33.9682633  65.2761790  47.5510628
  38.5080483  65.8580125  45.0752678  38.6100505  66.1128738  43.8598484
  39.4010703  66.2488339  45.9746145  39.3325544  65.8962696  46.9185972
  40.4157999  67.2572581  45.6844676  40.1195388  67.8548276  44.8223543
  40.5715481  68.1743136  46.8779335  41.3047562  68.9610951  46.7005073
  39.6248580  68.6220744  47.1802382  41.1580565  67.2624879  48.2873656
  41.1870247  68.2984603  49.1209244  41.7769952  66.6952674  45.2500153
  42.6426605  67.4617825  44.7707501  41.9659395  65.3785939  45.3827445
  41.2690329  64.8361505  45.8728217  43.1794100  64.6924001  44.9108625
  42.9813881  63.6205432  44.9078129  43.5335476  65.1256488  43.4952566
  43.7434433  66.1951879  43.4838543  44.4141571  64.5794687  43.1571523
  42.6969922  64.9129704  42.8296425  44.3389606  64.9329363  45.8410123
  45.4399707  64.3827480  45.6470083  44.1209032  65.7943802  46.8347041
  43.2318802  66.2668255  46.9155304  45.1896892  66.1701202  47.7533781
  46.0845643  66.3964279  47.1736517  44.8282925  67.4198309  48.6237950
  45.7632801  67.8523770  48.9798866  44.3213852  68.1347894  47.9757368
  43.9932796  67.1129061  49.7364978  43.8078856  67.9160685  50.2285944
  45.5842574  64.9776145  48.6147329  44.7365707  64.3366713  49.2424820
  46.8729405  64.6579465  48.6019945  47.4969652  65.1898170  48.0122434
  47.3958056  63.4465892  49.2597356  46.7837425  62.5955209  48.9611375
  48.9167879  63.1420353  48.8744698  48.8782560  62.5070976  47.9893322
  49.4973931  64.0376769  48.6535089  49.6905236  62.3721958  49.9272805
  50.4943533  62.9807411  50.8729524  50.7000564  63.9693663  50.8931025
  50.9403099  62.0765631  51.7283622  51.5614347  62.3671195  52.5756402
  50.4999729  60.8957957  51.3441374  49.7086770  61.0535669  50.2281365
  49.2384459  60.1854162  49.7662942  47.1526969  63.4519906  50.7997505
  47.7800138  64.1904143  51.5630552  46.2674432  62.5766887  51.2179770
  45.9056902  61.8933553  50.5681389  45.7854198  62.5410596  52.6085054
  45.8406620  63.5320042  53.0591452  44.3283067  62.0204681  52.6837359
  44.3109065  61.0191533  52.2534264  43.7745281  61.9692654  54.1427745
  43.7911846  62.9703645  54.5736151  42.7502786  61.5966276  54.1303296
  44.3949923  61.3050113  54.7443473  43.4251097  62.8914697  51.8314346
  43.9427010  63.0837286  50.8916279  42.5129409  62.3281640  51.6346244
  43.0709512  64.2136328  52.4944479  43.9826461  64.7777400  52.6911593
  42.4231408  64.7899008  51.8338753  42.5528878  64.0221752  53.4341575
  46.6058782  61.6229820  53.5257156  46.5583258  61.7592369  54.7197246
  47.2874726  60.6500424  52.9488633  47.3380340  60.5870909  51.9420962
  47.9880752  59.6366767  53.7450661  48.9197145  60.0818806  54.0942665
  47.3563135  59.3991051  54.6009494  48.2998319  58.3721140  53.0029624
  48.6803135  58.3952234  51.8336547  48.1423620  57.2523655  53.6988895
  47.8144391  57.3054651  54.6526957  48.4376408  55.9141002  53.1299979
  48.3182925  55.9181858  52.0465596  49.8757562  55.5623578  53.4577344
  49.9770160  55.6043199  54.5422089  50.1532067  54.5688142  53.1056090
  50.8992023  56.5256369  52.8889195  51.4927181  56.4654251  51.6657320
  51.2025285  55.6412299  51.0141248  52.3676805  57.5082137  51.5190259
  52.9515852  57.6803590  50.7130973  52.3540999  58.2559782  52.6644157
  53.0621865  59.3946142  52.9923902  53.7423408  59.8125535  52.2502208
  52.8631367  59.9325785  54.2425420  53.3599524  60.8637192  54.5150329
  52.0551458  59.3253292  55.1528491  51.9573870  59.7181611  56.1648895
  51.3307270  58.1880431  54.8223364  50.6476561  57.7804370  55.5675693
  51.4828068  57.6406508  53.5585491  47.5282073  54.8464938  53.6933427
  47.2253774  54.8728782  54.8817967  47.1743139  53.8766199  52.8520354
  47.3161391  54.0113313  51.8611581  46.5364123  52.6598905  53.2924706
  46.0447124  52.7949646  54.2558425  45.4873304  52.3034844  52.2592587
  45.3735784  53.1652382  51.6015809  45.8694690  51.4582098  51.6869117
  44.1469657  51.9437965  52.8531585  44.3097313  51.5450877  53.8544774
  43.5442079  52.8497322  52.9169204  43.4226438  50.9143086  52.0120036
  42.3929609  51.2456122  51.8775048  43.9152976  50.8577333  51.0413383
  43.4317377  49.5375038  52.6672288  44.4063009  49.3759079  53.1278956
  42.6585382  49.5105349  53.4350402  43.1732866  48.4674525  51.6655710
  43.8898821  48.4919936  50.9542425  43.1845035  47.5674907  52.1238754
  42.2700962  48.6167641  51.2388952  47.5725519  51.5277124  53.4884739
  48.4395325  51.3006901  52.6516324  47.5397451  50.9196475  54.6649422
  46.7963053  51.1409506  55.3117973  48.5173793  49.9441827  55.0591425
  49.3438329  49.9573113  54.3485784  49.0569443  50.2238130  56.4244191
  48.2587341  50.2987140  57.1628970  49.7435470  49.4275181  56.7118060
  49.7999250  51.4533359  56.4954287  49.1938794  52.6379518  56.2145057
  48.1746132  52.6359589  55.8282513  49.8473870  53.8210839  56.4110640
  49.3334846  54.7706321  56.2615202  51.1459862  53.8070877  56.7953313
  51.6848649  54.7416236  56.9513833  51.7800345  52.6131693  56.9872525
  52.8407348  52.5983771  57.2378444  51.0928052  51.4443968  56.8667840
  51.5899781  50.4962381  57.0715136  47.8977154  48.5813634  55.0846835
  46.8320967  48.3895449  55.6133491  48.6442637  47.6536012  54.5992970
  49.6113836  47.8676051  54.4018617  48.1533997  46.3629929  54.2501153
  47.1631462  46.2290998  54.6855116  48.0119162  46.4433582  52.7301736
  47.9511763  45.4375140  52.3146157  46.7313229  47.2202027  52.3808261
  46.7915316  48.2263677  52.7956831  46.6261824  47.2800930  51.2975635
  45.8673918  46.7054896  52.8012950  49.1006499  47.2214693  52.2124894
  49.0255516  47.2810980  51.2572905  49.1573663  45.3267403  54.8050185
  50.3464054  45.5960606  54.8708484  48.6545444  44.1982555  55.3305499
  47.6573306  44.0648177  55.4191971  49.5350538  43.1807210  55.8711022
  50.3107497  43.6983283  56.4354407  48.7941012  42.2620097  56.8037525
  48.0198337  41.7297601  56.2511945  49.4904413  41.5433803  57.2359359
  48.3343727  42.8462467  57.6008824  50.2249777  42.3879710  54.7778002
  49.7398776  42.3171353  53.6514050  51.4061363  41.8682765  55.0897491
  51.8063278  42.0937813  55.9892454  52.1648472  40.9628443  54.1881110
  51.7623460  41.0083699  53.1761725  53.6698173  41.3555963  54.1427600
  54.1302935  40.8673795  53.2838617  53.8466143  42.8786951  54.0219799
  53.3867639  43.3676057  54.8808185  54.9090570  43.1204790  53.9927360
  53.3694901  43.2289233  53.1066694  54.3332462  40.8987230  55.3295206
  55.2603386  41.1452126  55.2928762  52.0882327  39.5064138  54.6622234
  52.2577526  38.5592095  53.8903316  51.7556678  39.3557107  55.9387731
  51.6862625  40.1723851  56.5289639  51.4687766  38.0418218  56.5309474
  51.7175984  37.2543287  55.8195814  52.3001881  37.8321219  57.8064103
  52.0271273  38.6385283  58.4870319  51.9815532  36.8785181  58.2273753
  53.8134770  37.8216095  57.6120540  54.0563272  37.1693753  56.7731768
  54.1473505  38.8355655  57.3917730  54.5168568  37.3164884  58.8691004
  53.8275692  36.6678431  59.4096933  55.3918488  36.7423679  58.5643480
  54.9501959  38.4581577  59.7716265  54.2683602  39.2952456  59.6216783
  54.8901998  38.1222963  60.8068544  56.3450548  38.8932544  59.4703782
  56.4007651  39.2049146  58.5112828  56.6015939  39.6515411  60.0862426
  56.9770718  38.1178512  59.6096748  49.9790749  37.9905195  56.8916995
  49.4043046  38.9914679  57.3464736  49.3721385  36.8233111  56.7120397
  49.8875682  36.0322727  56.3533060  47.9286629  36.6749449  56.9222935
  47.4289009  37.6279353  56.7486658  47.3535137  35.6369489  55.9535723
  47.1445637  34.7407145  56.5376982  46.4188841  36.0460336  55.5698833
  48.2756390  35.2784698  54.7786597  49.0930598  34.6828856  55.1851119
  47.6911728  34.6695873  54.0889036  48.8476604  36.4884938  54.0324503
  48.7527986  37.3651353  54.6732310  49.9017557  36.3008046  53.8281089
  48.1167892  36.7351589  52.7281737  48.5241365  37.6285410  52.2548481
  48.2619426  35.8779747  52.0707052  46.6597718  36.9269072  52.9798977
  46.5250259  37.7214090  53.5887575  46.1853237  37.0901722  52.1033457
  46.2820308  36.0990247  53.4181002  47.5907584  36.3314338  58.3828176
  46.4313216  36.0461614  58.7011299  48.5893408  36.4414211  59.2620344
  49.5066655  36.7190423  58.9433790  48.4200106  36.1016235  60.6704920
  47.3925463  35.7882851  60.8555200  49.3603004  34.9526988  61.0579041
  49.0265167  34.4685633  61.9756734  49.2973154  34.2453699  60.2309708
  50.7785269  35.4055197  61.2201014  51.2752922  36.0964321  60.3077784
  51.3754539  35.1370238  62.2805433  48.6538851  37.3209082  61.5507315
  48.4762310  37.2555850  62.7761550  48.8931678  38.4881614  60.9253095
  49.0746628  38.4769219  59.9318144  48.9223962  39.7741012  61.6208707
  49.3790437  39.6442831  62.6020534  49.7254649  40.8055574  60.8437299
  49.6341555  40.5690142  59.7836313  49.2856913  41.7841353  61.0363037
  51.1717713  40.8247908  61.2274027  51.3216105  41.5855454  61.9934976
  51.4415298  39.8478531  61.6285574  52.2116529  41.1905949  59.8273028
  53.7666059  41.4170783  60.6949263  54.0253497  40.4995801  61.2234600
  54.5518505  41.6564878  59.9778667  53.6682051  42.2328967  61.4110680
  47.5226527  40.3369711  61.8389270  46.6622322  40.2512455  60.9558813
  47.3256952  40.9665927  62.9978892  47.9859815  40.8760289  63.7567827
  46.1089584  41.7424129  63.2272007  45.3332962  41.4112505  62.5367090
  45.6055506  41.5685132  64.6356997  45.6808564  40.5146899  64.9038131
  46.2326486  42.1586224  65.3039955  44.2616348  41.9902411  64.7563229
  43.9680698  41.8682709  65.6621610  46.3084333  43.2438035  62.9253116
  47.4136057  43.7650662  63.0217908  45.2043902  43.9798986  62.7132978
  45.0414193  44.8900122  63.8515916  45.6947628  44.5838718  64.6686110
  44.0057843  44.8782998  64.1913297  45.4393611  46.2255986  63.2576856
  46.4379899  46.4752761  63.6161556  44.7310427  46.9785704  63.6032577
  45.4078351  46.1070781  61.7640267  46.3984697  46.2234793  61.3244897
  44.7305317  46.8440104  61.3324129  44.8848055  44.7012713  61.4971231
  43.7985249  44.6950256  61.4073806  45.5016108  44.1322312  60.2265824
  46.7131197  44.1698865  60.0364426  44.6662609  43.5799728  59.3761642
  43.7038231  43.4414927  59.6493603  45.0734968  43.1689456  58.0228791
  46.0256807  42.6397660  58.0604819  44.0234261  42.2391467  57.4325822
  43.0767263  42.4533965  57.9285215  43.9373074  42.4703883  56.3708803
  44.3559777  40.7994850  57.6006081  44.5215101  40.5673802  58.6526667
  43.5270319  40.2008137  57.2230589  45.5845706  40.4467142  56.8364156
  45.6706793  40.7317832  55.6431973  46.5633334  39.8381261  57.5197200
  47.4176816  39.5776340  57.0481965  46.4423171  39.6426397  58.5032044
  45.1971328  44.3895262  57.1101314  45.9349006  44.3909569  56.1281754
  44.3990336  45.4067262  57.4366048  43.7103348  45.2577613  58.1602089
  44.4708681  46.7260936  56.8084635  45.4914436  46.8677226  56.4528427
  43.5067542  46.9180916  55.6249610  43.7275326  46.1813422  54.8525904
  42.4800696  46.7883343  55.9672792  43.6778458  48.3211404  55.0524173
  43.4567743  49.0584890  55.8241331  44.7042359  48.4514974  54.7094415
  42.7222058  48.5114522  53.8793195  42.9429820  47.7747021  53.1069490
  41.6955218  48.3816964  54.2216392  42.8932996  49.9145008  53.3067750
  42.6722293  50.6518502  54.0784902  43.9196882  50.0448549  52.9637976
  41.9721239  50.0979490  52.1759872  41.0209682  49.9776263  52.4936743
  42.0854387  51.0271804  51.7967926  42.1770831  49.4150752  51.4606032
  44.1338385  47.8035505  57.8004366  43.5431390  47.5602009  58.8314560
  44.5387063  49.0065584  57.4562924  45.0479329  49.1306354  56.5929313
  44.2874282  50.1936244  58.2975454  43.2150950  50.2986869  58.4623559
  44.9911474  50.0715785  59.6749713  44.5721187  50.6699028  60.4839968
  44.8721906  49.0132735  59.9072206  46.4658221  50.3442373  59.6590445
  46.9326986  51.6317421  59.6495272  46.2297331  52.4645411  59.6298998
  48.2894205  51.8752100  59.6647295  48.6462365  52.9033040  59.6030375
  49.2077260  50.8182075  59.7582743  50.2798988  51.0142819  59.7682818
  48.7436173  49.5240163  59.8378318  49.4363499  48.6847572  59.9000071
  47.3732551  49.2951443  59.8381826  46.9894865  48.2847930  59.9796458
  44.8092129  51.3849484  57.5585178  45.7191623  51.2270009  56.7588968
  44.3202597  52.5788280  57.8851864  43.5201298  52.6695473  58.4948269
  44.8527087  53.7668136  57.2794560  45.4844852  53.4934917  56.4343212
  43.7679593  54.6458335  56.7935458  42.9917479  54.3967246  57.5171063
  43.9201428  55.7250937  56.7818153  43.2501998  54.2864924  55.4906287
  43.4408312  54.9647434  54.3126392  44.1561558  55.7867973  54.3378932
  42.6661837  54.4442921  53.3312342  42.6414638  54.7356313  52.3644819
  41.9008408  53.4627327  53.8803376  40.9003062  52.6913478  53.2982374
  40.7005053  52.8163179  52.2340190  40.2260084  51.8185811  54.1049702
  39.4281239  51.2004083  53.6934575  40.5461876  51.7005142  55.4766303
  39.9952318  51.0178456  56.1235544  41.5860126  52.4605814  56.0492871
  41.7222412  52.4152617  57.1297909  42.2775330  53.3356670  55.2424948
  45.7882470  54.5174186  58.1879680  45.6167511  54.5764892  59.4052489
  46.8235803  55.0607509  57.5840905  46.9950069  54.8400415  56.6135239
  47.7493820  55.9821880  58.2647218  47.4911912  56.0748265  59.3196411
  48.7769456  55.6305409  58.1722184  47.6330763  57.3372078  57.6097262
  47.9457706  57.4992440  56.4182101  47.1266106  58.3119400  58.3604110
  46.9545090  58.1740872  59.3460463  46.7598170  59.5738649  57.7737024
  46.9405872  59.5313394  56.6996387  45.2752379  59.9147282  58.0102253
  45.2303874  60.0408667  59.0919724  45.0307087  60.8593129  57.5243599
  44.2670732  58.8420600  57.5786051  44.6281410  57.8666934  57.9047810
  42.9008542  59.1092319  58.1951194  42.5389020  60.0842918  57.8690095
  42.2005830  58.3371153  57.8764391  42.9835763  59.0978365  59.2819163
  44.1631600  58.7106052  56.0564893  45.1362892  58.4389005  55.6474716
  43.4360761  57.9378747  55.8068138  43.8430438  59.6613370  55.6301868
  47.6145340  60.6845390  58.3122588  47.7111647  60.8732046  59.5188514
  48.2110509  61.4367840  57.4202812  48.1568796  61.2170759  56.4359575
  49.0573091  62.5493103  57.8345917  49.6633757  62.3303652  58.7137080
  50.0013482  63.0179000  56.6815431  50.4703813  62.1432812  56.2308214
  49.1968018  63.7927739  55.5956364  48.7278290  64.6678454  56.0455409
  49.8714748  64.1110286  54.8008852  48.4273743  63.1423820  55.1796169
  51.1239733  63.7983028  57.2069813  51.6889118  64.0745629  56.4816364
  48.2094507  63.7063374  58.3672843  47.2853818  64.1526896  57.7473130
  48.6170103  64.2055099  59.5242420  49.2960964  63.6580976  60.0334386
  48.0415081  65.3791622  60.1787979  46.9673113  65.2357815  60.2955988
  48.6788584  65.6177201  61.6092904  48.3510303  64.7691248  62.2097186
  49.7557958  65.5567544  61.4524815  48.3376890  66.9403296  62.3520727
  48.4508698  67.7368850  61.6166881  47.2901839  66.8611715  62.6428804
  49.1957370  67.2638723  63.5986763  48.5390563  67.5406017  64.4234734
  49.7730848  66.3815625  63.8748978  50.1341133  68.3848278  63.3411928
  50.7920914  68.2142025  62.5941646  50.1913253  69.5666044  63.9931660
  51.1010540  70.5057572  63.6184600  51.7318368  70.3161944  62.8527714
  51.1417157  71.3884791  64.1075903  49.3761774  69.8318605  65.0041813
  48.6984805  69.1424823  65.2967299  49.4365122  70.7221329  65.4773340
  48.0532346  66.6592093  59.3420831  47.1698317  67.4387182  59.4610590
  49.0199275  66.8592366  58.4815752  49.7888940  66.2045961  58.4662234
  49.0755997  68.0124500  57.5901250  49.0014934  68.9329784  58.1691197
  50.4454231  68.0247793  56.7921414  50.2671297  68.6173153  55.8948054
  51.1626160  68.5403696  57.4308126  50.9779791  66.7257372  56.4165890
  51.8036060  66.8436722  55.9411615  47.8845395  68.0496265  56.5979120
  47.4997036  69.1058496  56.0829130  47.3440132  66.8744817  56.3401131
  47.7527449  66.0424909  56.7411480  46.2776836  66.7194673  55.3902433
  46.3637416  67.5421359  54.6803775  46.4722099  65.4147296  54.6451392
  46.3797998  64.5809810  55.3411448  45.7142966  65.3235562  53.8670935
  47.4626843  65.3996212  54.1903520  44.8616741  66.8596736  56.0413503
  43.8403293  66.8278576  55.3344157  44.8071824  67.0219085  57.3485930
  45.6503170  67.2137944  57.8705157  43.5320273  66.9032292  58.0931201
  42.7405754  66.5912816  57.4116571  43.6436292  65.8770406  59.2109309
  44.4071534  66.3359493  59.8390494  42.7147922  65.7892440  59.7745386
  44.1081423  64.4902204  58.7777747  45.1506626  64.5377779  58.4631468
  43.9731854  63.5135909  59.9549627  42.9307909  63.4651460  60.2698685
  44.3051236  62.5225736  59.6454429  44.5877045  63.8587955  60.7864075
  43.3972650  64.0119554  57.4955365  43.6058201  64.7077038  56.6828013
  43.7606739  63.0201949  57.2263779  42.3221333  63.9694465  57.6698464
  43.0495391  68.2105997  58.7312803  43.8487056  69.0552501  59.0914254
  41.7508005  68.2709672  58.9883793  41.1721438  67.5211931  58.6375308
  41.1067358  69.3541784  59.7346119  41.8401386  69.9426412  60.2859113
  40.4044096  70.2720057  58.7158794  41.2276778  70.5551405  58.0600111
  39.6810520  69.6799206  58.1552645  39.7294433  71.5227674  59.2489034
  39.8193301  72.3009028  58.4909281  38.2593580  71.3007565  59.5758507
  38.1686878  70.5230260  60.3341468  37.8265141  72.2273488  59.9529101
  37.7287470  70.9927007  58.6749323  40.4956465  72.0382350  60.4659880
  41.5200693  72.2741484  60.1778867  40.0102086  72.9363163  60.8479582
  40.5040952  71.2725287  61.2416950  40.0974890  68.7337221  60.7158743
  39.0779511  68.2328437  60.3018101  40.4055250  68.7171684  62.0246328
  41.7730641  68.4278259  62.4732794  42.4099393  69.2875667  62.2651068
  42.1515700  67.5576107  61.9370352  41.6124696  68.1655324  63.9687875
  42.2879715  68.8311853  64.5060979  41.8907814  67.1301882  64.1655265
  40.2160038  68.4103323  64.3362182  40.1147728  69.4240014  64.7239375
  39.8270039  67.7016845  65.0673797  39.4446420  68.2772619  63.0164655
  39.1881516  67.2391076  62.8054050  38.1714782  69.1304132  63.0018777
  38.2460983  70.3645579  62.9010830  36.9985611  68.4706101  63.0399096
  36.9488630  67.4872712  62.8148009  35.7697539  69.2024133  63.1690372
  36.0295154  70.2191564  63.4637517  34.8968151  69.2653885  61.8692153
  34.4253097  68.2936466  61.7225843  33.7721045  70.3912254  61.9738214
  34.2428981  71.3633794  62.1200054  33.1859586  70.4064556  61.0549634
  33.1176625  70.1744080  62.8180941  35.7229888  69.5725394  60.7445619
  35.1831349  69.6097879  59.9516112  34.9818413  68.7736696  64.3945484
  35.1227333  67.6208110  64.9188713  34.3875722  69.8152437  64.9735453
  34.8323458  70.7140813  64.8536840  33.1907704  69.7483693  65.7615120
  33.0490142  68.8697093  66.3907663  33.1685809  71.0215893  66.6412997
  33.9500121  70.9410825  67.3969347  33.4106235  72.2891015  65.7807660
  32.6292721  72.3705437  65.0251485  33.3908337  73.1719378  66.4197566
  34.3821036  72.2168468  65.2917825  31.8933025  71.0636548  67.4973216
  32.0390347  71.8412246  68.2471537  31.0750148  71.3468524  66.8352766
  31.5556215  69.7517262  68.1872638  32.3733012  69.4680979  68.8498759
  30.6418270  69.8713892  68.7692942  31.4092835  68.9737248  67.4379983
  31.9392719  69.6743087  64.8390092  31.5239444  70.6892369  64.2078810
  31.3058137  68.4676321  64.7889250  31.7726269  67.2514602  65.4714654
  32.3021767  67.5169991  66.3864334  32.4384660  66.6886981  64.8172055
  30.5017907  66.5347007  65.7365695  30.0324541  66.9254333  66.6394263
  30.6916408  65.4683358  65.8587343  29.6687761  66.7889889  64.5416256
  28.6074684  66.7702541  64.7893630  29.8741215  66.0480882  63.7689684
  30.0638941  68.1860022  64.0454425  30.3313900  68.2335804  62.9898476
  28.8878255  69.1109309  64.3114247  28.8749527  69.7247753  65.3499132
  27.9958431  69.2687283  63.3295589  28.1158571  68.6866600  62.5129241
  26.9500611  70.3351320  63.2918204  26.1775774  70.0337138  62.5843495
  26.2858405  70.5945726  64.6709011  26.9912425  71.0209993  65.3841104
  25.5139231  71.3289413  64.4408004  25.6497964  69.3693326  65.2670319
  26.2750503  68.2859016  65.2023733  24.5723956  69.5188385  65.8895265
  27.3433536  71.7223091  62.6737115  28.5419725  72.0256790  62.3685995
  26.2665694  72.4977806  62.4411928  25.4157734  72.0052952  62.2094525
  26.2562857  73.9757581  62.3935009  27.2629323  74.3862440  62.4726423
  25.5900618  74.5148439  61.0470239  26.2579204  75.2651429  60.6238022
  25.3397188  73.3783430  59.9874032  24.6715293  72.6278571  60.4097694
  24.8852988  73.8072530  59.0942975  26.2887063  72.9117076  59.7232539
  24.3473604  75.1871220  61.3052125  23.9738017  75.4981585  60.4773776
  25.5586081  74.5800632  63.6630226  24.8931238  75.6073807  63.5595658
  25.8149813  73.9998280  64.8559056  26.4936420  73.2523540  64.8842192
  25.0592507  74.3279153  66.1196279  24.2750566  75.0537976  65.9046076
  24.4080147  73.0564139  66.7002637  25.1617267  72.2704642  66.6523010
  24.1759418  73.2734028  67.7429324  23.1384076  72.5903467  65.9813019
  23.2086532  72.8368906  64.9218763  23.1331405  71.5070793  66.1021453
  21.8371565  73.1774135  66.5594966  21.7901995  74.4116628  66.7844318
  20.8422797  72.4109827  66.7331830  25.8655964  75.0673976  67.2664916
  25.2345949  75.5662145  68.2285633  27.2179376  74.9367451  67.2649699
  27.5822423  73.9967661  67.2031563  28.2031772  76.0820076  67.5032989
  27.7267428  77.0041812  67.1705748  28.6527091  76.2601977  69.0058815
  29.7299003  76.3516584  68.8666216  28.2700901  77.1641613  69.4797512
  28.3540275  75.0497799  69.8987611  27.1555774  74.7105695  70.0659222
  29.3067199  74.5567997  70.5666336  29.4867387  76.0597709  66.5907331
  30.5287383  76.6018557  66.9779177  29.3717978  75.5275071  65.3653267
  28.4588858  75.2645944  65.0224448  30.5477131  75.2115260  64.5349406
  31.2253228  74.6164440  65.1471674  30.1231114  74.3686648  63.3025002
  29.6117626  73.4662450  63.6375526  29.4514590  74.9544920  62.6749737
  31.3487820  73.9865678  62.5076205  31.8604401  74.8885320  62.1718120
  32.0207426  73.4002836  63.1343892  30.9310990  73.1574421  61.2952595
  30.6726163  73.7818859  60.2318415  30.8745024  71.9075489  61.4441354
  31.3277162  76.4919165  64.1111009  32.4437194  76.7770958  64.5958356
  35.5521223  77.0650409  63.2771771  35.5647033  77.0778954  62.2673376
  36.8359621  77.2089151  63.9960009  37.5378603  76.4574312  63.6344626
  37.4639764  78.6129411  63.7916827  37.6550012  78.7752189  62.7308931
  36.5017245  79.6795676  64.3035452  36.3105681  79.5182113  65.3644525
  36.9424426  80.6661433  64.1602392  35.5634076  79.6178083  63.7523205
  38.7764762  78.6998831  64.5633106  39.4646043  77.9376522  64.1978166
  39.2180979  79.6860696  64.4201110  38.5861768  78.5381546  65.6243153
  36.6155688  76.9700055  65.4971039  36.1315164  77.8709929  66.1975159
  36.8445604  75.7076044  65.9254067  36.8155947  74.9873319  65.2179691
  37.0704688  75.2997720  67.3386353  36.0973189  75.2883201  67.8294991
  37.6940158  73.8652830  67.3839056  37.0357952  73.1659897  66.8683138
  39.0558553  73.8811158  66.6977812  39.7148187  74.5798885  67.2131302
  39.4906604  72.8820821  66.7290364  38.9368537  74.1927109  65.6600691
  37.8612390  73.4293056  68.8356583  38.5197501  74.1279100  69.3518130
  36.8880890  73.4178555  69.3265222  38.4689263  72.0313086  68.8797777
  39.4423682  72.0420699  68.3894770  38.5886673  71.7191946  69.9172487
  37.8107076  71.3320154  68.3641838  37.9918447  76.3181633  68.1134912
  38.8523143  76.9548664  67.5080045  37.7461193  76.5477372  69.4140883
  36.8556633  76.2789297  69.8076995  38.7394200  77.2008664  70.3021317
  39.6885473  77.3855806  69.7990043  38.1954982  78.5311141  70.8225738
  38.0364603  79.2114718  69.9859618  37.2496172  78.3612021  71.3369073
  39.1984029  79.1454376  71.7933535  39.3576153  78.4658083  72.6305251
  40.5216993  79.3838848  71.0738698  40.3633640  80.0638341  70.2367928
  41.2389232  79.8229865  71.7673250  40.9099870  78.4355066  70.7025051
  38.6557216  80.4726505  72.3126105  37.7098417  80.3027369  72.8269452
  39.3722054  80.9121863  73.0065562  38.4966816  81.1530083  71.4759992
  39.0197148  76.2341557  71.4747793  38.0895652  75.7116395  72.0586547
  40.2853226  75.9353252  71.7799895  41.0398215  76.3272559  71.2348097
  40.6290686  74.9800445  72.8904414  40.1453714  74.0183701  72.7192152
  42.1619841  74.7566210  72.9703289  42.5174919  74.3336906  72.0307314
  42.6596505  75.7094707  73.1506219  42.7338777  73.6373567  74.2727450
  44.0283011  73.7383542  73.9843601  40.0754401  75.5435110  74.2475306
  40.0201022  76.7676520  74.4256728  39.6253129  74.6772636  75.1707412
  39.6064115  73.6886432  74.9648971  38.9884016  75.1516900  76.4466651
  38.9518652  76.2348806  76.3306380  37.5325761  74.6179096  76.5991834
  36.9579520  74.8682667  75.7074280  37.5532820  73.5354415  76.7254130
  36.8812794  75.2593179  77.8198522  37.4551247  75.0090069  78.7121227
  36.8515724  76.7737678  77.6432564  36.2774719  77.0248914  76.7513795
  36.3861316  77.2327338  78.5155039  37.8698512  77.1476769  77.5364826
  35.4563628  74.7368691  77.9691342  35.4770701  73.6544014  78.0953656
  34.9903666  75.1950278  78.8415099  34.8817383  74.9872240  77.0773786
  39.8458776  74.8618238  77.7221686  40.7351372  75.6522943  78.1159856
  39.5966532  73.8915010  78.4340679  60.3620081  57.0491284  47.6640379
  59.7348745  56.3159372  48.7895547  60.0411134  58.4934523  47.3710825
  58.7639561  57.0381008  49.6448618  59.0711592  59.2157797  48.2261814
  58.4440256  58.4825885  49.3516982  58.1368225  56.3049096  50.7703786
  58.5588160  54.9072806  51.0207356  57.0829602  57.0012077  51.6342468
  56.8227014  57.9313956  51.4436112  56.4555625  56.2686662  52.7590508
  57.3154355  55.8176320  53.9428749  55.0011707  55.9964375  52.6963048
  58.8350384  56.1089749  53.9960737  56.6883019  55.0844408  55.0683917
  54.3730728  55.2630826  53.8220297  55.2329458  54.8120483  55.0058538
  54.6055480  54.0795069  56.1306578  57.2244223  54.7861731  55.8380327
  61.3319623  56.3268010  46.8089390  63.7223556  56.6795907  46.2026551
  63.9358445  57.1661648  44.7587060  62.5472568  56.9069301  45.2754520
  62.7484367  56.2768704  47.2402289  65.2516022  56.7508733  46.2859783
  63.0361332  55.8371663  48.6407917  66.1547741  56.4295768  47.4457537
  64.3811567  55.6919323  49.3483876  65.7769721  55.9621439  48.7968814
  66.5495562  55.8002091  49.4432372  59.9827960  55.2623011  48.9844698
  60.5248123  59.0067494  46.5275711  58.8222735  60.2692521  48.0314745
  57.7216913  59.0085545  49.9935727  56.6560169  55.3149377  52.2503328
  54.4902527  56.9669684  52.6156849  54.8890100  55.3200771  51.8365573
  53.5870106  55.9156785  54.2297683  54.0511291  54.3171503  53.3638829
  61.3098830  56.8030267  45.8174272  60.9995347  55.2786796  46.8465467
  65.5997247  56.0912173  45.4771263  65.3537660  57.8457194  46.3089464
  62.4713746  56.5413689  49.2688970  62.8110846  54.7670173  48.5147150
  66.8318043  55.6507575  47.0629695  66.4599409  57.4540539  47.7053375
  64.3008292  56.3443270  50.2295588  64.4297238  54.5936787  49.3772901
  89.4747439  47.7231333  68.3507028  93.4375629  49.2710863  75.1824157
  93.8205961  54.6160305  74.8194337  91.3530167  55.8775247  70.7462843
  94.7402718  51.7192566  71.2812878  92.2251418  47.7862579  69.4248355
  95.5765954  47.8109100  73.1402694  99.0584650  48.3568837  71.3335883
 102.0811962  47.9769143  68.0094489  95.4436253  57.1370731  72.3945835
  95.7581958  57.9774191  68.4286104  95.5814654  55.1426324  68.1627729
  95.2553064  56.2521949  64.6639477  93.4979850  58.6012078  61.3391196
  95.4475867  58.6107093  57.1827912  97.0817101  59.3221923  66.5136492
  93.0820046  60.6922054  74.4439783  92.9010982  62.2049495  84.8587610
  90.0575465  63.5810659  84.0437123  89.7400426  59.8248652  77.1695023
  91.0187348  59.7781163  81.3484970  88.9206110  59.4978363  83.3203569
  96.1287658  62.0825879  63.2256783  98.0986127  66.0760919  66.8207556
  96.4968872  76.0938873  63.8308019  95.2903752  73.4680025  68.3362119
  96.1359879  69.1303215  67.1352851  98.0138514  71.5174594  60.9221938
  92.9327221  54.4921896  66.9351174 101.1407173  16.7364672  22.7958974
  97.6929115  18.6037103  19.7977328  99.1160570  58.8799348  60.2589157
  99.1745956  67.2988968  63.1489919  96.9274589  64.8340953  60.0906716
  96.7905859  68.2638091  58.9071778  94.9839032  63.4720043  76.7047663
  97.6929110  64.5912860  72.8996105  95.4924957  65.9001688  71.0886428
  96.1710070  62.3478102  67.4148695  94.6133565  64.2874557  63.2827694
  92.9010984  62.2049493  58.3078221  95.6732822  61.2926834  54.4299410
  87.5789616  57.2086689  79.3224246  92.6987185  54.7830690  78.9941179
  92.4825840  52.2763045  77.8203673  90.3966683  50.2621061  68.0534337
 103.4271459  58.3487944  58.0987038 105.0235679  56.1857520  55.9400709
 107.0103826  54.6832142  54.1394002  95.4924962  19.9125931  17.9867651
 100.7353100  14.3793122  25.6229167 100.1806017  12.2294698  28.8976520
  97.0691941  11.8920746  28.1893275  96.8688086  10.2794502  25.0676031
  89.5735879  21.4025765  18.1082679  88.5224398  23.1590268  14.2911662
  87.5116501  27.6962628  16.7485581  82.6032791  30.2970567  17.2673227
  77.3533742  31.9051749  18.1841014  73.8137453  35.2417849  17.9867648
  76.4198623  35.4177080  13.7188776  91.5860791  25.7346396  16.6612375
  96.1359884  23.1427458  14.0334075  74.4922566  31.6894263  14.3129916
  79.4758350  29.3554406  14.3822117  79.5572934  34.9329140  14.9515557
  87.4760409  34.2987411  15.8135006  91.2418213  32.6477222  14.9075710
  90.2505421  28.0413714  13.5427849  85.6508623  29.5190889  12.5232118
  93.3955675  28.8512152  18.7435129  94.0797317  25.0806686  14.1991250
  71.1927859  30.5523882  16.6983095  76.5808259  23.5678466  14.1802507
  74.0794454  27.3190352  15.3267324  71.7185712  27.2926841  17.8958642
  78.6422082  21.1719081  19.8701276  79.2253984  28.1870042  17.7594563
  82.4684828  32.4013945  13.6846926  83.9008969  36.3900645  18.1794098
  68.2146279  55.2843048 132.0032423  67.5407978  55.5874745 132.6117381
  68.6012101  56.0872128 131.6537880  72.1803020  52.8628531 133.2772246
  72.8753924  53.4835224 133.4959561  72.5226170  52.0123883 133.5524624
  66.2717888  52.9690283 132.1847340  65.6991855  53.5880470 131.7317811
  66.8450682  53.5189645 132.7187261  69.4915148  53.2527433 133.3155922
  70.4245821  53.1872995 133.5188797  69.4038361  54.0883700 132.8570454
  72.1203165  52.5693304 130.2759869  72.0416796  52.2353167 131.1695627
  72.9412831  53.0615071 130.2751342  69.6907116  49.8861299 129.8969848
  70.3942967  50.0911301 130.5127503  68.9669765  50.4538061 130.1618931
  71.5993814  50.3243828 131.9468308  72.4339418  49.8925027 131.7645783
  71.4378157  50.1525842 132.8745202  73.0607669  56.7781375 132.4603260
  72.2244981  57.1156062 132.7812535  72.9212439  56.6430355 131.5230397
  72.9346049  56.6228603 129.6601167  72.0575516  56.5017404 129.2963414
  73.4103802  55.8314681 129.4080056  70.6364518  57.5627605 133.2182822
  69.9433763  57.6371960 132.5622858  70.3916270  56.7987949 133.7404339
  75.6801358  57.5592990 129.4618277  74.7732814  57.2626103 129.5380991
  75.9577339  57.2622808 128.5952563  74.4500143  54.4179925 129.6030256
  75.3119307  54.7434823 129.8626074  74.6350487  53.6311421 129.0903322
  75.4029586  51.6575968 132.8909965  75.3908256  52.6017808 133.0478236
  76.2953008  51.4746114 132.5969427  68.2146280  32.2905170 118.7277729
  67.5407979  32.5936867 119.3362687  68.6012102  33.0934251 118.3783186
  72.1803021  29.8690654 120.0017553  72.8753926  30.4897347 120.2204867
  72.5226171  29.0186005 120.2769930  66.2717889  29.9752406 118.9092646
  65.6991856  30.5942593 118.4563118  66.8450683  30.5251767 119.4432568
  69.4915149  30.2589556 120.0401228  70.4245822  30.1935117 120.2434104
  69.4038362  31.0945823 119.5815761  72.1203166  29.5755426 117.0005176
  72.0416797  29.2415290 117.8940934  72.9412833  30.0677194 116.9996648
  69.6907118  26.8923422 116.6215154  70.3942968  27.0973424 117.2372810
  68.9669766  27.4600183 116.8864238  71.5993815  27.3305951 118.6713614
  72.4339419  26.8987149 118.4891089  71.4378158  27.1587964 119.5990509
  80.2278090  37.8475602 128.7668791  80.8656500  37.7282349 128.0632131
  80.1098933  38.7956446 128.8256743  72.8954612  39.6538506 124.6927207
  72.3319477  39.5628443 123.9243495  72.7807007  38.8338411 125.1729699
  78.4754171  43.3209474 120.0041672  77.8242151  43.9063554 119.6175685
  79.2698534  43.8515669 120.0636709  72.4009798  40.4098611 120.4028806
  73.1740674  39.8627598 120.2641682  72.7535197  41.2742861 120.6143267
  74.7376076  36.5691277 118.0347256  74.9901596  36.0472799 117.2730719
  73.8000635  36.4057423 118.1373940  79.7819359  35.5727056 125.8421999
  80.5682448  35.1546479 125.4912416  80.0458063  36.4773148 126.0103648
  79.9529436  41.0099906 120.5410656  79.3175269  41.0834533 121.2531561
  79.6226842  41.5993505 119.8629735  74.4572365  38.4719383 120.2371631
  74.3408623  37.7964287 120.9052715  74.5674624  37.9851757 119.4203784
  76.8003905  37.9329530 123.9418320  76.4362113  37.4060151 124.6531242
  77.6571021  37.5427999 123.7684806  76.4409392  32.9619430 118.9379669
  76.6083795  33.8299666 119.3050140  76.2506562  33.1246712 118.0140958
  76.4198613  35.4177088 119.9226335  76.2998239  35.8634138 120.7611816
  75.7251202  35.7662405 119.3639874  74.1805505  48.1880729 123.5716467
  74.1029535  49.1388554 123.6504947  73.5767149  47.8426602 124.2291393
  82.1183679  35.8898561 120.7506670  83.0301536  36.1225948 120.5754367
  81.6093327  36.4735605 120.1881748  80.7253262  40.8724379 128.1420251
  80.0962124  41.0370093 127.4396319  80.3378924  41.2865989 128.9131215
  84.6042494  41.8078817 125.4964615  83.9193532  42.1877718 124.9461648
  84.6886343  42.4174144 126.2296562  76.2781224  40.6098787 125.4070336
  76.7419569  40.8886490 124.6174959  76.0138022  39.7082232 125.2243427
  75.2150110  36.7321940 122.2159901  75.9174153  37.1842983 122.6833828
  74.8830738  36.0905759 122.8439794  76.4543874  43.5462882 122.2922006
  76.3189549  44.3914418 122.7206854  76.9953687  43.7482160 121.5287940
  69.9073272  41.0638320 122.8649932  70.4197792  41.8581571 123.0155496
  70.5595985  40.3664611 122.7983533  71.7168156  44.1804077 124.9472685
  71.8934785  45.1022041 124.7593669  72.5124990  43.8662496 125.3767064
  72.8399472  45.6982250 130.9483027  73.3906897  45.5699314 130.1760021
  72.0010948  45.9977139 130.5977920  67.8722189  39.3926975 123.6409502
  68.7097411  39.8023983 123.4243210  68.0500456  38.4526417 123.6109696
  79.7686621  37.0602055 119.3293335  79.2533244  37.8306660 119.5681722
  79.4963929  36.3867191 119.9526396  77.3533732  31.9051756 124.3878573
  76.4975328  31.5158606 124.2084212  77.7660683  31.9843717 123.5278359
  84.7420895  39.8134410 121.2646508  83.9650338  39.4745569 120.8201671
  85.4212376  39.8187033 120.5901474  79.5572924  34.9329147 121.1553116
  79.2523059  35.2475297 122.0063259  80.5103366  35.0110567 121.1980449
  78.0019356  41.0919371 122.8046070  77.4740717  40.3572130 122.4919308
  77.5006858  41.8694047 122.5586038  82.9812202  39.2868391 127.9213116
  82.3235876  39.9767653 128.0093245  83.7852601  39.6764823 128.2647103
  81.7917660  37.6412764 125.9717058  82.3049542  38.2742756 126.4738768
  82.4418884  37.0413959 125.6060418  73.0607670  33.7843498 119.1848567
  72.2244983  34.1218185 119.5057842  72.9212440  33.6492478 118.2475704
  76.1471956  38.9099581 115.8081043  75.2399018  38.6788834 116.0072192
  76.6442988  38.1137200 115.9955025  79.0540035  47.6197088 118.7277729
  78.3801733  47.9228785 119.3362687  79.4405857  48.4226168 118.3783186
  79.0533539  36.5153635 123.3478079  79.8005358  37.0275032 123.0385201
  79.3225129  36.1937688 124.2082473  77.3260189  39.0112176 120.3305033
  76.4171409  38.7271209 120.4277503  77.3555273  39.4311254 119.4708340
  82.5579457  42.6218765 124.0996201  82.1041784  41.7809675 124.1561391
  81.9273423  43.2580164 124.4370981  81.5012376  33.5510751 125.3296868
  80.7635133  33.0388138 125.6607111  81.7539150  33.1111133 124.5180145
  81.0012396  44.4595262 125.0346019  81.2935370  45.0200319 124.3158385
  81.5111017  44.7523823 125.7899178  75.8745083  36.6240796 126.4314829
  75.9293693  35.6714633 126.3557305  75.0636285  36.7800236 126.9156127
  77.0236277  40.5520919 117.6693112  76.5855707  39.8356778 117.2098749
  77.7646718  40.7797034 117.1078203  73.8137443  35.2417856 124.1905207
  73.0005309  35.5412027 124.5970400  74.3096437  34.8473545 124.9079690
  75.9646021  45.2375613 126.1239472  75.9222200  45.4636459 125.1948004
  76.8808720  45.0038988 126.2725273  85.1409392  38.8278117 123.7269430
  85.0027290  39.0179713 122.7990620  84.7845611  39.5897499 124.1837482
  74.0811822  42.1138642 125.9201435  74.8752420  41.6188962 125.7184010
  73.3703514  41.5856505 125.5569140  78.9006666  44.4956738 130.2713803
  78.9543689  45.0647674 131.0391518  78.0321448  44.6658623 129.9067840
  70.3894585  36.2581724 121.9961188  69.4592173  36.1966179 122.2131150
  70.4852057  35.7357677 121.1997829  76.6583098  42.6867664 129.5999272
  76.5194184  42.3186448 130.4725210  75.8697694  43.2015304 129.4283230
  77.2531250  47.7876761 120.9424809  77.4283006  47.3164804 121.7570431
  76.5664038  48.4142527 121.1706069  78.2088313  42.0649267 126.9888110
  77.8738146  42.0250037 127.8845760  77.7092259  41.3993983 126.5158520
  81.1447505  39.4105301 117.2625169  80.5276675  38.6852129 117.1658222
  80.6763993  40.1714661 116.9192244  71.8192335  50.9366123 127.7164669
  72.0588933  51.5684647 128.3943687  70.9761532  50.5854163 128.0030028
  72.9346051  33.6290725 116.3846474  72.0575517  33.5079526 116.0208720
  73.4103804  32.8376804 116.1325362  76.3320197  46.7445246 130.1206173
  76.2590369  47.5500217 130.6325477  75.8897590  46.9437212 129.2954194
  76.1209977  45.9817016 123.6308994  75.3377499  46.5238696 123.7247219
  76.8202722  46.4990995 124.0303235  78.7918881  46.6432080 132.2764331
  79.5046853  47.2779545 132.2040233  78.3008909  46.7395946 131.4604333
  80.5136407  40.5483332 123.8481623  79.5792686  40.6684795 123.6786327
  80.6913076  39.6455799 123.5841633  83.9008959  36.3900652 124.3831657
  84.3669411  37.2228643 124.3091960  84.3516459  35.9245633 125.0876916
  81.9685190  42.7344473 121.3817809  82.2445034  42.6201068 122.2911683
  81.0989689  42.3361958 121.3429982  78.6039254  46.9830824 125.0250623
  78.7861648  46.1652480 125.4878375  79.4272240  47.1998516 124.5875513
  78.9381419  45.9099009 122.2865671  79.4669186  45.3991464 121.6735833
  79.2009639  45.5941539 123.1511204  72.2937167  46.9614126 125.0463447
  71.6247543  47.4460253 124.5627487  72.1550037  47.2083346 125.9606826
  76.4342436  48.9957869 131.6446106  76.9860744  49.1589491 132.4095191
  76.7748629  49.5862307 130.9726130  67.6624744  35.2232581 121.8259379
  67.9578186  34.3143259 121.7726433  66.7612780  35.2020320 121.5040382
  79.5710823  46.9439845 128.6309788  79.4461963  46.1429585 128.1220733
  80.2289914  47.4386038 128.1423758  81.6345732  44.7448865 130.2589338
  80.6876067  44.6254216 130.1867665  81.9828505  43.8571363 130.3415599
  78.6392165  44.5401581 126.4593690  78.4917127  43.6118288 126.6401260
  79.4645658  44.5621672 125.9750765  72.5054409  33.1919648 122.3174182
  72.8450482  33.7205569 121.5952791  72.9526530  33.5300054 123.0932749
  82.2426287  45.3630140 127.5458563  83.1672834  45.1573001 127.4083014
  82.0741590  45.1146541 128.4547904  74.4922556  31.6894270 120.5167475
  75.2130919  32.0675523 120.0131192  73.8687860  32.4083147 120.6202453
  78.6353679  32.3939419 121.4525807  78.8517294  33.2764057 121.1514635
  78.1547746  32.0025632 120.7231449  82.0321603  45.8815807 122.9020654
  82.2058480  45.3162230 122.1494507  82.5250494  46.6816702 122.7200144
  87.8860994  38.6452230 124.5210954  88.3292140  37.8959555 124.1230077
  87.0087504  38.6362367 124.1384686  83.0196775  45.1982572 120.0017553
  83.7147680  45.8189264 120.2204867  83.3619926  44.3477923 120.2769930
  84.9188199  42.6482277 121.5304883  85.4439523  42.9869550 120.8054203
  84.8310551  41.7129292 121.3468018  76.6028859  48.7154260 125.8900137
  76.1633850  48.2230639 126.5832993  77.3536976  48.1727228 125.6492212
  69.0821198  44.9065801 125.8924765  69.9079218  44.6069573 125.5123408
  68.7315250  44.1373424 126.3414553  74.0502731  44.2592270 127.9622438
  73.4282741  43.5962975 127.6624666  74.7207598  44.2853401 127.2796086
  73.6116238  42.8096193 121.4380899  73.7604359  43.4931657 120.7847571
  74.4182682  42.7901283 121.9530354  71.3668871  38.8361371 122.4441968
  71.1214913  37.9323701 122.6422178  71.5364786  38.8378521 121.5021446
  70.6364519  34.5689728 119.9428129  69.9433764  34.6434083 119.2868165
  70.3916271  33.8050072 120.4649646  77.1111644  45.3044323 118.9092646
  76.5385611  45.9234510 118.4563118  77.6844438  45.8543685 119.4432568
  80.3308904  45.5881473 120.0401228  81.2639577  45.5227035 120.2434104
  80.2432117  46.4237740 119.5815761  82.9596920  44.9047344 117.0005176
  82.8810552  44.5707207 117.8940934  83.7806587  45.3969112 116.9996648
  77.4958442  36.6405136 116.2508699  78.4417547  36.5111344 116.3197117
  77.1172687  35.9019798 116.7278127  75.6801360  34.5655112 116.1863584
  74.7732815  34.2688225 116.2626297  75.9577341  34.2684931 115.3197870
  77.2963425  29.1092002 122.3407825  76.4864154  28.7639087 122.7163071
  77.9847842  28.7999546 122.9295437  74.4500144  31.4242048 116.3275563
  75.3119308  31.7496946 116.5871380  74.6350488  30.6373544 115.8148629
  82.6032781  30.2970574 123.4710786  82.0231450  30.9555378 123.0888838
  82.3368713  29.4747919 123.0598204  81.3857659  32.4570665 122.5267134
  80.4983514  32.7420315 122.3087329  81.8011648  32.2964428 121.6794411
  69.3941909  47.0378416 127.6138579  69.2596377  46.2778817 127.0476577
  68.9773971  47.7619316 127.1467368  80.5300872  42.2215339 116.6215154
  81.2336722  42.4265342 117.2372810  79.8063521  42.7892101 116.8864238
  81.3598682  37.9725200 122.7417424  81.3033884  38.4293752 121.9025057
  81.9127025  37.2115885 122.5640267  85.1703488  33.7614932 123.5667544
  84.9140423  33.3611568 124.3975752  84.5456356  34.4758726 123.4417683
  72.5511035  47.9347733 127.8257022  72.4343419  48.8793165 127.7235712
  71.7303481  47.6321294 128.2142821  82.4387570  42.6597868 118.6713614
  83.2733173  42.2279067 118.4891089  82.2771912  42.4879882 119.5990509
  82.0933462  39.1629982 120.0369954  82.0382266  38.9974253 119.0958398
  81.4679517  39.8706015 120.1932143  75.4029587  28.6638091 119.6155272
  75.3908257  29.6079931 119.7723543  76.2953009  28.4808236 119.3214733
  73.5765549  48.5875995 131.0412950  74.4792796  48.6199605 131.3579445
  73.3502919  47.6576446 131.0559286  75.3319151  47.3406981 127.7023029
  74.3814782  47.3408843 127.5887401  75.6351637  46.5939716 127.1859063
  83.7348367  54.9830424 124.6927207  83.1713232  54.8920361 123.9243495
  83.6200762  54.1630328 125.1729699  81.2812799  56.4781616 127.5311427
  82.0734090  56.1372440 127.1157727  81.5209449  56.5876591 128.4513581
  89.3147925  58.6501392 120.0041672  88.6635905  59.2355472 119.6175685
  90.1092288  59.1807587 120.0636709  83.2403552  55.7390529 120.4028806
  84.0134428  55.1919516 120.2641682  83.5928951  56.6034778 120.6143267
  85.5769830  51.8983195 118.0347256  85.8295351  51.3764716 117.2730719
  84.6394389  51.7349340 118.1373940  90.6213113  50.9018973 125.8421999
  91.4076202  50.4838397 125.4912416  90.8851817  51.8065066 126.0103648
  90.7923190  56.3391824 120.5410656  90.1569023  56.4126450 121.2531561
  90.4620597  56.9285423 119.8629735  85.2966119  53.8011301 120.2371631
  85.1802377  53.1256204 120.9052715  85.4068379  53.3143675 119.4203784
  87.6397660  53.2621448 123.9418320  87.2755867  52.7352069 124.6531242
  88.4964776  52.8719917 123.7684806  87.2803147  48.2911348 118.9379669
  87.4477549  49.1591584 119.3050140  87.0900316  48.4538629 118.0140958
  83.4890962  53.2042124 126.6382203  82.5641458  53.0718338 126.8459895
  83.7375375  53.9836343 127.1352146  87.2592368  50.7469005 119.9226335
  87.1391993  51.1926056 120.7611816  86.5644956  51.0954323 119.3639874
  80.8499773  52.8475397 127.4725992  80.9792154  53.1009876 128.3865404
  80.1697224  53.4403105 127.1530648  92.9577434  51.2190478 120.7506670
  93.8695290  51.4517865 120.5754367  92.4487081  51.8027523 120.1881748
  87.1174978  55.9390705 125.4070336  87.5813324  56.2178408 124.6174959
  86.8531776  55.0374150 125.2243427  86.0543864  52.0613857 122.2159901
  86.7567908  52.5134901 122.6833828  85.7224493  51.4197676 122.8439794
  79.7969198  50.3197410 127.5177035  79.0068252  50.5754939 127.0417145
  80.2880446  51.1345748 127.6229075  81.7483944  50.6841989 124.4760511
  80.9515107  50.7960684 124.9944007  81.5209536  51.0228641 123.6101402
  78.0806901  50.5727900 129.9492026  78.3314940  51.4574910 130.2149602
  78.6166450  50.3932502 129.1767117  87.2937629  58.8754800 122.2922006
  87.1583304  59.7206336 122.7206854  87.8347441  59.0774078 121.5287940
  80.7467026  56.3930238 122.8649932  81.2591547  57.1873488 123.0155496
  81.3989739  55.6956528 122.7983533  82.5561911  59.5095994 124.9472685
  82.7328539  60.4313959 124.7593669  83.3518744  59.1954413 125.3767064
  78.7115943  54.7218892 123.6409502  79.5491165  55.1315901 123.4243210
  78.8894211  53.7818334 123.6109696  90.6080375  52.3893973 119.3293335
  90.0926999  53.1598578 119.5681722  90.3357684  51.7159109 119.9526396
  88.1927486  47.2343674 124.3878573  87.3369083  46.8450524 124.2084212
  88.6054438  47.3135635 123.5278359  85.9669519  44.8528747 127.7936315
  86.8322515  44.6571555 127.4342204  86.0347028  44.6239098 128.7205672
  95.5814649  55.1426328 121.2646508  94.8044092  54.8037487 120.8201671
  96.2606130  55.1478951 120.5901474  90.3966678  50.2621065 121.1553116
  90.0916814  50.5767214 122.0063259  91.3497120  50.3402485 121.1980449
  88.8413110  56.4211288 122.8046070  88.3134472  55.6864048 122.4919308
  88.3400613  57.1985965 122.5586038  83.5731838  47.0830955 125.1652682
  84.1475590  46.8606136 124.4325875  84.1602820  47.1519649 125.9181283
  83.9001425  49.1135416 119.1848567  83.0638737  49.4510102 119.5057842
  83.7606195  48.9784395 118.2475704  85.8754505  43.9572204 123.8927751
  85.2218918  43.6421221 123.2684366  85.8334980  43.3347944 124.6187574
  86.9865710  54.2391499 115.8081043  86.0792772  54.0080752 116.0072192
  87.4836742  53.4429118 115.9955025  89.8933789  62.9489006 118.7277729
  89.2195488  63.2520703 119.3362687  90.2799611  63.7518086 118.3783186
  89.1092246  50.4454137 128.2175399  88.1914807  50.6669084 128.0597087
  89.5252389  50.5200448 127.3587106  89.8927294  51.8445553 123.3478079
  90.6399113  52.3566950 123.0385201  90.1618883  51.5229605 124.2082473
  88.1653944  54.3404093 120.3305033  87.2565163  54.0563126 120.4277503
  88.1949028  54.7603172 119.4708340  92.3406131  48.8802669 125.3296868
  91.6028888  48.3680055 125.6607111  92.5932904  48.4403051 124.5180145
  78.7342114  52.0609608 124.3120235  78.5366514  51.4678968 123.5871302
  78.1788778  51.7561818 125.0296174  86.7138838  51.9532714 126.4314829
  86.7687448  51.0006550 126.3557305  85.9030040  52.1092153 126.9156127
  87.8630032  55.8812837 117.6693112  87.4249461  55.1648696 117.2098749
  88.6040472  56.1088952 117.1078203  84.6531198  50.5709774 124.1905207
  83.8399063  50.8703944 124.5970400  85.1490192  50.1765463 124.9079690
  95.9803146  54.1570034 123.7269430  95.8421045  54.3471630 122.7990620
  95.6239365  54.9189417 124.1837482  84.1445272  48.1428129 129.8066442
  84.7844652  48.0016888 129.1089406  83.3122803  47.8562643 129.4305044
  84.9205576  57.4430560 125.9201435  85.7146175  56.9480880 125.7184010
  84.2097269  56.9148423 125.5569140  81.2288340  51.5873642 121.9961188
  80.2985928  51.5258097 122.2131150  81.3245812  51.0649594 121.1997829
  81.1473889  48.1128454 124.5839429  81.4080706  49.0273788 124.4748590
  81.9691061  47.6452897 124.7336042  82.6198814  49.5266212 131.7538254
  83.2921868  49.3183574 131.1050903  81.7928601  49.3288298 131.3143486
  88.0925004  63.1168678 120.9424809  88.2676760  62.6456721 121.7570431
  87.4057792  63.7434444 121.1706069  91.9841259  54.7397219 117.2625169
  91.3670430  54.0144047 117.1658222  91.5157748  55.5006579 116.9192244
  83.7739805  48.9582643 116.3846474  82.8969271  48.8371444 116.0208720
  84.2497558  48.1668721 116.1325362  75.2941945  53.7459803 126.4787981
  75.9812985  53.4321533 125.8908996  75.1390074  54.6501167 126.2055232
  80.0976667  48.6349999 130.9073005  80.0134856  48.0275669 130.1723414
  79.2759374  49.1259018 130.9082501  90.2700381  47.1203563 126.2743200
  90.7669081  46.3673525 125.9544270  89.4987363  47.1567880 125.7086409
  91.3530162  55.8775250 123.8481623  90.4186441  55.9976713 123.6786327
  91.5306830  54.9747717 123.5841633  86.8535350  49.2620946 126.0014884
  86.4833138  48.7091986 126.6895790  87.3494442  48.6579079 125.4489884
  94.7402713  51.7192569 124.3831657  95.2063165  52.5520561 124.3091960
  95.1910214  51.2537551 125.0876916  92.8078944  58.0636391 121.3817809
  93.0838788  57.9492985 122.2911683  91.9383443  57.6653876 121.3429982
  89.7775174  61.2390927 122.2865671  90.3062940  60.7283381 121.6735833
  90.0403393  60.9233457 123.1511204  74.8709921  51.8260396 128.7505448
  74.9094021  51.2923987 129.5442566  74.3650214  51.2995602 128.1316425
  82.2500684  46.6724937 132.2467990  82.3142010  47.5339768 131.8345388
  82.1867804  46.0598938 131.5140349  78.5018499  50.5524498 121.8259379
  78.7971940  49.6435177 121.7726433  77.6006535  50.5312238 121.5040382
  82.0312746  48.6280495 127.8086928  81.3099332  49.2416463 127.6694401
  82.8206002  49.1638260 127.7303574  80.2306341  48.2338596 121.9498705
  79.9019047  47.3535975 121.7673810  80.5845711  48.1786265 122.8375094
  83.3448164  48.5211566 122.3174182  83.6844236  49.0497487 121.5952791
  83.7920284  48.8591972 123.0932749  85.3316311  47.0186187 120.5167475
  86.0524673  47.3967440 120.0131192  84.7081615  47.7375064 120.6202453
  89.4747434  47.7231336 121.4525807  89.6911048  48.6055974 121.1514635
  88.9941501  47.3317550 120.7231449  84.2146655  50.6817050 128.0296552
  84.0691236  50.9957353 128.9220833  83.7371859  51.3001950 127.4767451
  86.0743038  47.6719598 128.0777441  86.0604607  46.7760691 127.7409739
  86.7915466  47.6790261 128.7115728  78.6892317  53.2222394 130.9684213
  78.1445785  53.9982202 131.1004487  79.5671667  53.5693198 130.8103335
  85.4779934  46.5533978 123.3465012  85.5995845  45.6250624 123.5455899
  85.1881976  46.5672664 122.4343327  88.3471124  44.2388888 126.4831731
  88.3692821  44.3028221 125.5283711  88.7639183  43.3993397 126.6772238
  93.8590530  60.5274489 120.0017553  94.5541435  61.1481182 120.2204867
  94.2013680  59.6769841 120.2769930  95.7581953  57.9774195 121.5304883
  96.2833277  58.3161468 120.8054203  95.6704306  57.0421210 121.3468018
  79.9214953  60.2357719 125.8924765  80.7472973  59.9361491 125.5123408
  79.5709005  59.4665341 126.3414553  78.1223558  58.1544045 126.8513698
  77.2855466  57.7266220 126.6697699  78.0947203  58.3476489 127.7884489
  84.4509993  58.1388111 121.4380899  84.5998113  58.8223575 120.7847571
  85.2576436  58.1193201 121.9530354  82.2062626  54.1653288 122.4441968
  81.9608668  53.2615618 122.6422178  82.3758540  54.1670439 121.5021446
  81.4758273  49.8981646 119.9428129  80.7827518  49.9726001 119.2868165
  81.2310025  49.1341989 120.4649646  87.9505398  60.6336241 118.9092646
  87.3779365  61.2526428 118.4563118  88.5238192  61.1835603 119.4432568
  91.1702658  60.9173391 120.0401228  92.1033331  60.8518953 120.2434104
  91.0825871  61.7529658 119.5815761  93.7990675  60.2339261 117.0005176
  93.7204306  59.8999125 117.8940934  94.6200342  60.7261029 116.9996648
  88.3352197  51.9697054 116.2508699  89.2811302  51.8403262 116.3197117
  87.9566442  51.2311716 116.7278127  86.5195114  49.8947030 116.1863584
  85.6126569  49.5980143 116.2626297  86.7971095  49.5976848 115.3197870
  77.4373054  51.2153394 126.6362630  77.1175839  50.3618702 126.3437004
  76.8906483  51.4301972 127.3920598  88.1357180  44.4383920 122.3407825
  87.3257908  44.0931005 122.7163071  88.8241597  44.1291464 122.9295437
  90.0647728  43.5161967 123.9632122  90.6178767  43.9357420 124.6222145
  90.3017814  42.5897715 124.0055078  85.2893899  46.7533965 116.3275563
  86.1513063  47.0788864 116.5871380  85.4744243  45.9665461 115.8148629
  77.3061314  54.8356305 128.6055752  76.6124786  54.4210258 128.0925706
  78.0534305  54.8776842 128.0089171  93.4426535  45.6262492 123.4710786
  92.8625204  46.2847296 123.0888838  93.1762468  44.8039836 123.0598204
  79.2198057  54.7674559 126.4821767  79.1968745  54.8662246 125.5303650
  79.5298693  55.6139710 126.8038933  92.2251413  47.7862582 122.5267134
  91.3377268  48.0712233 122.3087329  92.6405402  47.6256346 121.6794411
  91.3694627  57.5507257 116.6215154  92.0730477  57.7557259 117.2372810
  90.6457275  58.1184019 116.8864238  92.1992437  53.3017118 122.7417424
  92.1427638  53.7585670 121.9025057  92.7520779  52.5407803 122.5640267
  96.0097243  49.0906850 123.5667544  95.7534177  48.6903486 124.3975752
  95.3850111  49.8050644 123.4417683  93.2781324  57.9889786 118.6713614
  94.1126928  57.5570985 118.4891089  93.1165667  57.8171800 119.5990509
  92.9327216  54.4921899 120.0369954  92.8776020  54.3266171 119.0958398
  92.3073271  55.1997932 120.1932143  77.7219731  49.7289964 133.8631376
  78.3678595  49.2188918 134.3518601  77.5136882  50.4658645 134.4374801
  86.2423342  43.9930008 119.6155272  86.2302011  44.9371848 119.7723543
  87.1346764  43.8100154 119.3214733  94.7395179  64.4427333 119.1848567
  93.9032492  64.7802020 119.5057842  94.5999949  64.3076313 118.2475704
  94.6133560  64.2874561 116.3846474  93.7363026  64.1663362 116.0208720
  95.0891313  63.4960639 116.1325362  92.3152028  65.2273563 119.9428129
  91.6221273  65.3017918 119.2868165  92.0703780  64.4633907 120.4649646
  97.3588869  65.2238948 116.1863584  96.4520324  64.9272061 116.2626297
  97.6364850  64.9268766 115.3197870  96.1287653  62.0825883 116.3275563
  96.9906817  62.4080781 116.5871380  96.3137997  61.2957379 115.8148629
  97.0817096  59.3221926 119.6155272  97.0695766  60.2663766 119.7723543
  97.9740518  59.1392071 119.3214733  68.2146281   9.2967293 105.4523036
  67.5407980   9.5998990 106.0607994  68.6012103  10.0996373 105.1028493
  72.1803022   6.8752777 106.7262859  72.8753927   7.4959469 106.9450174
  72.5226172   6.0248128 107.0015237  66.2717891   6.9814528 105.6337953
  65.6991858   7.6004715 105.1808425  66.8450684   7.5313890 106.1677875
  69.4915150   7.2651678 106.7646535  70.4245824   7.1997240 106.9679411
  69.4038363   8.1007945 106.3061068  72.1203167   6.5817549 103.7250483
  72.0416799   6.2477412 104.6186241  72.9412834   7.0739317 103.7241955
  69.6907119   3.8985544 103.3460461  70.3942969   4.1035547 103.9618117
  68.9669768   4.4662306 103.6109544  71.5993816   4.3368073 105.3958921
  72.4339420   3.9049272 105.2136396  71.4378159   4.1650087 106.3235815
  80.2278091  14.8537724 115.4914098  80.8656501  14.7344472 114.7877438
  80.1098934  15.8018568 115.5502050  72.8954613  16.6600629 111.4172513
  72.3319479  16.5690566 110.6488801  72.7807008  15.8400533 111.8975006
  78.4754172  20.3271597 106.7286978  77.8242152  20.9125677 106.3420992
  79.2698535  20.8577792 106.7882016  72.4009799  17.4160734 107.1274113
  73.1740675  16.8689721 106.9886988  72.7535198  18.2804983 107.3388574
  74.7376077  13.5753400 104.7592563  74.9901598  13.0534921 103.9976026
  73.8000636  13.4119545 104.8619246  79.7819360  12.5789178 112.5667306
  80.5682449  12.1608601 112.2157723  80.0458064  13.4835270 112.7348954
  79.9529437  18.0162029 107.2655963  79.3175270  18.0896655 107.9776867
  79.6226844  18.6055627 106.5875042  74.4572366  15.4781506 106.9616938
  74.3408624  14.8026409 107.6298022  74.5674626  14.9913880 106.1449091
  76.8003907  14.9391653 110.6663627  76.4362114  14.4122274 111.3776548
  77.6571023  14.5490122 110.4930112  76.4409394   9.9681553 105.6624975
  76.6083796  10.8361789 106.0295446  76.2506563  10.1308834 104.7386265
  76.4198615  12.4239210 106.6471642  76.2998240  12.8696261 107.4857122
  75.7251203  12.7724528 106.0885180  74.1805507  25.1942852 110.2961773
  74.1029536  26.1450677 110.3750254  73.5767150  24.8488724 110.9536700
  82.1183681  12.8960683 107.4751976  83.0301537  13.1288070 107.2999674
  81.6093328  13.4797728 106.9127055  80.7253263  17.8786502 114.8665558
  80.0962126  18.0432216 114.1641625  80.3378925  18.2928111 115.6376522
  84.6042495  18.8140940 112.2209921  83.9193533  19.1939841 111.6706955
  84.6886344  19.4236266 112.9541869  76.2781225  17.6160910 112.1315643
  76.7419570  17.8948613 111.3420265  76.0138023  16.7144354 111.9488733
  75.2150111  13.7384062 108.9405208  75.9174154  14.1905106 109.4079134
  74.8830739  13.0967881 109.5685101  76.4543876  20.5525005 109.0167313
  76.3189550  21.3976541 109.4452161  76.9953688  20.7544283 108.2533247
  69.9073273  18.0700443 109.5895238  70.4197794  18.8643693 109.7400803
  70.5595986  17.3726733 109.5228840  71.7168158  21.1866199 111.6717991
  71.8934786  22.1084164 111.4838975  72.5124991  20.8724618 112.1012371
  72.8399473  22.7044373 117.6728334  73.3906898  22.5761436 116.9005328
  72.0010949  23.0039262 117.3223226  67.8722190  16.3989097 110.3654809
  68.7097412  16.8086106 110.1488516  68.0500457  15.4588539 110.3355003
  79.7686622  14.0664178 106.0538642  79.2533245  14.8368783 106.2927029
  79.4963930  13.3929314 106.6771703  77.3533733   8.9113879 111.1123880
  76.4975329   8.5220729 110.9329519  77.7660685   8.9905839 110.2523666
  84.7420896  16.8196533 107.9891815  83.9650339  16.4807692 107.5446977
  85.4212377  16.8249156 107.3146780  79.5572925  11.9391270 107.8798423
  79.2523061  12.2537419 108.7308566  80.5103367  12.0172690 107.9225756
  78.0019357  18.0981493 109.5291377  77.4740718  17.3634253 109.2164614
  77.5006860  18.8756170 109.2831345  82.9812203  16.2930514 114.6458423
  82.3235877  16.9829775 114.7338552  83.7852602  16.6826946 114.9892409
  81.7917662  14.6474886 112.6962365  82.3049543  15.2804878 113.1984075
  82.4418886  14.0476082 112.3305725  73.0607672  10.7905621 105.9093874
  72.2244984  11.1280307 106.2303148  72.9212441  10.6554600 104.9721011
  76.1471957  15.9161704 102.5326350  75.2399019  15.6850957 102.7317499
  76.6442989  15.1199323 102.7200331  79.0540036  24.6259211 105.4523036
  78.3801735  24.9290907 106.0607994  79.4405858  25.4288291 105.1028493
  79.0533540  13.5215758 110.0723386  79.8005359  14.0337155 109.7630508
  79.3225130  13.1999810 110.9327779  77.3260191  16.0174298 107.0550340
  76.4171410  15.7333331 107.1522810  77.3555274  16.4373377 106.1953647
  82.5579458  19.6280888 110.8241507  82.1041785  18.7871798 110.8806698
  81.9273425  20.2642286 111.1616288  81.5012378  10.5572874 112.0542175
  80.7635134  10.0450260 112.3852417  81.7539151  10.1173256 111.2425452
  81.0012397  21.4657385 111.7591326  81.2935372  22.0262442 111.0403691
  81.5111018  21.7585946 112.5144485  75.8745085  13.6302919 113.1560135
  75.9293694  12.6776755 113.0802612  75.0636287  13.7862358 113.6401434
  77.0236278  17.5583042 104.3938418  76.5855708  16.8418901 103.9344056
  77.7646719  17.7859157 103.8323510  73.8137444  12.2479979 110.9150514
  73.0005310  12.5474149 111.3215706  74.3096439  11.8535668 111.6324996
  75.9646022  22.2437736 112.8484779  75.9222201  22.4698582 111.9193311
  76.8808721  22.0101110 112.9970580  85.1409393  15.8340239 110.4514737
  85.0027292  16.0241835 109.5235926  84.7845612  16.5959622 110.9082788
  74.0811823  19.1200765 112.6446742  74.8752422  18.6251085 112.4429317
  73.3703516  18.5918628 112.2814447  78.9006668  21.5018860 116.9959109
  78.9543690  22.0709797 117.7636825  78.0321449  21.6720745 116.6313146
  70.3894587  13.2643846 108.7206494  69.4592175  13.2028302 108.9376456
  70.4852059  12.7419799 107.9243135  76.6583099  19.6929787 116.3244579
  76.5194185  19.3248571 117.1970517  75.8697695  20.2077426 116.1528536
  77.2531251  24.7938883 107.6670115  77.4283007  24.3226926 108.4815738
  76.5664039  25.4204649 107.8951376  78.2088314  19.0711389 113.7133416
  77.8738147  19.0312159 114.6091066  77.7092260  18.4056105 113.2403827
  81.1447506  16.4167424 103.9870476  80.5276677  15.6914252 103.8903529
  80.6763994  17.1776784 103.6437550  71.8192336  27.9428246 114.4409975
  72.0588935  28.5746770 115.1188994  70.9761533  27.5916286 114.7275335
  72.9346052  10.6352848 103.1091780  72.0575518  10.5141649 102.7454027
  73.4103805   9.8438926 102.8570669  76.3320198  23.7507368 116.8451479
  76.2590370  24.5562340 117.3570784  75.8897591  23.9499334 116.0199501
  76.1209978  22.9879138 110.3554301  75.3377500  23.5300819 110.4492525
  76.8202723  23.5053118 110.7548542  78.7918882  23.6494202 119.0009638
  79.5046854  24.2841667 118.9285539  78.3008910  23.7458068 118.1849640
  80.5136409  17.5545455 110.5726930  79.5792687  17.6746918 110.4031634
  80.6913077  16.6517922 110.3086939  83.9008960  13.3962774 111.1076964
  84.3669412  14.2290766 111.0337266  84.3516461  12.9307756 111.8122222
  81.9685191  19.7406596 108.1063116  82.2445035  19.6263190 109.0156990
  81.0989690  19.3424081 108.0675289  78.6039255  23.9892946 111.7495929
  78.7861650  23.1714602 112.2123682  79.4272241  24.2060639 111.3120819
  78.9381421  22.9161132 109.0110978  79.4669187  22.4053586 108.3981140
  79.2009640  22.6003662 109.8756511  72.2937169  23.9676248 111.7708754
  71.6247544  24.4522376 111.2872794  72.1550038  24.2145469 112.6852132
  76.4342437  26.0019992 118.3691412  76.9860745  26.1651613 119.1340497
  76.7748631  26.5924430 117.6971437  67.6624746  12.2294703 108.5504686
  67.9578187  11.3205382 108.4971740  66.7612781  12.2082443 108.2285688
  79.5710824  23.9501967 115.3555094  79.4461964  23.1491707 114.8466040
  80.2289916  24.4448161 114.8669064  81.6345733  21.7510987 116.9834644
  80.6876068  21.6316339 116.9112971  81.9828506  20.8633485 117.0660906
  78.6392166  21.5463704 113.1838997  78.4917129  20.6180411 113.3646567
  79.4645660  21.5683794 112.6996072  72.5054410  10.1981771 109.0419489
  72.8450483  10.7267692 108.3198097  72.9526531  10.5362177 109.8178055
  82.2426288  22.3692262 114.2703869  83.1672835  22.1635124 114.1328321
  82.0741591  22.1208664 115.1793211  74.4922558   8.6956392 107.2412782
  75.2130920   9.0737645 106.7376498  73.8687862   9.4145269 107.3447760
  78.6353680   9.4001541 108.1771114  78.8517295  10.2826179 107.8759942
  78.1547748   9.0087755 107.4476756  82.0321604  22.8877930 109.6265961
  82.2058482  22.3224352 108.8739813  82.5250495  23.6878825 109.4445451
  87.8860995  15.6514353 111.2456261  88.3292141  14.9021678 110.8475384
  87.0087506  15.6424489 110.8629993  83.0196777  22.2044694 106.7262859
  83.7147681  22.8251387 106.9450174  83.3619927  21.3540045 107.0015237
  84.9188200  19.6544400 108.2550190  85.4439524  19.9931673 107.5299510
  84.8310552  18.7191415 108.0713325  76.6028861  25.7216383 112.6145443
  76.1633851  25.2292762 113.3078300  77.3536978  25.1789351 112.3737518
  69.0821200  21.9127924 112.6170071  69.9079219  21.6131696 112.2368715
  68.7315252  21.1435546 113.0659860  74.0502733  21.2654392 114.6867745
  73.4282742  20.6025097 114.3869973  74.7207600  21.2915524 114.0041393
  73.6116240  19.8158315 108.1626205  73.7604360  20.4993780 107.5092878
  74.4182683  19.7963406 108.6775661  71.3668873  15.8423493 109.1687274
  71.1214915  14.9385823 109.3667484  71.5364787  15.8440644 108.2266752
  70.6364520  11.5751851 106.6673436  69.9433765  11.6496206 106.0113472
  70.3916272  10.8112194 107.1894953  77.1111645  22.3106446 105.6337953
  76.5385612  22.9296633 105.1808425  77.6844439  22.8605808 106.1677875
  80.3308905  22.5943596 106.7646535  81.2639578  22.5289158 106.9679411
  80.2432118  23.4299863 106.3061068  82.9596922  21.9109466 103.7250483
  82.8810553  21.5769330 104.6186241  83.7806588  22.4031234 103.7241955
  77.4958444  13.6467259 102.9754005  78.4417548  13.5173467 103.0442423
  77.1172689  12.9081921 103.4523433  75.6801361  11.5717235 102.9108891
  74.7732816  11.2750348 102.9871604  75.9577342  11.2747053 102.0443177
  77.2963427   6.1154125 109.0653132  76.4864155   5.7701210 109.4408378
  77.9847843   5.8061669 109.6540743  74.4500145   8.4304170 103.0520870
  75.3119309   8.7559069 103.3116687  74.6350490   7.6435666 102.5393935
  82.6032782   7.3032697 110.1956093  82.0231451   7.9617501 109.8134145
  82.3368715   6.4810041 109.7843510  81.3857660   9.4632787 109.2512441
  80.4983515   9.7482438 109.0332636  81.8011649   9.3026550 108.4039718
  69.3941910  24.0440538 114.3383886  69.2596378  23.2840939 113.7721884
  68.9773973  24.7681438 113.8712675  80.5300873  19.2277462 103.3460461
  81.2336724  19.4327464 103.9618117  79.8063522  19.7954224 103.6109544
  81.3598684  14.9787323 109.4662731  81.3033885  15.4355874 108.6270364
  81.9127026  14.2178008 109.2885574  85.1703490  10.7677055 110.2912851
  84.9140424  10.3673691 111.1221058  84.5456358  11.4820849 110.1662990
  72.5511036  24.9409855 114.5502328  72.4343420  25.8855288 114.4481019
  71.7303483  24.6383417 114.9388128  82.4387571  19.6659991 105.3958921
  83.2733175  19.2341189 105.2136396  82.2771914  19.4942005 106.3235815
  82.0933463  16.1692104 106.7615260  82.0382267  16.0036376 105.8203704
  81.4679518  16.8768137 106.9177450  75.4029588   5.6700213 106.3400579
  75.3908258   6.6142053 106.4968850  76.2953010   5.4870359 106.0460040
  73.5765550  25.5938117 117.7658257  74.4792797  25.6261727 118.0824752
  73.3502920  24.6638568 117.7804593  75.3319152  24.3469104 114.4268335
  74.3814783  24.3470965 114.3132708  75.6351639  23.6001838 113.9104370
  91.0671846  30.1829642 115.4914098  91.7050256  30.0636389 114.7877438
  90.9492689  31.1310486 115.5502050  87.8761552  30.1357070 115.4275622
  87.5380064  30.0198135 114.5396157  88.7451320  29.7348235 115.4076629
  83.7348368  31.9892547 111.4172513  83.1713233  31.8982484 110.6488801
  83.6200763  31.1692451 111.8975006  81.2812800  33.4843738 114.2556734
  82.0734092  33.1434563 113.8403033  81.5209450  33.5938713 115.1758887
  89.3147927  35.6563514 106.7286978  88.6635906  36.2417595 106.3420992
  90.1092289  36.1869709 106.7882016  83.2403554  32.7452651 107.1274113
  84.0134430  32.1981639 106.9886988  83.5928953  33.6096901 107.3388574
  85.0788596  34.0729034 120.3341012  84.7878462  34.9774665 120.2187678
  85.7145581  34.1145561 121.0485082  86.0044803  31.4505882 116.9242372
  86.6008375  31.2261905 116.2099335  86.0619775  30.7090628 117.5267819
  85.5769832  28.9045318 104.7592563  85.8295352  28.3826839 103.9976026
  84.6394391  28.7411463 104.8619246  90.6213114  27.9081096 112.5667306
  91.4076204  27.4900519 112.2157723  90.8851819  28.8127188 112.7348954
  90.7923192  33.3453946 107.2655963  90.1569025  33.4188573 107.9776867
  90.4620598  33.9347545 106.5875042  85.2966120  30.8073424 106.9616938
  85.1802378  30.1318327 107.6298022  85.4068380  30.3205797 106.1449091
  87.6397661  30.2683571 110.6663627  87.2755868  29.7414192 111.3776548
  88.4964777  29.8782040 110.4930112  87.2803148  25.2973470 105.6624975
  87.4477551  26.1653707 106.0295446  87.0900317  25.4600752 104.7386265
  90.0378481  33.7590449 117.3290806  89.7379204  34.6615488 117.2206613
  89.6929541  33.4922632 118.1811959  83.4890963  30.2104246 113.3627510
  82.5641459  30.0780460 113.5705202  83.7375376  30.9898465 113.8597452
  87.2592369  27.7531128 106.6471642  87.1391994  28.1988179 107.4857122
  86.5644957  28.1016446 106.0885180  80.8499774  29.8537520 114.1971299
  80.9792155  30.1071999 115.1110711  80.1697225  30.4465228 113.8775954
  85.0199261  40.5234770 110.2961773  84.9423291  41.4742595 110.3750254
  84.4160905  40.1780642 110.9536700  92.9577435  28.2252601 107.4751976
  93.8695291  28.4579988 107.2999674  92.4487082  28.8089645 106.9127055
  91.5647018  33.2078419 114.8665558  90.9355880  33.3724134 114.1641625
  91.1772680  33.6220029 115.6376522  95.4436249  34.1432857 112.2209921
  94.7587288  34.5231759 111.6706955  95.5280099  34.7528184 112.9541869
  87.1174979  32.9452828 112.1315643  87.5813325  33.2240531 111.3420265
  86.8531778  32.0436272 111.9488733  84.0099060  32.4924309 115.0695406
  84.5800418  32.9211577 114.4312890  84.6007172  32.2106894 115.7679592
  86.0543865  29.0675980 108.9405208  86.7567909  29.5197024 109.4079134
  85.7224494  28.4259799 109.5685101  79.7969199  27.3259533 114.2422341
  79.0068253  27.5817061 113.7662452  80.2880447  28.1407870 114.3474382
  81.7483945  27.6904112 111.2005818  80.9515108  27.8022806 111.7189314
  81.5209537  28.0290764 110.3346709  87.5789612  34.2148815 119.1488333
  87.6434045  34.6769222 119.9846505  86.8700536  33.5846180 119.2770643
  78.0806902  27.5790023 116.6737332  78.3314941  28.4637033 116.9394908
  78.6166451  27.3994625 115.9012424  87.2937630  35.8816923 109.0167313
  87.1583305  36.7268458 109.4452161  87.8347443  36.0836200 108.2533247
  80.7467027  33.3992361 109.5895238  81.2591548  34.1935611 109.7400803
  81.3989740  32.7018651 109.5228840  82.5561912  36.5158117 111.6717991
  82.7328541  37.4376082 111.4838975  83.3518746  36.2016536 112.1012371
  81.8414269  28.5622749 121.5480155  81.7267784  27.6608006 121.8487253
  80.9858786  28.8086446 121.1964971  83.6793228  38.0336291 117.6728334
  84.2300653  37.9053354 116.9005328  82.8404704  38.3331180 117.3223226
  87.4760399  34.2987418 122.0172565  88.0088736  33.5375707 121.7871873
  86.9474480  34.0061070 122.7596719  78.7115944  31.7281015 110.3654809
  79.5491166  32.1378023 110.1488516  78.8894212  30.7880457 110.3355003
  90.6080376  29.3956096 106.0538642  90.0927000  30.1660700 106.2927029
  90.3357685  28.7221232 106.6771703  88.1927487  24.2405796 111.1123880
  87.3369084  23.8512647 110.9329519  88.6054439  24.3197757 110.2523666
  85.9669520  21.8590869 114.5181622  86.8322517  21.6633678 114.1587511
  86.0347029  21.6301221 115.4450978  95.5814651  32.1488450 107.9891815
  94.8044093  31.8099610 107.5446977  96.2606131  32.1541073 107.3146780
  90.3966680  27.2683188 107.8798423  90.0916815  27.5829337 108.7308566
  91.3497122  27.3464608 107.9225756  88.8413111  33.4273411 109.5291377
  88.3134473  32.6926171 109.2164614  88.3400614  34.2048087 109.2831345
  93.8205957  31.6222431 114.6458423  93.1629632  32.3121693 114.7338552
  94.6246357  32.0118863 114.9892409  83.5731839  24.0893077 111.8897988
  84.1475591  23.8668259 111.1571181  84.1602821  24.1581772 112.6426590
  92.6311416  29.9766804 112.6962365  93.1443298  30.6096796 113.1984075
  93.2812640  29.3768000 112.3305725  83.9001426  26.1197538 105.9093874
  83.0638738  26.4572225 106.2303148  83.7606196  25.9846518 104.9721011
  85.8754507  20.9634326 110.6173058  85.2218919  20.6483343 109.9929673
  85.8334981  20.3410067 111.3432881  86.9865712  31.2453621 102.5326350
  86.0792773  31.0142875 102.7317499  87.4836744  30.4491240 102.7200331
  89.8933790  39.9551128 105.4523036  89.2195489  40.2582825 106.0607994
  90.2799612  40.7580209 105.1028493  89.1092247  27.4516260 114.9420705
  88.1914808  27.6731207 114.7842393  89.5252391  27.5262570 114.0832413
  89.8927295  28.8507675 110.0723386  90.6399114  29.3629073 109.7630508
  90.1618884  28.5291728 110.9327779  88.1653945  31.3466216 107.0550340
  87.2565164  31.0625249 107.1522810  88.1949029  31.7665295 106.1953647
  93.3973212  34.9572806 110.8241507  92.9435540  34.1163715 110.8806698
  92.7667179  35.5934204 111.1616288  92.3406132  25.8864792 112.0542175
  91.6028889  25.3742178 112.3852417  92.5932906  25.4465173 111.2425452
  91.8406152  36.7949302 111.7591326  92.1329126  37.3554359 111.0403691
  92.3504772  37.0877863 112.5144485  78.7342115  29.0671730 111.0365542
  78.5366515  28.4741091 110.3116609  78.1788779  28.7623940 111.7541481
  86.7138839  28.9594837 113.1560135  86.7687449  28.0068673 113.0802612
  85.9030041  29.1154276 113.6401434  87.8630033  32.8874960 104.3938418
  87.4249463  32.1710819 103.9344056  88.6040474  33.1151075 103.8323510
  84.6531199  27.5771896 110.9150514  83.8399065  27.8766067 111.3215706
  85.1490193  27.1827585 111.6324996  86.8039777  37.5729653 112.8484779
  86.7615956  37.7990500 111.9193311  87.7202476  37.3393028 112.9970580
  95.9803148  31.1632157 110.4514737  95.8421046  31.3533753 109.5235926
  95.6239366  31.9251540 110.9082788  84.1445274  25.1490252 116.5311749
  84.7844653  25.0079011 115.8334712  83.3122804  24.8624765 116.1550351
  84.9205578  34.4492682 112.6446742  85.7146176  33.9543003 112.4429317
  84.2097270  33.9210546 112.2814447  89.7400422  36.8310778 116.9959109
  89.7937444  37.4001714 117.7636825  88.8715203  37.0012663 116.6313146
  81.2288341  28.5935764 108.7206494  80.2985929  28.5320220 108.9376456
  81.3245813  28.0711717 107.9243135  81.1473890  25.1190577 111.3084736
  81.4080707  26.0335910 111.1993896  81.9691062  24.6515020 111.4581349
  82.6198815  26.5328334 118.4783560  83.2921869  26.3245696 117.8296209
  81.7928602  26.3350420 118.0388793  88.6988522  30.9971040 118.5546041
  89.6280582  31.1482200 118.3815008  88.2779552  31.0855061 117.6994688
  87.4976854  35.0221704 116.3244579  87.3587939  34.6540489 117.1970517
  86.7091450  35.5369344 116.1528536  88.0925006  40.1230801 107.6670115
  88.2676761  39.6518844 108.4815738  87.4057794  40.7496567 107.8951376
  89.0482069  34.4003307 113.7133416  88.7131901  34.3604077 114.6091066
  88.5486014  33.7348023 113.2403827  83.0226313  29.8070937 119.2385998
  82.8846111  29.0751176 119.8397537  83.9331236  29.7179837 118.9570185
  91.9841260  31.7459341 103.9870476  91.3670431  31.0206170 103.8903529
  91.5157749  32.5068702 103.6437550  85.6508613  29.5190896 118.7269677
  86.3608232  28.8784089 118.6856296  85.6077922  29.7703791 119.6495858
  82.6586091  43.2720164 114.4409975  82.8982689  43.9038688 115.1188994
  81.8155287  42.9208204 114.7275335  83.7739806  25.9644766 103.1091780
  82.8969273  25.8433566 102.7454027  84.2497559  25.1730844 102.8570669
  75.2941946  30.7521925 113.2033287  75.9812986  30.4383655 112.6154303
  75.1390075  31.6563290 112.9300539  80.0976669  25.6412122 117.6318311
  80.0134857  25.0337792 116.8968721  79.2759375  26.1321140 117.6327808
  87.1713953  39.0799286 116.8451479  87.0984124  39.8854258 117.3570784
  86.7291346  39.2791252 116.0199501  86.9603732  38.3171056 110.3554301
  86.1771254  38.8592736 110.4492525  87.6596478  38.8345036 110.7548542
  90.2700382  24.1265686 112.9988506  90.7669082  23.3735648 112.6789576
  89.4987364  24.1630002 112.4331716  89.6312636  38.9786120 119.0009638
  90.3440608  39.6133585 118.9285539  89.1402665  39.0749986 118.1849640
  91.3530163  32.8837373 110.5726930  90.4186442  33.0038835 110.4031634
  91.5306832  31.9809840 110.3086939  86.8535351  26.2683069 112.7260191
  86.4833139  25.7154109 113.4141096  87.3494444  25.6641202 112.1735191
  94.7402715  28.7254692 111.1076964  95.2063167  29.5582684 111.0337266
  95.1910215  28.2599674 111.8122222  84.6824550  36.7280564 119.8215209
  85.3834009  37.3617047 119.9744603  84.2119665  37.0695295 119.0610848
  92.8078946  35.0698513 108.1063116  93.0838790  34.9555108 109.0156990
  91.9383444  34.6715998 108.0675289  89.4433010  39.3184864 111.7495929
  89.6255404  38.5006520 112.2123682  90.2665996  39.5352556 111.3120819
  89.7775175  38.2453049 109.0110978  90.3062942  37.7345504 108.3981140
  90.0403395  37.9295580 109.8756511  80.2792268  36.2616919 116.7546311
  80.8645705  35.5160606 116.8874216  80.0817106  36.5720875 117.6382975
  83.1330923  39.2968166 111.7708754  82.4641298  39.7814294 111.2872794
  82.9943793  39.5437386 112.6852132  74.8709923  28.8322519 115.4750755
  74.9094022  28.2986109 116.2687873  74.3650215  28.3057724 114.8561732
  87.2736192  41.3311909 118.3691412  87.8254500  41.4943531 119.1340497
  87.6142385  41.9216347 117.6971437  82.2500685  23.6787059 118.9713297
  82.3142011  24.5401890 118.5590695  82.1867805  23.0661061 118.2385655
  78.5018500  27.5586621 108.5504686  78.7971941  26.6497299 108.4971740
  77.6006536  27.5374360 108.2285688  90.4104579  39.2793885 115.3555094
  90.2855718  38.4783625 114.8466040  91.0683670  39.7740078 114.8669064
  82.0312747  25.6342618 114.5332235  81.3099333  26.2478585 114.3939708
  82.8206003  26.1700382 114.4548881  92.4739487  37.0802905 116.9834644
  91.5269823  36.9608256 116.9112971  92.8222260  36.1925403 117.0660906
  80.2306342  25.2400719 108.6744011  79.9019048  24.3598098 108.4919117
  80.5845712  25.1848387 109.5620400  89.4785921  36.8755621 113.1838997
  89.3310883  35.9472329 113.3646567  90.3039414  36.8975712 112.6996072
  83.3448165  25.5273688 109.0419489  83.6844237  26.0559610 108.3198097
  83.7920285  25.8654095 109.8178055  93.0820042  37.6984180 114.2703869
  94.0066590  37.4927041 114.1328321  92.9135346  37.4500581 115.1793211
  85.3316312  24.0248310 107.2412782  86.0524675  24.4029563 106.7376498
  84.7081616  24.7437187 107.3447760  89.4747435  24.7293459 108.1771114
  89.6911049  25.6118097 107.8759942  88.9941502  24.3379672 107.4476756
  84.2146656  27.6879172 114.7541859  84.0691237  28.0019475 115.6466140
  83.7371860  28.3064073 114.2012757  86.0743039  24.6781720 114.8022748
  86.0604608  23.7822813 114.4655046  86.7915467  24.6852384 115.4361034
  92.8715359  38.2169848 109.6265961  93.0452236  37.6516270 108.8739813
  93.3644250  39.0170742 109.4445451  78.6892319  30.2284517 117.6929520
  78.1445787  31.0044325 117.8249794  79.5671668  30.5755321 117.5348641
  85.4779935  23.5596100 110.0710318  85.5995846  22.6312747 110.2701206
  85.1881978  23.5734786 109.1588634  88.3471126  21.2451011 113.2077038
  88.3692822  21.3090344 112.2529018  88.7639185  20.4055520 113.4017544
  98.7254750  30.9806270 111.2456261  99.1685896  30.2313596 110.8475384
  97.8481260  30.9716407 110.8629993  93.8590531  37.5336612 106.7262859
  94.5541436  38.1543305 106.9450174  94.2013681  36.6831963 107.0015237
  79.4758340  29.3554413 120.5859677  78.7340076  29.5037048 121.1724307
  79.1551085  29.6162678 119.7226426  95.7581954  34.9836317 108.2550190
  96.2833278  35.3223590 107.5299510  95.6704307  34.0483333 108.0713325
  87.4202003  38.8970391 120.3840067  87.7289129  38.6519538 121.2562766
  88.2177485  39.1017030 119.8958937  87.4422615  41.0508301 112.6145443
  87.0027605  40.5584679 113.3078300  88.1930732  40.5081268 112.3737518
  79.9214954  37.2419842 112.6170071  80.7472974  36.9423613 112.2368715
  79.5709006  36.4727464 113.0659860  84.8896487  36.5946310 114.6867745
  84.2676496  35.9317015 114.3869973  85.5601354  36.6207442 114.0041393
  78.1223559  35.1606168 113.5759005  77.2855467  34.7328342 113.3943006
  78.0947205  35.3538611 114.5129796  84.4509994  35.1450233 108.1626205
  84.5998114  35.8285698 107.5092878  85.2576438  35.1255323 108.6775661
  82.2062627  31.1715411 109.1687274  81.9608669  30.2677741 109.3667484
  82.3758542  31.1732561 108.2266752  81.4758275  26.9043768 106.6673436
  80.7827520  26.9788123 106.0113472  81.2310027  26.1404112 107.1894953
  87.9505400  37.6398364 105.6337953  87.3779367  38.2588551 105.1808425
  88.5238193  38.1897725 106.1677875  91.1702659  37.9235514 106.7646535
  92.1033333  37.8581075 106.9679411  91.0825872  38.7591781 106.3061068
  93.7990676  37.2401384 103.7250483  93.7204308  36.9061248 104.6186241
  94.6200343  37.7323152 103.7241955  88.3352198  28.9759176 102.9754005
  89.2811303  28.8465384 103.0442423  87.9566443  28.2373838 103.4523433
  86.5195115  26.9009153 102.9108891  85.6126571  26.6042265 102.9871604
  86.7971096  26.6038971 102.0443177  77.4373056  28.2215516 113.3607937
  77.1175840  27.3680824 113.0682311  76.8906484  28.4364094 114.1165904
  81.2152963  30.9377957 117.0777443  81.4338973  31.8695065 117.0965477
  81.6278737  30.5785932 117.8632247  88.1357181  21.4446042 109.0653132
  87.3257909  21.0993127 109.4408378  88.8241598  21.1353586 109.6540743
  90.0647729  20.5224089 110.6877428  90.6178768  20.9419543 111.3467452
  90.3017816  19.5959837 110.7300384  85.2893900  23.7596088 103.0520870
  86.1513064  24.0850986 103.3116687  85.4744244  22.9727584 102.5393935
  77.3061316  31.8418428 115.3301058  76.6124787  31.4272380 114.8171013
  78.0534307  31.8838964 114.7334477  93.4426536  22.6324614 110.1956093
  92.8625205  23.2909418 109.8134145  93.1762469  21.8101959 109.7843510
  79.2198058  31.7736681 113.2067073  79.1968746  31.8724369 112.2548956
  79.5298695  32.6201832 113.5284239  81.8785436  33.8312836 117.3213688
  82.8328690  33.7996779 117.2543619  81.6797960  33.3703460 118.1363914
  82.4684818  32.4013952 119.8884485  83.2877707  32.8958031 119.9119323
  82.7421626  31.4845921 119.8602053  92.2251414  24.7924705 109.2512441
  91.3377269  25.0774355 109.0332636  92.6405403  24.6318468 108.4039718
  80.2335665  39.3732456 114.3383886  80.0990133  38.6132857 113.7721884
  79.8167727  40.0973356 113.8712675  91.3694628  34.5569379 103.3460461
  92.0730478  34.7619382 103.9618117  90.6457277  35.1246141 103.6109544
  92.1992438  30.3079241 109.4662731  92.1427640  30.7647792 108.6270364
  92.7520781  29.5469925 109.2885574  96.0097244  26.0968973 110.2912851
  95.7534178  25.6965608 111.1221058  95.3850112  26.8112767 110.1662990
  83.3904791  40.2701773 114.5502328  83.2737175  41.2147205 114.4481019
  82.5697237  39.9675335 114.9388128  93.2781325  34.9951909 105.3958921
  94.1126929  34.5633107 105.2136396  93.1165668  34.8233922 106.3235815
  92.9327217  31.4984022 106.7615260  92.8776021  31.3328293 105.8203704
  92.3073273  32.2060055 106.9177450  77.7219732  26.7352086 120.5876683
  78.3678596  26.2251040 121.0763908  77.5136884  27.4720768 121.1620108
  86.2423343  20.9992131 106.3400579  86.2302013  21.9433971 106.4968850
  87.1346765  20.8162276 106.0460040  84.4159305  40.9230035 117.7658257
  85.3186552  40.9553645 118.0824752  84.1896675  39.9930486 117.7804593
  86.1712907  39.6761021 114.4268335  85.2208538  39.6762883 114.3132708
  86.4745393  38.9293756 113.9104370 101.9065600  45.5121560 115.4914098
 102.5444010  45.3928307 114.7877438 101.7886443  46.4602404 115.5502050
  98.7155307  45.4648988 115.4275622  98.3773818  45.3490053 114.5396157
  99.5845075  45.0640153 115.4076629  94.5742122  47.3184464 111.4172513
  94.0106987  47.2274401 110.6488801  94.4594517  46.4984369 111.8975006
  92.1206554  48.8135656 114.2556734  92.9127846  48.4726481 113.8403033
  92.3603204  48.9230631 115.1758887 100.1541681  50.9855432 106.7286978
  99.5029661  51.5709512 106.3420992 100.9486044  51.5161627 106.7882016
  94.0797308  48.0744569 107.1274113  94.8528184  47.5273556 106.9886988
  94.4322707  48.9388818 107.3388574  95.9182351  49.4020951 120.3341012
  95.6272217  50.3066582 120.2187678  96.5539335  49.4437479 121.0485082
  96.8438558  46.7797800 116.9242372  97.4402130  46.5553822 116.2099335
  96.9013529  46.0382545 117.5267819  96.4163586  44.2337235 104.7592563
  96.6689107  43.7118757 103.9976026  95.4788145  44.0703381 104.8619246
 101.4606869  43.2373014 112.5667306 102.2469958  42.8192437 112.2157723
 101.7245573  44.1419106 112.7348954 101.6316946  48.6745864 107.2655963
 100.9962779  48.7480490 107.9776867 101.3014353  49.2639463 106.5875042
  96.1359875  46.1365341 106.9616938  96.0196133  45.4610245 107.6298022
  96.2462135  45.6497715 106.1449091  98.4791416  45.5975488 110.6663627
  98.1149623  45.0706109 111.3776548  99.3358532  45.2073957 110.4930112
  98.1196903  40.6265388 105.6624975  98.2871305  41.4945624 106.0295446
  97.9294072  40.7892670 104.7386265 100.8772236  49.0882367 117.3290806
 100.5772959  49.9907406 117.2206613 100.5323295  48.8214550 118.1811959
  94.3284717  45.5396164 113.3627510  93.4035214  45.4072378 113.5705202
  94.5769131  46.3190383 113.8597452  98.0986124  43.0823046 106.6471642
  97.9785749  43.5280096 107.4857122  97.4038712  43.4308363 106.0885180
  91.6893528  45.1829437 114.1971299  91.8185910  45.4363916 115.1110711
  91.0090980  45.7757145 113.8775954  95.8593016  55.8526687 110.2961773
  95.7817045  56.8034512 110.3750254  95.2554659  55.5072560 110.9536700
 103.7971190  43.5544519 107.4751976 104.7089046  43.7871905 107.2999674
 103.2880837  44.1381563 106.9127055 102.4040772  48.5370337 114.8665558
 101.7749634  48.7016051 114.1641625 102.0166434  48.9511947 115.6376522
 106.2830004  49.4724775 112.2209921 105.5981042  49.8523676 111.6706955
 106.3673853  50.0820102 112.9541869  97.9568734  48.2744745 112.1315643
  98.4207079  48.5532448 111.3420265  97.6925532  47.3728190 111.9488733
  94.8492815  47.8216227 115.0695406  95.4194172  48.2503495 114.4312890
  95.4400927  47.5398811 115.7679592  96.8937620  44.3967898 108.9405208
  97.5961663  44.8488941 109.4079134  96.5618248  43.7551716 109.5685101
  90.6362954  42.6551450 114.2422341  89.8462008  42.9108979 113.7662452
  91.1274201  43.4699788 114.3474382  92.5877699  43.0196030 111.2005818
  91.7908863  43.1314724 111.7189314  92.3603292  43.3582682 110.3346709
  98.4183367  49.5440733 119.1488333  98.4827799  50.0061140 119.9846505
  97.7094291  48.9138098 119.2770643  88.9200657  42.9081941 116.6737332
  89.1708695  43.7928951 116.9394908  89.4560205  42.7286542 115.9012424
  98.1331385  51.2108840 109.0167313  97.9977059  52.0560376 109.4452161
  98.6741197  51.4128118 108.2533247  91.5860782  48.7284278 109.5895238
  92.0985303  49.5227529 109.7400803  92.2383495  48.0310569 109.5228840
  93.3955667  51.8450035 111.6717991  93.5722295  52.7667999 111.4838975
  94.1912500  51.5308454 112.1012371  92.6808023  43.8914666 121.5480155
  92.5661538  42.9899924 121.8487253  91.8252541  44.1378363 121.1964971
  94.5186982  53.3628208 117.6728334  95.0694407  53.2345272 116.9005328
  93.6798458  53.6623097 117.3223226  98.3154153  49.6279336 122.0172565
  98.8482490  48.8667624 121.7871873  97.7868234  49.3352988 122.7596719
  89.5509699  47.0572933 110.3654809  90.3884921  47.4669941 110.1488516
  89.7287966  46.1172375 110.3355003 101.4474131  44.7248013 106.0538642
 100.9320754  45.4952618 106.2927029 101.1751439  44.0513149 106.6771703
  99.0321242  39.5697714 111.1123880  98.1762838  39.1804564 110.9329519
  99.4448194  39.6489675 110.2523666  96.8063274  37.1882787 114.5181622
  97.6716271  36.9925596 114.1587511  96.8740783  36.9593139 115.4450978
 106.4208405  47.4780368 107.9891815 105.6437848  47.1391527 107.5446977
 107.0999886  47.4832991 107.3146780 101.2360434  42.5975105 107.8798423
 100.9310570  42.9121254 108.7308566 102.1890876  42.6756525 107.9225756
  99.6806866  48.7565329 109.5291377  99.1528227  48.0218088 109.2164614
  99.1794369  49.5340005 109.2831345 104.6599712  46.9514349 114.6458423
 104.0023386  47.6413611 114.7338552 105.4640111  47.3410781 114.9892409
  94.4125594  39.4184995 111.8897988  94.9869345  39.1960176 111.1571181
  94.9996576  39.4873689 112.6426590 103.4705171  45.3058722 112.6962365
 103.9837052  45.9388714 113.1984075 104.1206395  44.7059917 112.3305725
  94.7395181  41.4489456 105.9093874  93.9032493  41.7864142 106.2303148
  94.5999950  41.3138436 104.9721011  96.7148261  36.2926244 110.6173058
  96.0612674  35.9775261 109.9929673  96.6728735  35.6701984 111.3432881
  97.8259466  46.5745539 102.5326350  96.9186528  46.3434792 102.7317499
  98.3230498  45.7783158 102.7200331 100.7327545  55.2843046 105.4523036
 100.0589244  55.5874743 106.0607994 101.1193367  56.0872126 105.1028493
  99.9486002  42.7808177 114.9420705  99.0308563  43.0023124 114.7842393
 100.3646145  42.8554488 114.0832413 100.7321049  44.1799593 110.0723386
 101.4792868  44.6920990 109.7630508 101.0012639  43.8583646 110.9327779
  99.0047700  46.6758134 107.0550340  98.0958919  46.3917167 107.1522810
  99.0342783  47.0957212 106.1953647 104.2366967  50.2864723 110.8241507
 103.7829294  49.4455633 110.8806698 103.6060934  50.9226122 111.1616288
 103.1799886  41.2156709 112.0542175 102.4422643  40.7034096 112.3852417
 103.4326660  40.7757091 111.2425452 102.6799906  52.1241220 111.7591326
 102.9722881  52.6846277 111.0403691 103.1898527  52.4169781 112.5144485
  89.5735870  44.3963648 111.0365542  89.3760270  43.8033009 110.3116609
  89.0182534  44.0915858 111.7541481  97.5532594  44.2886754 113.1560135
  97.6081203  43.3360591 113.0802612  96.7423796  44.4446193 113.6401434
  98.7023787  48.2166877 104.3938418  98.2643217  47.5002736 103.9344056
  99.4434228  48.4442992 103.8323510  95.4924953  42.9063814 110.9150514
  94.6792819  43.2057985 111.3215706  95.9883948  42.5119503 111.6324996
  97.6433531  52.9021571 112.8484779  97.6009710  53.1282417 111.9193311
  98.5596230  52.6684946 112.9970580 106.8196902  46.4924074 110.4514737
 106.6814801  46.6825670 109.5235926 106.4633121  47.2543457 110.9082788
  94.9839028  40.4782170 116.5311749  95.6238408  40.3370929 115.8334712
  94.1516559  40.1916683 116.1550351  95.7599332  49.7784600 112.6446742
  96.5539931  49.2834920 112.4429317  95.0491025  49.2502463 112.2814447
 100.5794177  52.1602696 116.9959109 100.6331199  52.7293632 117.7636825
  99.7108958  52.3304581 116.6313146  92.0682096  43.9227682 108.7206494
  91.1379684  43.8612137 108.9376456  92.1639568  43.4003635 107.9243135
  91.9867645  40.4482495 111.3084736  92.2474462  41.3627828 111.1993896
  92.8084817  39.9806937 111.4581349  93.4592570  41.8620252 118.4783560
  94.1315623  41.6537614 117.8296209  92.6322357  41.6642338 118.0388793
  99.5382276  46.3262958 118.5546041 100.4674336  46.4774117 118.3815008
  99.1173306  46.4146978 117.6994688  98.3370608  50.3513622 116.3244579
  98.1981694  49.9832406 117.1970517  97.5485204  50.8661261 116.1528536
  98.9318760  55.4522719 107.6670115  99.1070516  54.9810762 108.4815738
  98.2451548  56.0788485 107.8951376  99.8875823  49.7295225 113.7133416
  99.5525656  49.6895995 114.6091066  99.3879769  49.0639941 113.2403827
  93.8620067  45.1362855 119.2385998  93.7239865  44.4043094 119.8397537
  94.7724991  45.0471755 118.9570185 102.8235015  47.0751259 103.9870476
 102.2064186  46.3498087 103.8903529 102.3551503  47.8360619 103.6437550
  96.4902368  44.8482814 118.7269677  97.2001986  44.2076006 118.6856296
  96.4471676  45.0995709 119.6495858  93.4979845  58.6012081 114.4409975
  93.7376444  59.2330605 115.1188994  92.6549042  58.2500121 114.7275335
  94.6133561  41.2936683 103.1091780  93.7363027  41.1725484 102.7454027
  95.0891314  40.5022762 102.8570669  86.1335701  46.0813843 113.2033287
  86.8206741  45.7675573 112.6154303  85.9783830  46.9855208 112.9300539
  90.9370423  40.9704040 117.6318311  90.8528612  40.3629709 116.8968721
  90.1153130  41.4613058 117.6327808  98.0107707  54.4091204 116.8451479
  97.9377879  55.2146175 117.3570784  97.5685100  54.6083170 116.0199501
  97.7997487  53.6462974 110.3554301  97.0165009  54.1884654 110.4492525
  98.4990232  54.1636953 110.7548542 101.1094137  39.4557603 112.9988506
 101.6062837  38.7027566 112.6789576 100.3381118  39.4921920 112.4331716
 100.4706391  54.3078038 119.0009638 101.1834363  54.9425503 118.9285539
  99.9796419  54.4041904 118.1849640 102.1923918  48.2129290 110.5726930
 101.2580196  48.3330753 110.4031634 102.3700586  47.3101757 110.3086939
  97.6929106  41.5974986 112.7260191  97.3226893  41.0446027 113.4141096
  98.1888198  40.9933120 112.1735191 105.5796469  44.0546610 111.1076964
 106.0456921  44.8874601 111.0337266 106.0303970  43.5891591 111.8122222
  95.5218304  52.0572481 119.8215209  96.2227764  52.6908964 119.9744603
  95.0513419  52.3987213 119.0610848 103.6472700  50.3990431 108.1063116
 103.9232544  50.2847026 109.0156990 102.7777199  50.0007916 108.0675289
 100.2826764  54.6476782 111.7495929 100.4649159  53.8298438 112.2123682
 101.1059750  54.8644474 111.3120819 100.6168930  53.5744967 109.0110978
 101.1456696  53.0637422 108.3981140 100.8797149  53.2587497 109.8756511
  91.1186022  51.5908836 116.7546311  91.7039459  50.8452524 116.8874216
  90.9210861  51.9012793 117.6382975  93.9724678  54.6260084 111.7708754
  93.3035053  55.1106211 111.2872794  93.8337547  54.8729304 112.6852132
  85.7103677  44.1614436 115.4750755  85.7487777  43.6278027 116.2687873
  85.2043970  43.6349642 114.8561732  98.1129946  56.6603827 118.3691412
  98.6648254  56.8235449 119.1340497  98.4536140  57.2508265 117.6971437
  93.0894439  39.0078977 118.9713297  93.1535766  39.8693808 118.5590695
  93.0261560  38.3952979 118.2385655  89.3412255  42.8878539 108.5504686
  89.6365696  41.9789217 108.4971740  88.4400290  42.8666278 108.2285688
 101.2498333  54.6085803 115.3555094 101.1249473  53.8075543 114.8466040
 101.9077425  55.1031996 114.8669064  92.8706502  40.9634535 114.5332235
  92.1493087  41.5770503 114.3939708  93.6599757  41.4992300 114.4548881
 103.3133242  52.4094823 116.9834644 102.3663577  52.2900174 116.9112971
 103.6616015  51.5217321 117.0660906  91.0700096  40.5692636 108.6744011
  90.7412802  39.6890015 108.4919117  91.4239467  40.5140305 109.5620400
 100.3179675  52.2047539 113.1838997 100.1704638  51.2764246 113.3646567
 101.1433169  52.2267630 112.6996072  94.1841919  40.8565606 109.0419489
  94.5237992  41.3851527 108.3198097  94.6314040  41.1946012 109.8178055
 103.9213797  53.0276098 114.2703869 104.8460344  52.8218959 114.1328321
 103.7529100  52.7792499 115.1793211  96.1710067  39.3540228 107.2412782
  96.8918429  39.7321480 106.7376498  95.5475371  40.0729104 107.3447760
 100.3141189  40.0585377 108.1771114 100.5304804  40.9410015 107.8759942
  99.8335257  39.6671590 107.4476756  95.0540411  43.0171090 114.7541859
  94.9084992  43.3311393 115.6466140  94.5765614  43.6355990 114.2012757
  96.9136794  40.0073638 114.8022748  96.8998362  39.1114731 114.4655046
  97.6309222  40.0144302 115.4361034 103.7109113  53.5461765 109.6265961
 103.8845991  52.9808188 108.8739813 104.2038004  54.3462660 109.4445451
  89.5286073  45.5576434 117.6929520  88.9839541  46.3336242 117.8249794
  90.4065423  45.9047239 117.5348641  96.3173690  38.8888018 110.0710318
  96.4389601  37.9604664 110.2701206  96.0275732  38.9026704 109.1588634
  99.1864880  36.5742929 113.2077038  99.2086577  36.6382262 112.2529018
  99.6032939  35.7347437 113.4017544 109.5648504  46.3098188 111.2456261
 110.0079650  45.5605513 110.8475384 108.6875015  46.3008324 110.8629993
 104.6984286  52.8628530 106.7262859 105.3935190  53.4835222 106.9450174
 105.0407436  52.0123881 107.0015237  90.3152095  44.6846331 120.5859677
  89.5733831  44.8328966 121.1724307  89.9944839  44.9454596 119.7226426
 106.5975709  50.3128235 108.2550190 107.1227033  50.6515508 107.5299510
 106.5098061  49.3775250 108.0713325  98.2595757  54.2262309 120.3840067
  98.5682884  53.9811456 121.2562766  99.0571240  54.4308947 119.8958937
  98.2816370  56.3800218 112.6145443  97.8421360  55.8876597 113.3078300
  99.0324487  55.8373186 112.3737518  90.7608709  52.5711759 112.6170071
  91.5866728  52.2715531 112.2368715  90.4102761  51.8019382 113.0659860
  95.7290242  51.9238227 114.6867745  95.1070251  51.2608933 114.3869973
  96.3995109  51.9499359 114.0041393  88.9617314  50.4898086 113.5759005
  88.1249222  50.0620260 113.3943006  88.9340959  50.6830529 114.5129796
  95.2903749  50.4742151 108.1626205  95.4391869  51.1577615 107.5092878
  96.0970192  50.4547241 108.6775661  93.0456382  46.5007328 109.1687274
  92.8002424  45.5969658 109.3667484  93.2152296  46.5024479 108.2266752
  92.3152029  42.2335686 106.6673436  91.6221274  42.3080041 106.0113472
  92.0703781  41.4696030 107.1894953  98.7899154  52.9690281 105.6337953
  98.2173121  53.5880468 105.1808425  99.3631948  53.5189643 106.1677875
 102.0096414  53.2527431 106.7646535 102.9427087  53.1872993 106.9679411
 101.9219627  54.0883698 106.3061068 104.6384431  52.5693302 103.7250483
 104.5598062  52.2353165 104.6186241 105.4594097  53.0615070 103.7241955
  99.1745953  44.3051094 102.9754005 100.1205057  44.1757302 103.0442423
  98.7960198  43.5665756 103.4523433  97.3588870  42.2301070 102.9108891
  96.4520325  41.9334183 102.9871604  97.6364851  41.9330888 102.0443177
  88.2766810  43.5507434 113.3607937  87.9569595  42.6972742 113.0682311
  87.7300238  43.7656012 114.1165904  92.0546718  46.2669875 117.0777443
  92.2732727  47.1986983 117.0965477  92.4672492  45.9077849 117.8632247
  98.9750936  36.7737960 109.0653132  98.1651664  36.4285045 109.4408378
  99.6635352  36.4645504 109.6540743 100.9041484  35.8516007 110.6877428
 101.4572522  36.2711460 111.3467452 101.1411570  34.9251755 110.7300384
  96.1287654  39.0888006 103.0520870  96.9906818  39.4142904 103.3116687
  96.3137999  38.3019502 102.5393935  88.1455070  47.1710345 115.3301058
  87.4518542  46.7564298 114.8171013  88.8928061  47.2130882 114.7334477
 104.2820291  37.9616532 110.1956093 103.7018960  38.6201336 109.8134145
 104.0156224  37.1393877 109.7843510  90.0591813  47.1028599 113.2067073
  90.0362501  47.2016286 112.2548956  90.3692449  47.9493750 113.5284239
  92.7179191  49.1604754 117.3213688  93.6722444  49.1288696 117.2543619
  92.5191714  48.6995378 118.1363914  93.3078573  47.7305870 119.8884485
  94.1271462  48.2249949 119.9119323  93.5815380  46.8137838 119.8602053
 103.0645169  40.1216622 109.2512441 102.1771024  40.4066273 109.0332636
 103.4799158  39.9610386 108.4039718  91.0729419  54.7024374 114.3383886
  90.9383887  53.9424774 113.7721884  90.6561482  55.4265273 113.8712675
 102.2088382  49.8861297 103.3460461 102.9124232  50.0911300 103.9618117
 101.4851031  50.4538059 103.6109544 103.0386193  45.6371158 109.4662731
 102.9821394  46.0939710 108.6270364 103.5914535  44.8761843 109.2885574
 106.8490999  41.4260890 110.2912851 106.5927933  41.0257526 111.1221058
 106.2243867  42.1404684 110.1662990  94.2298545  55.5993691 114.5502328
  94.1130929  56.5439123 114.4481019  93.4090992  55.2967252 114.9388128
 104.1175080  50.3243826 105.3958921 104.9520684  49.8925025 105.2136396
 103.9559423  50.1525840 106.3235815 103.7720972  46.8275940 106.7615260
 103.7169776  46.6620211 105.8203704 103.1467027  47.5351973 106.9177450
  88.5613487  42.0644004 120.5876683  89.2072351  41.5542958 121.0763908
  88.3530638  42.8012686 121.1620108  97.0817097  36.3284049 106.3400579
  97.0695767  37.2725889 106.4968850  97.9740519  36.1454194 106.0460040
  95.2553059  56.2521953 117.7658257  96.1580306  56.2845563 118.0824752
  95.0290429  55.3222403 117.7804593  97.0106661  55.0052939 114.4268335
  96.0602292  55.0054801 114.3132708  97.3139148  54.2585674 113.9104370
 105.4135877  62.6476382 111.4172513 104.8500742  62.5566319 110.6488801
 105.2988272  61.8276286 111.8975006 102.9600309  64.1427574 114.2556734
 103.7521601  63.8018398 113.8403033 103.1996959  64.2522549 115.1758887
 110.9935436  66.3147350 106.7286978 110.3423415  66.9001430 106.3420992
 111.7879798  66.8453545 106.7882016 104.9191063  63.4036487 107.1274113
 105.6921939  62.8565474 106.9886988 105.2716462  64.2680736 107.3388574
 107.2557341  59.5629153 104.7592563 107.5082861  59.0410674 103.9976026
 106.3181900  59.3995298 104.8619246 112.3000623  58.5664931 112.5667306
 113.0863713  58.1484354 112.2157723 112.5639328  59.4711023 112.7348954
 112.4710701  64.0037782 107.2655963 111.8356534  64.0772408 107.9776867
 112.1408107  64.5931380 106.5875042 106.9753629  61.4657259 106.9616938
 106.8589887  60.7902162 107.6298022 107.0855889  60.9789633 106.1449091
 109.3185170  60.9267406 110.6663627 108.9543377  60.3998027 111.3776548
 110.1752286  60.5365875 110.4930112 108.9590657  55.9557306 105.6624975
 109.1265060  56.8237542 106.0295446 108.7687826  56.1184587 104.7386265
 105.1678472  60.8688081 113.3627510 104.2428968  60.7364296 113.5705202
 105.4162885  61.6482301 113.8597452 108.9379878  58.4114963 106.6471642
 108.8179503  58.8572014 107.4857122 108.2432466  58.7600281 106.0885180
 102.5287283  60.5121355 114.1971299 102.6579664  60.7655834 115.1110711
 101.8484734  61.1049063 113.8775954 114.6364944  58.8836436 107.4751976
 115.5482800  59.1163823 107.2999674 114.1274591  59.4673481 106.9127055
 108.7962488  63.6036663 112.1315643 109.2600834  63.8824366 111.3420265
 108.5319287  62.7020107 111.9488733 107.7331374  59.7259815 108.9405208
 108.4355418  60.1780859 109.4079134 107.4012003  59.0843634 109.5685101
 101.4756708  57.9843368 114.2422341 100.6855762  58.2400896 113.7662452
 101.9667956  58.7991706 114.3474382 103.4271454  58.3487947 111.2005818
 102.6302617  58.4606641 111.7189314 103.1997046  58.6874599 110.3346709
  99.7594411  58.2373858 116.6737332 100.0102450  59.1220868 116.9394908
 100.2953960  58.0578460 115.9012424 108.9725139  66.5400758 109.0167313
 108.8370814  67.3852294 109.4452161 109.5134952  66.7420036 108.2533247
 102.4254536  64.0576196 109.5895238 102.9379057  64.8519446 109.7400803
 103.0777249  63.3602486 109.5228840 104.2349421  67.1741952 111.6717991
 104.4116050  68.0959917 111.4838975 105.0306255  66.8600371 112.1012371
 100.3903453  62.3864850 110.3654809 101.2278675  62.7961859 110.1488516
 100.5681721  61.4464292 110.3355003 112.2867885  60.0539931 106.0538642
 111.7714509  60.8244536 106.2927029 112.0145194  59.3805067 106.6771703
 109.8714996  54.8989632 111.1123880 109.0156593  54.5096482 110.9329519
 110.2841948  54.9781592 110.2523666 107.6457029  52.5174705 114.5181622
 108.5110026  52.3217513 114.1587511 107.7134538  52.2885056 115.4450978
 117.2602160  62.8072286 107.9891815 116.4831602  62.4683445 107.5446977
 117.9393640  62.8124909 107.3146780 112.0754189  57.9267023 107.8798423
 111.7704324  58.2413172 108.7308566 113.0284631  58.0048443 107.9225756
 110.5200620  64.0857246 109.5291377 109.9921982  63.3510006 109.2164614
 110.0188123  64.8631923 109.2831345 105.2519348  54.7476913 111.8897988
 105.8263100  54.5252094 111.1571181 105.8390330  54.8165607 112.6426590
 105.5788935  56.7781374 105.9093874 104.7426247  57.1156060 106.2303148
 105.4393705  56.6430353 104.9721011 107.5542016  51.6218161 110.6173058
 106.9006428  51.3067179 109.9929673 107.5122490  50.9993902 111.3432881
 108.6653221  61.9037457 102.5326350 107.7580282  61.6726710 102.7317499
 109.1624253  61.1075076 102.7200331 111.5721299  70.6134964 105.4523036
 110.8982998  70.9166661 106.0607994 111.9587121  71.4164044 105.1028493
 110.7879756  58.1100095 114.9420705 109.8702317  58.3315042 114.7842393
 111.2039900  58.1846406 114.0832413 111.5714804  59.5091511 110.0723386
 112.3186623  60.0212908 109.7630508 111.8406393  59.1875563 110.9327779
 109.8441454  62.0050051 107.0550340 108.9352673  61.7209084 107.1522810
 109.8736538  62.4249130 106.1953647 114.0193641  56.5448627 112.0542175
 113.2816398  56.0326013 112.3852417 114.2720415  56.1049009 111.2425452
 100.4129624  59.7255566 111.0365542 100.2154024  59.1324926 110.3116609
  99.8576288  59.4207776 111.7541481 108.3926348  59.6178672 113.1560135
 108.4474958  58.6652508 113.0802612 107.5817550  59.7738111 113.6401434
 109.5417542  63.5458795 104.3938418 109.1036972  62.8294654 103.9344056
 110.2827983  63.7734910 103.8323510 106.3318708  58.2355732 110.9150514
 105.5186574  58.5349902 111.3215706 106.8277702  57.8411421 111.6324996
 117.6590657  61.8215992 110.4514737 117.5208555  62.0117588 109.5235926
 117.3026875  62.5835375 110.9082788 105.8232783  55.8074087 116.5311749
 106.4632162  55.6662846 115.8334712 104.9910313  55.5208601 116.1550351
 106.5993087  65.1076518 112.6446742 107.3933685  64.6126838 112.4429317
 105.8884779  64.5794381 112.2814447 102.9075850  59.2519599 108.7206494
 101.9773438  59.1904055 108.9376456 103.0033322  58.7295552 107.9243135
 102.8261399  55.7774412 111.3084736 103.0868216  56.6919746 111.1993896
 103.6478571  55.3098855 111.4581349 104.2986324  57.1912169 118.4783560
 104.9709378  56.9829532 117.8296209 103.4716111  56.9934255 118.0388793
 109.7712515  70.7814636 107.6670115 109.9464270  70.3102679 108.4815738
 109.0845303  71.4080402 107.8951376 113.6628769  62.4043177 103.9870476
 113.0457940  61.6790005 103.8903529 113.1945258  63.1652537 103.6437550
 105.4527315  56.6228601 103.1091780 104.5756782  56.5017402 102.7454027
 105.9285068  55.8314679 102.8570669  96.9729455  61.4105761 113.2033287
  97.6600495  61.0967491 112.6154303  96.8177584  62.3147125 112.9300539
 101.7764178  56.2995957 117.6318311 101.6922366  55.6921627 116.8968721
 100.9546884  56.7904976 117.6327808 111.9487891  54.7849521 112.9988506
 112.4456591  54.0319483 112.6789576 111.1774873  54.8213838 112.4331716
 113.0317672  63.5421208 110.5726930 112.0973951  63.6622671 110.4031634
 113.2094341  62.6393675 110.3086939 108.5322860  56.9266904 112.7260191
 108.1620648  56.3737944 113.4141096 109.0281953  56.3225037 112.1735191
 116.4190224  59.3838527 111.1076964 116.8850676  60.2166519 111.0337266
 116.8697724  58.9183509 111.8122222 114.4866455  65.7282349 108.1063116
 114.7626299  65.6138943 109.0156990 113.6170953  65.3299834 108.0675289
 111.4562684  68.9036885 109.0110978 111.9850451  68.3929339 108.3981140
 111.7190904  68.5879415 109.8756511  96.5497432  59.4906354 115.4750755
  96.5881531  58.9569945 116.2687873  96.0437724  58.9641560 114.8561732
 103.9288194  54.3370895 118.9713297 103.9929520  55.1985726 118.5590695
 103.8655314  53.7244896 118.2385655 100.1806009  58.2170456 108.5504686
 100.4759450  57.3081135 108.4971740  99.2794045  58.1958196 108.2285688
 103.7100256  56.2926453 114.5332235 102.9886842  56.9062421 114.3939708
 104.4993512  56.8284218 114.4548881 101.9093851  55.8984554 108.6744011
 101.5806557  55.0181933 108.4919117 102.2633221  55.8432223 109.5620400
 105.0235674  56.1857524 109.0419489 105.3631746  56.7143445 108.3198097
 105.4707794  56.5237930 109.8178055 107.0103821  54.6832145 107.2412782
 107.7312184  55.0613398 106.7376498 106.3869125  55.4021022 107.3447760
 111.1534944  55.3877294 108.1771114 111.3698558  56.2701932 107.8759942
 110.6729011  54.9963508 107.4476756 105.8934165  58.3463008 114.7541859
 105.7478746  58.6603311 115.6466140 105.4159369  58.9647908 114.2012757
 107.7530548  55.3365556 114.8022748 107.7392117  54.4406649 114.4655046
 108.4702976  55.3436219 115.4361034 100.3679827  60.8868352 117.6929520
  99.8233296  61.6628160 117.8249794 101.2459177  61.2339156 117.5348641
 107.1567444  54.2179936 110.0710318 107.2783355  53.2896582 110.2701206
 106.8669487  54.2318622 109.1588634 110.0258635  51.9034846 113.2077038
 110.0480331  51.9674179 112.2529018 110.4426694  51.0639355 113.4017544
 115.5378040  68.1920447 106.7262859 116.2328945  68.8127140 106.9450174
 115.8801190  67.3415798 107.0015237 117.4369463  65.6420153 108.2550190
 117.9620787  65.9807426 107.5299510 117.3491816  64.7067168 108.0713325
 101.6002463  67.9003677 112.6170071 102.4260483  67.6007449 112.2368715
 101.2496515  67.1311299 113.0659860  99.8011068  65.8190003 113.5759005
  98.9642976  65.3912178 113.3943006  99.7734713  66.0122447 114.5129796
 106.1297503  65.8034069 108.1626205 106.2785623  66.4869533 107.5092878
 106.9363947  65.7839159 108.6775661 103.8850136  61.8299246 109.1687274
 103.6396178  60.9261576 109.3667484 104.0546051  61.8316397 108.2266752
 103.1545784  57.5627604 106.6673436 102.4615029  57.6371959 106.0113472
 102.9097536  56.7987947 107.1894953 109.6292909  68.2982199 105.6337953
 109.0566876  68.9172386 105.1808425 110.2025702  68.8481561 106.1677875
 112.8490168  68.5819349 106.7646535 113.7820842  68.5164911 106.9679411
 112.7613381  69.4175616 106.3061068 115.4778185  67.8985219 103.7250483
 115.3991817  67.5645083 104.6186241 116.2987852  68.3906987 103.7241955
 110.0139707  59.6343012 102.9754005 110.9598812  59.5049220 103.0442423
 109.6353952  58.8957674 103.4523433 108.1982624  57.5592988 102.9108891
 107.2914080  57.2626101 102.9871604 108.4758605  57.2622806 102.0443177
  99.1160565  58.8799352 113.3607937  98.7963349  58.0264660 113.0682311
  98.5693993  59.0947930 114.1165904 109.8144690  52.1029878 109.0653132
 109.0045418  51.7576963 109.4408378 110.5029107  51.7937422 109.6540743
 111.7435238  51.1807925 110.6877428 112.2966277  51.6003378 111.3467452
 111.9805325  50.2543673 110.7300384 106.9681409  54.4179923 103.0520870
 107.8300573  54.7434822 103.3116687 107.1531753  53.6311419 102.5393935
  98.9848825  62.5002263 115.3301058  98.2912296  62.0856216 114.8171013
  99.7321816  62.5422800 114.7334477 115.1214045  53.2908450 110.1956093
 114.5412714  53.9493254 109.8134145 114.8549978  52.4685794 109.7843510
 100.8985567  62.4320517 113.2067073 100.8756255  62.5308204 112.2548956
 101.2086204  63.2785668 113.5284239 113.9038923  55.4508540 109.2512441
 113.0164778  55.7358191 109.0332636 114.3192912  55.2902304 108.4039718
 113.0482137  65.2153215 103.3460461 113.7517987  65.4203217 103.9618117
 112.3244786  65.7829977 103.6109544 113.8779947  60.9663076 109.4662731
 113.8215149  61.4231628 108.6270364 114.4308290  60.2053761 109.2885574
 117.6884753  56.7552808 110.2912851 117.4321687  56.3549444 111.1221058
 117.0637621  57.4696602 110.1662990 114.9568834  65.6535744 105.3958921
 115.7914438  65.2216943 105.2136396 114.7953177  65.4817758 106.3235815
 114.6114726  62.1567857 106.7615260 114.5563530  61.9912129 105.8203704
 113.9860782  62.8643890 106.9177450  99.4007241  57.3935922 120.5876683
 100.0466105  56.8834876 121.0763908  99.1924393  58.1304603 121.1620108
 107.9210852  51.6575966 106.3400579 107.9089522  52.6017806 106.4968850
 108.8134274  51.4746112 106.0460040 116.4182690  72.1073291 105.9093874
 115.5820002  72.4447978 106.2303148 116.2787459  71.9722271 104.9721011
 116.2921070  71.9520519 103.1091780 115.4150536  71.8309320 102.7454027
 116.7678823  71.1606597 102.8570669 113.9939538  72.8919521 106.6673436
 113.3008783  72.9663876 106.0113472 113.7491290  72.1279865 107.1894953
 119.0376379  72.8884906 102.9108891 118.1307834  72.5918018 102.9871604
 119.3152360  72.5914724 102.0443177 117.8075163  69.7471841 103.0520870
 118.6694327  70.0726739 103.3116687 117.9925508  68.9603337 102.5393935
 118.7604606  66.9867884 106.3400579 118.7483276  67.9309724 106.4968850
 119.6528028  66.8038029 106.0460040  74.1805508   2.2004975  97.0207080
  74.1029538   3.1512800  97.0995561  73.5767152   1.8550847  97.6782006
  71.8192338   4.9490369 101.1655282  72.0588936   5.5808893 101.8434301
  70.9761534   4.5978409 101.4520641  72.2937170   0.9738371  98.4954060
  71.6247545   1.4584499  98.0118101  72.1550040   1.2207591  99.4097439
  76.4342438   3.0082114 105.0936719  76.9860746   3.1713736 105.8585804
  76.7748632   3.5986552 104.4216744  69.3941912   1.0502661 101.0629192
  69.2596380   0.2903062 100.4967190  68.9773974   1.7743561 100.5957981
  72.5511038   1.9471978 101.2747635  72.4343422   2.8917410 101.1726325
  71.7303484   1.6445539 101.6633434  73.5765552   2.6000240 104.4903563
  74.4792798   2.6323850 104.8070058  73.3502922   1.6700691 104.5049899
  87.8761553   7.1419193 102.1520929  87.5380065   7.0260258 101.2641464
  88.7451322   6.7410358 102.1321935  83.7348369   8.9954669  98.1417820
  83.1713234   8.9044606  97.3734108  83.6200764   8.1754574  98.6220313
  81.2812801  10.4905861 100.9802040  82.0734093  10.1496685 100.5648340
  81.5209451  10.6000836 101.9004194  89.3147928  12.6625637  93.4532285
  88.6635908  13.2479717  93.0666299  90.1092291  13.1931832  93.5127322
  83.2403555   9.7514774  93.8519419  84.0134431   9.2043761  93.7132295
  83.5928954  10.6159023  94.0633881  85.0788598  11.0791156 107.0586319
  84.7878464  11.9836787 106.9432985  85.7145582  11.1207684 107.7730388
  86.0044804   8.4568005 103.6487678  86.6008377   8.2324027 102.9344641
  86.0619776   7.7152750 104.2513126  90.7923193  10.3516069  93.9901269
  90.1569026  10.4250695  94.7022174  90.4620599  10.9409668  93.3120348
  85.2966122   7.8135546  93.6862244  85.1802380   7.1380450  94.3543328
  85.4068381   7.3267920  92.8694397  87.6397662   7.2745693  97.3908933
  87.2755870   6.7476314  98.1021855  88.4964778   6.8844162  97.2175419
  90.0378483  10.7652572 104.0536112  89.7379206  11.6677611 103.9451919
  89.6929542  10.4984755 104.9057265  83.4890964   7.2166369 100.0872817
  82.5641461   7.0842583 100.2950508  83.7375377   7.9960588 100.5842759
  80.8499775   6.8599642 100.9216606  80.9792156   7.1134121 101.8356017
  80.1697226   7.4527350 100.6021261  85.0199262  17.5296892  97.0207080
  84.9423292  18.4804717  97.0995561  84.4160906  17.1842765  97.6782006
  91.5647019  10.2140542 101.5910864  90.9355881  10.3786256 100.8886932
  91.1772681  10.6282152 102.3621828  95.4436251  11.1494980  98.9455228
  94.7587289  11.5293881  98.3952261  95.5280100  11.7590307  99.6787176
  87.1174981   9.9514950  98.8560949  87.5813326  10.2302653  98.0665572
  86.8531779   9.0498395  98.6734040  84.0099062   9.4986432 101.7940713
  84.5800419   9.9273700 101.1558197  84.6007174   9.2169016 102.4924898
  79.7969201   4.3321655 100.9667648  79.0068255   4.5879184 100.4907759
  80.2880448   5.1469993 101.0719689  81.7483946   4.6966234  97.9251125
  80.9515109   4.8084929  98.4434620  81.5209538   5.0352887  97.0592015
  87.5789614  11.2210938 105.8733639  87.6434046  11.6831345 106.7091811
  86.8700538  10.5908303 106.0015949  78.0806904   4.5852146 103.3982639
  78.3314942   5.4699156 103.6640215  78.6166452   4.4056747 102.6257731
  87.2937631  12.8879045  95.7412620  87.1583306  13.7330581  96.1697468
  87.8347444  13.0898323  94.9778553  80.7467029  10.4054483  96.3140545
  81.2591549  11.1997733  96.4646109  81.3989742   9.7080774  96.2474146
  82.5561913  13.5220239  98.3963298  82.7328542  14.4438204  98.2084282
  83.3518747  13.2078659  98.8257678  81.8414270   5.5684871 108.2725461
  81.7267785   4.6670129 108.5732560  80.9858788   5.8148568 107.9210278
  83.6793229  15.0398413 104.3973640  84.2300654  14.9115477 103.6250634
  82.8404705  15.3393302 104.0468533  87.4760400  11.3049541 108.7417871
  88.0088737  10.5437829 108.5117179  86.9474481  11.0123193 109.4842026
  78.7115946   8.7343137  97.0900115  79.5491168   9.1440146  96.8733823
  78.8894213   7.7942580  97.0600309  88.8413113  10.4335534  96.2536683
  88.3134474   9.6988293  95.9409921  88.3400615  11.2110210  96.0076652
  93.8205959   8.6284554 101.3703730  93.1629633   9.3183815 101.4583858
  94.6246358   9.0180986 101.7137716  86.9865713   8.2515744  89.2571656
  86.0792775   8.0204997  89.4562805  87.4836745   7.4553363  89.4445638
  89.8933792  16.9613251  92.1768343  89.2195490  17.2644948  92.7853300
  90.2799614  17.7642331  91.8273800  88.1653946   8.3528339  93.7795647
  87.2565166   8.0687372  93.8768116  88.1949030   8.7727417  92.9198953
  93.3973214  11.9634928  97.5486814  92.9435541  11.1225838  97.6052005
  92.7667180  12.5996327  97.8861594  91.8406153  13.8011425  98.4836632
  92.1329127  14.3616482  97.7648998  92.3504774  14.0939986  99.2389791
  78.7342117   6.0733853  97.7610849  78.5366516   5.4803214  97.0361915
  78.1788781   5.7686063  98.4786788  87.8630034   9.8937082  91.1183725
  87.4249464   9.1772941  90.6589362  88.6040475  10.1213197  90.5568817
  86.8039778  14.5791776  99.5730085  86.7615957  14.8052622  98.6438617
  87.7202477  14.3455151  99.7215887  84.9205579  11.4554805  99.3692048
  85.7146177  10.9605125  99.1674623  84.2097271  10.9272668  99.0059754
  89.7400423  13.8372901 103.7204416  89.7937446  14.4063837 104.4882132
  88.8715205  14.0074786 103.3558453  81.2288342   5.5997887  95.4451801
  80.2985930   5.5382342  95.6621763  81.3245814   5.0773839  94.6488442
  88.6988523   8.0033163 105.2791348  89.6280583   8.1544322 105.1060315
  88.2779553   8.0917183 104.4239994  87.4976855  12.0283827 103.0489885
  87.3587941  11.6602611 103.9215823  86.7091451  12.5431466 102.8773843
  88.0925007  17.1292923  94.3915422  88.2676763  16.6580967  95.2061044
  87.4057795  17.7558690  94.6196683  89.0482070  11.4065430 100.4378723
  88.7131903  11.3666200 101.3336373  88.5486016  10.7410146  99.9649133
  83.0226314   6.8133060 105.9631304  82.8846112   6.0813299 106.5642843
  83.9331237   6.7241960 105.6815492  91.9841262   8.7521464  90.7115783
  91.3670432   8.0268292  90.6148835  91.5157750   9.5130824  90.3682857
  85.6508615   6.5253019 105.4514984  86.3608233   5.8846211 105.4101602
  85.6077923   6.7765914 106.3741165  82.6586092  20.2782286 101.1655282
  82.8982690  20.9100810 101.8434301  81.8155289  19.9270326 101.4520641
  75.2941948   7.7584048  99.9278594  75.9812988   7.4445778  99.3399609
  75.1390076   8.6625413  99.6545846  87.1713954  16.0861409 103.5696786
  87.0984126  16.8916380 104.0816091  86.7291347  16.2853374 102.7444807
  86.9603734  15.3233179  97.0799607  86.1771256  15.8654859  97.1737832
  87.6596479  15.8407158  97.4793849  89.6312638  15.9848243 105.7254945
  90.3440610  16.6195707 105.6530846  89.1402666  16.0812109 104.9094946
  91.3530164   9.8899495  97.2972236  90.4186443  10.0100958  97.1276941
  91.5306833   8.9871962  97.0332246  84.6824551  13.7342686 106.5460515
  85.3834011  14.3679169 106.6989910  84.2119666  14.0757418 105.7856155
  92.8078947  12.0760636  94.8308422  93.0838791  11.9617231  95.7402297
  91.9383446  11.6778121  94.7920596  89.4433011  16.3246987  98.4741236
  89.6255405  15.5068643  98.9368988  90.2665997  16.5414679  98.0366126
  89.7775176  15.2515172  95.7356285  90.3062943  14.7407626  95.1226447
  90.0403396  14.9357702  96.6001818  80.2792269  13.2679041 103.4791618
  80.8645706  12.5222729 103.6119522  80.0817108  13.5782998 104.3628282
  83.1330924  16.3030289  98.4954060  82.4641300  16.7876416  98.0118101
  82.9943794  16.5499509  99.4097439  74.8709924   5.8384641 102.1996061
  74.9094023   5.3048232 102.9933179  74.3650217   5.3119847 101.5807038
  87.2736193  18.3374032 105.0936719  87.8254501  18.5005654 105.8585804
  87.6142386  18.9278470 104.4216744  78.5018501   4.5648744  95.2749993
  78.7971943   3.6559422  95.2217046  77.6006537   4.5436483  94.9530995
  90.4104580  16.2856008 102.0800401  90.2855720  15.4845747 101.5711347
  91.0683671  16.7802201 101.5914371  92.4739489  14.0865028 103.7079951
  91.5269824  13.9670379 103.6358278  92.8222262  13.1987526 103.7906213
  89.4785922  13.8817744  99.9084303  89.3310884  12.9534451 100.0891873
  90.3039415  13.9037835  99.4241379  93.0820044  14.7046303 100.9949176
  94.0066591  14.4989164 100.8573627  92.9135347  14.4562704 101.9038518
  92.8715360  15.2231970  96.3511268  93.0452237  14.6578393  95.5985120
  93.3644251  16.0232865  96.1690757  78.6892320   7.2346639 104.4174826
  78.1445788   8.0106447 104.5495101  79.5671670   7.5817444 104.2593948
  93.8590532  14.5398735  93.4508166  94.5541437  15.1605427  93.6695480
  94.2013683  13.6894086  93.7260544  79.4758342   6.3616535 107.3104983
  78.7340078   6.5099171 107.8969614  79.1551086   6.6224801 106.4471733
  95.7581956  11.9898440  94.9795497  96.2833280  12.3285713  94.2544817
  95.6704308  11.0545455  94.7958631  87.4202004  15.9032514 107.1085373
  87.7289131  15.6581660 107.9808073  88.2177486  16.1079152 106.6204243
  87.4422616  18.0570423  99.3390750  87.0027607  17.5646802 100.0323606
  88.1930733  17.5143391  99.0982825  79.9214955  14.2481964  99.3415378
  80.7472975  13.9485736  98.9614021  79.5709007  13.4789587  99.7905167
  84.8896488  13.6008432 101.4113051  84.2676498  12.9379137 101.1115279
  85.5601355  13.6269564 100.7286699  78.1223560  12.1668291 100.3004311
  77.2855469  11.7390465 100.1188313  78.0947206  12.3600734 101.2375103
  84.4509995  12.1512356  94.8871512  84.5998116  12.8347820  94.2338185
  85.2576439  12.1317446  95.4020968  82.2062628   8.1777533  95.8932581
  81.9608670   7.2739863  96.0912791  82.3758543   8.1794684  94.9512059
  87.9505401  14.6460486  92.3583259  87.3779368  15.2650673  91.9053731
  88.5238195  15.1959848  92.8923181  91.1702661  14.9297636  93.4891842
  92.1033334  14.8643198  93.6924717  91.0825874  15.7653903  93.0306374
  93.7990677  14.2463507  90.4495789  93.7204309  13.9123370  91.3431547
  94.6200344  14.7385275  90.4487262  77.4373057   5.2277639 100.0853244
  77.1175841   4.3742947  99.7927618  76.8906485   5.4426217 100.8411211
  81.2152964   7.9440080 103.8022750  81.4338974   8.8757188 103.8210784
  81.6278738   7.5848054 104.5877554  77.3061317   8.8480550 102.0546365
  76.6124788   8.4334503 101.5416320  78.0534308   8.8901087 101.4579784
  79.2198059   8.7798804  99.9312380  79.1968748   8.8786491  98.9794263
  79.5298696   9.6263955 100.2529546  81.8785437  10.8374959 104.0458994
  82.8328691  10.8058901 103.9788926  81.6797961  10.3765583 104.8609220
  82.4684819   9.4076075 106.6129792  83.2877708   9.9020154 106.6364629
  82.7421627   8.4908043 106.5847360  80.2335666  16.3794579 101.0629192
  80.0990134  15.6194979 100.4967190  79.8167728  17.1035478 100.5957981
  91.3694629  11.5631502  90.0705768  92.0730479  11.7681505  90.6863423
  90.6457278  12.1308264  90.3354851  83.3904792  17.2763896 101.2747635
  83.2737176  18.2209328 101.1726325  82.5697238  16.9737457 101.6633434
  93.2781327  12.0014031  92.1204228  94.1126930  11.5695230  91.9381702
  93.1165669  11.8296045  93.0481122  92.9327219   8.5046145  93.4860567
  92.8776023   8.3390416  92.5449011  92.3073274   9.2122177  93.6422757
  77.7219734   3.7414209 107.3121989  78.3678597   3.2313163 107.8009214
  77.5136885   4.4782891 107.8865414  84.4159306  17.9292157 104.4903563
  85.3186553  17.9615768 104.8070058  84.1896676  16.9992608 104.5049899
  86.1712908  16.6823144 101.1513642  85.2208539  16.6825006 101.0378014
  86.4745394  15.9355879 100.6349677 101.9065602  22.5183682 102.2159404
 102.5444012  22.3990430 101.5122744 101.7886445  23.4664526 102.2747357
  98.7155308  22.4711110 102.1520929  98.3773819  22.3552175 101.2641464
  99.5845076  22.0702276 102.1321935  94.5742124  24.3246587  98.1417820
  94.0106989  24.2336524  97.3734108  94.4594519  23.5046491  98.6220313
  92.1206556  25.8197778 100.9802040  92.9127847  25.4788603 100.5648340
  92.3603206  25.9292754 101.9004194 100.1541682  27.9917555  93.4532285
  99.5029662  28.5771635  93.0666299 100.9486045  28.5223750  93.5127322
  94.0797309  25.0806692  93.8519419  94.8528185  24.5335679  93.7132295
  94.4322708  25.9450941  94.0633881  95.9182352  26.4083074 107.0586319
  95.6272218  27.3128705 106.9432985  96.5539336  26.4499602 107.7730388
  96.8438559  23.7859923 103.6487678  97.4402131  23.5615945 102.9344641
  96.9013530  23.0444668 104.2513126  96.4163587  21.2399358  91.4837869
  96.6689108  20.7180879  90.7221332  95.4788146  21.0765503  91.5864553
 101.4606870  20.2435136  99.2912612 102.2469959  19.8254559  98.9403029
 101.7245574  21.1481228  99.4594261 101.6316947  25.6807987  93.9901269
 100.9962780  25.7542613  94.7022174 101.3014354  26.2701585  93.3120348
  96.1359876  23.1427464  93.6862244  96.0196134  22.4672367  94.3543328
  96.2462136  22.6559838  92.8694397  98.4791417  22.6037611  97.3908933
  98.1149624  22.0768232  98.1021855  99.3358533  22.2136080  97.2175419
  98.1196904  17.6327511  92.3870282  98.2871306  18.5007747  92.7540753
  97.9294073  17.7954792  91.4631571 100.8772237  26.0944490 104.0536112
 100.5772960  26.9969528 103.9451919 100.5323297  25.8276673 104.9057265
  94.3284719  22.5458286 100.0872817  93.4035215  22.4134500 100.2950508
  94.5769132  23.3252506 100.5842759  98.0986125  20.0885168  93.3716949
  97.9785750  20.5342219  94.2102429  97.4038713  20.4370486  92.8130487
  91.6893530  22.1891560 100.9216606  91.8185911  22.4426039 101.8356017
  91.0090981  22.7819268 100.6021261  95.8593017  32.8588810  97.0207080
  95.7817047  33.8096635  97.0995561  95.2554661  32.5134682  97.6782006
 103.7971191  20.5606641  94.1997283 104.7089047  20.7934028  94.0244980
 103.2880838  21.1443686  93.6372361 102.4040773  25.5432460 101.5910864
 101.7749636  25.7078174 100.8886932 102.0166435  25.9574069 102.3621828
 106.2830005  26.4786898  98.9455228 105.5981043  26.8585799  98.3952261
 106.3673855  27.0882224  99.6787176  97.9568735  25.2806868  98.8560949
  98.4207081  25.5594571  98.0665572  97.6925533  24.3790312  98.6734040
  94.8492816  24.8278349 101.7940713  95.4194173  25.2565618 101.1558197
  95.4400928  24.5460934 102.4924898  96.8937621  21.4030020  95.6650514
  97.5961665  21.8551064  96.1324441  96.5618250  20.7613839  96.2930408
  90.6362955  19.6613573 100.9667648  89.8462009  19.9171101 100.4907759
  91.1274203  20.4761911 101.0719689  92.5877701  20.0258152  97.9251125
  91.7908864  20.1376846  98.4434620  92.3603293  20.3644804  97.0592015
  98.4183368  26.5502855 105.8733639  98.4827801  27.0123263 106.7091811
  97.7094292  25.9200220 106.0015949  88.9200658  19.9144063 103.3982639
  89.1708697  20.7991073 103.6640215  89.4560207  19.7348665 102.6257731
  98.1331386  28.2170963  95.7412620  97.9977061  29.0622499  96.1697468
  98.6741198  28.4190240  94.9778553  91.5860783  25.7346401  96.3140545
  92.0985304  26.5289651  96.4646109  92.2383496  25.0372691  96.2474146
  93.3955668  28.8512157  98.3963298  93.5722296  29.7730122  98.2084282
  94.1912501  28.5370576  98.8257678  92.6808024  20.8976789 108.2725461
  92.5661540  19.9962046 108.5732560  91.8252542  21.1440486 107.9210278
  94.5186983  30.3690331 104.3973640  95.0694409  30.2407394 103.6250634
  93.6798459  30.6685220 104.0468533  98.3154154  26.6341459 108.7417871
  98.8482491  25.8729747 108.5117179  97.7868236  26.3415111 109.4842026
  89.5509700  24.0635055  97.0900115  90.3884922  24.4732064  96.8733823
  89.7287968  23.1234497  97.0600309 101.4474132  21.7310136  92.7783948
 100.9320756  22.5014740  93.0172336 101.1751441  21.0575272  93.4017010
  99.0321243  16.5759837  97.8369187  98.1762840  16.1866687  97.6574825
  99.4448195  16.6551797  96.9768972  96.8063276  14.1944910 101.2426928
  97.6716272  13.9987718 100.8832818  96.8740785  13.9655261 102.1696285
 106.4208406  24.4842490  94.7137122 105.6437849  24.1453650  94.2692284
 107.0999887  24.4895114  94.0392087 101.2360435  19.6037228  94.6043729
 100.9310571  19.9183377  95.4553873 102.1890877  19.6818648  94.6471062
  99.6806867  25.7627451  96.2536683  99.1528229  25.0280211  95.9409921
  99.1794370  26.5402128  96.0076652 104.6599713  23.9576472 101.3703730
 104.0023388  24.6475733 101.4583858 105.4640112  24.3472904 101.7137716
  94.4125595  16.4247118  98.6143295  94.9869347  16.2022299  97.8816488
  94.9996577  16.4935812  99.3671896 103.4705172  22.3120844  99.4207671
 103.9837054  22.9450836  99.9229381 104.1206396  21.7122040  99.0551031
  94.7395182  18.4551579  92.6339180  93.9032494  18.7926265  92.9548455
  94.5999952  18.3200558  91.6966317  96.7148262  13.2988366  97.3418364
  96.0612675  12.9837384  96.7174979  96.6728737  12.6764107  98.0678187
  97.8259467  23.5807661  89.2571656  96.9186529  23.3496915  89.4562805
  98.3230499  22.7845281  89.4445638 100.7327546  32.2905169  92.1768343
 100.0589245  32.5936865  92.7853300 101.1193368  33.0934249  91.8273800
  99.9486003  19.7870300 101.6666012  99.0308564  20.0085247 101.5087700
 100.3646146  19.8616610 100.8077719 100.7321051  21.1861716  96.7968692
 101.4792870  21.6983113  96.4875814 101.0012640  20.8645768  97.6573086
  99.0047701  23.6820256  93.7795647  98.0958920  23.3979289  93.8768116
  99.0342785  24.1019335  92.9198953 104.2366968  27.2926846  97.5486814
 103.7829295  26.4517756  97.6052005 103.6060935  27.9288244  97.8861594
 103.1799888  18.2218832  98.7787482 102.4422645  17.7096218  99.1097724
 103.4326661  17.7819214  97.9670758 102.6799907  29.1303343  98.4836632
 102.9722882  29.6908400  97.7648998 103.1898528  29.4231904  99.2389791
  89.5735871  21.4025770  97.7610849  89.3760271  20.8095131  97.0361915
  89.0182535  21.0977981  98.4786788  97.5532595  21.2948877  99.8805442
  97.6081205  20.3422713  99.8047918  96.7423797  21.4508316 100.3646740
  98.7023789  25.2229000  91.1183725  98.2643219  24.5064859  90.6589362
  99.4434229  25.4505115  90.5568817  95.4924955  19.9125937  97.6395821
  94.6792820  20.2120107  98.0461013  95.9883949  19.5181625  98.3570303
  97.6433533  29.9083694  99.5730085  97.6009711  30.1344540  98.6438617
  98.5596231  29.6747068  99.7215887 106.8196903  23.4986197  97.1760044
 106.6814802  23.6887793  96.2481233 106.4633122  24.2605580  97.6328095
  94.9839029  17.4844292 103.2557056  95.6238409  17.3433051 102.5580019
  94.1516560  17.1978806 102.8795658  95.7599333  26.7846723  99.3692048
  96.5539932  26.2897043  99.1674623  95.0491026  26.2564586  99.0059754
 100.5794178  29.1664818 103.7204416 100.6331200  29.7355755 104.4882132
  99.7108959  29.3366703 103.3558453  92.0682097  20.9289804  95.4451801
  91.1379685  20.8674260  95.6621763  92.1639569  20.4065757  94.6488442
  91.9867646  17.4544617  98.0330043  92.2474463  18.3689950  97.9239203
  92.8084818  16.9869060  98.1826655  93.4592571  18.8682374 105.2028867
  94.1315625  18.6599737 104.5541516  92.6322358  18.6704460 104.7634099
  99.5382278  23.3325080 105.2791348 100.4674338  23.4836240 105.1060315
  99.1173308  23.4209101 104.4239994  98.3370609  27.3575745 103.0489885
  98.1981695  26.9894529 103.9215823  97.5485206  27.8723384 102.8773843
  98.9318761  32.4584841  94.3915422  99.1070517  31.9872884  95.2061044
  98.2451549  33.0850607  94.6196683  99.8875825  26.7357347 100.4378723
  99.5525657  26.6958117 101.3336373  99.3879770  26.0702063  99.9649133
  93.8620069  22.1424977 105.9631304  93.7239866  21.4105216 106.5642843
  94.7724992  22.0533877 105.6815492 102.8235016  24.0813382  90.7115783
 102.2064187  23.3560210  90.6148835 102.3551505  24.8422742  90.3682857
  96.4902369  21.8544937 105.4514984  97.2001988  21.2138129 105.4101602
  96.4471677  22.1057832 106.3741165  93.4979847  35.6074204 101.1655282
  93.7376445  36.2392728 101.8434301  92.6549043  35.2562244 101.4520641
  94.6133562  18.2998806  89.8337087  93.7363028  18.1787607  89.4699334
  95.0891315  17.5084884  89.5815976  86.1335702  23.0875966  99.9278594
  86.8206742  22.7737696  99.3399609  85.9783831  23.9917330  99.6545846
  90.9370424  17.9766162 104.3563618  90.8528613  17.3691832 103.6214028
  90.1153131  18.4675181 104.3573114  98.0107709  31.4153326 103.5696786
  97.9377880  32.2208298 104.0816091  97.5685102  31.6145292 102.7444807
  97.7997488  30.6525096  97.0799607  97.0165010  31.1946777  97.1737832
  98.4990233  31.1699076  97.4793849 101.1094138  16.4619726  99.7233813
 101.6062838  15.7089688  99.4034883 100.3381120  16.4984042  99.1577022
 100.4706392  31.3140160 105.7254945 101.1834364  31.9487625 105.6530846
  99.9796421  31.4104026 104.9094946 102.1923919  25.2191413  97.2972236
 101.2580198  25.3392875  97.1276941 102.3700587  24.3163880  97.0332246
  97.6929107  18.6037109  99.4505497  97.3226895  18.0508149 100.1386403
  98.1888199  17.9995242  98.8980498 105.5796470  21.0608732  97.8322270
 106.0456922  21.8936724  97.7582573 106.0303971  20.5953714  98.5367529
  95.5218306  29.0634604 106.5460515  96.2227765  29.6971087 106.6989910
  95.0513421  29.4049335 105.7856155 103.6472701  27.4052554  94.8308422
 103.9232545  27.2909148  95.7402297 102.7777200  27.0070038  94.7920596
 100.2826765  31.6538904  98.4741236 100.4649160  30.8360560  98.9368988
 101.1059751  31.8706597  98.0366126 100.6168931  30.5807090  95.7356285
 101.1456697  30.0699544  95.1226447 100.8797150  30.2649620  96.6001818
  91.1186024  28.5970959 103.4791618  91.7039460  27.8514647 103.6119522
  90.9210862  28.9074916 104.3628282  93.9724679  31.6322206  98.4954060
  93.3035054  32.1168334  98.0118101  93.8337549  31.8791427  99.4097439
  85.7103678  21.1676559 102.1996061  85.7487778  20.6340150 102.9933179
  85.2043971  20.6411765 101.5807038  98.1129947  33.6665950 105.0936719
  98.6648255  33.8297571 105.8585804  98.4536141  34.2570388 104.4216744
  93.0894441  16.0141100 105.6958604  93.1535767  16.8755930 105.2836001
  93.0261561  15.4015101 104.9630962  89.3412256  19.8940661  95.2749993
  89.6365697  18.9851340  95.2217046  88.4400292  19.8728401  94.9530995
 101.2498335  31.6147925 102.0800401 101.1249474  30.8137665 101.5711347
 101.9077426  32.1094119 101.5914371  92.8706503  17.9696658 101.2577541
  92.1493089  18.5832626 101.1185015  93.6599759  18.5054423 101.1794187
 103.3133243  29.4156945 103.7079951 102.3663579  29.2962297 103.6358278
 103.6616016  28.5279443 103.7906213  91.0700098  17.5754759  95.3989318
  90.7412804  16.6952138  95.2164424  91.4239468  17.5202428  96.2865707
 100.3179676  29.2109662  99.9084303 100.1704639  28.2826369 100.0891873
 101.1433170  29.2329752  99.4241379  94.1841921  17.8627729  95.7664795
  94.5237993  18.3913650  95.0443404  94.6314041  18.2008135  96.5423362
 103.9213798  30.0338220 100.9949176 104.8460346  29.8281082 100.8573627
 103.7529102  29.7854621 101.9038518  96.1710068  16.3602350  93.9658088
  96.8918430  16.7383603  93.4621805  95.5475372  17.0791227  94.0693066
 100.3141191  17.0647499  94.9016421 100.5304805  17.9472137  94.6005249
  99.8335258  16.6733713  94.1722063  95.0540412  20.0233212 101.4787165
  94.9084993  20.3373516 102.3711447  94.5765616  20.6418113 100.9258064
  96.9136795  17.0135760 101.5268055  96.8998364  16.1176854 101.1900353
  97.6309223  17.0206424 102.1606341 103.7109114  30.5523888  96.3511268
 103.8845992  29.9870310  95.5985120 104.2038006  31.3524783  96.1690757
  89.5286074  22.5638557 104.4174826  88.9839542  23.3398365 104.5495101
  90.4065424  22.9109361 104.2593948  96.3173691  15.8950141  96.7955625
  96.4389602  14.9666787  96.9946512  96.0275733  15.9088827  95.8833940
  99.1864881  13.5805051  99.9322345  99.2086578  13.6444384  98.9774324
  99.6032940  12.7409560 100.1262851 109.5648506  23.3160311  97.9701567
 110.0079652  22.5667636  97.5720691 108.6875016  23.3070447  97.5875299
 104.6984287  29.8690652  93.4508166 105.3935192  30.4897345  93.6695480
 105.0407437  29.0186003  93.7260544  90.3152096  21.6908453 107.3104983
  89.5733832  21.8391088 107.8969614  89.9944840  21.9516719 106.4471733
 106.5975710  27.3190358  94.9795497 107.1227034  27.6577630  94.2544817
 106.5098063  26.3837373  94.7958631  98.2595759  31.2324431 107.1085373
  98.5682885  30.9873578 107.9808073  99.0571241  31.4371070 106.6204243
  98.2816371  33.3862341  99.3390750  97.8421361  32.8938720 100.0323606
  99.0324488  32.8435309  99.0982825  90.7608710  29.5773882  99.3415378
  91.5866730  29.2777654  98.9614021  90.4102762  28.8081504  99.7905167
  95.7290243  28.9300350 101.4113051  95.1070252  28.2671055 101.1115279
  96.3995110  28.9561482 100.7286699  88.9617315  27.4960208 100.3004311
  88.1249223  27.0682383 100.1188313  88.9340960  27.6892652 101.2375103
  95.2903750  27.4804273  94.8871512  95.4391870  28.1639738  94.2338185
  96.0970193  27.4609363  95.4020968  93.0456383  23.5069451  95.8932581
  92.8002425  22.6031781  96.0912791  93.2152297  23.5086602  94.9512059
  92.3152030  19.2397809  93.3918742  91.6221275  19.3142164  92.7358778
  92.0703782  18.4758152  93.9140259  98.7899155  29.9752404  92.3583259
  98.2173122  30.5942591  91.9053731  99.3631949  30.5251766  92.8923181
 102.0096415  30.2589554  93.4891842 102.9427088  30.1935116  93.6924717
 101.9219628  31.0945821  93.0306374 104.6384432  29.5755424  90.4495789
 104.5598063  29.2415288  91.3431547 105.4594099  30.0677192  90.4487262
  99.1745954  21.3113217  89.6999312 100.1205059  21.1819425  89.7687730
  98.7960199  20.5727879  90.1768740  97.3588871  19.2363193  89.6354197
  96.4520326  18.9396306  89.7116911  97.6364852  18.9393011  88.7688483
  88.2766811  20.5569556 100.0853244  87.9569596  19.7034865  99.7927618
  87.7300240  20.7718135 100.8411211  92.0546719  23.2731997 103.8022750
  92.2732729  24.2049105 103.8210784  92.4672493  22.9139972 104.5877554
  98.9750937  13.7800083  95.7898438  98.1651665  13.4347168  96.1653685
  99.6635354  13.4707626  96.3786050 100.9041485  12.8578130  97.4122735
 101.4572524  13.2773583  98.0712758 101.1411571  11.9313878  97.4545691
  96.1287656  16.0950128  89.7766176  96.9906820  16.4205027  90.0361994
  96.3138000  15.3081624  89.2639242  88.1455071  24.1772468 102.0546365
  87.4518543  23.7626421 101.5416320  88.8928062  24.2193004 101.4579784
 104.2820292  14.9678655  96.9201399 103.7018961  15.6263459  96.5379452
 104.0156225  14.1455999  96.5088817  90.0591814  24.1090722  99.9312380
  90.0362502  24.2078409  98.9794263  90.3692450  24.9555872 100.2529546
  92.7179192  26.1666877 104.0458994  93.6722445  26.1350819 103.9788926
  92.5191715  25.7057500 104.8609220  93.3078574  24.7367993 106.6129792
  94.1271463  25.2312071 106.6364629  93.5815382  23.8199961 106.5847360
 103.0645170  17.1278745  95.9757748 102.1771025  17.4128396  95.7577942
 103.4799159  16.9672508  95.1285024  91.0729421  31.7086496 101.0629192
  90.9383889  30.9486897 100.4967190  90.6561483  32.4327396 100.5957981
 102.2088384  26.8923420  90.0705768 102.9124234  27.0973422  90.6863423
 101.4851032  27.4600182  90.3354851 103.0386194  22.6433281  96.1908038
 102.9821395  23.1001832  95.3515670 103.5914536  21.8823966  96.0130881
 106.8491000  18.4323013  97.0158157 106.5927934  18.0319649  97.8466365
 106.2243868  19.1466807  96.8908296  94.2298546  32.6055813 101.2747635
  94.1130931  33.5501246 101.1726325  93.4090993  32.3029375 101.6633434
 104.1175081  27.3305949  92.1204228 104.9520685  26.8987147  91.9381702
 103.9559424  27.1587963  93.0481122 103.7720973  23.8338062  93.4860567
 103.7169777  23.6682334  92.5449011 103.1467028  24.5414095  93.6422757
  88.5613488  19.0706127 107.3121989  89.2072352  18.5605081 107.8009214
  88.3530639  19.8074808 107.8865414  97.0817099  13.3346171  93.0645885
  97.0695769  14.2788011  93.2214156  97.9740521  13.1516317  92.7705347
  95.2553061  33.2584075 104.4903563  96.1580307  33.2907685 104.8070058
  95.0290431  32.3284526 104.5049899  97.0106663  32.0115062 101.1513642
  96.0602294  32.0116923 101.0378014  97.3139149  31.2647796 100.6349677
 112.7459356  37.8475600 102.2159404 113.3837766  37.7282347 101.5122744
 112.6280199  38.7956444 102.2747357 109.5549062  37.8003028 102.1520929
 109.2167574  37.6844093 101.2641464 110.4238831  37.3994193 102.1321935
 105.4135878  39.6538505  98.1417820 104.8500743  39.5628442  97.3734108
 105.2988273  38.8338409  98.6220313 102.9600310  41.1489696 100.9802040
 103.7521602  40.8080521 100.5648340 103.1996960  41.2584671 101.9004194
 110.9935437  43.3209472  93.4532285 110.3423417  43.9063553  93.0666299
 111.7879800  43.8515667  93.5127322 104.9191064  40.4098609  93.8519419
 105.6921940  39.8627597  93.7132295 105.2716463  41.2742859  94.0633881
 106.7576107  41.7374992 107.0586319 106.4665973  42.6420623 106.9432985
 107.3933091  41.7791519 107.7730388 107.6832313  39.1151840 103.6487678
 108.2795886  38.8907863 102.9344641 107.7407285  38.3736586 104.2513126
 107.2557342  36.5691276  91.4837869 107.5082862  36.0472797  90.7221332
 106.3181901  36.4057421  91.5864553 112.3000625  35.5727054  99.2912612
 113.0863714  35.1546477  98.9403029 112.5639329  36.4773146  99.4594261
 112.4710702  41.0099904  93.9901269 111.8356535  41.0834531  94.7022174
 112.1408108  41.5993503  93.3120348 106.9753631  38.4719382  93.6862244
 106.8589889  37.7964285  94.3543328 107.0855890  37.9851755  92.8694397
 109.3185171  37.9329529  97.3908933 108.9543379  37.4060150  98.1021855
 110.1752287  37.5427998  97.2175419 108.9590658  32.9619428  92.3870282
 109.1265061  33.8299665  92.7540753 108.7687828  33.1246710  91.4631571
 111.7165992  41.4236407 104.0536112 111.4166715  42.3261446 103.9451919
 111.3717051  41.1568590 104.9057265 105.1678473  37.8750204 100.0872817
 104.2428970  37.7426418 100.2950508 105.4162886  38.6544423 100.5842759
 108.9379879  35.4177086  93.3716949 108.8179505  35.8634137  94.2102429
 108.2432468  35.7662403  92.8130487 102.5287284  37.5183478 100.9216606
 102.6579665  37.7717957 101.8356017 101.8484735  38.1111186 100.6021261
 106.6986771  48.1880728  97.0207080 106.6210801  49.1388553  97.0995561
 106.0948415  47.8426600  97.6782006 114.6364945  35.8898559  94.1997283
 115.5482802  36.1225946  94.0244980 114.1274593  36.4735603  93.6372361
 113.2434528  40.8724377 101.5910864 112.6143390  41.0370092 100.8886932
 112.8560190  41.2865987 102.3621828 117.1223760  41.8078815  98.9455228
 116.4374798  42.1877717  98.3952261 117.2067609  42.4174142  99.6787176
 108.7962490  40.6098786  98.8560949 109.2600835  40.8886489  98.0665572
 108.5319288  39.7082230  98.6734040 105.6886571  40.1570267 101.7940713
 106.2587928  40.5857535 101.1558197 106.2794683  39.8752852 102.4924898
 107.7331376  36.7321938  95.6650514 108.4355419  37.1842982  96.1324441
 107.4012004  36.0905757  96.2930408 101.4756710  34.9905491 100.9667648
 100.6855764  35.2463019 100.4907759 101.9667957  35.8053828 101.0719689
 103.4271455  35.3550070  97.9251125 102.6302618  35.4668764  98.4434620
 103.1997047  35.6936722  97.0592015 109.2577123  41.8794773 105.8733639
 109.3221555  42.3415180 106.7091811 108.5488047  41.2492138 106.0015949
  99.7594413  35.2435981 103.3982639 100.0102451  36.1282991 103.6640215
 100.2953961  35.0640583 102.6257731 108.9725140  43.5462881  95.7412620
 108.8370815  44.3914416  96.1697468 109.5134953  43.7482158  94.9778553
 102.4254538  41.0638319  96.3140545 102.9379058  41.8581569  96.4646109
 103.0777251  40.3664609  96.2474146 104.2349422  44.1804075  98.3963298
 104.4116051  45.1022040  98.2084282 105.0306256  43.8662494  98.8257678
 103.5201779  36.2268707 108.2725461 103.4055294  35.3253964 108.5732560
 102.6646297  36.4732403 107.9210278 105.3580738  45.6982249 104.3973640
 105.9088163  45.5699312 103.6250634 104.5192214  45.9977138 104.0468533
 109.1547909  41.9633376 108.7417871 109.6876246  41.2021665 108.5117179
 108.6261990  41.6707028 109.4842026 100.3903455  39.3926973  97.0900115
 101.2278677  39.8023981  96.8733823 100.5681722  38.4526415  97.0600309
 112.2867887  37.0602053  92.7783948 111.7714510  37.8306658  93.0172336
 112.0145195  36.3867190  93.4017010 109.8714998  31.9051754  97.8369187
 109.0156594  31.5158605  97.6574825 110.2841949  31.9843715  96.9768972
 107.6457030  29.5236827 101.2426928 108.5110027  29.3279636 100.8832818
 107.7134539  29.2947179 102.1696285 117.2602161  39.8134408  94.7137122
 116.4831604  39.4745568  94.2692284 117.9393642  39.8187031  94.0392087
 112.0754190  34.9329146  94.6043729 111.7704325  35.2475295  95.4553873
 113.0284632  35.0110565  94.6471062 110.5200622  41.0919369  96.2536683
 109.9921983  40.3572128  95.9409921 110.0188124  41.8694045  96.0076652
 115.4993468  39.2868389 101.3703730 114.8417142  39.9767651 101.4583858
 116.3033867  39.6764821 101.7137716 105.2519349  31.7539035  98.6143295
 105.8263101  31.5314217  97.8816488 105.8390332  31.8227730  99.3671896
 114.3098926  37.6412762  99.4207671 114.8230808  38.2742754  99.9229381
 114.9600150  37.0413958  99.0551031 105.5788936  33.7843496  92.6339180
 104.7426249  34.1218183  92.9548455 105.4393706  33.6492476  91.6966317
 107.5542017  28.6280284  97.3418364 106.9006429  28.3129301  96.7174979
 107.5122491  28.0056025  98.0678187 108.6653222  38.9099579  89.2571656
 107.7580284  38.6788833  89.4562805 109.1624254  38.1137198  89.4445638
 111.5721301  47.6197086  92.1768343 110.8982999  47.9228783  92.7853300
 111.9587123  48.4226167  91.8273800 110.7879757  35.1162218 101.6666012
 109.8702319  35.3377165 101.5087700 111.2039901  35.1908528 100.8077719
 111.5714805  36.5153633  96.7968692 112.3186624  37.0275031  96.4875814
 111.8406395  36.1937686  97.6573086 109.8441455  39.0112174  93.7795647
 108.9352675  38.7271207  93.8768116 109.8736539  39.4311253  92.9198953
 115.0760723  42.6218764  97.5486814 114.6223050  41.7809673  97.6052005
 114.4454689  43.2580162  97.8861594 114.0193642  33.5510750  98.7787482
 113.2816399  33.0388136  99.1097724 114.2720416  33.1111131  97.9670758
 113.5193662  44.4595260  98.4836632 113.8116636  45.0200317  97.7648998
 114.0292282  44.7523821  99.2389791 100.4129626  36.7317688  97.7610849
 100.2154025  36.1387049  97.0361915  99.8576290  36.4269898  98.4786788
 108.3926349  36.6240795  99.8805442 108.4474959  35.6714631  99.8047918
 107.5817551  36.7800234 100.3646740 109.5417543  40.5520918  91.1183725
 109.1036973  39.8356777  90.6589362 110.2827984  40.7797033  90.5568817
 106.3318709  35.2417854  97.6395821 105.5186575  35.5412025  98.0461013
 106.8277703  34.8473543  98.3570303 108.4827287  45.2375611  99.5730085
 108.4403466  45.4636458  98.6438617 109.3989986  45.0038986  99.7215887
 117.6590658  38.8278115  97.1760044 117.5208556  39.0179711  96.2481233
 117.3026877  39.5897498  97.6328095 105.8232784  32.8136210 103.2557056
 106.4632163  32.6724969 102.5580019 104.9910315  32.5270723 102.8795658
 106.5993088  42.1138640  99.3692048 107.3933686  41.6188960  99.1674623
 105.8884780  41.5856503  99.0059754 111.4187932  44.4956736 103.7204416
 111.4724955  45.0647672 104.4882132 110.5502714  44.6658621 103.3558453
 102.9075851  36.2581722  95.4451801 101.9773439  36.1966178  95.6621763
 103.0033323  35.7357675  94.6488442 102.8261400  32.7836535  98.0330043
 103.0868218  33.6981868  97.9239203 103.6478573  32.3160977  98.1826655
 104.2986326  34.1974292 105.2028867 104.9709379  33.9891654 104.5541516
 103.4716112  33.9996378 104.7634099 110.3776032  38.6616998 105.2791348
 111.3068092  38.8128158 105.1060315 109.9567062  38.7501019 104.4239994
 109.1764364  42.6867662 103.0489885 109.0375450  42.3186447 103.9215823
 108.3878960  43.2015302 102.8773843 109.7712516  47.7876759  94.3915422
 109.9464272  47.3164802  95.2061044 109.0845304  48.4142525  94.6196683
 110.7269579  42.0649265 100.4378723 110.3919412  42.0250035 101.3336373
 110.2273525  41.3993981  99.9649133 104.7013823  37.4716895 105.9631304
 104.5633621  36.7397134 106.5642843 105.6118746  37.3825795 105.6815492
 113.6628771  39.4105299  90.7115783 113.0457941  38.6852128  90.6148835
 113.1945259  40.1714660  90.3682857 107.3296124  37.1836854 105.4514984
 108.0395742  36.5430047 105.4101602 107.2865432  37.4349749 106.3741165
 104.3373601  50.9366122 101.1655282 104.5770199  51.5684646 101.8434301
 103.4942798  50.5854162 101.4520641 105.4527317  33.6290724  89.8337087
 104.5756783  33.5079524  89.4699334 105.9285070  32.8376802  89.5815976
  96.9729457  38.4167883  99.9278594  97.6600497  38.1029613  99.3399609
  96.8177585  39.3209248  99.6545846 101.7764179  33.3058080 104.3563618
 101.6922368  32.6983750 103.6214028 100.9546885  33.7967098 104.3573114
 108.8501463  46.7445244 103.5696786 108.7771634  47.5500215 104.0816091
 108.4078856  46.9437210 102.7444807 108.6391243  45.9817014  97.0799607
 107.8558765  46.5238694  97.1737832 109.3383988  46.4990994  97.4793849
 111.9487893  31.7911643  99.7233813 112.4456592  31.0381606  99.4034883
 111.1774874  31.8275960  99.1577022 111.3100147  46.6432078 105.7254945
 112.0228119  47.2779543 105.6530846 110.8190175  46.7395944 104.9094946
 113.0317673  40.5483331  97.2972236 112.0973952  40.6684793  97.1276941
 113.2094342  39.6455797  97.0332246 108.5322861  33.9329026  99.4505497
 108.1620649  33.3800067 100.1386403 109.0281954  33.3287160  98.8980498
 116.4190225  36.3900650  97.8322270 116.8850677  37.2228642  97.7582573
 116.8697725  35.9245632  98.5367529 106.3612060  44.3926521 106.5460515
 107.0621520  45.0263004 106.6989910 105.8907175  44.7341253 105.7856155
 114.4866456  42.7344471  94.8308422 114.7626300  42.6201066  95.7402297
 113.6170955  42.3361956  94.7920596 111.1220520  46.9830822  98.4741236
 111.3042914  46.1652478  98.9368988 111.9453506  47.1998514  98.0366126
 111.4562685  45.9099007  95.7356285 111.9850452  45.3991462  95.1226447
 111.7190905  45.5941537  96.6001818 101.9579778  43.9262877 103.4791618
 102.5433215  43.1806564 103.6119522 101.7604617  44.2366833 104.3628282
 104.8118433  46.9614124  98.4954060 104.1428809  47.4460252  98.0118101
 104.6731303  47.2083344  99.4097439  96.5497433  36.4968477 102.1996061
  96.5881532  35.9632067 102.9933179  96.0437726  35.9703682 101.5807038
 108.9523702  48.9957867 105.0936719 109.5042010  49.1589489 105.8585804
 109.2929895  49.5862305 104.4216744 103.9288195  31.3433017 105.6958604
 103.9929522  32.2047848 105.2836001 103.8655315  30.7307019 104.9630962
 100.1806010  35.2232579  95.2749993 100.4759452  34.3143257  95.2217046
  99.2794046  35.2020318  94.9530995 112.0892089  46.9439843 102.0800401
 111.9643229  46.1429583 101.5711347 112.7471180  47.4386036 101.5914371
 103.7100257  33.2988575 101.2577541 102.9886843  33.9124543 101.1185015
 104.4993513  33.8346340 101.1794187 114.1526998  44.7448863 103.7079951
 113.2057333  44.6254214 103.6358278 114.5009771  43.8571361 103.7906213
 101.9093852  32.9046677  95.3989318 101.5806558  32.0244055  95.2164424
 102.2633223  32.8494345  96.2865707 111.1573431  44.5401579  99.9084303
 111.0098393  43.6118287 100.0891873 111.9826924  44.5621670  99.4241379
 105.0235675  33.1919646  95.7664795 105.3631748  33.7205568  95.0443404
 105.4707796  33.5300052  96.5423362 114.7607553  45.3630138 100.9949176
 115.6854100  45.1572999 100.8573627 114.5922856  45.1146539 101.9038518
 107.0103822  31.6894268  93.9658088 107.7312185  32.0675521  93.4621805
 106.3869126  32.4083145  94.0693066 111.1534945  32.3939417  94.9016421
 111.3698560  33.2764055  94.6005249 110.6729012  32.0025630  94.1722063
 105.8934167  35.3525130 101.4787165 105.7478747  35.6665433 102.3711447
 105.4159370  35.9710030 100.9258064 107.7530549  32.3427678 101.5268055
 107.7392118  31.4468771 101.1900353 108.4702978  32.3498342 102.1606341
 114.5502869  45.8815805  96.3511268 114.7239746  45.3162228  95.5985120
 115.0431760  46.6816700  96.1690757 100.3679829  37.8930475 104.4174826
  99.8233297  38.6690283 104.5495101 101.2459179  38.2401279 104.2593948
 107.1567445  31.2242058  96.7955625 107.2783357  30.2958705  96.9946512
 106.8669488  31.2380744  95.8833940 110.0258636  28.9096969  99.9322345
 110.0480333  28.9736302  98.9774324 110.4426695  28.0701477 100.1262851
 120.4042260  38.6452228  97.9701567 120.8473406  37.8959554  97.5720691
 119.5268770  38.6362365  97.5875299 115.5378041  45.1982570  93.4508166
 116.2328946  45.8189263  93.6695480 115.8801192  44.3477921  93.7260544
 101.1545851  37.0200371 107.3104983 100.4127587  37.1683006 107.8969614
 100.8338595  37.2808636 106.4471733 117.4369465  42.6482275  94.9795497
 117.9620789  42.9869548  94.2544817 117.3491817  41.7129291  94.7958631
 109.0989513  46.5616349 107.1085373 109.4076640  46.3165496 107.9808073
 109.8964995  46.7662988 106.6204243 109.1210125  48.7154259  99.3390750
 108.6815116  48.2230637 100.0323606 109.8718242  48.1727226  99.0982825
 101.6002464  44.9065800  99.3415378 102.4260484  44.6069571  98.9614021
 101.2496516  44.1373422  99.7905167 106.5683997  44.2592268 101.4113051
 105.9464007  43.5962973 101.1115279 107.2388864  44.2853400 100.7286699
  99.8011069  42.8252126 100.3004311  98.9642978  42.3974300 100.1188313
  99.7734715  43.0184569 101.2375103 106.1297504  42.8096191  94.8871512
 106.2785625  43.4931655  94.2338185 106.9363948  42.7901281  95.4020968
 103.8850137  38.8361369  95.8932581 103.6396179  37.9323699  96.0912791
 104.0546052  38.8378519  94.9512059 103.1545785  34.5689726  93.3918742
 102.4615030  34.6434081  92.7358778 102.9097537  33.8050070  93.9140259
 109.6292910  45.3044322  92.3583259 109.0566877  45.9234509  91.9053731
 110.2025704  45.8543683  92.8923181 112.8490170  45.5881472  93.4891842
 113.7820843  45.5227033  93.6924717 112.7613382  46.4237739  93.0306374
 115.4778186  44.9047342  90.4495789 115.3991818  44.5707206  91.3431547
 116.2987853  45.3969110  90.4487262 110.0139708  36.6405134  89.6999312
 110.9598813  36.5111342  89.7687730 109.6353953  35.9019796  90.1768740
 108.1982626  34.5655111  89.6354197 107.2914081  34.2688223  89.7116911
 108.4758607  34.2684929  88.7688483  99.1160566  35.8861474 100.0853244
  98.7963350  35.0326782  99.7927618  98.5693994  36.1010052 100.8411211
 102.8940473  38.6023915 103.8022750 103.1126483  39.5341023 103.8210784
 103.3066247  38.2431889 104.5877554 109.8144691  29.1092000  95.7898438
 109.0045420  28.7639085  96.1653685 110.5029108  28.7999544  96.3786050
 111.7435240  28.1870047  97.4122735 112.2966278  28.6065501  98.0712758
 111.9805326  27.2605795  97.4545691 106.9681410  31.4242046  89.7766176
 107.8300574  31.7496944  90.0361994 107.1531754  30.6373542  89.2639242
  98.9848826  39.5064386 102.0546365  98.2912297  39.0918338 101.5416320
  99.7321817  39.5484922 101.4579784 115.1214047  30.2970572  96.9201399
 114.5412716  30.9555376  96.5379452 114.8549979  29.4747917  96.5088817
 100.8985568  39.4382639  99.9312380 100.8756257  39.5370327  98.9794263
 101.2086205  40.2847790 100.2529546 103.5572946  41.4958794 104.0458994
 104.5116200  41.4642737 103.9788926 103.3585470  41.0349418 104.8609220
 104.1472328  40.0659910 106.6129792 104.9665217  40.5603989 106.6364629
 104.4209136  39.1491879 106.5847360 113.9038925  32.4570663  95.9757748
 113.0164780  32.7420313  95.7577942 114.3192914  32.2964426  95.1285024
 101.9123175  47.0378414 101.0629192 101.7777643  46.2778815 100.4967190
 101.4955237  47.7619314 100.5957981 113.0482138  42.2215337  90.0705768
 113.7517988  42.4265340  90.6863423 112.3244787  42.7892099  90.3354851
 113.8779948  37.9725199  96.1908038 113.8215150  38.4293750  95.3515670
 114.4308291  37.2115883  96.0130881 117.6884754  33.7614931  97.0158157
 117.4321689  33.3611566  97.8466365 117.0637622  34.4758724  96.8908296
 105.0692301  47.9347731 101.2747635 104.9524685  48.8793163 101.1726325
 104.2484747  47.6321292 101.6633434 114.9568836  42.6597867  92.1204228
 115.7914439  42.2279065  91.9381702 114.7953178  42.4879880  93.0481122
 114.6114728  39.1629980  93.4860567 114.5563531  38.9974251  92.5449011
 113.9860783  39.8706013  93.6422757  99.4007243  34.3998044 107.3121989
 100.0466106  33.8896998 107.8009214  99.1924394  35.1366726 107.8865414
 107.9210853  28.6638089  93.0645885 107.9089523  29.6079929  93.2214156
 108.8134275  28.4808234  92.7705347 106.0946815  48.5875993 104.4903563
 106.9974062  48.6199603 104.8070058 105.8684185  47.6576444 104.5049899
 107.8500417  47.3406979 101.1513642 106.8996048  47.3408841 101.0378014
 108.1532903  46.5939714 100.6349677 120.3942817  53.1294946 102.1520929
 120.0561328  53.0136011 101.2641464 121.2632585  52.7286111 102.1321935
 116.2529633  54.9830422  98.1417820 115.6894498  54.8920359  97.3734108
 116.1382028  54.1630327  98.6220313 113.7994065  56.4781614 100.9802040
 114.5915356  56.1372438 100.5648340 114.0390715  56.5876589 101.9004194
 115.7584818  55.7390527  93.8519419 116.5315694  55.1919514  93.7132295
 116.1110217  56.6034776  94.0633881 117.5969861  57.0666909 107.0586319
 117.3059727  57.9712540 106.9432985 118.2326845  57.1083437 107.7730388
 118.5226068  54.4443758 103.6487678 119.1189640  54.2199780 102.9344641
 118.5801039  53.7028503 104.2513126 118.0951096  51.8983193  91.4837869
 118.3476617  51.3764714  90.7221332 117.1575655  51.7349339  91.5864553
 117.8147385  53.8011299  93.6862244 117.6983643  53.1256203  94.3543328
 117.9249645  53.3143673  92.8694397 120.1578926  53.2621446  97.3908933
 119.7937133  52.7352067  98.1021855 121.0146042  52.8719915  97.2175419
 119.7984413  48.2911346  92.3870282 119.9658815  49.1591582  92.7540753
 119.6081582  48.4538628  91.4631571 116.0072228  53.2042122 100.0872817
 115.0822724  53.0718336 100.2950508 116.2556641  53.9836341 100.5842759
 119.7773634  50.7469003  93.3716949 119.6573259  51.1926054  94.2102429
 119.0826222  51.0954321  92.8130487 113.3681039  52.8475395 100.9216606
 113.4973420  53.1009874 101.8356017 112.6878490  53.4403103 100.6021261
 117.5380526  63.5172645  97.0207080 117.4604556  64.4680470  97.0995561
 116.9342170  63.1718518  97.6782006 119.6356244  55.9390703  98.8560949
 120.0994590  56.2178406  98.0665572 119.3713042  55.0374148  98.6734040
 116.5280325  55.4862185 101.7940713 117.0981682  55.9149453 101.1558197
 117.1188437  55.2044769 102.4924898 118.5725130  52.0613856  95.6650514
 119.2749174  52.5134899  96.1324441 118.2405759  51.4197674  96.2930408
 112.3150464  50.3197408 100.9667648 111.5249518  50.5754937 100.4907759
 112.8061712  51.1345746 101.0719689 114.2665210  50.6841987  97.9251125
 113.4696373  50.7960682  98.4434620 114.0390802  51.0228640  97.0592015
 120.0970877  57.2086691 105.8733639 120.1615310  57.6707098 106.7091811
 119.3881801  56.5784056 106.0015949 110.5988167  50.5727899 103.3982639
 110.8496206  51.4574909 103.6640215 111.1347716  50.3932500 102.6257731
 119.8118895  58.8754798  95.7412620 119.6764570  59.7206334  96.1697468
 120.3528707  59.0774076  94.9778553 113.2648292  56.3930236  96.3140545
 113.7772813  57.1873486  96.4646109 113.9171005  55.6956527  96.2474146
 115.0743177  59.5095993  98.3963298 115.2509805  60.4313957  98.2084282
 115.8700010  59.1954412  98.8257678 114.3595533  51.5560624 108.2725461
 114.2449049  50.6545882 108.5732560 113.5040051  51.8024321 107.9210278
 116.1974492  61.0274166 104.3973640 116.7481918  60.8991230 103.6250634
 115.3585968  61.3269055 104.0468533 119.9941663  57.2925294 108.7417871
 120.5270000  56.5313582 108.5117179 119.4655745  56.9998946 109.4842026
 111.2297209  54.7218891  97.0900115 112.0672431  55.1315899  96.8733823
 111.4075477  53.7818333  97.0600309 120.7108752  47.2343672  97.8369187
 119.8550348  46.8450522  97.6574825 121.1235704  47.3135633  96.9768972
 118.4850785  44.8528745 101.2426928 119.3503781  44.6571554 100.8832818
 118.5528294  44.6239097 102.1696285 121.3594376  56.4211287  96.2536683
 120.8315738  55.6864046  95.9409921 120.8581879  57.1985963  96.0076652
 116.0913104  47.0830953  98.6143295 116.6656856  46.8606134  97.8816488
 116.6784086  47.1519647  99.3671896 116.4182691  49.1135414  92.6339180
 115.5820003  49.4510100  92.9548455 116.2787461  48.9784394  91.6966317
 118.3935771  43.9572202  97.3418364 117.7400184  43.6421219  96.7174979
 118.3516246  43.3347942  98.0678187 119.5046976  54.2391497  89.2571656
 118.5974038  54.0080750  89.4562805 120.0018008  53.4429116  89.4445638
 120.6835210  54.3404092  93.7795647 119.7746429  54.0563125  93.8768116
 120.7130294  54.7603170  92.9198953 111.2523380  52.0609606  97.7610849
 111.0547780  51.4678967  97.0361915 110.6970044  51.7561816  98.4786788
 119.2320104  51.9532712  99.8805442 119.2868714  51.0006549  99.8047918
 118.4211306  52.1092151 100.3646740 120.3811298  55.8812835  91.1183725
 119.9430727  55.1648694  90.6589362 121.1221738  56.1088950  90.5568817
 117.1712464  50.5709772  97.6395821 116.3580329  50.8703943  98.0461013
 117.6671458  50.1765461  98.3570303 119.3221042  60.5667529  99.5730085
 119.2797220  60.7928375  98.6438617 120.2383740  60.3330904  99.7215887
 116.6626538  48.1428128 103.2557056 117.3025918  48.0016887 102.5580019
 115.8304069  47.8562641 102.8795658 117.4386842  57.4430558  99.3692048
 118.2327441  56.9480878  99.1674623 116.7278535  56.9148421  99.0059754
 113.7469606  51.5873640  95.4451801 112.8167194  51.5258095  95.6621763
 113.8427078  51.0649593  94.6488442 113.6655155  48.1128453  98.0330043
 113.9261972  49.0273786  97.9239203 114.4872327  47.6452895  98.1826655
 115.1380080  49.5266210 105.2028867 115.8103134  49.3183572 104.5541516
 114.3109867  49.3288296 104.7634099 120.0158118  58.0159580 103.0489885
 119.8769204  57.6478364 103.9215823 119.2272715  58.5307219 102.8773843
 120.6106270  63.1168676  94.3915422 120.7858026  62.6456720  95.2061044
 119.9239058  63.7434443  94.6196683 121.5663334  57.3941183 100.4378723
 121.2313166  57.3541953 101.3336373 121.0667279  56.7285899  99.9649133
 115.5407577  52.8008813 105.9631304 115.4027375  52.0689052 106.5642843
 116.4512501  52.7117713 105.6815492 118.1689878  52.5128772 105.4514984
 118.8789497  51.8721964 105.4101602 118.1259186  52.7641667 106.3741165
 115.1767356  66.2658039 101.1655282 115.4163954  66.8976563 101.8434301
 114.3336552  65.9146079 101.4520641 116.2921071  48.9582641  89.8337087
 115.4150537  48.8371442  89.4699334 116.7678824  48.1668720  89.5815976
 107.8123211  53.7459801  99.9278594 108.4994251  53.4321531  99.3399609
 107.6571340  54.6501166  99.6545846 112.6157933  48.6349998 104.3563618
 112.5316122  48.0275667 103.6214028 111.7940640  49.1259016 104.3573114
 119.6895217  62.0737162 103.5696786 119.6165389  62.8792133 104.0816091
 119.2472611  62.2729127 102.7444807 119.4784997  61.3108932  97.0799607
 118.6952519  61.8530612  97.1737832 120.1777742  61.8282911  97.4793849
 119.3716616  49.2620944  99.4505497 119.0014404  48.7091985 100.1386403
 119.8675708  48.6579078  98.8980498 117.2005815  59.7218439 106.5460515
 117.9015274  60.3554922 106.6989910 116.7300930  60.0633171 105.7856155
 112.7973533  59.2554794 103.4791618 113.3826969  58.5098482 103.6119522
 112.5998371  59.5658751 104.3628282 115.6512188  62.2906042  98.4954060
 114.9822563  62.7752169  98.0118101 115.5125058  62.5375262  99.4097439
 107.3891187  51.8260394 102.1996061 107.4275287  51.2923985 102.9933179
 106.8831480  51.2995600 101.5807038 119.7917456  64.3249785 105.0936719
 120.3435764  64.4881407 105.8585804 120.1323650  64.9154223 104.4216744
 114.7681950  46.6724935 105.6958604 114.8323276  47.5339766 105.2836001
 114.7049070  46.0598937 104.9630962 111.0199765  50.5524497  95.2749993
 111.3153206  49.6435175  95.2217046 110.1187801  50.5312236  94.9530995
 114.5494012  48.6280493 101.2577541 113.8280598  49.2416461 101.1185015
 115.3387268  49.1638258 101.1794187 112.7487607  48.2338594  95.3989318
 112.4200313  47.3535973  95.2164424 113.1026977  48.1786263  96.2865707
 115.8629430  48.5211564  95.7664795 116.2025502  49.0497485  95.0443404
 116.3101550  48.8591970  96.5423362 117.8497577  47.0186186  93.9658088
 118.5705939  47.3967438  93.4621805 117.2262881  47.7375062  94.0693066
 116.7327921  50.6817048 101.4787165 116.5872502  50.9957351 102.3711447
 116.2553125  51.3001948 100.9258064 118.5924304  47.6719596 101.5268055
 118.5785873  46.7760689 101.1900353 119.3096732  47.6790260 102.1606341
 111.2073583  53.2222392 104.4174826 110.6627051  53.9982200 104.5495101
 112.0852933  53.5693197 104.2593948 117.9961200  46.5533976  96.7955625
 118.1177111  45.6250622  96.9946512 117.7063242  46.5672662  95.8833940
 120.8652390  44.2388887  99.9322345 120.8874087  44.3028220  98.9774324
 121.2820449  43.3993395 100.1262851 111.9939605  52.3492288 107.3104983
 111.2521341  52.4974924 107.8969614 111.6732349  52.6100554 106.4471733
 119.9383268  61.8908267 107.1085373 120.2470394  61.6457413 107.9808073
 120.7358750  62.0954905 106.6204243 119.9603880  64.0446176  99.3390750
 119.5208870  63.5522555 100.0323606 120.7111997  63.5019144  99.0982825
 112.4396219  60.2357717  99.3415378 113.2654239  59.9361489  98.9614021
 112.0890271  59.4665340  99.7905167 117.4077752  59.5884185 101.4113051
 116.7857761  58.9254890 101.1115279 118.0782619  59.6145317 100.7286699
 110.6404824  58.1544044 100.3004311 109.8036732  57.7266218 100.1188313
 110.6128469  58.3476487 101.2375103 116.9691259  58.1388109  94.8871512
 117.1179379  58.8223573  94.2338185 117.7757702  58.1193199  95.4020968
 114.7243892  54.1653286  95.8932581 114.4789934  53.2615616  96.0912791
 114.8939806  54.1670437  94.9512059 113.9939539  49.8981644  93.3918742
 113.3008784  49.9725999  92.7358778 113.7491291  49.1341988  93.9140259
 120.4686664  60.6336239  92.3583259 119.8960631  61.2526426  91.9053731
 121.0419458  61.1835601  92.8923181 119.0376380  49.8947028  89.6354197
 118.1307835  49.5980141  89.7116911 119.3152361  49.5976846  88.7688483
 109.9554320  51.2153392 100.0853244 109.6357105  50.3618700  99.7927618
 109.4087749  51.4301970 100.8411211 113.7334228  53.9315833 103.8022750
 113.9520238  54.8632941 103.8210784 114.1460002  53.5723807 104.5877554
 120.6538446  44.4383918  95.7898438 119.8439174  44.0931003  96.1653685
 121.3422863  44.1291462  96.3786050 117.8075165  46.7533964  89.7766176
 118.6694329  47.0788862  90.0361994 117.9925509  45.9665459  89.2639242
 109.8242580  54.8356303 102.0546365 109.1306052  54.4210256 101.5416320
 110.5715571  54.8776840 101.4579784 111.7379323  54.7674557  99.9312380
 111.7150011  54.8662244  98.9794263 112.0479959  55.6139708 100.2529546
 114.3966701  56.8250712 104.0458994 115.3509954  56.7934654 103.9788926
 114.1979224  56.3641336 104.8609220 114.9866083  55.3951828 106.6129792
 115.8058972  55.8895907 106.6364629 115.2602891  54.4783796 106.5847360
 112.7516930  62.3670332 101.0629192 112.6171398  61.6070732 100.4967190
 112.3348992  63.0911231 100.5957981 115.9086055  63.2639649 101.2747635
 115.7918440  64.2085081 101.1726325 115.0878502  62.9613210 101.6633434
 110.2400997  49.7289962 107.3121989 110.8859861  49.2188916 107.8009214
 110.0318148  50.4658644 107.8865414 118.7604608  43.9930007  93.0645885
 118.7483277  44.9371847  93.2214156 119.6528030  43.8100152  92.7705347
 116.9340570  63.9167910 104.4903563 117.8367816  63.9491521 104.8070058
 116.7077940  62.9868361 104.5049899 118.6894172  62.6698897 101.1513642
 117.7389803  62.6700759 101.0378014 118.9926658  61.9231632 100.6349677
 118.6516966  69.0751719  99.9278594 119.3388006  68.7613449  99.3399609
 118.4965094  69.9793083  99.6545846 118.2284942  67.1552312 102.1996061
 118.2669041  66.6215903 102.9933179 117.7225235  66.6287518 101.5807038
 121.4798578  73.4835961 100.3004311 120.6430487  73.0558136 100.1188313
 121.4522224  73.6768405 101.2375103 120.7948075  66.5445309 100.0853244
 120.4750859  65.6910618  99.7927618 120.2481503  66.7593888 100.8411211
 120.6636335  70.1648221 102.0546365 119.9699806  69.7502174 101.5416320
 121.4109326  70.2068757 101.4579784  95.8593018   9.8650932  83.7452387
  95.7817048  10.8158758  83.8240867  95.2554662   9.5196805  84.4027313
  93.4979848  12.6136326  87.8900589  93.7376446  13.2454851  88.5679607
  92.6549044  12.2624366  88.1765948  93.9724680   8.6384329  85.2199367
  93.3035055   9.1230456  84.7363407  93.8337550   8.8853549  86.1342746
  98.1129949  10.6728072  91.8182026  98.6648257  10.8359694  92.5831111
  98.4536142  11.2632510  91.1462050  91.0729422   8.7148619  87.7874499
  90.9383890   7.9549020  87.2212497  90.6561484   9.4389519  87.3203288
  94.2298548   9.6117936  87.9992942  94.1130932  10.5563368  87.8971632
  93.4090994   9.3091497  88.3878741  95.2553062  10.2646198  91.2148870
  96.1580309  10.2969808  91.5315365  95.0290432   9.3346649  91.2295206
 109.5549064  14.8065151  88.8766236 109.2167575  14.6906215  87.9886771
 110.4238832  14.4056316  88.8567242 105.4135879  16.6600627  84.8663127
 104.8500744  16.5690564  84.0979414 105.2988274  15.8400532  85.3465619
 102.9600311  18.1551819  87.7047347 103.7521603  17.8142643  87.2893646
 103.1996961  18.2646794  88.6249500 110.9935438  20.3271595  80.1777592
 110.3423418  20.9125675  79.7911605 111.7879801  20.8577790  80.2372629
 104.9191065  17.4160732  80.5764726 105.6921941  16.8689719  80.4377602
 105.2716464  18.2804981  80.7879187 106.7576108  18.7437114  93.7831625
 106.4665974  19.6482745  93.6678292 107.3933092  18.7853642  94.4975695
 107.6832315  16.1213963  90.3732985 108.2795887  15.8969985  89.6589948
 107.7407286  15.3798708  90.9758433 112.4710703  18.0162027  80.7146576
 111.8356536  18.0896653  81.4267481 112.1408110  18.6055626  80.0365655
 106.9753632  15.4781504  80.4107551 106.8589890  14.8026407  81.0788635
 107.0855892  14.9913878  79.5939704 109.3185173  14.9391651  84.1154240
 108.9543380  14.4122272  84.8267161 110.1752289  14.5490120  83.9420725
 111.7165993  18.4298530  90.7781419 111.4166716  19.3323569  90.6697226
 111.3717052  18.1630713  91.6302572 105.1678474  14.8812327  86.8118123
 104.2428971  14.7488541  87.0195815 105.4162888  15.6606546  87.3088066
 102.5287285  14.5245600  87.6461912 102.6579667  14.7780079  88.5601324
 101.8484737  15.1173308  87.3266567 106.6986773  25.1942850  83.7452387
 106.6210802  26.1450675  83.8240867 106.0948416  24.8488723  84.4027313
 113.2434529  17.8786500  88.3156171 112.6143391  18.0432214  87.6132239
 112.8560191  18.2928110  89.0867135 117.1223761  18.8140938  85.6700535
 116.4374799  19.1939839  85.1197568 117.2067610  19.4236265  86.4032482
 108.7962491  17.6160908  85.5806256 109.2600836  17.8948611  84.7910878
 108.5319289  16.7144353  85.3979347 105.6886572  17.1632390  88.5186019
 106.2587929  17.5919658  87.8803504 106.2794684  16.8814974  89.2170205
 101.4756711  11.9967613  87.6912955 100.6855765  12.2525142  87.2153065
 101.9667958  12.8115951  87.7964995 103.4271456  12.3612192  84.6496431
 102.6302620  12.4730887  85.1679927 103.1997049  12.6998845  83.7837322
 109.2577124  18.8856896  92.5978946 109.3221556  19.3477303  93.4337118
 108.5488048  18.2554261  92.7261256  99.7594414  12.2498104  90.1227945
 100.0102452  13.1345114  90.3885521 100.2953962  12.0702705  89.3503037
 108.9725142  20.5525003  82.4657926 108.8370816  21.3976539  82.8942774
 109.5134954  20.7544281  81.7023860 102.4254539  18.0700441  83.0385851
 102.9379060  18.8643691  83.1891416 103.0777252  17.3726732  82.9719453
 104.2349424  21.1866197  85.1208605 104.4116052  22.1084162  84.9329588
 105.0306257  20.8724617  85.5502984 103.5201780  13.2330829  94.9970768
 103.4055295  12.3316087  95.2977867 102.6646298  13.4794526  94.6455584
 105.3580739  22.7044371  91.1218947 105.9088164  22.5761435  90.3495941
 104.5192215  23.0039260  90.7713840 109.1547910  18.9695499  95.4663178
 109.6876247  18.2083787  95.2362486 108.6261991  18.6769151  96.2087333
 100.3903456  16.3989095  83.8145422 101.2278678  16.8086104  83.5979130
 100.5681723  15.4588538  83.7845616 110.5200623  18.0981492  82.9781990
 109.9921984  17.3634251  82.6655228 110.0188126  18.8756168  82.7321958
 115.4993469  16.2930512  88.0949036 114.8417143  16.9829773  88.1829165
 116.3033868  16.6826944  88.4383023 108.6653223  15.9161702  75.9816963
 107.7580285  15.6850955  76.1808112 109.1624255  15.1199321  76.1690945
 111.5721302  24.6259209  78.9013649 110.8983001  24.9290906  79.5098607
 111.9587124  25.4288289  78.5519106 109.8441457  16.0174297  80.5040953
 108.9352676  15.7333329  80.6013423 109.8736540  16.4373375  79.6444260
 115.0760724  19.6280886  84.2732121 114.6223051  18.7871796  84.3297311
 114.4454691  20.2642285  84.6106901 113.5193663  21.4657383  85.2081939
 113.8116638  22.0262440  84.4894305 114.0292284  21.7585944  85.9635098
 100.4129627  13.7379811  84.4856155 100.2154027  13.1449171  83.7607222
  99.8576291  13.4332021  85.2032094 109.5417544  17.5583040  77.8429032
 109.1036974  16.8418899  77.3834669 110.2827985  17.7859155  77.2814123
 108.4827288  22.2437734  86.2975392 108.4403467  22.4698580  85.3683924
 109.3989987  22.0101109  86.4461193 106.5993089  19.1200763  86.0937355
 107.3933688  18.6251083  85.8919930 105.8884782  18.5918626  85.7305060
 111.4187934  21.5018858  90.4449722 111.4724956  22.0709795  91.2127438
 110.5502715  21.6720743  90.0803760 102.9075853  13.2643845  82.1697108
 101.9773441  13.2028300  82.3867070 103.0033325  12.7419797  81.3733749
 110.3776033  15.6679120  92.0036654 111.3068093  15.8190280  91.8305622
 109.9567063  15.7563141  91.1485301 109.1764365  19.6929785  89.7735192
 109.0375451  19.3248569  90.6461130 108.3878961  20.2077424  89.6019150
 109.7712517  24.7938881  81.1160728 109.9464273  24.3226925  81.9306351
 109.0845305  25.4204648  81.3441989 110.7269580  19.0711388  87.1624030
 110.3919413  19.0312158  88.0581680 110.2273526  18.4056104  86.6894440
 104.7013824  14.4779018  92.6876611 104.5633622  13.7459256  93.2888150
 105.6118748  14.3887918  92.4060799 113.6628772  16.4167422  77.4361089
 113.0457943  15.6914250  77.3394142 113.1945260  17.1776782  77.0928164
 107.3296125  14.1898977  92.1760291 108.0395743  13.5492169  92.1346909
 107.2865433  14.4411872  93.0986471 104.3373602  27.9428244  87.8900589
 104.5770201  28.5746768  88.5679607 103.4942799  27.5916284  88.1765948
  96.9729458  15.4230006  86.6523901  97.6600498  15.1091736  86.0644916
  96.8177587  16.3271371  86.3791152 108.8501464  23.7507367  90.2942093
 108.7771636  24.5562338  90.8061397 108.4078857  23.9499332  89.4690114
 108.6391244  22.9879137  83.8044914 107.8558766  23.5300817  83.8983139
 109.3383989  23.5053116  84.2039155 111.3100148  23.6494201  92.4500251
 112.0228120  24.2841665  92.3776153 110.8190176  23.7458067  91.6340253
 113.0317675  17.5545453  84.0217543 112.0973953  17.6746916  83.8522247
 113.2094343  16.6517920  83.7577553 106.3612061  21.3988644  93.2705822
 107.0621521  22.0325127  93.4235216 105.8907176  21.7403376  92.5101461
 114.4866457  19.7406594  81.5553729 114.7626301  19.6263188  82.4647603
 113.6170956  19.3424079  81.5165902 111.1220521  23.9892945  85.1986543
 111.3042916  23.1714601  85.6614295 111.9453507  24.2060637  84.7611433
 111.4562687  22.9161130  82.4601591 111.9850453  22.4053584  81.8471753
 111.7190906  22.6003660  83.3247124 101.9579779  20.9324999  90.2036925
 102.5433216  20.1868687  90.3364829 101.7604618  21.2428956  91.0873589
 104.8118435  23.9676247  85.2199367 104.1428810  24.4522374  84.7363407
 104.6731304  24.2145467  86.1342746  96.5497434  13.5030599  88.9241368
  96.5881534  12.9694190  89.7178486  96.0437727  12.9765805  88.3052345
 108.9523703  26.0019990  91.8182026 109.5042011  26.1651612  92.5831111
 109.2929897  26.5924428  91.1462050 100.1806012  12.2294702  81.9995299
 100.4759453  11.3205380  81.9462353  99.2794047  12.2082441  81.6776302
 112.0892090  23.9501966  88.8045708 111.9643230  23.1491705  88.2956653
 112.7471182  24.4448159  88.3159678 114.1526999  21.7510986  90.4325258
 113.2057334  21.6316337  90.3603584 114.5009772  20.8633484  90.5151519
 111.1573432  21.5463702  86.6329610 111.0098395  20.6180409  86.8137180
 111.9826926  21.5683793  86.1486685 114.7607554  22.3692261  87.7194483
 115.6854101  22.1635122  87.5818934 114.5922857  22.1208662  88.6283824
 114.5502870  22.8877928  83.0756574 114.7239748  22.3224351  82.3230427
 115.0431761  23.6878823  82.8936064 100.3679830  14.8992597  91.1420133
  99.8233298  15.6752405  91.2740407 101.2459180  15.2463402  90.9839254
 115.5378043  22.2044692  80.1753472 116.2328947  22.8251385  80.3940787
 115.8801193  21.3540044  80.4505850 101.1545852  14.0262493  94.0350290
 100.4127588  14.1745129  94.6214920 100.8338596  14.2870759  93.1717039
 117.4369466  19.6544398  81.7040803 117.9620790  19.9931671  80.9790123
 117.3491818  18.7191413  81.5203938 109.0989515  23.5678472  93.8330680
 109.4076641  23.3227618  94.7053379 109.8964997  23.7725110  93.3449550
 109.1210127  25.7216381  86.0636056 108.6815117  25.2292760  86.7568913
 109.8718244  25.1789349  85.8228132 101.6002466  21.9127922  86.0660684
 102.4260485  21.6131694  85.6859328 101.2496518  21.1435545  86.5150473
 106.5683999  21.2654390  88.1358358 105.9464008  20.6025095  87.8360586
 107.2388866  21.2915522  87.4532006  99.8011071  19.8314249  87.0249618
  98.9642979  19.4036423  86.8433619  99.7734716  20.0246692  87.9620409
 106.1297506  19.8158314  81.6116819 106.2785626  20.4993778  80.9583491
 106.9363949  19.7963404  82.1266274 103.8850139  15.8423491  82.6177888
 103.6396181  14.9385821  82.8158098 104.0546053  15.8440642  81.6757366
 109.6292911  22.3106444  79.0828566 109.0566878  22.9296631  78.6299038
 110.2025705  22.8605806  79.6168488 112.8490171  22.5943594  80.2137148
 113.7820844  22.5289156  80.4170024 112.7613384  23.4299861  79.7551681
 115.4778188  21.9109465  77.1741096 115.3991819  21.5769328  78.0676854
 116.2987854  22.4031233  77.1732568  99.1160567  12.8923597  86.8098550
  98.7963352  12.0388905  86.5172924  98.5693995  13.1072175  87.5656518
 102.8940475  15.6086038  90.5268057 103.1126484  16.5403145  90.5456090
 103.3066249  15.2494012  91.3122861  98.9848827  16.5126508  88.7791672
  98.2912299  16.0980461  88.2661626  99.7321818  16.5547045  88.1825091
 100.8985570  16.4444762  86.6557687 100.8756258  16.5432449  85.7039570
 101.2086206  17.2909913  86.9774853 103.5572948  18.5020917  90.7704301
 104.5116201  18.4704859  90.7034233 103.3585471  18.0411541  91.5854527
 104.1472330  17.0722033  93.3375099 104.9665219  17.5666112  93.3609936
 104.4209137  16.1554001  93.3092666 101.9123176  24.0440536  87.7874499
 101.7777644  23.2840937  87.2212497 101.4955239  24.7681436  87.3203288
 113.0482139  19.2277460  76.7951074 113.7517990  19.4327463  77.4108730
 112.3244788  19.7954222  77.0600158 105.0692302  24.9409854  87.9992942
 104.9524686  25.8855286  87.8971632 104.2484749  24.6383415  88.3878741
 114.9568837  19.6659989  78.8449534 115.7914441  19.2341188  78.6627009
 114.7953180  19.4942003  79.7726429 114.6114729  16.1692103  80.2105874
 114.5563533  16.0036374  79.2694318 113.9860784  16.8768135  80.3668063
  99.4007244  11.4060167  94.0367296 100.0466108  10.8959121  94.5254521
  99.1924395  12.1428849  94.6110721 106.0946816  25.5938115  91.2148870
 106.9974063  25.6261726  91.5315365 105.8684186  24.6638566  91.2295206
 107.8500418  24.3469102  87.8758949 106.8996049  24.3470964  87.7623321
 108.1532905  23.6001837  87.3594983 120.3942818  30.1357068  88.8766236
 120.0561330  30.0198133  87.9886771 121.2632586  29.7348234  88.8567242
 116.2529634  31.9892545  84.8663127 115.6894499  31.8982482  84.0979414
 116.1382029  31.1692449  85.3465619 113.7994066  33.4843736  87.7047347
 114.5915358  33.1434561  87.2893646 114.0390716  33.5938711  88.6249500
 115.7584820  32.7452650  80.5764726 116.5315696  32.1981637  80.4377602
 116.1110219  33.6096899  80.7879187 117.5969862  34.0729032  93.7831625
 117.3059728  34.9774663  93.6678292 118.2326847  34.1145560  94.4975695
 118.5226069  31.4505880  90.3732985 119.1189641  31.2261903  89.6589948
 118.5801041  30.7090626  90.9758433 118.0951098  28.9045316  78.2083176
 118.3476618  28.3826837  77.4466639 117.1575657  28.7411461  78.3109859
 117.8147386  30.8073422  80.4107551 117.6983644  30.1318325  81.0788635
 117.9249646  30.3205796  79.5939704 120.1578927  30.2683569  84.1154240
 119.7937134  29.7414190  84.8267161 121.0146043  29.8782038  83.9420725
 119.7984414  25.2973469  79.1115589 119.9658817  26.1653705  79.4786060
 119.6081583  25.4600750  78.1876878 116.0072229  30.2104244  86.8118123
 115.0822725  30.0780458  87.0195815 116.2556642  30.9898464  87.3088066
 119.7773635  27.7531126  80.0962255 119.6573260  28.1988177  80.9347736
 119.0826223  28.1016444  79.5375794 113.3681040  29.8537518  87.6461912
 113.4973421  30.1071997  88.5601324 112.6878491  30.4465226  87.3266567
 117.5380527  40.5234768  83.7452387 117.4604557  41.4742593  83.8240867
 116.9342171  40.1780640  84.4027313 119.6356245  32.9452826  85.5806256
 120.0994591  33.2240529  84.7910878 119.3713044  32.0436270  85.3979347
 116.5280326  32.4924307  88.5186019 117.0981684  32.9211576  87.8803504
 117.1188438  32.2106892  89.2170205 118.5725131  29.0675978  82.3895821
 119.2749175  29.5197022  82.8569747 118.2405760  28.4259797  83.0175714
 112.3150465  27.3259531  87.6912955 111.5249519  27.5817059  87.2153065
 112.8061713  28.1407869  87.7964995 114.2665211  27.6904110  84.6496431
 113.4696374  27.8022804  85.1679927 114.0390803  28.0290762  83.7837322
 120.0970878  34.2148813  92.5978946 120.1615311  34.6769221  93.4337118
 119.3881802  33.5846178  92.7261256 110.5988168  27.5790021  90.1227945
 110.8496207  28.4637031  90.3885521 111.1347717  27.3994623  89.3503037
 119.8118896  35.8816921  82.4657926 119.6764571  36.7268457  82.8942774
 120.3528709  36.0836198  81.7023860 113.2648293  33.3992359  83.0385851
 113.7772814  34.1935609  83.1891416 113.9171006  32.7018649  82.9719453
 115.0743178  36.5158115  85.1208605 115.2509807  37.4376080  84.9329588
 115.8700012  36.2016534  85.5502984 114.3595535  28.5622747  94.9970768
 114.2449050  27.6608004  95.2977867 113.5040052  28.8086444  94.6455584
 116.1974494  38.0336289  91.1218947 116.7481919  37.9053352  90.3495941
 115.3585970  38.3331178  90.7713840 119.9941665  34.2987417  95.4663178
 120.5270001  33.5375705  95.2362486 119.4655746  34.0061069  96.2087333
 111.2297210  31.7281013  83.8145422 112.0672432  32.1378021  83.5979130
 111.4075478  30.7880455  83.7845616 120.7108753  24.2405795  84.5614493
 119.8550350  23.8512645  84.3820132 121.1235705  24.3197755  83.7014279
 118.4850786  21.8590868  87.9672235 119.3503783  21.6633676  87.6078124
 118.5528295  21.6301219  88.8941592 121.3594377  33.4273409  82.9781990
 120.8315739  32.6926169  82.6655228 120.8581880  34.2048086  82.7321958
 116.0913105  24.0893075  85.3388602 116.6656857  23.8668257  84.6061795
 116.6784087  24.1581770  86.0917203 116.4182692  26.1197536  79.3584487
 115.5820004  26.4572223  79.6793762 116.2787462  25.9846516  78.4211624
 118.3935773  20.9634324  84.0663671 117.7400185  20.6483342  83.4420286
 118.3516247  20.3410065  84.7923494 119.5046978  31.2453619  75.9816963
 118.5974039  31.0142873  76.1808112 120.0018010  30.4491239  76.1690945
 120.6835211  31.3466214  80.5040953 119.7746430  31.0625247  80.6013423
 120.7130295  31.7665293  79.6444260 111.2523381  29.0671728  84.4856155
 111.0547781  28.4741089  83.7607222 110.6970045  28.7623939  85.2032094
 119.2320105  28.9594835  86.6050749 119.2868715  28.0068671  86.5293225
 118.4211307  29.1154274  87.0892047 120.3811299  32.8874958  77.8429032
 119.9430729  32.1710817  77.3834669 121.1221740  33.1151073  77.2814123
 117.1712465  27.5771895  84.3641127 116.3580331  27.8766065  84.7706320
 117.6671459  27.1827583  85.0815610 119.3221043  37.5729652  86.2975392
 119.2797222  37.7990498  85.3683924 120.2383742  37.3393026  86.4461193
 116.6626540  25.1490250  89.9802362 117.3025919  25.0079009  89.2825326
 115.8304070  24.8624764  89.6040964 117.4386844  34.4492681  86.0937355
 118.2327442  33.9543001  85.8919930 116.7278536  33.9210544  85.7305060
 113.7469607  28.5935762  82.1697108 112.8167195  28.5320218  82.3867070
 113.8427079  28.0711715  81.3733749 113.6655156  25.1190575  84.7575349
 113.9261973  26.0335908  84.6484510 114.4872328  24.6515018  84.9071962
 115.1380081  26.5328332  91.9274174 115.8103135  26.3245694  91.2786823
 114.3109868  26.3350418  91.4879406 120.0158120  35.0221703  89.7735192
 119.8769205  34.6540487  90.6461130 119.2272716  35.5369342  89.6019150
 120.6106272  40.1230799  81.1160728 120.7858027  39.6518842  81.9306351
 119.9239060  40.7496565  81.3441989 121.5663335  34.4003305  87.1624030
 121.2313167  34.3604075  88.0581680 121.0667280  33.7348021  86.6894440
 115.5407579  29.8070935  92.6876611 115.4027377  29.0751174  93.2888150
 116.4512502  29.7179835  92.4060799 118.1689879  29.5190895  92.1760291
 118.8789498  28.8784087  92.1346909 118.1259188  29.7703789  93.0986471
 115.1767357  43.2720162  87.8900589 115.4163955  43.9038686  88.5679607
 114.3336553  42.9208202  88.1765948 116.2921072  25.9644764  76.5582394
 115.4150539  25.8433565  76.1944640 116.7678825  25.1730842  76.3061282
 107.8123212  30.7521924  86.6523901 108.4994252  30.4383654  86.0644916
 107.6571341  31.6563288  86.3791152 112.6157935  25.6412120  91.0808924
 112.5316123  25.0337790  90.3459334 111.7940641  26.1321139  91.0818421
 119.6895219  39.0799284  90.2942093 119.6165390  39.8854256  90.8061397
 119.2472612  39.2791250  89.4690114 119.4784998  38.3171054  83.8044914
 118.6952520  38.8592734  83.8983139 120.1777744  38.8345034  84.2039155
 119.3716617  26.2683067  86.1750804 119.0014405  25.7154107  86.8631710
 119.8675710  25.6641200  85.6225804 117.2005816  36.7280562  93.2705822
 117.9015275  37.3617045  93.4235216 116.7300931  37.0695293  92.5101461
 112.7973534  36.2616917  90.2036925 113.3826971  35.5160605  90.3364829
 112.5998372  36.5720874  91.0873589 115.6512189  39.2968164  85.2199367
 114.9822564  39.7814292  84.7363407 115.5125059  39.5437385  86.1342746
 107.3891189  28.8322517  88.9241368 107.4275288  28.2986108  89.7178486
 106.8831481  28.3057723  88.3052345 119.7917458  41.3311908  91.8182026
 120.3435766  41.4943529  92.5831111 120.1323651  41.9216346  91.1462050
 114.7681951  23.6787058  92.4203910 114.8323277  24.5401888  92.0081308
 114.7049071  23.0661059  91.6876269 111.0199766  27.5586619  81.9995299
 111.3153207  26.6497298  81.9462353 110.1187802  27.5374359  81.6776302
 114.5494013  25.6342616  87.9822848 113.8280599  26.2478583  87.8430321
 115.3387269  26.1700381  87.9039494 112.7487608  25.2400717  82.1234624
 112.4200314  24.3598096  81.9409730 113.1026978  25.1848386  83.0111014
 115.8629431  25.5273687  82.4910102 116.2025503  26.0559608  81.7688710
 116.3101551  25.8654093  83.2668669 117.8497578  24.0248308  80.6903395
 118.5705941  24.4029561  80.1867112 117.2262882  24.7437185  80.7938373
 116.7327922  27.6879170  88.2032472 116.5872503  28.0019473  89.0956753
 116.2553126  28.3064071  87.6503370 118.5924305  24.6781718  88.2513361
 118.5785874  23.7822812  87.9145659 119.3096733  24.6852382  88.8851647
 111.2073584  30.2284515  91.1420133 110.6627053  31.0044323  91.2740407
 112.0852934  30.5755319  90.9839254 117.9961201  23.5596099  83.5200932
 118.1177112  22.6312745  83.7191819 117.7063244  23.5734785  82.6079247
 120.8652392  21.2451009  86.6567651 120.8874088  21.3090342  85.7019631
 121.2820451  20.4055518  86.8508158 111.9939606  29.3554411  94.0350290
 111.2521342  29.5037046  94.6214920 111.6732351  29.6162677  93.1717039
 119.9383269  38.8970389  93.8330680 120.2470395  38.6519536  94.7053379
 120.7358751  39.1017028  93.3449550 119.9603881  41.0508299  86.0636056
 119.5208871  40.5584678  86.7568913 120.7111998  40.5081267  85.8228132
 112.4396220  37.2419840  86.0660684 113.2654240  36.9423612  85.6859328
 112.0890272  36.4727462  86.5150473 117.4077753  36.5946308  88.1358358
 116.7857762  35.9317013  87.8360586 118.0782620  36.6207440  87.4532006
 110.6404825  35.1606166  87.0249618 109.8036733  34.7328341  86.8433619
 110.6128471  35.3538610  87.9620409 116.9691260  35.1450231  81.6116819
 117.1179380  35.8285696  80.9583491 117.7757704  35.1255321  82.1266274
 114.7243893  31.1715409  82.6177888 114.4789935  30.2677739  82.8158098
 114.8939808  31.1732559  81.6757366 113.9939541  26.9043767  80.1164049
 113.3008786  26.9788122  79.4604085 113.7491293  26.1404110  80.6385566
 120.4686666  37.6398362  79.0828566 119.8960633  38.2588549  78.6299038
 121.0419459  38.1897724  79.6168488 119.0376381  26.9009151  76.3599504
 118.1307837  26.6042264  76.4362217 119.3152362  26.6038969  75.4933790
 109.9554322  28.2215514  86.8098550 109.6357106  27.3680823  86.5172924
 109.4087750  28.4364093  87.5656518 113.7334229  30.9377955  90.5268057
 113.9520239  31.8695063  90.5456090 114.1460003  30.5785930  91.3122861
 120.6538447  21.4446041  82.5143745 119.8439175  21.0993126  82.8898991
 121.3422864  21.1353584  83.1031357 117.8075166  23.7596086  76.5011483
 118.6694330  24.0850984  76.7607300 117.9925510  22.9727582  75.9884549
 109.8242582  31.8418426  88.7791672 109.1306053  31.4272379  88.2661626
 110.5715573  31.8838962  88.1825091 111.7379324  31.7736680  86.6557687
 111.7150012  31.8724367  85.7039570 112.0479961  32.6201830  86.9774853
 114.3966702  33.8312835  90.7704301 115.3509956  33.7996777  90.7034233
 114.1979226  33.3703458  91.5854527 114.9866084  32.4013951  93.3375099
 115.8058973  32.8958029  93.3609936 115.2602892  31.4845919  93.3092666
 112.7516931  39.3732454  87.7874499 112.6171399  38.6132855  87.2212497
 112.3348993  40.0973354  87.3203288 115.9086057  40.2701771  87.9992942
 115.7918441  41.2147204  87.8971632 115.0878503  39.9675333  88.3878741
 110.2400998  26.7352085  94.0367296 110.8859862  26.2251039  94.5254521
 110.0318150  27.4720766  94.6110721 118.7604609  20.9992129  79.7891192
 118.7483279  21.9433969  79.9459463 119.6528031  20.8162275  79.4950653
 116.9340571  40.9230033  91.2148870 117.8367818  40.9553643  91.5315365
 116.7077941  39.9930484  91.2295206 118.6894173  39.6761020  87.8758949
 117.7389804  39.6762881  87.7623321 118.9926659  38.9293754  87.3594983
 118.6516967  46.0813841  86.6523901 119.3388007  45.7675571  86.0644916
 118.4965096  46.9855206  86.3791152 118.2284943  44.1614435  88.9241368
 118.2669043  43.6278025  89.7178486 117.7225236  43.6349640  88.3052345
 121.4798580  50.4898084  87.0249618 120.6430488  50.0620258  86.8433619
 121.4522225  50.6830527  87.9620409 120.7948076  43.5507432  86.8098550
 120.4750860  42.6972740  86.5172924 120.2481504  43.7656010  87.5656518
 120.6636336  47.1710344  88.7791672 119.9699808  46.7564296  88.2661626
 121.4109327  47.2130880  88.1825091 117.5380528  17.5296890  70.4697693
 117.4604558  18.4804716  70.5486174 116.9342172  17.1842763  71.1272620
 115.1767358  20.2782284  74.6145895 115.4163956  20.9100809  75.2924914
 114.3336555  19.9270324  74.9011255 115.6512190  16.3030287  71.9444674
 114.9822566  16.7876414  71.4608714 115.5125060  16.5499507  72.8588052
 119.7917459  18.3374030  78.5427332 120.3435767  18.5005652  79.3076417
 120.1323652  18.9278468  77.8707357 112.7516932  16.3794577  74.5119806
 112.6171400  15.6194978  73.9457804 112.3348994  17.1035477  74.0448594
 115.9086058  17.2763894  74.7238248 115.7918442  18.2209326  74.6216938
 115.0878504  16.9737455  75.1124047 116.9340572  17.9292156  77.9394177
 117.8367819  17.9615766  78.2560672 116.7077942  16.9992607  77.9540512
 118.6516968  23.0875964  73.3769207 119.3388008  22.7737694  72.7890223
 118.4965097  23.9917329  73.1036459 118.2284944  21.1676557  75.6486675
 118.2669044  20.6340148  76.4423793 117.7225237  20.6411763  75.0297652
 121.4798581  27.4960207  73.7494925 120.6430489  27.0682381  73.5678926
 121.4522226  27.6892650  74.6865716 120.7948077  20.5569555  73.5343857
 120.4750862  19.7034863  73.2418231 120.2481506  20.7718133  74.2901824
 120.6636337  24.1772466  75.5036978 119.9699809  23.7626419  74.9906933
 121.4109328  24.2193003  74.9070397  46.5358770  70.6134966 132.0032420
  45.8620469  70.9166662 132.6117377  46.9224592  71.4164046 131.6537877
  50.5015511  68.1920449 133.2772243  51.1966415  68.8127142 133.4959557
  50.8438661  67.3415800 133.5524621  44.5930379  68.2982201 132.1847336
  44.0204346  68.9172388 131.7317808  45.1663173  68.8481562 132.7187258
  47.8127639  68.5819351 133.3155919  48.7458312  68.5164913 133.5188794
  47.7250852  69.4175618 132.8570451  50.4415656  67.8985221 130.2759866
  50.3629287  67.5645085 131.1695624  51.2625322  68.3906989 130.2751339
  48.0119607  65.2153217 129.8969845  48.7155458  65.4203219 130.5127500
  47.2882256  65.7829978 130.1618928  49.9206305  65.6535746 131.9468305
  50.7551909  65.2216944 131.7645779  49.7590648  65.4817759 132.8745199
  51.3820160  72.1073293 132.4603257  50.5457472  72.4447980 132.7812532
  51.2424930  71.9722273 131.5230394  51.2558540  71.9520521 129.6601164
  50.3788007  71.8309321 129.2963411  51.7316293  71.1606599 129.4080053
  48.9577009  72.8919523 133.2182819  48.2646254  72.9663878 132.5622855
  48.7128761  72.1279867 133.7404336  54.0013849  72.8884908 129.4618274
  53.0945305  72.5918020 129.5380988  54.2789830  72.5914726 128.5952560
  52.7712634  69.7471843 129.6030253  53.6331798  70.0726741 129.8626071
  52.9562978  68.9603339 129.0903319  53.7242077  66.9867886 132.8909962
  53.7120747  67.9309726 133.0478233  54.6165499  66.8038031 132.5969424
  46.5358771  47.6197088 118.7277726  45.8620470  47.9228785 119.3362684
  46.9224593  48.4226168 118.3783183  50.5015512  45.1982572 120.0017549
  51.1966417  45.8189264 120.2204864  50.8438662  44.3477923 120.2769927
  44.5930380  45.3044323 118.9092643  44.0204348  45.9234510 118.4563115
  45.1663174  45.8543685 119.4432565  47.8127640  45.5881473 120.0401225
  48.7458313  45.5227035 120.2434101  47.7250853  46.4237740 119.5815758
  50.4415657  44.9047344 117.0005173  50.3629288  44.5707207 117.8940931
  51.2625324  45.3969112 116.9996645  48.0119609  42.2215339 116.6215151
  48.7155459  42.4265342 117.2372807  47.2882257  42.7892101 116.8864235
  49.9206306  42.6597868 118.6713611  50.7551910  42.2279067 118.4891086
  49.7590649  42.4879882 119.5990506  58.5490581  53.1767520 128.7668788
  59.1868991  53.0574267 128.0632128  58.4311424  54.1248363 128.8256740
  51.2167103  54.9830424 124.6927204  50.6531968  54.8920361 123.9243491
  51.1019498  54.1630328 125.1729696  56.7966662  58.6501392 120.0041669
  56.1454642  59.2355472 119.6175682  57.5911025  59.1807587 120.0636706
  50.7222289  55.7390529 120.4028803  51.4953165  55.1919516 120.2641679
  51.0747688  56.6034778 120.6143264  53.0588567  51.8983195 118.0347253
  53.3114088  51.3764716 117.2730716  52.1213126  51.7349340 118.1373936
  58.1031850  50.9018973 125.8421996  58.8894939  50.4838397 125.4912413
  58.3670554  51.8065066 126.0103644  58.2741927  56.3391824 120.5410653
  57.6387760  56.4126450 121.2531558  57.9439333  56.9285423 119.8629732
  63.5040277  50.8394207 126.7454975  64.2365449  50.2693423 126.9792804
  62.7479632  50.4515807 127.1861480  52.7784856  53.8011301 120.2371628
  52.6621114  53.1256204 120.9052712  52.8887115  53.3143675 119.4203781
  55.1216396  53.2621448 123.9418317  54.7574604  52.7352069 124.6531238
  55.9783512  52.8719917 123.7684802  54.7621883  48.2911348 118.9379666
  54.9296286  49.1591584 119.3050137  54.5719053  48.4538629 118.0140955
  54.7411104  50.7469005 119.9226332  54.6210730  51.1926056 120.7611813
  54.0463693  51.0954323 119.3639871  52.5017996  63.5172647 123.5716464
  52.4242026  64.4680472 123.6504944  51.8979640  63.1718520 124.2291390
  60.4396171  51.2190478 120.7506666  61.3514027  51.4517865 120.5754364
  59.9305818  51.8027523 120.1881745  59.0465753  56.2016297 128.1420248
  58.4174615  56.3662011 127.4396316  58.6591415  56.6157906 128.9131212
  62.9254985  57.1370735 125.4964612  62.2406023  57.5169636 124.9461645
  63.0098834  57.7466061 126.2296559  54.5993715  55.9390705 125.4070333
  55.0632060  56.2178408 124.6174955  54.3350513  55.0374150 125.2243424
  53.5362601  52.0613857 122.2159898  54.2386644  52.5134901 122.6833824
  53.2043229  51.4197676 122.8439791  61.2951744  57.6602649 130.2682313
  62.1169188  57.2582836 129.9864994  61.2914147  57.5570883 131.2198428
  69.3857737  54.0041398 126.6167284  68.6321446  53.4348796 126.4611288
  69.5205279  53.9704062 127.5637919  54.7756365  58.8754800 122.2922003
  54.6402040  59.7206336 122.7206851  55.3166178  59.0774078 121.5287937
  48.2285763  56.3930238 122.8649928  48.7410283  57.1873488 123.0155493
  48.8808476  55.6956528 122.7983530  50.0380647  59.5095994 124.9472682
  50.2147276  60.4313959 124.7593665  50.8337481  59.1954413 125.3767061
  51.1611963  61.0274168 130.9483024  51.7119388  60.8991231 130.1760018
  50.3223439  61.3269057 130.5977917  46.1934680  54.7218892 123.6409499
  47.0309902  55.1315901 123.4243207  46.3712947  53.7818334 123.6109693
  58.0899112  52.3893973 119.3293332  57.5745735  53.1598578 119.5681719
  57.8176420  51.7159109 119.9526393  55.6746223  47.2343674 124.3878570
  54.8187819  46.8450524 124.2084209  56.0873174  47.3135635 123.5278356
  63.0633386  55.1426328 121.2646505  62.2862829  54.8037487 120.8201667
  63.7424867  55.1478951 120.5901470  57.8785415  50.2621065 121.1553113
  57.5735550  50.5767214 122.0063256  58.8315857  50.3402485 121.1980446
  56.3231847  56.4211288 122.8046067  55.7953208  55.6864048 122.4919305
  55.8219349  57.1985965 122.5586035  61.3024693  54.6160309 127.9213113
  60.6448367  55.3059570 128.0093242  62.1065092  55.0056741 128.2647100
  60.1130152  52.9704682 125.9717055  60.6262033  53.6034673 126.4738765
  60.7631375  52.3705877 125.6060415  51.3820161  49.1135416 119.1848564
  50.5457474  49.4510102 119.5057839  51.2424931  48.9784395 118.2475701
  54.4684447  54.2391499 115.8081040  53.5611509  54.0080752 116.0072189
  54.9655479  53.4429118 115.9955022  57.3752526  62.9489006 118.7277726
  56.7014225  63.2520703 119.3362684  57.7618348  63.7518086 118.3783183
  57.3746030  51.8445553 123.3478076  58.1217849  52.3566950 123.0385198
  57.6437620  51.5229605 124.2082469  55.6472680  54.3404093 120.3305030
  54.7383900  54.0563126 120.4277500  55.6767764  54.7603172 119.4708337
  60.8791948  57.9510683 124.0996198  60.4254275  57.1101593 124.1561388
  60.2485914  58.5872081 124.4370978  59.8224867  48.8802669 125.3296865
  59.0847624  48.3680055 125.6607108  60.0751641  48.4403051 124.5180142
  59.3224887  59.7887180 125.0346016  59.6147861  60.3492237 124.3158382
  59.8323508  60.0815741 125.7899175  54.1957574  51.9532714 126.4314826
  54.2506184  51.0006550 126.3557302  53.3848776  52.1092153 126.9156124
  55.3448768  55.8812837 117.6693109  54.9068198  55.1648696 117.2098746
  56.0859209  56.1088952 117.1078200  52.1349934  50.5709774 124.1905204
  51.3217800  50.8703944 124.5970397  52.6308928  50.1765463 124.9079687
  54.2858512  60.5667531 126.1239469  54.2434691  60.7928377 125.1948001
  55.2021211  60.3330905 126.2725270  63.4621883  54.1570034 123.7269427
  63.3239781  54.3471630 122.7990617  63.1058102  54.9189417 124.1837478
  63.4891262  56.2246561 128.7380699  63.9227769  56.1321850 129.5863753
  64.2022843  56.2004062 128.1000715  52.4024313  57.4430560 125.9201432
  53.1964911  56.9480880 125.7184007  51.6916005  56.9148423 125.5569137
  57.2219157  59.8248655 130.2713799  57.2756180  60.3939592 131.0391515
  56.3533939  59.9950540 129.9067837  48.7107076  51.5873642 121.9961185
  47.7804664  51.5258097 122.2131147  48.8064548  51.0649594 121.1997826
  64.3506812  56.2670262 131.2713584  64.5442702  57.1716072 131.5172859
  64.2507430  55.8077681 132.1052169  54.9795589  58.0159582 129.5999269
  54.8406675  57.6478366 130.4725207  54.1910185  58.5307221 129.4283227
  55.5743741  63.1168678 120.9424805  55.7495497  62.6456721 121.7570428
  54.8876529  63.7434444 121.1706066  56.5300804  57.3941184 126.9888107
  56.1950637  57.3541954 127.8845757  56.0304750  56.7285900 126.5158517
  59.4659996  54.7397219 117.2625166  58.8489166  54.0144047 117.1658219
  58.9976484  55.5006579 116.9192241  50.1404826  66.2658041 127.7164666
  50.3801424  66.8976565 128.3943684  49.2974023  65.9146081 128.0030025
  51.2558542  48.9582643 116.3846471  50.3788008  48.8371444 116.0208717
  51.7316295  48.1668721 116.1325359  54.6532688  62.0737163 130.1206170
  54.5802860  62.8792135 130.6325474  54.2110081  62.2729129 129.2954191
  54.4422468  61.3108933 123.6308991  53.6589990  61.8530614 123.7247216
  55.1415213  61.8282913 124.0303232  65.6048875  52.8243928 127.9161488
  65.5938751  53.7068644 127.5455421  64.7366255  52.4715479 127.7216025
  57.1131372  61.9723997 132.2764328  57.8259344  62.6071462 132.2040230
  56.6221400  62.0687863 131.4604330  58.8348898  55.8775250 123.8481620
  57.9005177  55.9976713 123.6786324  59.0125567  54.9747717 123.5841630
  62.2221450  51.7192569 124.3831654  62.6881902  52.5520561 124.3091957
  62.6728950  51.2537551 125.0876913  60.2897681  58.0636391 121.3817806
  60.5657525  57.9492985 122.2911680  59.4202180  57.6653876 121.3429979
  56.9251745  62.3122742 125.0250620  57.1074139  61.4944397 125.4878372
  57.7484731  62.5290434 124.5875510  57.2593910  61.2390927 122.2865668
  57.7881677  60.7283381 121.6735830  57.5222130  60.9233457 123.1511201
  50.6149658  62.2906043 125.0463444  49.9460034  62.7752171 124.5627484
  50.4762528  62.5375264 125.9606823  54.7554927  64.3249787 131.6446103
  55.3073235  64.4881408 132.4095188  55.0961120  64.9154225 130.9726127
  45.9837235  50.5524498 121.8259376  46.2790677  49.6435177 121.7726430
  45.0825271  50.5312238 121.5040379  57.8923314  62.2731762 128.6309785
  57.7674454  61.4721502 128.1220730  58.5502405  62.7677956 128.1423755
  59.9558223  60.0740783 130.2589335  59.0088558  59.9546134 130.1867661
  60.3040996  59.1863281 130.3415596  56.9604656  59.8693499 126.4593687
  56.8129618  58.9410206 126.6401257  57.7858149  59.8913589 125.9750762
  50.8266900  48.5211566 122.3174179  51.1662973  49.0497487 121.5952787
  51.2739021  48.8591972 123.0932746  60.5638778  60.6922057 127.5458560
  61.4885325  60.4864919 127.4083011  60.3954081  60.4438459 128.4547901
  52.8135047  47.0186187 120.5167472  53.5343410  47.3967440 120.0131189
  52.1900351  47.7375064 120.6202450  56.9566170  47.7231336 121.4525804
  57.1729785  48.6055974 121.1514632  56.4760237  47.3317550 120.7231446
  60.3534094  61.2107725 122.9020651  60.5270972  60.6454147 122.1494504
  60.8462985  62.0108620 122.7200141  66.2073485  53.9744148 124.5210951
  66.6504631  53.2251473 124.1230074  65.3299995  53.9654284 124.1384683
  61.3409266  60.5274489 120.0017549  62.0360171  61.1481182 120.2204864
  61.6832417  59.6769841 120.2769927  63.2400690  57.9774195 121.5304880
  63.7652014  58.3161468 120.8054200  63.1523042  57.0421210 121.3468015
  54.9241350  64.0446178 125.8900133  54.4846341  63.5522557 126.5832990
  55.6749467  63.5019146 125.6492209  47.4033689  60.2357719 125.8924761
  48.2291709  59.9361491 125.5123405  47.0527741  59.4665341 126.3414550
  52.3715222  59.5884187 127.9622435  51.7495232  58.9254892 127.6624663
  53.0420089  59.6145319 127.2796083  51.9328729  58.1388111 121.4380896
  52.0816850  58.8223575 120.7847568  52.7395173  58.1193201 121.9530351
  65.7506350  55.4449386 126.9133399  66.5853241  55.8839190 127.0770959
  65.8865479  54.9688039 126.0941644  49.6881362  54.1653288 122.4441965
  49.4427404  53.2615618 122.6422175  49.8577277  54.1670439 121.5021443
  48.9577010  49.8981646 119.9428126  48.2646255  49.9726001 119.2868162
  48.7128762  49.1341989 120.4649643  55.4324135  60.6336241 118.9092643
  54.8598102  61.2526428 118.4563115  56.0056929  61.1835603 119.4432565
  58.6521395  60.9173391 120.0401225  59.5852068  60.8518953 120.2434101
  58.5644608  61.7529658 119.5815758  61.2809411  60.2339261 117.0005173
  61.2023043  59.8999125 117.8940931  62.1019078  60.7261029 116.9996645
  63.9787603  53.1001001 130.2081492  63.9463923  52.1617002 130.3941175
  64.5888226  53.1785037 129.4747316  55.8170933  51.9697054 116.2508696
  56.7630038  51.8403262 116.3197114  55.4385178  51.2311716 116.7278124
  69.7964152  54.1617008 129.3487528  70.5267541  53.9002296 129.9095232
  69.1871098  53.4245730 129.3889596  67.8779450  52.3024870 129.9461980
  67.1512613  52.1680835 129.3378471  67.4626736  52.6101699 130.7518698
  54.0013851  49.8947030 116.1863581  53.0945306  49.5980143 116.2626294
  54.2789832  49.5976848 115.3197867  55.6175916  44.4383920 122.3407822
  54.8076645  44.0931005 122.7163068  56.3060333  44.1291464 122.9295434
  52.7712635  46.7533965 116.3275560  53.6331799  47.0788864 116.5871377
  52.9562979  45.9665461 115.8148626  60.9245272  45.6262492 123.4710783
  60.3443941  46.2847296 123.0888835  60.6581204  44.8039836 123.0598200
  59.7070150  47.7862582 122.5267131  58.8196005  48.0712233 122.3087326
  60.1224139  47.6256346 121.6794408  63.0584686  47.8109103 126.2421470
  63.8345076  48.3005556 126.5146087  62.3332820  48.2367157 126.6993340
  65.4957244  48.5236722 127.2995411  66.0901735  48.2832458 126.5888719
  65.5683828  47.8043853 127.9268947  47.7154400  62.3670333 127.6138576
  47.5808868  61.6070734 127.0476574  47.2986462  63.0911233 127.1467365
  58.8513363  57.5507257 116.6215151  59.5549213  57.7557259 117.2372807
  58.1276012  58.1184019 116.8864235  59.6811173  53.3017118 122.7417421
  59.6246375  53.7585670 121.9025054  60.2339516  52.5407803 122.5640264
  63.4915979  49.0906850 123.5667541  63.2352914  48.6903486 124.3975749
  62.8668847  49.8050644 123.4417680  67.8028317  51.8302923 126.0738832
  67.2427875  51.8996113 126.8470394  67.1971821  51.6543908 125.3538329
  50.8723526  63.2639650 127.8257019  50.7555910  64.2085083 127.7235709
  50.0515972  62.9613212 128.2142818  60.7600061  57.9889786 118.6713611
  61.5945664  57.5570985 118.4891086  60.5984403  57.8171800 119.5990506
  60.4145953  54.4921899 120.0369951  60.3594757  54.3266171 119.0958395
  59.7892008  55.1997932 120.1932140  53.7242078  43.9930008 119.6155269
  53.7120748  44.9371848 119.7723540  54.6165500  43.8100154 119.3214730
  51.8978040  63.9167912 131.0412947  52.8005287  63.9491523 131.3579442
  51.6715410  62.9868363 131.0559283  53.6531642  62.6698899 127.7023026
  52.7027273  62.6700760 127.5887398  53.9564128  61.9231633 127.1859060
  62.0560858  70.3122342 124.6927204  61.4925723  70.2212279 123.9243491
  61.9413253  69.4922246 125.1729696  59.6025290  71.8073533 127.5311424
  60.3946581  71.4664358 127.1157723  59.8421940  71.9168508 128.4513577
  67.6360416  73.9793309 120.0041669  66.9848396  74.5647390 119.6175682
  68.4304779  74.5099504 120.0636706  61.5616043  71.0682447 120.4028803
  62.3346919  70.5211434 120.2641679  61.9141442  71.9326696 120.6143264
  63.8982321  67.2275113 118.0347253  64.1507842  66.7056634 117.2730716
  62.9606880  67.0641258 118.1373936  68.9425604  66.2310891 125.8421996
  69.7288693  65.8130314 125.4912413  69.2064308  67.1356983 126.0103644
  69.1135681  71.6683741 120.5410653  68.4781514  71.7418368 121.2531558
  68.7833088  72.2577340 119.8629732  63.6178610  69.1303219 120.2371628
  63.5014868  68.4548122 120.9052712  63.7280870  68.6435593 119.4203781
  65.9610151  68.5913366 123.9418317  65.5968358  68.0643987 124.6531238
  66.8177267  68.2011835 123.7684802  65.6015638  63.6203265 118.9379666
  65.7690040  64.4883502 119.3050137  65.4112807  63.7830547 118.0140955
  61.8103453  68.5334041 126.6382200  60.8853949  68.4010255 126.8459892
  62.0587866  69.3128260 127.1352143  65.5804859  66.0760923 119.9226332
  65.4604484  66.5217974 120.7611813  64.8857447  66.4246241 119.3639871
  59.1712264  68.1767315 127.4725989  59.3004645  68.4301794 128.3865401
  58.4909715  68.7695023 127.1530644  71.2789925  66.5482396 120.7506666
  72.1907781  66.7809783 120.5754364  70.7699572  67.1319440 120.1881745
  68.6225900  62.7240432 128.9996527  67.7610379  63.0221686 129.2913265
  68.6488334  62.9410831 128.0677560  65.4387469  71.2682623 125.4070333
  65.9025815  71.5470326 124.6174955  65.1744267  70.3666067 125.2243424
  64.3756355  67.3905775 122.2159898  65.0780399  67.8426819 122.6833824
  64.0436984  66.7489594 122.8439791  58.1181689  65.6489328 127.5177032
  57.3280743  65.9046856 127.0417142  58.6092937  66.4637666 127.6229072
  60.0696435  66.0133907 124.4760508  59.2727598  66.1252601 124.9944004
  59.8422027  66.3520559 123.6101399  56.4019392  65.9019818 129.9492022
  56.6527431  66.7866828 130.2149598  56.9378941  65.7224420 129.1767114
  65.6150120  74.2046718 122.2922003  65.4795795  75.0498253 122.7206851
  66.1559932  74.4065995 121.5287937  59.0679517  71.7222156 122.8649928
  59.5804038  72.5165406 123.0155493  59.7202230  71.0248446 122.7983530
  60.8774402  74.8387912 124.9472682  61.0541030  75.7605877 124.7593665
  61.6731235  74.5246331 125.3767061  68.9642583  57.7277280 130.8220897
  68.6206853  58.6178921 130.7460007  69.3321546  57.5378937 129.9590482
  57.0328434  70.0510810 123.6409499  57.8703656  70.4607818 123.4243207
  57.2106702  69.1110252 123.6109693  68.9292866  67.7185891 119.3293332
  68.4139490  68.4890495 119.5681719  68.6570175  67.0451027 119.9526393
  66.5139977  62.5635591 124.3878570  65.6581574  62.1742442 124.2084209
  66.9266929  62.6427552 123.5278356  68.0439124  60.0981935 128.7870130
  67.5403919  60.0612070 127.9737935  68.3369731  61.0074677 128.8466787
  64.2882010  60.1820664 127.7936312  65.1535006  59.9863473 127.4342201
  64.3559519  59.9531016 128.7205669  73.9027140  70.4718245 121.2646505
  73.1256583  70.1329405 120.8201667  74.5818621  70.4770868 120.5901470
  68.7179169  65.5912983 121.1553113  68.4129305  65.9059132 122.0063256
  69.6709611  65.6694403 121.1980446  67.1625601  71.7503206 122.8046067
  66.6346963  71.0155966 122.4919305  66.6613104  72.5277882 122.5586035
  61.8944329  62.4122872 125.1652679  62.4688081  62.1898054 124.4325872
  62.4815311  62.4811567 125.9181280  62.2213916  64.4427333 119.1848564
  61.3851228  64.7802020 119.5057839  62.0818686  64.3076313 118.2475701
  64.1966996  59.2864121 123.8927748  63.5431409  58.9713138 123.2684363
  64.1547471  58.6639862 124.6187571  65.3078201  69.5683416 115.8081040
  64.4005263  69.3372670 116.0072189  65.8049233  68.7721036 115.9955022
  68.2146280  78.2780923 118.7277726  67.5407979  78.5812620 119.3362684
  68.6012102  79.0810004 118.3783183  67.4304737  65.7746055 128.2175396
  66.5127298  65.9961002 128.0597084  67.8464880  65.8492365 127.3587103
  68.2139785  67.1737470 123.3478076  68.9611604  67.6858868 123.0385198
  68.4831374  66.8521523 124.2082469  66.4866435  69.6696011 120.3305030
  65.5777654  69.3855044 120.4277500  66.5161519  70.0895090 119.4708337
  70.6618622  64.2094587 125.3296865  69.9241379  63.6971973 125.6607108
  70.9145395  63.7694968 124.5180142  70.7630249  56.9870839 125.9238634
  71.0689126  56.1268202 125.6364550  71.4882854  57.5788459 125.7237628
  57.0554605  67.3901525 124.3120232  56.8579005  66.7970886 123.5871299
  56.5001269  67.0853735 125.0296171  65.0351329  67.2824632 126.4314826
  65.0899939  66.3298468 126.3557302  64.2242531  67.4384071 126.9156124
  66.1842523  71.2104755 117.6693109  65.7461953  70.4940614 117.2098746
  66.9252963  71.4380870 117.1078200  62.9743689  65.9001692 124.1905204
  62.1611554  66.1995862 124.5970397  63.4702683  65.5057380 124.9079687
  74.3015637  69.4861952 123.7269427  74.1633536  69.6763548 122.7990617
  73.9451856  70.2481335 124.1837478  62.4657764  63.4720047 129.8066439
  63.1057143  63.3308806 129.1089403  61.6335294  63.1854560 129.4305041
  63.2418067  72.7722477 125.9201432  64.0358666  72.2772798 125.7184007
  62.5309760  72.2440341 125.5569137  59.5500831  66.9165559 121.9961185
  58.6198419  66.8550015 122.2131147  59.6458303  66.3941512 121.1997826
  59.4686380  63.4420372 124.5839426  59.7293197  64.3565705 124.4748587
  60.2903552  62.9744815 124.7336039  60.9411305  64.8558129 131.7538251
  61.6134359  64.6475491 131.1050900  60.1141092  64.6580215 131.3143483
  66.4137495  78.4460596 120.9424805  66.5889251  77.9748639 121.7570428
  65.7270283  79.0726362 121.1706066  70.3053750  70.0689136 117.2625166
  69.6882921  69.3435965 117.1658219  69.8370239  70.8298497 116.9192241
  62.0952296  64.2874561 116.3846471  61.2181762  64.1663362 116.0208717
  62.5710049  63.4960639 116.1325359  53.6154436  69.0751721 126.4787978
  54.3025476  68.7613451 125.8908993  53.4602565  69.9793085 126.2055229
  58.4189158  63.9641917 130.9073001  58.3347347  63.3567587 130.1723411
  57.5971865  64.4550935 130.9082498  68.5912872  62.4495481 126.2743197
  69.0881572  61.6965443 125.9544267  67.8199854  62.4859797 125.7086406
  69.6742653  71.2067168 123.8481620  68.7398932  71.3268630 123.6786324
  69.8519321  70.3039635 123.5841630  65.1747841  64.5912864 126.0014881
  64.8045629  64.0383904 126.6895787  65.6706933  63.9870997 125.4489881
  73.0615204  67.0484487 124.3831654  73.5275657  67.8812479 124.3091957
  73.5122705  66.5829469 125.0876913  71.1291435  73.3928308 121.3817806
  71.4051279  73.2784903 122.2911680  70.2595934  72.9945793 121.3429979
  71.0331867  59.4165074 128.4222555  70.1194947  59.6469301 128.5904762
  71.4624969  59.5003518 129.2736588  68.0987665  76.5682844 122.2865668
  68.6275431  76.0575299 121.6735830  68.3615885  76.2525375 123.1511201
  53.1922412  67.1552314 128.7505445  53.2306512  66.6215905 129.5442563
  52.6862705  66.6287519 128.1316422  60.5713175  62.0016854 132.2467987
  60.6354501  62.8631685 131.8345385  60.5080295  61.3890856 131.5140346
  56.8230990  65.8816416 121.8259376  57.1184431  64.9727094 121.7726430
  55.9219026  65.8604155 121.5040379  60.3525237  63.9572413 127.8086925
  59.6311823  64.5708380 127.6694398  61.1418493  64.4930177 127.7303571
  58.5518832  63.5630514 121.9498701  58.2231538  62.6827893 121.7673807
  58.9058202  63.5078182 122.8375091  61.6660655  63.8503483 122.3174179
  62.0056727  64.3789405 121.5952787  62.1132775  64.1883890 123.0932746
  64.3604096  62.2340534 131.7677247  64.0200916  61.4348347 132.1697927
  63.6543102  62.5342245 131.1954080  65.0120567  59.3189847 130.2204570
  65.8346637  58.8450325 130.0983461  65.2558631  60.0980330 130.7203256
  63.6528802  62.3478105 120.5167472  64.3737164  62.7259358 120.0131189
  63.0294106  63.0666982 120.6202450  67.7959925  63.0523254 121.4525804
  68.0123539  63.9347892 121.1514632  67.3153992  62.6609467 120.7231446
  62.5359146  66.0108967 128.0296549  62.3903727  66.3249270 128.9220830
  62.0584350  66.6293868 127.4767447  64.3955529  63.0011515 128.0777438
  64.3817098  62.1052609 127.7409736  65.1127957  63.0082179 128.7115724
  66.2481660  63.4348855 130.1230566  65.9899438  64.3565926 130.1214896
  65.7166700  63.0379290 130.8131030  57.0104808  68.5514312 130.9684210
  56.4658276  69.3274120 131.1004484  57.8884158  68.8985116 130.8103331
  63.7992425  61.8825896 123.3465009  63.9208336  60.9542542 123.5455896
  63.5094467  61.8964582 122.4343324  66.6683615  59.5680806 126.4831728
  66.6905312  59.6320139 125.5283708  67.0851674  58.7285315 126.6772235
  72.1803021  75.8566407 120.0017549  72.8753926  76.4773100 120.2204864
  72.5226171  75.0061758 120.2769927  74.0794444  73.3066113 121.5304880
  74.6045768  73.6453385 120.8054200  73.9916797  72.3713128 121.3468015
  58.2427444  75.5649637 125.8924761  59.0685464  75.2653409 125.5123405
  57.8921496  74.7957259 126.3414550  56.4436049  73.4835963 126.8513695
  55.6067957  73.0558137 126.6697696  56.4159694  73.6768406 127.7884486
  62.7722484  73.4680028 121.4380896  62.9210604  74.1515493 120.7847568
  63.5788927  73.4485118 121.9530351  60.5275117  69.4945206 122.4441965
  60.2821159  68.5907536 122.6422175  60.6971031  69.4962356 121.5021443
  59.7970764  65.2273563 119.9428126  59.1040009  65.3017918 119.2868162
  59.5522516  64.4633907 120.4649643  68.4684421  56.7869165 127.3467617
  68.7486175  56.1192354 127.9728043  69.2535028  56.9798260 126.8342281
  66.2717889  75.9628159 118.9092643  65.6991856  76.5818346 118.4563115
  66.8450683  76.5127520 119.4432565  69.4915149  76.2465309 120.0401225
  70.4245822  76.1810870 120.2434101  69.4038362  77.0821576 119.5815758
  72.1203166  75.5631179 117.0005173  72.0416797  75.2291043 117.8940931
  72.9412833  76.0552947 116.9996645  66.6564688  67.2988971 116.2508696
  67.6023793  67.1695180 116.3197114  66.2778933  66.5603633 116.7278124
  72.6286572  58.9644977 126.2135587  72.4311394  58.6560066 127.0978919
  73.2386278  59.6906616 126.3433517  64.8407605  65.2238948 116.1863581
  63.9339060  64.9272061 116.2626294  65.1183586  64.9268766 115.3197867
  55.7585545  66.5445311 126.6362627  55.4388330  65.6910619 126.3437001
  55.2118974  66.7593889 127.3920595  66.4569671  59.7675838 122.3407822
  65.6470399  59.4222923 122.7163068  67.1454088  59.4583381 122.9295434
  68.3860219  58.8453884 123.9632119  68.9391258  59.2649338 124.6222142
  68.6230305  57.9189632 124.0055075  63.6106390  62.0825883 116.3275560
  64.4725554  62.4080781 116.5871377  63.7956734  61.2957379 115.8148626
  55.6273805  70.1648223 128.6055749  54.9337277  69.7502176 128.0925703
  56.3746796  70.2068759 128.0089168  71.7639026  60.9554409 123.4710783
  71.1837695  61.6139214 123.0888835  71.4974959  60.1331754 123.0598200
  70.2142593  60.3559467 125.6732103  70.7142371  60.4676002 124.8646422
  70.8578200  60.0520520 126.3132912  57.5410548  70.0966476 126.4821764
  57.5181236  70.1954164 125.5303647  57.8511184  70.9431627 126.8038930
  70.5463904  63.1154500 122.5267131  69.6589759  63.4004151 122.3087326
  70.9617893  62.9548263 121.6794408  73.8978440  63.1401021 126.2421470
  74.6738830  63.6297473 126.5146087  73.1726574  63.5659075 126.6993340
  69.6907118  72.8799175 116.6215151  70.3942968  73.0849177 117.2372807
  68.9669766  73.4475936 116.8864235  70.5204928  68.6309036 122.7417421
  70.4640129  69.0877587 121.9025054  71.0733270  67.8699720 122.5640264
  74.3309734  64.4198768 123.5667541  74.0746668  64.0195403 124.3975749
  73.7062602  65.1342562 123.4417680  71.5993815  73.3181704 118.6713611
  72.4339419  72.8862902 118.4891086  71.4378158  73.1463717 119.5990506
  71.2539707  69.8213817 120.0369951  71.1988511  69.6558088 119.0958395
  70.6285763  70.5289850 120.1932140  56.0432222  65.0581881 133.8631373
  56.6891086  64.5480835 134.3518598  55.8349373  65.7950563 134.4374798
  64.5635833  59.3221926 119.6155269  64.5514503  60.2663766 119.7723540
  65.4559255  59.1392071 119.3214730  68.3787952  55.9164703 123.8701206
  67.6120348  55.3623189 124.0157888  68.7898657  55.9886571 124.7315357
  73.0607670  79.7719251 119.1848564  72.2244983  80.1093938 119.5057839
  72.9212440  79.6368231 118.2475701  72.9346051  79.6166478 116.3846471
  72.0575517  79.4955279 116.0208717  73.4103804  78.8252557 116.1325359
  70.6364519  80.5565481 119.9428126  69.9433764  80.6309836 119.2868162
  70.3916271  79.7925825 120.4649643  75.6801360  80.5530865 116.1863581
  74.7732815  80.2563978 116.2626294  75.9577341  80.2560684 115.3197867
  74.4500144  77.4117801 116.3275560  75.3119308  77.7372699 116.5871377
  74.6350488  76.6249297 115.8148626  75.4029587  74.6513844 119.6155269
  75.3908257  75.5955684 119.7723540  76.2953009  74.4683989 119.3214730
  46.5358773  24.6259211 105.4523033  45.8620471  24.9290907 106.0607991
  46.9224594  25.4288291 105.1028490  50.5015513  22.2044694 106.7262856
  51.1966418  22.8251387 106.9450171  50.8438663  21.3540045 107.0015234
  44.5930382  22.3106446 105.6337950  44.0204349  22.9296633 105.1808422
  45.1663175  22.8605808 106.1677872  47.8127641  22.5943596 106.7646532
  48.7458315  22.5289158 106.9679407  47.7250854  23.4299863 106.3061065
  50.4415658  21.9109466 103.7250480  50.3629290  21.5769330 104.6186237
  51.2625325  22.4031234 103.7241952  48.0119610  19.2277462 103.3460458
  48.7155460  19.4327464 103.9618113  47.2882259  19.7954224 103.6109541
  49.9206307  19.6659991 105.3958918  50.7551911  19.2341189 105.2136393
  49.7590650  19.4942005 106.3235812  58.5490582  30.1829642 115.4914095
  59.1868992  30.0636389 114.7877435  58.4311425  31.1310486 115.5502047
  51.2167104  31.9892547 111.4172510  50.6531970  31.8982484 110.6488798
  51.1019499  31.1692451 111.8975003  56.7966663  35.6563514 106.7286975
  56.1454643  36.2417595 106.3420989  57.5911026  36.1869709 106.7882013
  50.7222290  32.7452651 107.1274110  51.4953166  32.1981639 106.9886985
  51.0747689  33.6096901 107.3388571  53.0588568  28.9045318 104.7592559
  53.3114089  28.3826839 103.9976022  52.1213127  28.7411463 104.8619243
  58.1031851  27.9081096 112.5667303  58.8894940  27.4900519 112.2157720
  58.3670555  28.8127188 112.7348951  58.2741928  33.3453946 107.2655960
  57.6387761  33.4188573 107.9776864  57.9439335  33.9347545 106.5875039
  63.5040278  27.8456329 113.4700281  64.2365450  27.2755546 113.7038111
  62.7479634  27.4577930 113.9106787  52.7784857  30.8073424 106.9616934
  52.6621115  30.1318327 107.6298019  52.8887117  30.3205797 106.1449087
  55.1216398  30.2683571 110.6663624  54.7574605  29.7414192 111.3776545
  55.9783514  29.8782040 110.4930109  54.7621885  25.2973470 105.6624972
  54.9296287  26.1653707 106.0295443  54.5719054  25.4600752 104.7386261
  54.7411106  27.7531128 106.6471639  54.6210731  28.1988179 107.4857119
  54.0463694  28.1016446 106.0885177  52.5017998  40.5234770 110.2961770
  52.4242027  41.4742595 110.3750251  51.8979641  40.1780642 110.9536697
  60.4396172  28.2252601 107.4751973  61.3514028  28.4579988 107.2999671
  59.9305819  28.8089645 106.9127052  59.0465754  33.2078419 114.8665555
  58.4174617  33.3724134 114.1641622  58.6591416  33.6220029 115.6376519
  62.9254986  34.1432857 112.2209918  62.2406024  34.5231759 111.6706952
  63.0098835  34.7528184 112.9541866  54.5993716  32.9452828 112.1315640
  55.0632061  33.2240531 111.3420262  54.3350514  32.0436272 111.9488730
  53.5362602  29.0675980 108.9405205  54.2386645  29.5197024 109.4079131
  53.2043231  28.4259799 109.5685098  61.2951746  34.6664772 116.9927619
  62.1169189  34.2644959 116.7110301  61.2914148  34.5633006 117.9443735
  69.3857739  31.0103520 113.3412591  68.6321447  30.4410918 113.1856595
  69.5205280  30.9766185 114.2883225  54.7756367  35.8816923 109.0167310
  54.6402041  36.7268458 109.4452158  55.3166179  36.0836200 108.2533244
  48.2285764  33.3992361 109.5895235  48.7410285  34.1935611 109.7400800
  48.8808477  32.7018651 109.5228837  50.0380649  36.5158117 111.6717988
  50.2147277  37.4376082 111.4838972  50.8337482  36.2016536 112.1012368
  51.1611964  38.0336291 117.6728331  51.7119389  37.9053354 116.9005325
  50.3223440  38.3331180 117.3223223  46.1934681  31.7281015 110.3654806
  47.0309903  32.1378023 110.1488513  46.3712949  30.7880457 110.3354999
  58.0899113  29.3956096 106.0538639  57.5745736  30.1660700 106.2927026
  57.8176421  28.7221232 106.6771700  55.6746224  24.2405796 111.1123877
  54.8187820  23.8512647 110.9329516  56.0873176  24.3197757 110.2523662
  63.0633387  32.1488450 107.9891812  62.2862830  31.8099610 107.5446974
  63.7424868  32.1541073 107.3146777  57.8785416  27.2683188 107.8798420
  57.5735552  27.5829337 108.7308563  58.8315858  27.3464608 107.9225753
  56.3231848  33.4273411 109.5291374  55.7953210  32.6926171 109.2164611
  55.8219351  34.2048087 109.2831342  61.3024694  31.6222431 114.6458420
  60.6448368  32.3121693 114.7338549  62.1065093  32.0118863 114.9892406
  60.1130153  29.9766804 112.6962362  60.6262035  30.6096796 113.1984071
  60.7631377  29.3768000 112.3305722  51.3820163  26.1197538 105.9093870
  50.5457475  26.4572225 106.2303145  51.2424932  25.9846518 104.9721007
  54.4684448  31.2453621 102.5326347  53.5611510  31.0142875 102.7317496
  54.9655480  30.4491240 102.7200328  57.3752527  39.9551128 105.4523033
  56.7014226  40.2582825 106.0607991  57.7618349  40.7580209 105.1028490
  57.3746031  28.8507675 110.0723383  58.1217850  29.3629073 109.7630505
  57.6437621  28.5291728 110.9327776  55.6472682  31.3466216 107.0550337
  54.7383901  31.0625249 107.1522807  55.6767765  31.7665295 106.1953644
  60.8791949  34.9572806 110.8241504  60.4254276  34.1163715 110.8806695
  60.2485916  35.5934204 111.1616285  59.8224869  25.8864792 112.0542172
  59.0847625  25.3742178 112.3852414  60.0751642  25.4465173 111.2425449
  59.3224888  36.7949302 111.7591323  59.6147863  37.3554359 111.0403688
  59.8323509  37.0877863 112.5144482  54.1957576  28.9594837 113.1560132
  54.2506185  28.0068673 113.0802609  53.3848778  29.1154276 113.6401431
  55.3448769  32.8874960 104.3938415  54.9068199  32.1710819 103.9344053
  56.0859210  33.1151075 103.8323507  52.1349936  27.5771896 110.9150511
  51.3217801  27.8766067 111.3215703  52.6308930  27.1827585 111.6324993
  54.2858513  37.5729653 112.8484776  54.2434692  37.7990500 111.9193308
  55.2021212  37.3393028 112.9970577  63.4621884  31.1632157 110.4514734
  63.3239783  31.3533753 109.5235923  63.1058103  31.9251540 110.9082785
  63.4891264  33.2308684 115.4626005  63.9227770  33.1383973 116.3109060
  64.2022844  33.2066184 114.8246021  52.4024314  34.4492682 112.6446738
  53.1964913  33.9543003 112.4429313  51.6916007  33.9210546 112.2814444
  57.2219159  36.8310778 116.9959106  57.2756181  37.4001714 117.7636822
  56.3533940  37.0012663 116.6313143  48.7107078  28.5935764 108.7206491
  47.7804666  28.5320220 108.9376453  48.8064550  28.0711717 107.9243132
  64.3506813  33.2732384 117.9958891  64.5442703  34.1778195 118.2418166
  64.2507431  32.8139804 118.8297476  54.9795590  35.0221704 116.3244576
  54.8406676  34.6540489 117.1970514  54.1910186  35.5369344 116.1528533
  55.5743742  40.1230801 107.6670112  55.7495498  39.6518844 108.4815735
  54.8876530  40.7496567 107.8951373  56.5300805  34.4003307 113.7133413
  56.1950638  34.3604077 114.6091063  56.0304751  33.7348023 113.2403824
  59.4659997  31.7459341 103.9870473  58.8489168  31.0206170 103.8903526
  58.9976485  32.5068702 103.6437547  50.1404827  43.2720164 114.4409972
  50.3801426  43.9038688 115.1188991  49.2974024  42.9208204 114.7275332
  51.2558543  25.9644766 103.1091777  50.3788009  25.8433566 102.7454024
  51.7316296  25.1730844 102.8570666  54.6532689  39.0799286 116.8451476
  54.5802861  39.8854258 117.3570781  54.2110082  39.2791252 116.0199498
  54.4422469  38.3171056 110.3554298  53.6589991  38.8592736 110.4492522
  55.1415214  38.8345036 110.7548539  65.6048876  29.8306051 114.6406795
  65.5938753  30.7130766 114.2700728  64.7366256  29.4777602 114.4461332
  57.1131373  38.9786120 119.0009635  57.8259345  39.6133585 118.9285536
  56.6221401  39.0749986 118.1849637  58.8348900  32.8837373 110.5726927
  57.9005178  33.0038835 110.4031631  59.0125568  31.9809840 110.3086936
  62.2221451  28.7254692 111.1076961  62.6881903  29.5582684 111.0337263
  62.6728952  28.2599674 111.8122219  60.2897682  35.0698513 108.1063113
  60.5657526  34.9555108 109.0156987  59.4202181  34.6715998 108.0675286
  56.9251746  39.3184864 111.7495926  57.1074141  38.5006520 112.2123679
  57.7484732  39.5352556 111.3120816  57.2593912  38.2453049 109.0110975
  57.7881678  37.7345504 108.3981137  57.5222131  37.9295580 109.8756508
  50.6149660  39.2968166 111.7708751  49.9460035  39.7814294 111.2872791
  50.4762529  39.5437386 112.6852129  54.7554928  41.3311909 118.3691409
  55.3073236  41.4943531 119.1340494  55.0961122  41.9216347 117.6971434
  45.9837237  27.5586621 108.5504683  46.2790678  26.6497299 108.4971737
  45.0825272  27.5374360 108.2285685  57.8923315  39.2793885 115.3555091
  57.7674455  38.4783625 114.8466037  58.5502407  39.7740078 114.8669061
  59.9558224  37.0802905 116.9834641  59.0088559  36.9608256 116.9112968
  60.3040997  36.1925403 117.0660903  56.9604657  36.8755621 113.1838994
  56.8129620  35.9472329 113.3646564  57.7858151  36.8975712 112.6996069
  50.8266901  25.5273688 109.0419486  51.1662974  26.0559610 108.3198094
  51.2739022  25.8654095 109.8178052  60.5638779  37.6984180 114.2703866
  61.4885326  37.4927041 114.1328318  60.3954082  37.4500581 115.1793208
  52.8135049  24.0248310 107.2412779  53.5343411  24.4029563 106.7376495
  52.1900353  24.7437187 107.3447756  56.9566171  24.7293459 108.1771111
  57.1729786  25.6118097 107.8759939  56.4760239  24.3379672 107.4476753
  60.3534095  38.2169848 109.6265958  60.5270973  37.6516270 108.8739810
  60.8462986  39.0170742 109.4445448  66.2073486  30.9806270 111.2456258
  66.6504632  30.2313596 110.8475381  65.3299997  30.9716407 110.8629990
  61.3409268  37.5336612 106.7262856  62.0360172  38.1543305 106.9450171
  61.6832418  36.6831963 107.0015234  63.2400691  34.9836317 108.2550187
  63.7652015  35.3223590 107.5299507  63.1523043  34.0483333 108.0713321
  54.9241352  41.0508301 112.6145440  54.4846342  40.5584679 113.3078297
  55.6749469  40.5081268 112.3737515  47.4033691  37.2419842 112.6170068
  48.2291710  36.9423613 112.2368712  47.0527743  36.4727464 113.0659857
  52.3715224  36.5946310 114.6867742  51.7495233  35.9317015 114.3869970
  53.0420091  36.6207442 114.0041390  51.9328731  35.1450233 108.1626202
  52.0816851  35.8285698 107.5092875  52.7395174  35.1255323 108.6775658
  65.7506351  32.4511509 113.6378705  66.5853242  32.8901313 113.8016265
  65.8865480  31.9750162 112.8186951  49.6881364  31.1715411 109.1687271
  49.4427406  30.2677741 109.3667481  49.8577278  31.1732561 108.2266749
  48.9577011  26.9043768 106.6673433  48.2646256  26.9788123 106.0113469
  48.7128763  26.1404112 107.1894950  55.4324136  37.6398364 105.6337950
  54.8598103  38.2588551 105.1808422  56.0056930  38.1897725 106.1677872
  58.6521396  37.9235514 106.7646532  59.5852069  37.8581075 106.9679407
  58.5644609  38.7591781 106.3061065  61.2809413  37.2401384 103.7250480
  61.2023044  36.9061248 104.6186237  62.1019079  37.7323152 103.7241952
  63.9787604  30.1063123 116.9326798  63.9463924  29.1679124 117.1186482
  64.5888227  30.1847160 116.1992623  55.8170935  28.9759176 102.9754002
  56.7630039  28.8465384 103.0442420  55.4385180  28.2373838 103.4523430
  69.7964154  31.1679130 116.0732835  70.5267542  30.9064418 116.6340538
  69.1871099  30.4307852 116.1134903  67.8779451  29.3086993 116.6707286
  67.1512614  29.1742958 116.0623778  67.4626738  29.6163821 117.4764004
  54.0013852  26.9009153 102.9108887  53.0945307  26.6042265 102.9871601
  54.2789833  26.6038971 102.0443174  55.6175918  21.4446042 109.0653129
  54.8076646  21.0993127 109.4408375  56.3060334  21.1353586 109.6540740
  52.7712636  23.7596088 103.0520867  53.6331800  24.0850986 103.3116684
  52.9562981  22.9727584 102.5393932  60.9245273  22.6324614 110.1956090
  60.3443942  23.2909418 109.8134142  60.6581206  21.8101959 109.7843507
  59.7070151  24.7924705 109.2512438  58.8196006  25.0774355 109.0332633
  60.1224140  24.6318468 108.4039715  63.0584687  24.8171226 112.9666777
  63.8345077  25.3067678 113.2391394  62.3332821  25.2429280 113.4238647
  65.4957246  25.5298845 114.0240718  66.0901737  25.2894581 113.3134026
  65.5683829  24.8105976 114.6514254  47.7154401  39.3732456 114.3383883
  47.5808869  38.6132857 113.7721881  47.2986464  40.0973356 113.8712671
  58.8513364  34.5569379 103.3460458  59.5549215  34.7619382 103.9618113
  58.1276013  35.1246141 103.6109541  59.6811175  30.3079241 109.4662728
  59.6246376  30.7647792 108.6270360  60.2339517  29.5469925 109.2885571
  63.4915981  26.0968973 110.2912848  63.2352915  25.6965608 111.1221055
  62.8668849  26.8112767 110.1662987  67.8028318  28.8365046 112.7984139
  67.2427876  28.9058235 113.5715701  67.1971822  28.6606030 112.0783635
  50.8723527  40.2701773 114.5502325  50.7555911  41.2147205 114.4481015
  50.0515974  39.9675335 114.9388124  60.7600062  34.9951909 105.3958918
  61.5945666  34.5633107 105.2136393  60.5984405  34.8233922 106.3235812
  60.4145954  31.4984022 106.7615257  60.3594758  31.3328293 105.8203701
  59.7892009  32.2060055 106.9177447  53.7242079  20.9992131 106.3400576
  53.7120749  21.9433971 106.4968846  54.6165501  20.8162276 106.0460037
  51.8978041  40.9230035 117.7658254  52.8005288  40.9553645 118.0824749
  51.6715411  39.9930486 117.7804589  53.6531643  39.6761021 114.4268332
  52.7027274  39.6762883 114.3132705  53.9564130  38.9293756 113.9104367
  69.3884337  45.5121560 115.4914095  70.0262747  45.3928307 114.7877435
  69.2705180  46.4602404 115.5502047  66.1974043  45.4648988 115.4275619
  65.8592555  45.3490053 114.5396154  67.0663811  45.0640153 115.4076625
  62.0560859  47.3184464 111.4172510  61.4925724  47.2274401 110.6488798
  61.9413254  46.4984369 111.8975003  66.6793826  46.6183840 121.3861825
  66.6682467  46.2236638 120.5142329  66.8414466  45.8849912 121.9795596
  59.6025291  48.8135656 114.2556731  60.3946583  48.4726481 113.8403030
  59.8421941  48.9230631 115.1758884  67.6360418  50.9855432 106.7286975
  66.9848397  51.5709512 106.3420989  68.4304780  51.5161627 106.7882013
  61.5616045  48.0744569 107.1274110  62.3346921  47.5273556 106.9886985
  61.9141444  48.9388818 107.3388571  63.4001087  49.4020951 120.3341009
  63.1090953  50.3066582 120.2187675  64.0358072  49.4437479 121.0485078
  64.3257294  46.7797800 116.9242369  64.9220866  46.5553822 116.2099331
  64.3832266  46.0382545 117.5267816  63.8982323  44.2337235 104.7592559
  64.1507843  43.7118757 103.9976022  62.9606882  44.0703381 104.8619243
  68.9425605  43.2373014 112.5667303  69.7288695  42.8192437 112.2157720
  69.2064310  44.1419106 112.7348951  69.1135683  48.6745864 107.2655960
  68.4781516  48.7480490 107.9776864  68.7833089  49.2639463 106.5875039
  74.3434033  43.1748247 113.4700281  75.0759204  42.6047464 113.7038111
  73.5873388  42.7869847 113.9106787  63.6178611  46.1365341 106.9616934
  63.5014869  45.4610245 107.6298019  63.7280871  45.6497715 106.1449087
  65.9610152  45.5975488 110.6663624  65.5968359  45.0706109 111.3776545
  66.8177268  45.2073957 110.4930109  71.8659453  36.8869821 117.9294890
  71.5342778  37.7565232 117.7056105  71.2705066  36.5706105 118.6088920
  65.6015639  40.6265388 105.6624972  65.7690042  41.4945624 106.0295443
  65.4112808  40.7892670 104.7386261  68.3590972  49.0882367 117.3290803
  68.0591695  49.9907406 117.2206610  68.0142032  48.8214550 118.1811955
  61.8103454  45.5396164 113.3627507  60.8853950  45.4072378 113.5705199
  62.0587867  46.3190383 113.8597449  71.7588116  41.6064907 115.0088240
  70.8504994  41.5380316 114.7147001  71.7075712  42.0836852 115.8370065
  65.5804860  43.0823046 106.6471639  65.4604485  43.5280096 107.4857119
  64.8857448  43.4308363 106.0885177  59.1712265  45.1829437 114.1971296
  59.3004646  45.4363916 115.1110708  58.4909716  45.7757145 113.8775951
  63.3411752  55.8526687 110.2961770  63.2635782  56.8034512 110.3750251
  62.7373396  55.5072560 110.9536697  65.8328982  43.0254553 122.9523137
  65.0562316  43.5848473 122.9426002  66.4719545  43.5111336 123.4738007
  73.6249763  39.8081346 116.7866114  72.9824143  40.1013879 116.1405908
  73.1204691  39.6934266 117.5919310  71.2789926  43.5544519 107.4751973
  72.1907782  43.7871905 107.2999671  70.7699573  44.1381563 106.9127052
  64.0875354  45.8340006 122.5141104  64.8290039  46.3725050 122.2375928
  63.3812340  46.4606295 122.6712656  69.5630694  47.9769147 121.1113266
  69.9714050  47.5351557 120.3667898  68.8407955  47.4021774 121.3647459
  65.9161764  42.9141753 118.4846823  66.7622959  43.3381167 118.6281472
  65.8560402  42.2575378 119.1785386  69.8859509  48.5370337 114.8665555
  69.2568371  48.7016051 114.1641622  69.4985171  48.9511947 115.6376519
  73.7648740  49.4724775 112.2209918  73.0799779  49.8523676 111.6706952
  73.8492590  50.0820102 112.9541866  69.0661209  40.5746122 120.1427996
  68.8222141  41.3288182 119.6062272  69.3421140  40.9531469 120.9775243
  71.0199672  47.1184734 118.8205262  71.2316567  47.7616494 118.1439643
  70.9729420  46.2847051 118.3527192  68.6225901  39.7302555 115.7241834
  67.7610380  40.0283808 116.0158572  68.6488336  39.9472954 114.7922867
  65.4387470  48.2744745 112.1315640  65.9025816  48.5532448 111.3420262
  65.1744269  47.3728190 111.9488730  62.3311552  47.8216227 115.0695403
  62.9012909  48.2503495 114.4312887  62.9219663  47.5398811 115.7679589
  64.3756357  44.3967898 108.9405205  65.0780400  44.8488941 109.4079131
  64.0436985  43.7551716 109.5685098  62.8236718  42.9879654 123.3156414
  62.1935379  43.6695935 123.5491811  62.7172806  42.8762736 122.3709552
  58.1181690  42.6551450 114.2422338  57.3280744  42.9108979 113.7662449
  58.6092938  43.4699788 114.3474379  72.1345500  49.9956689 116.9927619
  72.9562944  49.5936877 116.7110301  72.1307903  49.8924924 117.9443735
  60.0696436  43.0196030 111.2005815  59.2727599  43.1314724 111.7189311
  59.8422028  43.3582682 110.3346706  65.9002103  49.5440733 119.1488330
  65.9646536  50.0061140 119.9846501  65.1913027  48.9138098 119.2770639
  56.4019393  42.9081941 116.6737329  56.6527432  43.7928951 116.9394905
  56.9378942  42.7286542 115.9012421  80.2251493  46.3395438 113.3412591
  79.4715201  45.7702836 113.1856595  80.3599034  46.3058102 114.2883225
  65.6150121  51.2108840 109.0167310  65.4795796  52.0560376 109.4452158
  66.1559934  51.4128118 108.2533244  59.0679519  48.7284278 109.5895235
  59.5804039  49.5227529 109.7400800  59.7202231  48.0310569 109.5228837
  60.8774403  51.8450035 111.6717988  61.0541032  52.7667999 111.4838972
  61.6731237  51.5308454 112.1012368  65.0185422  38.7058299 123.2701922
  65.7595135  39.3065452 123.1906384  65.2503345  37.9635937 122.7119964
  60.1626760  43.8914666 121.5480151  60.0480275  42.9899924 121.8487250
  59.3071278  44.1378363 121.1964968  67.2418598  51.8332407 123.1467652
  66.7982452  51.0468785 122.8288557  67.9035811  52.0211557 122.4811543
  62.0005719  53.3628208 117.6728331  62.5513144  53.2345272 116.9005325
  61.1617195  53.6623097 117.3223223  69.3399836  52.1135207 121.1749053
  69.3218311  52.9344088 120.6829322  70.2619756  51.9889282 121.3999194
  65.7972890  49.6279336 122.0172562  66.3301227  48.8667624 121.7871870
  65.2686971  49.3352988 122.7596716  68.9642585  34.7339402 117.5466203
  68.6206854  35.6241044 117.4705314  69.3321547  34.5441060 116.6835788
  57.0328435  47.0572933 110.3654806  57.8703657  47.4669941 110.1488513
  57.2106703  46.1172375 110.3354999  68.9292867  44.7248013 106.0538639
  68.4139491  45.4952618 106.2927026  68.6570176  44.0513149 106.6771700
  66.5139978  39.5697714 111.1123877  65.6581575  39.1804564 110.9329516
  66.9266930  39.6489675 110.2523662  68.0439125  37.1044057 115.5115437
  67.5403921  37.0674192 114.6983242  68.3369732  38.0136800 115.5712093
  64.2882011  37.1882787 114.5181618  65.1535008  36.9925596 114.1587508
  64.3559520  36.9593139 115.4450975  73.9027142  47.4780368 107.9891812
  73.1256584  47.1391527 107.5446974  74.5818623  47.4832991 107.3146777
  68.7179171  42.5975105 107.8798420  68.4129306  42.9121254 108.7308563
  69.6709613  42.6756525 107.9225753  67.1625602  48.7565329 109.5291374
  66.6346964  48.0218088 109.2164611  66.6613105  49.5340005 109.2831342
  72.1418448  46.9514349 114.6458420  71.4842123  47.6413611 114.7338549
  72.9458848  47.3410781 114.9892406  61.8944330  39.4184995 111.8897985
  62.4688082  39.1960176 111.1571178  62.4815312  39.4873689 112.6426587
  70.9523907  45.3058722 112.6962362  71.4655789  45.9388714 113.1984071
  71.6025131  44.7059917 112.3305722  62.2213917  41.4489456 105.9093870
  61.3851229  41.7864142 106.2303145  62.0818687  41.3138436 104.9721007
  64.1966998  36.2926244 110.6173055  63.5431410  35.9775261 109.9929669
  64.1547472  35.6701984 111.3432878  65.3078203  46.5745539 102.5326347
  64.4005264  46.3434792 102.7317496  65.8049235  45.7783158 102.7200328
  68.2146281  55.2843046 105.4523033  67.5407980  55.5874743 106.0607991
  68.6012103  56.0872126 105.1028490  67.4304738  42.7808177 114.9420702
  66.5127299  43.0023124 114.7842390  67.8464882  42.8554488 114.0832410
  68.2139786  44.1799593 110.0723383  68.9611605  44.6920990 109.7630505
  68.4831375  43.8583646 110.9327776  66.4866436  46.6758134 107.0550337
  65.5777655  46.3917167 107.1522807  66.5161520  47.0957212 106.1953644
  71.7185703  50.2864723 110.8241504  71.2648031  49.4455633 110.8806695
  71.0879670  50.9226122 111.1616285  70.6618623  41.2156709 112.0542172
  69.9241380  40.7034096 112.3852414  70.9145397  40.7757091 111.2425449
  70.1618643  52.1241220 111.7591323  70.4541617  52.6846277 111.0403688
  70.6717263  52.4169781 112.5144482  70.7630250  33.9932961 112.6483941
  71.0689127  33.1330325 112.3609856  71.4882855  34.5850581 112.4482935
  57.0554606  44.3963648 111.0365539  56.8579006  43.8033009 110.3116606
  56.5001270  44.0915858 111.7541478  65.0351330  44.2886754 113.1560132
  65.0899940  43.3360591 113.0802609  64.2242532  44.4446193 113.6401431
  66.1842524  48.2166877 104.3938415  65.7461954  47.5002736 103.9344053
  66.9252965  48.4442992 103.8323507  62.9743690  42.9063814 110.9150511
  62.1611556  43.2057985 111.3215703  63.4702684  42.5119503 111.6324993
  65.1252268  52.9021571 112.8484776  65.0828447  53.1282417 111.9193308
  66.0414967  52.6684946 112.9970577  68.5717902  43.3705639 119.7465405
  68.9267289  43.5977112 120.6059871  69.2190033  43.7024015 119.1242660
  74.3015639  46.4924074 110.4514734  74.1633537  46.6825670 109.5235923
  73.9451857  47.2543457 110.9082785  62.4657765  40.4782170 116.5311746
  63.1057144  40.3370929 115.8334709  61.6335295  40.1916683 116.1550348
  74.3285018  48.5600601 115.4626005  74.7621525  48.4675891 116.3109060
  75.0416599  48.5358102 114.8246021  63.2418069  49.7784600 112.6446738
  64.0358667  49.2834920 112.4429313  62.5309761  49.2502463 112.2814444
  68.0612913  52.1602696 116.9959106  68.1149935  52.7293632 117.7636822
  67.1927695  52.3304581 116.6313143  59.5500832  43.9227682 108.7206491
  58.6198420  43.8612137 108.9376453  59.6458304  43.4003635 107.9243132
  59.4686381  40.4482495 111.3084733  59.7293198  41.3627828 111.1993893
  60.2903554  39.9806937 111.4581346  60.9411307  41.8620252 118.4783557
  61.6134360  41.6537614 117.8296206  60.1141093  41.6642338 118.0388790
  75.1900568  48.6024302 117.9958891  75.3836458  49.5070113 118.2418166
  75.0901186  48.1431721 118.8297476  66.8436879  38.4882193 120.4949218
  66.1964794  39.1872142 120.4013695  67.6137894  38.9218337 120.8625466
  70.2515676  48.7531045 123.5699771  70.1001183  48.5241597 122.6529855
  70.2420356  49.7101646 123.5831117  67.0201013  46.3262958 118.5546038
  67.9493073  46.4774117 118.3815005  66.5992043  46.4146978 117.6994684
  65.8189345  50.3513622 116.3244576  65.6800430  49.9832406 117.1970514
  65.0303941  50.8661261 116.1528533  66.4137497  55.4522719 107.6670112
  66.5889252  54.9810762 108.4815735  65.7270285  56.0788485 107.8951373
  67.3694560  49.7295225 113.7133413  67.0344392  49.6895995 114.6091063
  66.8698505  49.0639941 113.2403824  61.3438804  45.1362855 119.2385995
  61.2058602  44.4043094 119.8397534  62.2543727  45.0471755 118.9570182
  70.3053751  47.0751259 103.9870473  69.6882922  46.3498087 103.8903526
  69.8370240  47.8360619 103.6437547  63.9721104  44.8482814 118.7269674
  64.6820723  44.2076006 118.6856293  63.9290413  45.0995709 119.6495855
  71.9607883  51.7850167 121.6476253  71.9020429  51.1009388 120.9806836
  72.3627402  52.5269157 121.1956879  62.6850038  41.8348032 120.5465314
  62.1487395  41.3838770 121.1986910  62.0966747  41.9693941 119.8035778
  60.9798582  58.6012081 114.4409972  61.2195180  59.2330605 115.1188991
  60.1367778  58.2500121 114.7275332  62.0952297  41.2936683 103.1091777
  61.2181764  41.1725484 102.7454024  62.5710050  40.5022762 102.8570666
  71.9625290  49.7489751 119.8790233  71.0752069  49.4115673 120.0016632
  72.5323841  49.0172783 120.1158998  53.6154438  46.0813843 113.2033284
  54.3025477  45.7675573 112.6154300  53.4602566  46.9855208 112.9300536
  58.4189160  40.9704040 117.6318308  58.3347348  40.3629709 116.8968718
  57.5971866  41.4613058 117.6327804  65.4926444  54.4091204 116.8451476
  65.4196615  55.2146175 117.3570781  65.0503837  54.6083170 116.0199498
  65.2816223  53.6462974 110.3554298  64.4983745  54.1884654 110.4492522
  65.9808969  54.1636953 110.7548539  68.5912874  39.4557603 112.9988503
  69.0881573  38.7027566 112.6789573  67.8199855  39.4921920 112.4331712
  76.4442631  45.1597969 114.6406795  76.4332507  46.0422684 114.2700728
  75.5760010  44.8069520 114.4461332  67.9525127  54.3078038 119.0009635
  68.6653100  54.9425503 118.9285536  67.4615156  54.4041904 118.1849637
  69.6742654  48.2129290 110.5726927  68.7398933  48.3330753 110.4031631
  69.8519323  47.3101757 110.3086936  65.1747842  41.5974986 112.7260188
  64.8045630  41.0446027 113.4141093  65.6706935  40.9933120 112.1735188
  73.0615206  44.0546610 111.1076961  73.5275658  44.8874601 111.0337263
  73.5122706  43.5891591 111.8122219  63.0037041  52.0572481 119.8215206
  63.7046500  52.6908964 119.9744600  62.5332156  52.3987213 119.0610845
  71.1291437  50.3990431 108.1063113  71.4051281  50.2847026 109.0156987
  70.2595935  50.0007916 108.0675286  71.0331868  36.4227197 115.1467862
  70.1194948  36.6531424 115.3150069  71.4624970  36.5065641 115.9981894
  70.8038327  44.6117089 117.6467756  70.1509777  44.8592996 116.9920209
  71.1818707  43.7981227 117.3130233  67.7645501  54.6476782 111.7495926
  67.9467895  53.8298438 112.2123679  68.5878487  54.8644474 111.3120816
  68.0987666  53.5744967 109.0110975  68.6275433  53.0637422 108.3981137
  68.3615886  53.2587497 109.8756508  66.8525900  45.3536900 124.1333793
  66.1766537  45.2531029 124.8036168  67.6753534  45.1976113 124.5969790
  58.6004759  51.5908836 116.7546308  59.1858196  50.8452524 116.8874213
  58.4029597  51.9012793 117.6382972  61.4543414  54.6260084 111.7708751
  60.7853789  55.1106211 111.2872791  61.3156284  54.8729304 112.6852129
  53.1922414  44.1614436 115.4750752  53.2306513  43.6278027 116.2687870
  52.6862706  43.6349642 114.8561729  65.5948683  56.6603827 118.3691409
  66.1466991  56.8235449 119.1340494  65.9354876  57.2508265 117.6971434
  60.5713176  39.0078977 118.9713294  60.6354502  39.8693808 118.5590692
  60.5080296  38.3952979 118.2385652  70.4459557  51.4865085 124.2240064
  70.9899461  52.0995043 123.7295018  69.8646402  52.0444663 124.7407077
  56.8230991  42.8878539 108.5504683  57.1184432  41.9789217 108.4971737
  55.9219027  42.8666278 108.2285685  68.7317070  54.6085803 115.3555091
  68.6068209  53.8075543 114.8466037  69.3896161  55.1031996 114.8669061
  60.3525238  40.9634535 114.5332232  59.6311824  41.5770503 114.3939705
  61.1418494  41.4992300 114.4548877  70.7951978  52.4094823 116.9834641
  69.8482314  52.2900174 116.9112968  71.1434751  51.5217321 117.0660903
  63.1551552  38.2988962 120.8072883  63.6785954  38.5451258 121.5699193
  62.9363885  39.1308997 120.3876021  58.5518833  40.5692636 108.6744008
  58.2231539  39.6890015 108.4919114  58.9058203  40.5140305 109.5620397
  67.7998412  52.2047539 113.1838994  67.6523374  51.2764246 113.3646564
  68.6251905  52.2267630 112.6996069  61.6660656  40.8565606 109.0419486
  62.0056728  41.3851527 108.3198094  62.1132776  41.1946012 109.8178052
  71.4032534  53.0276098 114.2703866  72.3279081  52.8218959 114.1328318
  71.2347837  52.7792499 115.1793208  64.3604097  39.2402657 118.4922554
  64.0200917  38.4410470 118.8943234  63.6543103  39.5404368 117.9199387
  65.0120569  36.3251969 116.9449877  65.8346638  35.8512447 116.8228767
  65.2558632  37.1042453 117.4448563  63.6528803  39.3540228 107.2412779
  64.3737166  39.7321480 106.7376495  63.0294107  40.0729104 107.3447756
  67.7959926  40.0585377 108.1771111  68.0123540  40.9410015 107.8759939
  67.3153993  39.6671590 107.4476753  62.5359147  43.0171090 114.7541855
  62.3903728  43.3311393 115.6466137  62.0584351  43.6355990 114.2012754
  64.3955530  40.0073638 114.8022745  64.3817099  39.1114731 114.4655043
  65.1127958  40.0144302 115.4361031  66.2481661  40.4410978 116.8475872
  65.9899439  41.3628049 116.8460203  65.7166701  40.0441413 117.5376337
  71.1927850  53.5461765 109.6265958  71.3664727  52.9808188 108.8739810
  71.6856741  54.3462660 109.4445448  57.0104810  45.5576434 117.6929517
  56.4658278  46.3336242 117.8249791  57.8884159  45.9047239 117.5348638
  63.7992426  38.8888018 110.0710315  63.9208337  37.9604664 110.2701203
  63.5094469  38.9026704 109.1588631  66.6683617  36.5742929 113.2077035
  66.6905313  36.6382262 112.2529015  67.0851676  35.7347437 113.4017541
  77.0467241  46.3098188 111.2456258  77.4898387  45.5605513 110.8475381
  76.1693751  46.3008324 110.8629990  72.1803022  52.8628530 106.7262856
  72.8753927  53.4835222 106.9450171  72.5226172  52.0123881 107.0015234
  57.7970831  44.6846331 120.5859673  57.0552567  44.8328966 121.1724304
  57.4763576  44.9454596 119.7226423  74.0794445  50.3128235 108.2550187
  74.6045769  50.6515508 107.5299507  73.9916798  49.3775250 108.0713321
  65.7414494  54.2262309 120.3840064  66.0501620  53.9811456 121.2562763
  66.5389976  54.4308947 119.8958934  65.7635106  56.3800218 112.6145440
  65.3240096  55.8876597 113.3078297  66.5143223  55.8373186 112.3737515
  58.2427445  52.5711759 112.6170068  59.0685465  52.2715531 112.2368712
  57.8921497  51.8019382 113.0659857  63.2108978  51.9238227 114.6867742
  62.5888988  51.2608933 114.3869970  63.8813845  51.9499359 114.0041390
  56.4436050  50.4898086 113.5759002  55.6067958  50.0620260 113.3943003
  56.4159696  50.6830529 114.5129793  73.7688351  50.9461139 123.5601385
  72.9783895  50.9285278 123.0205884  73.5321706  51.4849432 124.3150421
  73.8886226  47.7953605 120.8734113  73.9384231  47.6303613 121.8149636
  73.7800150  46.9280864 120.4831994  62.7722485  50.4742151 108.1626202
  62.9210606  51.1577615 107.5092875  63.5788929  50.4547241 108.6775658
  71.1789989  43.7784533 122.1893420  72.0799852  43.6390998 121.8977418
  71.2537963  43.9438988 123.1291598  65.5132794  41.1551388 121.0346606
  64.6436104  41.4484954 120.7629195  65.7492275  41.7391833 121.7553870
  75.3904423  50.2150547 121.1176135  75.0989232  50.5780527 121.9539596
  74.7776555  49.5017555 120.9389467  76.5900106  47.7803426 113.6378705
  77.4246997  48.2193230 113.8016265  76.7259234  47.3042080 112.8186951
  73.6391612  45.3383161 119.5856193  74.1145733  45.5310808 118.7775044
  72.7157177  45.3942347 119.3399577  60.5275118  46.5007328 109.1687271
  60.2821160  45.5969658 109.3667481  60.6971033  46.5024479 108.2266749
  68.2171828  37.3731005 118.5512027  68.7353772  38.1092032 118.2258515
  67.8626961  37.6794998 119.3858786  59.7970766  42.2335686 106.6673433
  59.1040011  42.3080041 106.0113469  59.5522518  41.4696030 107.1894950
  68.4684422  33.7931287 114.0712923  68.7486176  33.1254476 114.6973350
  69.2535029  33.9860383 113.5587587  66.2717891  52.9690281 105.6337950
  65.6991858  53.5880468 105.1808422  66.8450684  53.5189643 106.1677872
  72.3393281  42.2148921 117.8184499  73.2910703  42.3147019 117.8396723
  72.1696731  41.4227190 118.3282583  70.3607660  39.3004505 118.0043899
  69.7657592  39.5809517 117.3090388  70.0757357  39.7898406 118.7760641
  69.4915150  53.2527431 106.7646532  70.4245824  53.1872993 106.9679407
  69.4038363  54.0883698 106.3061065  72.1203167  52.5693302 103.7250480
  72.0416799  52.2353165 104.6186237  72.9412834  53.0615070 103.7241952
  74.8181358  45.4355041 116.9326798  74.7857678  44.4971042 117.1186482
  75.4281982  45.5139078 116.1992623  66.6564689  44.3051094 102.9754002
  67.6023794  44.1757302 103.0442420  66.2778934  43.5665756 103.4523430
  74.9675847  42.2266084 116.9785081  74.4514895  41.4424541 116.7915010
  75.8515795  41.8984801 117.1431601  72.6286574  35.9707100 112.9380894
  72.4311395  35.6622188 113.8224226  73.2386279  36.6968739 113.0678824
  80.6357908  46.4971048 116.0732835  81.3661297  46.2356336 116.6340538
  80.0264854  45.7599770 116.1134903  78.7173205  44.6378910 116.6707286
  77.9906369  44.5034875 116.0623778  78.3020492  44.9455739 117.4764004
  66.5403382  48.3568840 124.4354659  67.4606391  48.5347439 124.6294706
  66.5052965  47.4124886 124.2834358  64.8407606  42.2301070 102.9108887
  63.9339062  41.9334183 102.9871601  65.1183587  41.9330888 102.0443174
  55.7585547  43.5507434 113.3607934  55.4388331  42.6972742 113.0682308
  55.2118975  43.7656012 114.1165901  59.5365454  46.2669875 117.0777440
  59.7551464  47.1986983 117.0965474  59.9491228  45.9077849 117.8632244
  66.4569672  36.7737960 109.0653129  65.6470400  36.4285045 109.4408375
  67.1454089  36.4645504 109.6540740  68.3860220  35.8516007 110.6877425
  68.9391259  36.2711460 111.3467448  68.6230307  34.9251755 110.7300381
  63.6106391  39.0888006 103.0520867  64.4725555  39.4142904 103.3116684
  63.7956735  38.3019502 102.5393932  55.6273807  47.1710345 115.3301055
  54.9337278  46.7564298 114.8171010  56.3746798  47.2130882 114.7334474
  71.7639027  37.9616532 110.1956090  71.1837696  38.6201336 109.8134142
  71.4974960  37.1393877 109.7843507  70.2142594  37.3621590 112.3977410
  70.7142372  37.4738124 111.5891729  70.8578202  37.0582643 113.0378218
  64.2724590  45.2700219 125.2845251  63.7891671  46.0700580 125.4909140
  64.3585529  45.2808164 124.3312695  57.5410549  47.1028599 113.2067070
  57.5181237  47.2016286 112.2548953  57.8511186  47.9493750 113.5284236
  60.1997927  49.1604754 117.3213685  61.1541181  49.1288696 117.2543616
  60.0010451  48.6995378 118.1363911  60.7897309  47.7305870 119.8884482
  61.6090198  48.2249949 119.9119320  61.0634117  46.8137838 119.8602050
  70.5463905  40.1216622 109.2512438  69.6589760  40.4066273 109.0332633
  70.9617895  39.9610386 108.4039715  73.8978442  40.1463143 112.9666777
  74.6738832  40.6359596 113.2391394  73.1726576  40.5721198 113.4238647
  76.3351000  40.8590763 114.0240718  76.9295491  40.6186499 113.3134026
  76.4077584  40.1397893 114.6514254  58.5548156  54.7024374 114.3383883
  58.4202624  53.9424774 113.7721881  58.1380218  55.4265273 113.8712671
  69.6907119  49.8861297 103.3460458  70.3942969  50.0911300 103.9618113
  68.9669768  50.4538059 103.6109541  70.5204929  45.6371158 109.4662728
  70.4640131  46.0939710 108.6270360  71.0733272  44.8761843 109.2885571
  74.3309735  41.4260890 110.2912848  74.0746669  41.0257526 111.1221055
  73.7062603  42.1404684 110.1662987  78.6422073  44.1656964 112.7984139
  78.0821631  44.2350153 113.5715701  78.0365576  43.9897948 112.0783635
  61.7117282  55.5993691 114.5502325  61.5949666  56.5439123 114.4481015
  60.8909728  55.2967252 114.9388124  71.5993816  50.3243826 105.3958918
  72.4339420  49.8925025 105.2136393  71.4378159  50.1525840 106.3235812
  71.2539708  46.8275940 106.7615257  71.1988512  46.6620211 105.8203701
  70.6285764  47.5351973 106.9177447  56.0432223  42.0644004 120.5876679
  56.6891087  41.5542958 121.0763905  55.8349375  42.8012686 121.1620105
  68.5685616  49.1324852 126.0868820  69.4376775  49.3065504 125.7255455
  68.0892367  49.9519268 125.9644549  64.5635834  36.3284049 106.3400576
  64.5514504  37.2725889 106.4968846  65.4559256  36.1454194 106.0460037
  62.7371796  56.2521953 117.7658254  63.6399043  56.2845563 118.0824749
  62.5109166  55.3222403 117.7804589  64.4925398  55.0052939 114.4268332
  63.5421029  55.0054801 114.3132705  64.7957884  54.2585674 113.9104367
  68.3787953  32.9226825 110.5946512  67.6120349  32.3685312 110.7403195
  68.7898658  32.9948694 111.4560664  80.2278091  60.8413477 115.4914095
  80.8656501  60.7220225 114.7877435  80.1098934  61.7894321 115.5502047
  77.0367798  60.7940906 115.4275619  76.6986309  60.6781970 114.5396154
  77.9057566  60.3932071 115.4076625  72.8954613  62.6476382 111.4172510
  72.3319479  62.5566319 110.6488798  72.7807008  61.8276286 111.8975003
  77.5187581  61.9475757 121.3861825  77.5076221  61.5528556 120.5142329
  77.6808220  61.2141830 121.9795596  70.4419045  64.1427574 114.2556731
  71.2340337  63.8018398 113.8403030  70.6815695  64.2522549 115.1758884
  78.4754172  66.3147350 106.7286975  77.8242152  66.9001430 106.3420989
  79.2698535  66.8453545 106.7882013  72.4009799  63.4036487 107.1274110
  73.1740675  62.8565474 106.9886985  72.7535198  64.2680736 107.3388571
  74.2394842  64.7312869 120.3341009  73.9484708  65.6358500 120.2187675
  74.8751826  64.7729397 121.0485078  75.1651049  62.1089718 116.9242369
  75.7614621  61.8845740 116.2099331  75.2226020  61.3674463 117.5267816
  74.7376077  59.5629153 104.7592559  74.9901598  59.0410674 103.9976022
  73.8000636  59.3995298 104.8619243  79.7819360  58.5664931 112.5667303
  80.5682449  58.1484354 112.2157720  80.0458064  59.4711023 112.7348951
  79.9529437  64.0037782 107.2655960  79.3175270  64.0772408 107.9776864
  79.6226844  64.5931380 106.5875039  85.1827787  58.5040165 113.4700281
  85.9152959  57.9339381 113.7038111  84.4267143  58.1161765 113.9106787
  74.4572366  61.4657259 106.9616934  74.3408624  60.7902162 107.6298019
  74.5674626  60.9789633 106.1449087  76.8003907  60.9267406 110.6663624
  76.4362114  60.3998027 111.3776545  77.6571023  60.5365875 110.4930109
  82.7053207  52.2161739 117.9294890  82.3736532  53.0857150 117.7056105
  82.1098821  51.8998023 118.6088920  76.4409394  55.9557306 105.6624972
  76.6083796  56.8237542 106.0295443  76.2506563  56.1184587 104.7386261
  79.1984727  64.4174285 117.3290803  78.8985450  65.3199323 117.2206610
  78.8535786  64.1506468 118.1811955  72.6497208  60.8688081 113.3627507
  71.7247705  60.7364296 113.5705199  72.8981622  61.6482301 113.8597449
  82.5981871  56.9356825 115.0088240  81.6898748  56.8672233 114.7147001
  82.5469466  57.4128770 115.8370065  76.4198615  58.4114963 106.6471639
  76.2998240  58.8572014 107.4857119  75.7251203  58.7600281 106.0885177
  70.0106019  60.5121355 114.1971296  70.1398401  60.7655834 115.1110708
  69.3303471  61.1049063 113.8775951  74.1805507  71.1818605 110.2961770
  74.1029536  72.1326430 110.3750251  73.5767150  70.8364477 110.9536697
  76.6722736  58.3546470 122.9523137  75.8956071  58.9140391 122.9426002
  77.3113300  58.8403253 123.4738007  84.4643517  55.1373263 116.7866114
  83.8217897  55.4305796 116.1405908  83.9598446  55.0226184 117.5919310
  82.1183681  58.8836436 107.4751973  83.0301537  59.1163823 107.2999671
  81.6093328  59.4673481 106.9127052  74.9269109  61.1631924 122.5141104
  75.6683793  61.7016968 122.2375928  74.2206094  61.7898212 122.6712656
  80.4024448  63.3061064 121.1113266  80.8107804  62.8643475 120.3667898
  79.6801710  62.7313692 121.3647459  76.7555518  58.2433671 118.4846823
  77.6016714  58.6673085 118.6281472  76.6954156  57.5867295 119.1785386
  80.7253263  63.8662255 114.8665555  80.0962126  64.0307969 114.1641622
  80.3378925  64.2803864 115.6376519  84.6042495  64.8016693 112.2209918
  83.9193533  65.1815594 111.6706952  84.6886344  65.4112019 112.9541866
  79.9054964  55.9038039 120.1427996  79.6615896  56.6580100 119.6062272
  80.1814894  56.2823387 120.9775243  81.8593427  62.4476652 118.8205262
  82.0710322  63.0908412 118.1439643  81.8123175  61.6138968 118.3527192
  79.4619656  55.0594472 115.7241834  78.6004135  55.3575726 116.0158572
  79.4882090  55.2764871 114.7922867  76.2781225  63.6036663 112.1315640
  76.7419570  63.8824366 111.3420262  76.0138023  62.7020107 111.9488730
  73.1705306  63.1508144 115.0695403  73.7406663  63.5795413 114.4312887
  73.7613418  62.8690729 115.7679589  75.2150111  59.7259815 108.9405205
  75.9174154  60.1780859 109.4079131  74.8830739  59.0843634 109.5685098
  73.6630473  58.3171572 123.3156414  73.0329133  58.9987853 123.5491811
  73.5566560  58.2054654 122.3709552  68.9575445  57.9843368 114.2422338
  68.1674499  58.2400896 113.7662449  69.4486692  58.7991706 114.3474379
  82.9739255  65.3248607 116.9927619  83.7956698  64.9228794 116.7110301
  82.9701657  65.2216841 117.9443735  70.9090190  58.3487947 111.2005815
  70.1121354  58.4606641 111.7189311  70.6815783  58.6874599 110.3346706
  76.7395858  64.8732650 119.1488330  76.8040290  65.3353058 119.9846501
  76.0306782  64.2430015 119.2770639  67.2413148  58.2373858 116.6737329
  67.4921186  59.1220868 116.9394905  67.7772696  58.0578460 115.9012421
  91.0645248  61.6687356 113.3412591  90.3108956  61.0994754 113.1856595
  91.1992789  61.6350020 114.2883225  76.4543876  66.5400758 109.0167310
  76.3189550  67.3852294 109.4452158  76.9953688  66.7420036 108.2533244
  72.9411215  52.6192338 125.6781665  72.5478161  52.0658536 126.3529309
  73.7577356  52.9302916 126.0688183  69.9073273  64.0576196 109.5895235
  70.4197794  64.8519446 109.7400800  70.5595986  63.3602486 109.5228837
  71.7168158  67.1741952 111.6717988  71.8934786  68.0959917 111.4838972
  72.5124991  66.8600371 112.1012368  75.8579176  54.0350217 123.2701922
  76.5988890  54.6357370 123.1906384  76.0897099  53.2927855 122.7119964
  71.0020514  59.2206584 121.5480151  70.8874029  58.3191841 121.8487250
  70.1465032  59.4670281 121.1964968  78.0812352  67.1624324 123.1467652
  77.6376206  66.3760703 122.8288557  78.7429566  67.3503475 122.4811543
  72.8399473  68.6920126 117.6728331  73.3906898  68.5637189 116.9005325
  72.0010949  68.9915015 117.3223223  80.1793590  67.4427124 121.1749053
  80.1612065  68.2636005 120.6829322  81.1013510  67.3181200 121.3999194
  76.6366644  64.9571254 122.0172562  77.1694981  64.1959542 121.7871870
  76.1080725  64.6644906 122.7596716  79.8036339  50.0631320 117.5466203
  79.4600609  50.9532961 117.4705314  80.1715302  49.8732977 116.6835788
  67.8722190  62.3864850 110.3654806  68.7097412  62.7961859 110.1488513
  68.0500457  61.4464292 110.3354999  79.7686622  60.0539931 106.0538639
  79.2533245  60.8244536 106.2927026  79.4963930  59.3805067 106.6771700
  77.3533733  54.8989632 111.1123877  76.4975329  54.5096482 110.9329516
  77.7660685  54.9781592 110.2523662  78.8832880  52.4335975 115.5115437
  78.3797675  52.3966110 114.6983242  79.1763486  53.3428718 115.5712093
  75.1275765  52.5174705 114.5181618  75.9928762  52.3217513 114.1587508
  75.1953274  52.2885056 115.4450975  84.7420896  62.8072286 107.9891812
  83.9650339  62.4683445 107.5446974  85.4212377  62.8124909 107.3146777
  79.5572925  57.9267023 107.8798420  79.2523061  58.2413172 108.7308563
  80.5103367  58.0048443 107.9225753  78.0019357  64.0857246 109.5291374
  77.4740718  63.3510006 109.2164611  77.5006860  64.8631923 109.2831342
  82.9812203  62.2806267 114.6458420  82.3235877  62.9705528 114.7338549
  83.7852602  62.6702699 114.9892406  72.7338085  54.7476913 111.8897985
  73.3081836  54.5252094 111.1571178  73.3209067  54.8165607 112.6426587
  81.7917662  60.6350639 112.6962362  82.3049543  61.2680631 113.1984071
  82.4418886  60.0351835 112.3305722  73.0607672  56.7781374 105.9093870
  72.2244984  57.1156060 106.2303145  72.9212441  56.6430353 104.9721007
  75.0360752  51.6218161 110.6173055  74.3825165  51.3067179 109.9929669
  74.9941226  50.9993902 111.3432878  76.1471957  61.9037457 102.5326347
  75.2399019  61.6726710 102.7317496  76.6442989  61.1075076 102.7200328
  79.0540036  70.6134964 105.4523033  78.3801735  70.9166661 106.0607991
  79.4405858  71.4164044 105.1028490  78.2698493  58.1100095 114.9420702
  77.3521054  58.3315042 114.7842390  78.6858636  58.1846406 114.0832410
  79.0533540  59.5091511 110.0723383  79.8005359  60.0212908 109.7630505
  79.3225130  59.1875563 110.9327776  77.3260191  62.0050051 107.0550337
  76.4171410  61.7209084 107.1522807  77.3555274  62.4249130 106.1953644
  82.5579458  65.6156641 110.8241504  82.1041785  64.7747551 110.8806695
  81.9273425  66.2518039 111.1616285  81.5012378  56.5448627 112.0542172
  80.7635134  56.0326013 112.3852414  81.7539151  56.1049009 111.2425449
  81.0012397  67.4533138 111.7591323  81.2935372  68.0138195 111.0403688
  81.5111018  67.7461699 112.5144482  81.6024005  49.3224879 112.6483941
  81.9082882  48.4622242 112.3609856  82.3276610  49.9142499 112.4482935
  67.8948361  59.7255566 111.0365539  67.6972761  59.1324926 110.3116606
  67.3395025  59.4207776 111.7541478  75.8745085  59.6178672 113.1560132
  75.9293694  58.6652508 113.0802609  75.0636287  59.7738111 113.6401431
  77.0236278  63.5458795 104.3938415  76.5855708  62.8294654 103.9344053
  77.7646719  63.7734910 103.8323507  73.8137444  58.2355732 110.9150511
  73.0005310  58.5349902 111.3215703  74.3096439  57.8411421 111.6324993
  75.9646022  68.2313489 112.8484776  75.9222201  68.4574335 111.9193308
  76.8808721  67.9976863 112.9970577  79.4111656  58.6997556 119.7465405
  79.7661044  58.9269029 120.6059871  80.0583787  59.0315933 119.1242660
  85.1409393  61.8215992 110.4514734  85.0027292  62.0117588 109.5235923
  84.7845612  62.5835375 110.9082785  73.3051519  55.8074087 116.5311746
  73.9450899  55.6662846 115.8334709  72.4729050  55.5208601 116.1550348
  85.1678773  63.8892519 115.4626005  85.6015279  63.7967808 116.3109060
  85.8810353  63.8650020 114.8246021  74.0811823  65.1076518 112.6446738
  74.8752422  64.6126838 112.4429313  73.3703516  64.5794381 112.2814444
  78.9006668  67.4894613 116.9959106  78.9543690  68.0585550 117.7636822
  78.0321449  67.6596498 116.6313143  70.3894587  59.2519599 108.7206491
  69.4592175  59.1904055 108.9376453  70.4852059  58.7295552 107.9243132
  70.3080136  55.7774412 111.3084733  70.5686953  56.6919746 111.1993893
  71.1297308  55.3098855 111.4581346  71.7805061  57.1912169 118.4783557
  72.4528114  56.9829532 117.8296206  70.9534848  56.9934255 118.0388790
  86.0294322  63.9316220 117.9958891  86.2230212  64.8362030 118.2418166
  85.9294940  63.4723639 118.8297476  77.6830633  53.8174110 120.4949218
  77.0358548  54.5164060 120.4013695  78.4531648  54.2510254 120.8625466
  81.0909431  64.0822963 123.5699771  80.9394937  63.8533514 122.6529855
  81.0814110  65.0393564 123.5831117  77.8594767  61.6554875 118.5546038
  78.7886827  61.8066035 118.3815005  77.4385797  61.7438896 117.6994684
  76.6583099  65.6805540 116.3244576  76.5194185  65.3124324 117.1970514
  75.8697695  66.1953179 116.1528533  77.2531251  70.7814636 107.6670112
  77.4283007  70.3102679 108.4815735  76.5664039  71.4080402 107.8951373
  78.2088314  65.0587142 113.7133413  77.8738147  65.0187912 114.6091063
  77.7092260  64.3931858 113.2403824  72.1832558  60.4654772 119.2385995
  72.0452356  59.7335011 119.8397534  73.0937482  60.3763673 118.9570182
  81.1447506  62.4043177 103.9870473  80.5276677  61.6790005 103.8903526
  80.6763994  63.1652537 103.6437547  74.8114859  60.1774732 118.7269674
  75.5214477  59.5367924 118.6856293  74.7684167  60.4287627 119.6495855
  82.8001638  67.1142085 121.6476253  82.7414184  66.4301305 120.9806836
  83.2021156  67.8561075 121.1956879  73.5243793  57.1639950 120.5465314
  72.9881150  56.7130688 121.1986910  72.9360501  57.2985858 119.8035778
  71.8192336  73.9303999 114.4409972  72.0588935  74.5622523 115.1188991
  70.9761533  73.5792039 114.7275332  72.9346052  56.6228601 103.1091777
  72.0575518  56.5017402 102.7454024  73.4103805  55.8314679 102.8570666
  82.8019045  65.0781669 119.8790233  81.9145824  64.7407591 120.0016632
  83.3717596  64.3464700 120.1158998  64.4548192  61.4105761 113.2033284
  65.1419232  61.0967491 112.6154300  64.2996321  62.3147125 112.9300536
  69.2582914  56.2995957 117.6318308  69.1741103  55.6921627 116.8968718
  68.4365621  56.7904976 117.6327804  76.3320198  69.7383121 116.8451476
  76.2590370  70.5438093 117.3570781  75.8897591  69.9375087 116.0199498
  76.1209978  68.9754891 110.3554298  75.3377500  69.5176572 110.4492522
  76.8202723  69.4928871 110.7548539  79.4306628  54.7849521 112.9988503
  79.9275328  54.0319483 112.6789573  78.6593610  54.8213838 112.4331712
  87.2836385  60.4889886 114.6406795  87.2726262  61.3714602 114.2700728
  86.4153765  60.1361437 114.4461332  78.7918882  69.6369955 119.0009635
  79.5046854  70.2717420 118.9285536  78.3008910  69.7333821 118.1849637
  80.5136409  63.5421208 110.5726927  79.5792687  63.6622671 110.4031631
  80.6913077  62.6393675 110.3086936  76.0141597  56.9266904 112.7260188
  75.6439384  56.3737944 113.4141093  76.5100689  56.3225037 112.1735188
  83.9008960  59.3838527 111.1076961  84.3669412  60.2166519 111.0337263
  84.3516461  58.9183509 111.8122219  73.8430795  67.3864399 119.8215206
  74.5440255  68.0200882 119.9744600  73.3725910  67.7279130 119.0610845
  81.9685191  65.7282349 108.1063113  82.2445035  65.6138943 109.0156987
  81.0989690  65.3299834 108.0675286  81.8725623  51.7519114 115.1467862
  80.9588703  51.9823341 115.3150069  82.3018724  51.8357558 115.9981894
  81.6432081  59.9409006 117.6467756  80.9903532  60.1884914 116.9920209
  82.0212461  59.1273145 117.3130233  78.6039255  69.9768700 111.7495926
  78.7861650  69.1590355 112.2123679  79.4272241  70.1936392 111.3120816
  78.9381421  68.9036885 109.0110975  79.4669187  68.3929339 108.3981137
  79.2009640  68.5879415 109.8756508  77.6919654  60.6828817 124.1333793
  77.0160291  60.5822947 124.8036168  78.5147288  60.5268031 124.5969790
  69.4398513  66.9200754 116.7546308  70.0251950  66.1744442 116.8874213
  69.2423352  67.2304711 117.6382972  72.2937169  69.9552001 111.7708751
  71.6247544  70.4398129 111.2872791  72.1550038  70.2021222 112.6852129
  64.0316168  59.4906354 115.4750752  64.0700268  58.9569945 116.2687870
  63.5256461  58.9641560 114.8561729  76.4342437  71.9895745 118.3691409
  76.9860745  72.1527366 119.1340494  76.7748631  72.5800183 117.6971434
  71.4106930  54.3370895 118.9713294  71.4748257  55.1985726 118.5590692
  71.3474051  53.7244896 118.2385652  70.8859203  56.4094027 122.6186328
  71.5131242  56.0271105 123.2323852  70.0287122  56.1908229 122.9842021
  67.6624746  58.2170456 108.5504683  67.9578187  57.3081135 108.4971737
  66.7612781  58.1958196 108.2285685  79.5710824  69.9377720 115.3555091
  79.4461964  69.1367460 114.8466037  80.2289916  70.4323914 114.8669061
  71.1918993  56.2926453 114.5332232  70.4705578  56.9062421 114.3939705
  71.9812248  56.8284218 114.4548877  81.6345733  67.7386740 116.9834641
  80.6876068  67.6192092 116.9112968  81.9828506  66.8509239 117.0660903
  73.9945306  53.6280879 120.8072883  74.5179708  53.8743176 121.5699193
  73.7757639  54.4600914 120.3876021  69.3912587  55.8984554 108.6744008
  69.0625293  55.0181933 108.4919114  69.7451958  55.8432223 109.5620397
  78.6392166  67.5339457 113.1838994  78.4917129  66.6056164 113.3646564
  79.4645660  67.5559547 112.6996069  72.5054410  56.1857524 109.0419486
  72.8450483  56.7143445 108.3198094  72.9526531  56.5237930 109.8178052
  82.2426288  68.3568015 114.2703866  83.1672835  68.1510877 114.1328318
  82.0741591  68.1084417 115.1793208  75.1997851  54.5694574 118.4922554
  74.8594672  53.7702388 118.8943234  74.4936858  54.8696285 117.9199387
  75.8514323  51.6543887 116.9449877  76.6740392  51.1804365 116.8228767
  76.0952387  52.4334371 117.4448563  74.4922558  54.6832145 107.2412779
  75.2130920  55.0613398 106.7376495  73.8687862  55.4021022 107.3447756
  78.6353680  55.3877294 108.1771111  78.8517295  56.2701932 107.8759939
  78.1547748  54.9963508 107.4476753  73.3752902  58.3463008 114.7541855
  73.2297483  58.6603311 115.6466137  72.8978105  58.9647908 114.2012754
  75.2349285  55.3365556 114.8022745  75.2210853  54.4406649 114.4655043
  75.9521713  55.3436219 115.4361031  77.0875415  55.7702896 116.8475872
  76.8293193  56.6919966 116.8460203  76.5560456  55.3733330 117.5376337
  82.0321604  68.8753683 109.6265958  82.2058482  68.3100105 108.8739810
  82.5250495  69.6754578 109.4445448  67.8498564  60.8868352 117.6929517
  67.3052032  61.6628160 117.8249791  68.7277914  61.2339156 117.5348638
  74.6386181  54.2179936 110.0710315  74.7602092  53.2896582 110.2701203
  74.3488223  54.2318622 109.1588631  77.5077371  51.9034846 113.2077035
  77.5299068  51.9674179 112.2529015  77.9245430  51.0639355 113.4017541
  87.8860995  61.6390106 111.2456258  88.3292141  60.8897431 110.8475381
  87.0087506  61.6300242 110.8629990  83.0196777  68.1920447 106.7262856
  83.7147681  68.8127140 106.9450171  83.3619927  67.3415798 107.0015234
  68.6364586  60.0138248 120.5859673  67.8946322  60.1620884 121.1724304
  68.3157330  60.2746514 119.7226423  84.9188200  65.6420153 108.2550187
  85.4439524  65.9807426 107.5299507  84.8310552  64.7067168 108.0713321
  76.5808249  69.5554226 120.3840064  76.8895375  69.3103373 121.2562763
  77.3783731  69.7600865 119.8958934  76.6028861  71.7092136 112.6145440
  76.1633851  71.2168515 113.3078297  77.3536978  71.1665104 112.3737515
  69.0821200  67.9003677 112.6170068  69.9079219  67.6007449 112.2368712
  68.7315252  67.1311299 113.0659857  74.0502733  67.2530145 114.6867742
  73.4282742  66.5900850 114.3869970  74.7207600  67.2791277 114.0041390
  67.2829805  65.8190003 113.5759002  66.4461713  65.3912178 113.3943003
  67.2553450  66.0122447 114.5129793  74.1227260  55.7311933 124.2800248
  74.1715416  56.6074056 123.8978017  74.6649774  55.1889326 123.7071891
  84.7279981  63.1245523 120.8734113  84.7777986  62.9595530 121.8149636
  84.6193904  62.2572782 120.4831994  73.6116240  65.8034069 108.1626202
  73.7604360  66.4869533 107.5092875  74.4182683  65.7839159 108.6775658
  82.0183743  59.1076451 122.1893420  82.9193606  58.9682916 121.8977418
  82.0931718  59.2730906 123.1291598  76.3526549  56.4843306 121.0346606
  75.4829858  56.7776872 120.7629195  76.5886029  57.0683751 121.7553870
  86.2298178  65.5442464 121.1176135  85.9382986  65.9072445 121.9539596
  85.6170309  64.8309473 120.9389467  87.4293860  63.1095344 113.6378705
  88.2640751  63.5485148 113.8016265  87.5652989  62.6333997 112.8186951
  84.4785366  60.6675079 119.5856193  84.9539488  60.8602725 118.7775044
  83.5550931  60.7234265 119.3399577  71.3668873  61.8299246 109.1687271
  71.1214915  60.9261576 109.3667481  71.5364787  61.8316397 108.2266749
  79.0565582  52.7022923 118.5512027  79.5747526  53.4383949 118.2258515
  78.7020715  53.0086916 119.3858786  70.6364520  57.5627604 106.6673433
  69.9433765  57.6371959 106.0113469  70.3916272  56.7987947 107.1894950
  79.3078177  49.1223205 114.0712923  79.5879930  48.4546394 114.6973350
  80.0928784  49.3152301 113.5587587  77.1111645  68.2982199 105.6337950
  76.5385612  68.9172386 105.1808422  77.6844439  68.8481561 106.1677872
  83.1787035  57.5440839 117.8184499  84.1304458  57.6438937 117.8396723
  83.0090485  56.7519108 118.3282583  81.2001414  54.6296422 118.0043899
  80.6051347  54.9101435 117.3090388  80.9151111  55.1190323 118.7760641
  80.3308905  68.5819349 106.7646532  81.2639578  68.5164911 106.9679407
  80.2432118  69.4175616 106.3061065  82.9596922  67.8985219 103.7250480
  82.8810553  67.5645083 104.6186237  83.7806588  68.3906987 103.7241952
  85.6575113  60.7646959 116.9326798  85.6251433  59.8262959 117.1186482
  86.2675736  60.8430995 116.1992623  77.4958444  59.6343012 102.9754002
  78.4417548  59.5049220 103.0442420  77.1172689  58.8957674 103.4523430
  85.8069601  57.5558002 116.9785081  85.2908650  56.7716459 116.7915010
  86.6909550  57.2276719 117.1431601  83.4680328  51.2999018 112.9380894
  83.2705149  50.9914106 113.8224226  84.0780034  52.0260657 113.0678824
  91.4751663  61.8262966 116.0732835  92.2055051  61.5648254 116.6340538
  90.8658608  61.0891688 116.1134903  89.5566960  59.9670828 116.6707286
  88.8300123  59.8326793 116.0623778  89.1414247  60.2747657 117.4764004
  77.3797136  63.6860758 124.4354659  78.3000146  63.8639357 124.6294706
  77.3446719  62.7416803 124.2834358  75.6801361  57.5592988 102.9108887
  74.7732816  57.2626101 102.9871601  75.9577342  57.2622806 102.0443174
  66.5979301  58.8799352 113.3607934  66.2782086  58.0264660 113.0682308
  66.0512729  59.0947930 114.1165901  70.3759209  61.5961793 117.0777440
  70.5945219  62.5278900 117.0965474  70.7884983  61.2369767 117.8632244
  77.2963427  52.1029878 109.0653129  76.4864155  51.7576963 109.4408375
  77.9847843  51.7937422 109.6540740  79.2253975  51.1807925 110.6877425
  79.7785013  51.6003378 111.3467448  79.4624061  50.2543673 110.7300381
  75.2487074  57.1694998 126.4680189  75.1483801  58.1189355 126.3992280
  75.0308616  56.8413237 125.5956259  74.4500145  54.4179923 103.0520867
  75.3119309  54.7434822 103.3116684  74.6350490  53.6311419 102.5393932
  66.4667561  62.5002263 115.3301055  65.7731033  62.0856216 114.8171010
  67.2140552  62.5422800 114.7334474  82.6032782  53.2908450 110.1956090
  82.0231451  53.9493254 109.8134142  82.3368715  52.4685794 109.7843507
  81.0536348  52.6913507 112.3977410  81.5536127  52.8030042 111.5891729
  81.6971956  52.3874560 113.0378218  75.1118344  60.5992137 125.2845251
  74.6285426  61.3992497 125.4909140  75.1979283  60.6100082 124.3312695
  68.3804304  62.4320517 113.2067070  68.3574992  62.5308204 112.2548953
  68.6904940  63.2785668 113.5284236  71.0391682  64.4896672 117.3213685
  71.9934935  64.4580614 117.2543616  70.8404205  64.0287296 118.1363911
  71.6291064  63.0597788 119.8884482  72.4483953  63.5541867 119.9119320
  71.9027871  62.1429756 119.8602050  81.3857660  55.4508540 109.2512438
  80.4983515  55.7358191 109.0332633  81.8011649  55.2902304 108.4039715
  84.7372196  55.4755061 112.9666777  85.5132586  55.9651514 113.2391394
  84.0120330  55.9013115 113.4238647  87.1744755  56.1882680 114.0240718
  87.7689245  55.9478416 113.3134026  87.2471338  55.4689811 114.6514254
  69.3941910  70.0316291 114.3383883  69.2596378  69.2716692 113.7721881
  68.9773973  70.7557191 113.8712671  80.5300873  65.2153215 103.3460458
  81.2336724  65.4203217 103.9618113  79.8063522  65.7829977 103.6109541
  81.3598684  60.9663076 109.4662728  81.3033885  61.4231628 108.6270360
  81.9127026  60.2053761 109.2885571  85.1703490  56.7552808 110.2912848
  84.9140424  56.3549444 111.1221055  84.5456358  57.4696602 110.1662987
  89.4815827  59.4948881 112.7984139  88.9215385  59.5642071 113.5715701
  88.8759331  59.3189866 112.0783635  72.5511036  70.9285608 114.5502325
  72.4343420  71.8731041 114.4481015  71.7303483  70.6259170 114.9388124
  82.4387571  65.6535744 105.3958918  83.2733175  65.2216943 105.2136393
  82.2771914  65.4817758 106.3235812  82.0933463  62.1567857 106.7615257
  82.0382267  61.9912129 105.8203701  81.4679518  62.8643890 106.9177447
  66.8825978  57.3935922 120.5876679  67.5284842  56.8834876 121.0763905
  66.6743129  58.1304603 121.1620105  75.4029588  51.6575966 106.3400576
  75.3908258  52.6017806 106.4968846  76.2953010  51.4746112 106.0460037
  73.5765550  71.5813870 117.7658254  74.4792797  71.6137480 118.0824749
  73.3502920  70.6514321 117.7804589  75.3319152  70.3344857 114.4268332
  74.3814783  70.3346718 114.3132705  75.6351639  69.5877591 113.9104367
  79.2181708  48.2518743 110.5946512  78.4514104  47.6977230 110.7403195
  79.6292413  48.3240612 111.4560664  71.2223469  54.5403539 124.6851694
  72.0854931  54.1840344 124.8955018  70.6488880  54.2017434 125.3727098
  83.7348368  77.9768300 111.4172510  83.1713233  77.8858237 110.6488798
  83.6200763  77.1568204 111.8975003  81.2812800  79.4719491 114.2556731
  82.0734092  79.1310316 113.8403030  81.5209450  79.5814466 115.1758884
  89.3147927  81.6439267 106.7286975  88.6635906  82.2293348 106.3420989
  90.1092289  82.1745462 106.7882013  83.2403554  78.7328405 107.1274110
  84.0134430  78.1857392 106.9886985  83.5928953  79.5972654 107.3388571
  85.5769832  74.8921071 104.7592559  85.8295352  74.3702592 103.9976022
  84.6394391  74.7287216 104.8619243  90.6213114  73.8956849 112.5667303
  91.4076204  73.4776272 112.2157720  90.8851819  74.8002941 112.7348951
  90.7923192  79.3329699 107.2655960  90.1569025  79.4064326 107.9776864
  90.4620598  79.9223298 106.5875039  85.2966120  76.7949177 106.9616934
  85.1802378  76.1194080 107.6298019  85.4068380  76.3081551 106.1449087
  87.6397661  76.2559324 110.6663624  87.2755868  75.7289945 111.3776545
  88.4964777  75.8657793 110.4930109  87.2803148  71.2849223 105.6624972
  87.4477551  72.1529460 106.0295443  87.0900317  71.4476505 104.7386261
  83.4890963  76.1979999 113.3627507  82.5641459  76.0656213 113.5705199
  83.7375376  76.9774218 113.8597449  87.2592369  73.7406881 106.6471639
  87.1391994  74.1863932 107.4857119  86.5644957  74.0892199 106.0885177
  80.8499774  75.8413273 114.1971296  80.9792155  76.0947752 115.1110708
  80.1697225  76.4340981 113.8775951  92.9577435  74.2128354 107.4751973
  93.8695291  74.4455741 107.2999671  92.4487082  74.7965398 106.9127052
  90.3013410  70.3886390 115.7241834  89.4397889  70.6867644 116.0158572
  90.3275845  70.6056789 114.7922867  87.1174979  78.9328581 112.1315640
  87.5813325  79.2116284 111.3420262  86.8531778  78.0312025 111.9488730
  86.0543865  75.0551733 108.9405205  86.7567909  75.5072777 109.4079131
  85.7224494  74.4135552 109.5685098  79.7969199  73.3135286 114.2422338
  79.0068253  73.5692814 113.7662449  80.2880447  74.1283623 114.3474379
  81.7483945  73.6779865 111.2005815  80.9515108  73.7898559 111.7189311
  81.5209537  74.0166517 110.3346706  78.0806902  73.5665776 116.6737329
  78.3314941  74.4512786 116.9394905  78.6166451  73.3870378 115.9012421
  87.2937630  81.8692676 109.0167310  87.1583305  82.7144211 109.4452158
  87.8347443  82.0711953 108.2533244  80.7467027  79.3868114 109.5895235
  81.2591548  80.1811364 109.7400800  81.3989740  78.6894404 109.5228837
  82.5561912  82.5033870 111.6717988  82.7328541  83.4251835 111.4838972
  83.3518746  82.1892289 112.1012368  90.6430094  65.3923237 117.5466203
  90.2994363  66.2824879 117.4705314  91.0109056  65.2024895 116.6835788
  78.7115944  77.7156768 110.3654806  79.5491166  78.1253776 110.1488513
  78.8894212  76.7756210 110.3354999  90.6080376  75.3831849 106.0538639
  90.0927000  76.1536453 106.2927026  90.3357685  74.7096985 106.6771700
  88.1927487  70.2281549 111.1123877  87.3369084  69.8388400 110.9329516
  88.6054439  70.3073510 110.2523662  89.7226634  67.7627893 115.5115437
  89.2191430  67.7258028 114.6983242  90.0157241  68.6720635 115.5712093
  85.9669520  67.8466622 114.5181618  86.8322517  67.6509431 114.1587508
  86.0347029  67.6176974 115.4450975  95.5814651  78.1364203 107.9891812
  94.8044093  77.7975363 107.5446974  96.2606131  78.1416826 107.3146777
  90.3966680  73.2558941 107.8798420  90.0916815  73.5705090 108.7308563
  91.3497122  73.3340361 107.9225753  88.8413111  79.4149164 109.5291374
  88.3134473  78.6801924 109.2164611  88.3400614  80.1923840 109.2831342
  83.5731839  70.0768830 111.8897985  84.1475591  69.8544012 111.1571178
  84.1602821  70.1457525 112.6426587  83.9001426  72.1073291 105.9093870
  83.0638738  72.4447978 106.2303145  83.7606196  71.9722271 104.9721007
  85.8754507  66.9510079 110.6173055  85.2218919  66.6359096 109.9929669
  85.8334981  66.3285820 111.3432878  86.9865712  77.2329374 102.5326347
  86.0792773  77.0018628 102.7317496  87.4836744  76.4366994 102.7200328
  89.8933790  85.9426881 105.4523033  89.2195489  86.2458578 106.0607991
  90.2799612  86.7455962 105.1028490  89.1092247  73.4392013 114.9420702
  88.1914808  73.6606960 114.7842390  89.5252391  73.5138323 114.0832410
  89.8927295  74.8383428 110.0723383  90.6399114  75.3504826 109.7630505
  90.1618884  74.5167481 110.9327776  88.1653945  77.3341969 107.0550337
  87.2565164  77.0501002 107.1522807  88.1949029  77.7541048 106.1953644
  92.3406132  71.8740545 112.0542172  91.6028889  71.3617931 112.3852414
  92.5932906  71.4340926 111.2425449  92.4417759  64.6516797 112.6483941
  92.7476636  63.7914160 112.3609856  93.1670364  65.2434417 112.4482935
  78.7342115  75.0547483 111.0365539  78.5366515  74.4616844 110.3116606
  78.1788779  74.7499693 111.7541478  86.7138839  74.9470590 113.1560132
  86.7687449  73.9944426 113.0802609  85.9030041  75.1030029 113.6401431
  87.8630033  78.8750713 104.3938415  87.4249463  78.1586572 103.9344053
  88.6040474  79.1026828 103.8323507  84.6531199  73.5647649 110.9150511
  83.8399065  73.8641820 111.3215703  85.1490193  73.1703338 111.6324993
  95.9803148  77.1507910 110.4514734  95.8421046  77.3409506 109.5235923
  95.6239366  77.9127293 110.9082785  84.1445274  71.1366005 116.5311746
  84.7844653  70.9954764 115.8334709  83.3122804  70.8500518 116.1550348
  84.9205578  80.4368435 112.6446738  85.7146176  79.9418756 112.4429313
  84.2097270  79.9086299 112.2814444  81.2288341  74.5811517 108.7206491
  80.2985929  74.5195973 108.9376453  81.3245813  74.0587470 107.9243132
  81.1473890  71.1066330 111.3084733  81.4080707  72.0211663 111.1993893
  81.9691062  70.6390773 111.4581346  82.6198815  72.5204087 118.4783557
  83.2921869  72.3121449 117.8296206  81.7928602  72.3226173 118.0388790
  88.0925006  86.1106554 107.6670112  88.2676761  85.6394597 108.4815735
  87.4057794  86.7372320 107.8951373  91.9841260  77.7335094 103.9870473
  91.3670431  77.0081923 103.8903526  91.5157749  78.4944455 103.6437547
  83.7739806  71.9520519 103.1091777  82.8969273  71.8309320 102.7454024
  84.2497559  71.1606597 102.8570666  75.2941946  76.7397678 113.2033284
  75.9812986  76.4259408 112.6154300  75.1390075  77.6439043 112.9300536
  80.0976669  71.6287875 117.6318308  80.0134857  71.0213545 116.8968718
  79.2759375  72.1196893 117.6327804  90.2700382  70.1141439 112.9988503
  90.7669082  69.3611401 112.6789573  89.4987364  70.1505755 112.4331712
  91.3530163  78.8713126 110.5726927  90.4186442  78.9914588 110.4031631
  91.5306832  77.9685593 110.3086936  86.8535351  72.2558822 112.7260188
  86.4833139  71.7029862 113.4141093  87.3494444  71.6516955 112.1735188
  94.7402715  74.7130445 111.1076961  95.2063167  75.5458437 111.0337263
  95.1910215  74.2475427 111.8122219  92.8078946  81.0574266 108.1063113
  93.0838790  80.9430861 109.0156987  91.9383444  80.6591751 108.0675286
  92.7119377  67.0811032 115.1467862  91.7982457  67.3115259 115.3150069
  93.1412479  67.1649476 115.9981894  89.7775175  84.2328802 109.0110975
  90.3062942  83.7221257 108.3981137  90.0403395  83.9171333 109.8756508
  74.8709923  74.8198272 115.4750752  74.9094022  74.2861863 116.2687870
  74.3650215  74.2933477 114.8561729  82.2500685  69.6662812 118.9713294
  82.3142011  70.5277643 118.5590692  82.1867805  69.0536814 118.2385652
  78.5018500  73.5462374 108.5504683  78.7971941  72.6373052 108.4971737
  77.6006536  73.5250113 108.2285685  82.0312747  71.6218371 114.5332232
  81.3099333  72.2354338 114.3939705  82.8206003  72.1576135 114.4548877
  80.2306342  71.2276472 108.6744008  79.9019048  70.3473851 108.4919114
  80.5845712  71.1724140 109.5620397  83.3448165  71.5149441 109.0419486
  83.6844237  72.0435363 108.3198094  83.7920285  71.8529848 109.8178052
  86.0391606  69.8986492 118.4922554  85.6988426  69.0994305 118.8943234
  85.3330612  70.1988203 117.9199387  86.6908078  66.9835805 116.9449877
  87.5134147  66.5096283 116.8228767  86.9346141  67.7626288 117.4448563
  85.3316312  70.0124063 107.2412779  86.0524675  70.3905316 106.7376495
  84.7081616  70.7312940 107.3447756  89.4747435  70.7169212 108.1771111
  89.6911049  71.5993850 107.8759939  88.9941502  70.3255425 107.4476753
  84.2146656  73.6754925 114.7541855  84.0691237  73.9895228 115.6466137
  83.7371860  74.2939826 114.2012754  86.0743039  70.6657473 114.8022745
  86.0604608  69.7698567 114.4655043  86.7915467  70.6728137 115.4361031
  87.9269170  71.0994813 116.8475872  87.6686948  72.0211884 116.8460203
  87.3954210  70.7025248 117.5376337  78.6892319  76.2160270 117.6929517
  78.1445787  76.9920078 117.8249791  79.5671668  76.5631074 117.5348638
  85.4779935  69.5471853 110.0710315  85.5995846  68.6188500 110.2701203
  85.1881978  69.5610539 109.1588631  88.3471126  67.2326764 113.2077035
  88.3692822  67.2966097 112.2529015  88.7639185  66.3931273 113.4017541
  93.8590531  83.5212365 106.7262856  94.5541436  84.1419058 106.9450171
  94.2013681  82.6707716 107.0015234  95.7581954  80.9712070 108.2550187
  96.2833278  81.3099343 107.5299507  95.6704307  80.0359086 108.0713321
  79.9214954  83.2295595 112.6170068  80.7472974  82.9299366 112.2368712
  79.5709006  82.4603217 113.0659857  78.1223559  81.1481921 113.5759002
  77.2855467  80.7204095 113.3943003  78.0947205  81.3414364 114.5129793
  84.4509994  81.1325986 108.1626202  84.5998114  81.8161451 107.5092875
  85.2576438  81.1131076 108.6775658  82.2062627  77.1591164 109.1687271
  81.9608669  76.2553494 109.3667481  82.3758542  77.1608314 108.2266749
  81.4758275  72.8919521 106.6673433  80.7827520  72.9663876 106.0113469
  81.2310027  72.1279865 107.1894950  90.1471931  64.4515123 114.0712923
  90.4273685  63.7838312 114.6973350  90.9322538  64.6444218 113.5587587
  87.9505400  83.6274117 105.6337950  87.3779367  84.2464304 105.1808422
  88.5238193  84.1773478 106.1677872  91.1702659  83.9111267 106.7646532
  92.1033333  83.8456828 106.9679407  91.0825872  84.7467534 106.3061065
  93.7990676  83.2277137 103.7250480  93.7204308  82.8937001 104.6186237
  94.6200343  83.7198905 103.7241952  88.3352198  74.9634929 102.9754002
  89.2811303  74.8341137 103.0442420  87.9566443  74.2249591 103.4523430
  94.3074083  66.6290935 112.9380894  94.1098904  66.3206024 113.8224226
  94.9173788  67.3552574 113.0678824  86.5195115  72.8884906 102.9108887
  85.6126571  72.5918018 102.9871601  86.7971096  72.5914724 102.0443174
  77.4373056  74.2091269 113.3607934  77.1175840  73.3556577 113.0682308
  76.8906484  74.4239847 114.1165901  88.1357181  67.4321795 109.0653129
  87.3257909  67.0868880 109.4408375  88.8241598  67.1229339 109.6540740
  90.0647729  66.5099842 110.6877425  90.6178768  66.9295296 111.3467448
  90.3017816  65.5835590 110.7300381  85.2893900  69.7471841 103.0520867
  86.1513064  70.0726739 103.3116684  85.4744244  68.9603337 102.5393932
  77.3061316  77.8294181 115.3301055  76.6124787  77.4148133 114.8171010
  78.0534307  77.8714717 114.7334474  93.4426536  68.6200367 110.1956090
  92.8625205  69.2785171 109.8134142  93.1762469  67.7977712 109.7843507
  91.8930103  68.0205425 112.3977410  92.3929881  68.1321960 111.5891729
  92.5365711  67.7166478 113.0378218  79.2198058  77.7612434 113.2067070
  79.1968746  77.8600122 112.2548953  79.5298695  78.6077585 113.5284236
  92.2251414  70.7800458 109.2512438  91.3377269  71.0650108 109.0332633
  92.6405403  70.6194221 108.4039715  95.5765951  70.8046979 112.9666777
  96.3526341  71.2943431 113.2391394  94.8514085  71.2305033 113.4238647
  91.3694628  80.5445132 103.3460458  92.0730478  80.7495135 103.9618113
  90.6457277  81.1121894 103.6109541  92.1992438  76.2954994 109.4662728
  92.1427640  76.7523545 108.6270360  92.7520781  75.5345678 109.2885571
  96.0097244  72.0844726 110.2912848  95.7534178  71.6841361 111.1221055
  95.3850112  72.7988520 110.1662987  93.2781325  80.9827662 105.3958918
  94.1126929  80.5508860 105.2136393  93.1165668  80.8109675 106.3235812
  92.9327217  77.4859775 106.7615257  92.8776021  77.3204046 105.8203701
  92.3073273  78.1935808 106.9177447  77.7219732  72.7227839 120.5876679
  78.3678596  72.2126793 121.0763905  77.5136884  73.4596521 121.1620105
  86.2423343  66.9867884 106.3400576  86.2302013  67.9309724 106.4968846
  87.1346765  66.8038029 106.0460037  90.0575462  63.5810661 110.5946512
  89.2907858  63.0269147 110.7403195  90.4686167  63.6532529 111.4560664
  94.7395181  87.4365209 105.9093870  93.9032493  87.7739896 106.2303145
  94.5999950  87.3014189 104.9721007  94.6133561  87.2812436 103.1091777
  93.7363027  87.1601237 102.7454024  95.0891314  86.4898515 102.8570666
  92.3152029  88.2211439 106.6673433  91.6221274  88.2955794 106.0113469
  92.0703781  87.4571783 107.1894950  97.3588870  88.2176823 102.9108887
  96.4520325  87.9209936 102.9871601  97.6364851  87.9206642 102.0443174
  96.1287654  85.0763759 103.0520867  96.9906818  85.4018657 103.3116684
  96.3137999  84.2895255 102.5393932  97.0817097  82.3159802 106.3400576
  97.0695767  83.2601642 106.4968846  97.9740519  82.1329947 106.0460037
  46.5358774   1.6321333  92.1768340  45.8620473   1.9353030  92.7853297
  46.9224596   2.4350414  91.8273797  50.5015514  -0.7893183  93.4508163
  51.1966419  -0.1686490  93.6695477  50.8438665  -1.6397832  93.7260541
  44.5930383  -0.6831431  92.3583256  44.0204350  -0.0641244  91.9053728
  45.1663177  -0.1332070  92.8923178  47.8127643  -0.3994281  93.4891839
  48.7458316  -0.4648720  93.6924714  47.7250856   0.4361985  93.0306371
  50.4415659  -1.0828411  90.4495786  50.3629291  -1.4168547  91.3431544
  51.2625326  -0.5906643  90.4487259  48.0119611  -3.7660416  90.0705764
  48.7155461  -3.5610413  90.6863420  47.2882260  -3.1983654  90.3354848
  49.9206309  -3.3277886  92.1204225  50.7551913  -3.7596688  91.9381699
  49.7590652  -3.4995873  93.0481119  58.5490584   7.1891765 102.2159401
  59.1868994   7.0698512 101.5122741  58.4311427   8.1372609 102.2747353
  51.2167106   8.9954669  98.1417817  50.6531971   8.9044606  97.3734105
  51.1019501   8.1754574  98.6220309  56.7966664  12.6625637  93.4532282
  56.1454644  13.2479717  93.0666296  57.5911027  13.1931832  93.5127319
  50.7222292   9.7514774  93.8519416  51.4953168   9.2043761  93.7132292
  51.0747690  10.6159023  94.0633878  53.0588569   5.9107440  91.4837866
  53.3114090   5.3888961  90.7221329  52.1213128   5.7473586  91.5864550
  58.1031852   4.9143219  99.2912609  58.8894941   4.4962642  98.9403026
  58.3670556   5.8189311  99.4594258  58.2741930  10.3516069  93.9901266
  57.6387762  10.4250695  94.7022171  57.9439336  10.9409668  93.3120345
  63.5040279   4.8518452 100.1945588  64.2365451   4.2817669 100.4283417
  62.7479635   4.4640052 100.6352093  52.7784858   7.8135546  93.6862241
  52.6621116   7.1380450  94.3543325  52.8887118   7.3267920  92.8694394
  55.1216399   7.2745693  97.3908930  54.7574606   6.7476314  98.1021852
  55.9783515   6.8844162  97.2175416  54.7621886   2.3035593  92.3870279
  54.9296288   3.1715829  92.7540750  54.5719055   2.4662875  91.4631568
  54.7411107   4.7593250  93.3716946  54.6210732   5.2050301  94.2102426
  54.0463695   5.1078568  92.8130484  52.5017999  17.5296892  97.0207077
  52.4242029  18.4804717  97.0995557  51.8979643  17.1842765  97.6782003
  60.4396173   5.2314724  94.1997280  61.3514029   5.4642110  94.0244977
  59.9305820   5.8151768  93.6372358  59.0465755  10.2140542 101.5910861
  58.4174618  10.3786256 100.8886929  58.6591417  10.6282152 102.3621825
  62.9254987  11.1494980  98.9455225  62.2406025  11.5293881  98.3952258
  63.0098837  11.7590307  99.6787173  54.5993717   9.9514950  98.8560946
  55.0632063  10.2302653  98.0665569  54.3350515   9.0498395  98.6734037
  53.5362603   6.0738103  95.6650511  54.2386647   6.5259146  96.1324438
  53.2043232   5.4321921  96.2930405  61.2951747  11.6726894 103.7172926
  62.1169191  11.2707082 103.4355607  61.2914150  11.5695129 104.6689042
  69.3857740   8.0165643 100.0657897  68.6321448   7.4473041  99.9101902
  69.5205281   7.9828307 101.0128532  54.7756368  12.8879045  95.7412617
  54.6402043  13.7330581  96.1697464  55.3166180  13.0898323  94.9778550
  48.2285765  10.4054483  96.3140542  48.7410286  11.1997733  96.4646106
  48.8808478   9.7080774  96.2474143  50.0380650  13.5220239  98.3963295
  50.2147278  14.4438204  98.2084279  50.8337484  13.2078659  98.8257675
  51.1611965  15.0398413 104.3973637  51.7119391  14.9115477 103.6250631
  50.3223441  15.3393302 104.0468530  46.1934682   8.7343137  97.0900112
  47.0309904   9.1440146  96.8733820  46.3712950   7.7942580  97.0600306
  58.0899114   6.4018218  92.7783945  57.5745738   7.1722823  93.0172333
  57.8176423   5.7283354  93.4017007  55.6746225   1.2467919  97.8369184
  54.8187822   0.8574769  97.6574822  56.0873177   1.3259880  96.9768969
  63.0633388   9.1550573  94.7137119  62.2862831   8.8161732  94.2692281
  63.7424869   9.1603196  94.0392084  57.8785417   4.2745310  94.6043726
  57.5735553   4.5891459  95.4553870  58.8315859   4.3526730  94.6471059
  56.3231849  10.4335534  96.2536680  55.7953211   9.6988293  95.9409918
  55.8219352  11.2110210  96.0076649  61.3024695   8.6284554 101.3703727
  60.6448370   9.3183815 101.4583855  62.1065094   9.0180986 101.7137713
  60.1130154   6.9828927  99.4207668  60.6262036   7.6158919  99.9229378
  60.7631378   6.3830122  99.0551028  51.3820164   3.1259661  92.6339177
  50.5457476   3.4634347  92.9548452  51.2424934   2.9908641  91.6966314
  54.4684449   8.2515744  89.2571653  53.5611511   8.0204997  89.4562802
  54.9655481   7.4553363  89.4445635  57.3752528  16.9613251  92.1768340
  56.7014227  17.2644948  92.7853297  57.7618350  17.7642331  91.8273797
  57.3746033   5.8569798  96.7968689  58.1217852   6.3691195  96.4875811
  57.6437622   5.5353851  97.6573083  55.6472683   8.3528339  93.7795643
  54.7383902   8.0687372  93.8768113  55.6767767   8.7727417  92.9198950
  60.8791950  11.9634928  97.5486811  60.4254277  11.1225838  97.6052002
  60.2485917  12.5996327  97.8861591  59.8224870   2.8926914  98.7787478
  59.0847627   2.3804300  99.1097721  60.0751643   2.4527296  97.9670755
  59.3224889  13.8011425  98.4836629  59.6147864  14.3616482  97.7648995
  59.8323510  14.0939986  99.2389788  54.1957577   5.9656959  99.8805439
  54.2506187   5.0130796  99.8047915  53.3848779   6.1216398 100.3646737
  55.3448771   9.8937082  91.1183722  54.9068201   9.1772941  90.6589359
  56.0859211  10.1213197  90.5568813  52.1349937   4.5834019  97.6395818
  51.3217802   4.8828190  98.0461010  52.6308931   4.1889708  98.3570300
  54.2858515  14.5791776  99.5730082  54.2434693  14.8052622  98.6438614
  55.2021214  14.3455151  99.7215884  63.4621885   8.1694279  97.1760041
  63.3239784   8.3595875  96.2481230  63.1058104   8.9313662  97.6328092
  63.4891265  10.2370806 102.1871312  63.9227772  10.1446096 103.0354366
  64.2022846  10.2128307 101.5491328  52.4024315  11.4554805  99.3692045
  53.1964914  10.9605125  99.1674620  51.6916008  10.9272668  99.0059751
  57.2219160  13.8372901 103.7204413  57.2756182  14.4063837 104.4882129
  56.3533941  14.0074786 103.3558450  48.7107079   5.5997887  95.4451798
  47.7804667   5.5382342  95.6621760  48.8064551   5.0773839  94.6488439
  64.3506815  10.2794507 104.7204198  64.5442705  11.1840318 104.9663472
  64.2507433   9.8201926 105.5542783  54.9795591  12.0283827 103.0489882
  54.8406677  11.6602611 103.9215820  54.1910188  12.5431466 102.8773840
  55.5743743  17.1292923  94.3915419  55.7495499  16.6580967  95.2061041
  54.8876531  17.7558690  94.6196679  56.5300807  11.4065430 100.4378720
  56.1950639  11.3666200 101.3336370  56.0304752  10.7410146  99.9649130
  59.4659998   8.7521464  90.7115780  58.8489169   8.0268292  90.6148832
  58.9976487   9.5130824  90.3682854  50.1404829  20.2782286 101.1655279
  50.3801427  20.9100810 101.8434297  49.2974025  19.9270326 101.4520638
  51.2558544   2.9706888  89.8337084  50.3788010   2.8495689  89.4699331
  51.7316297   2.1792967  89.5815973  54.6532691  16.0861409 103.5696783
  54.5802862  16.8916380 104.0816087  54.2110084  16.2853374 102.7444804
  54.4422470  15.3233179  97.0799604  53.6589992  15.8654859  97.1737829
  55.1415215  15.8407158  97.4793846  65.6048878   6.8368174 101.3652101
  65.5938754   7.7192889 100.9946034  64.7366257   6.4839724 101.1706638
  57.1131374  15.9848243 105.7254942  57.8259346  16.6195707 105.6530843
  56.6221403  16.0812109 104.9094943  58.8348901   9.8899495  97.2972233
  57.9005180  10.0100958  97.1276938  59.0125569   8.9871962  97.0332243
  62.2221452   5.7316815  97.8322267  62.6881905   6.5644806  97.7582570
  62.6728953   5.2661796  98.5367526  60.2897683  12.0760636  94.8308419
  60.5657527  11.9617231  95.7402293  59.4202182  11.6778121  94.7920592
  56.9251747  16.3246987  98.4741233  57.1074142  15.5068643  98.9368985
  57.7484733  16.5414679  98.0366123  57.2593913  15.2515172  95.7356281
  57.7881679  14.7407626  95.1226444  57.5222133  14.9357702  96.6001815
  50.6149661  16.3030289  98.4954057  49.9460036  16.7876416  98.0118097
  50.4762531  16.5499509  99.4097436  54.7554929  18.3374032 105.0936716
  55.3073238  18.5005654 105.8585801  55.0961123  18.9278470 104.4216741
  45.9837238   4.5648744  95.2749990  46.2790679   3.6559422  95.2217043
  45.0825274   4.5436483  94.9530992  57.8923317  16.2856008 102.0800398
  57.7674456  15.4845747 101.5711343  58.5502408  16.7802201 101.5914368
  59.9558225  14.0865028 103.7079948  59.0088561  13.9670379 103.6358275
  60.3040998  13.1987526 103.7906209  56.9604658  13.8817744  99.9084300
  56.8129621  12.9534451 100.0891870  57.7858152  13.9037835  99.4241375
  50.8266903   2.5335811  95.7664792  51.1662975   3.0621732  95.0443401
  51.2739023   2.8716217  96.5423359  60.5638780  14.7046303 100.9949173
  61.4885328  14.4989164 100.8573624  60.3954084  14.4562704 101.9038515
  52.8135050   1.0310433  93.9658085  53.5343412   1.4091685  93.4621802
  52.1900354   1.7499309  94.0693063  56.9566173   1.7355582  94.9016417
  57.1729787   2.6180219  94.6005246  56.4760240   1.3441795  94.1722059
  60.3534096  15.2231970  96.3511264  60.5270974  14.6578393  95.5985117
  60.8462988  16.0232865  96.1690754  66.2073488   7.9868393  97.9701564
  66.6504634   7.2375718  97.5720687  65.3299998   7.9778529  97.5875296
  61.3409269  14.5398735  93.4508163  62.0360174  15.1605427  93.6695477
  61.6832419  13.6894086  93.7260541  63.2400692  11.9898440  94.9795494
  63.7652016  12.3285713  94.2544814  63.1523045  11.0545455  94.7958628
  54.9241353  18.0570423  99.3390747  54.4846343  17.5646802 100.0323603
  55.6749470  17.5143391  99.0982822  47.4033692  14.2481964  99.3415375
  48.2291712  13.9485736  98.9614018  47.0527744  13.4789587  99.7905163
  52.3715225  13.6008432 101.4113048  51.7495234  12.9379137 101.1115276
  53.0420092  13.6269564 100.7286696  51.9328732  12.1512356  94.8871509
  52.0816852  12.8347820  94.2338182  52.7395175  12.1317446  95.4020965
  65.7506352   9.4573631 100.3624012  66.5853244   9.8963435 100.5261572
  65.8865481   8.9812285  99.5432258  49.6881365   8.1777533  95.8932578
  49.4427407   7.2739863  96.0912788  49.8577279   8.1794684  94.9512056
  48.9577012   3.9105891  93.3918739  48.2646257   3.9850246  92.7358775
  48.7128764   3.1466235  93.9140256  55.4324137  14.6460486  92.3583256
  54.8598105  15.2650673  91.9053728  56.0056931  15.1959848  92.8923178
  58.6521397  14.9297636  93.4891839  59.5852070  14.8643198  93.6924714
  58.5644610  15.7653903  93.0306371  61.2809414  14.2463507  90.4495786
  61.2023045  13.9123370  91.3431544  62.1019081  14.7385275  90.4487259
  63.9787605   7.1125246 103.6572105  63.9463925   6.1741247 103.8431789
  64.5888229   7.1909283 102.9237930  55.8170936   5.9821299  89.6999309
  56.7630041   5.8527507  89.7687727  55.4385181   5.2435961  90.1768737
  69.7964155   8.1741253 102.7978142  70.5267543   7.9126541 103.3585845
  69.1871100   7.4369975 102.8380210  67.8779452   6.3149115 103.3952593
  67.1512616   6.1805080 102.7869084  67.4626739   6.6225944 104.2009311
  54.0013853   3.9071275  89.6354194  53.0945308   3.6104388  89.7116908
  54.2789834   3.6101093  88.7688480  55.6175919  -1.5491835  95.7898435
  54.8076647  -1.8944750  96.1653681  56.3060336  -1.8584291  96.3786047
  52.7712638   0.7658211  89.7766173  53.6331802   1.0913109  90.0361991
  52.9562982  -0.0210294  89.2639239  60.9245274  -0.3613263  96.9201396
  60.3443943   0.2971541  96.5379449  60.6581207  -1.1835918  96.5088814
  59.7070152   1.7986827  95.9757745  58.8196007   2.0836478  95.7577939
  60.1224141   1.6380591  95.1285021  63.0584688   1.8233348  99.6912084
  63.8345078   2.3129801  99.9636701  62.3332823   2.2491403 100.1483953
  65.4957247   2.5360968 100.7486024  66.0901738   2.2956704 100.0379333
  65.5683831   1.8168098 101.3759561  47.7154403  16.3794579 101.0629189
  47.5808871  15.6194979 100.4967187  47.2986465  17.1035478 100.5957978
  58.8513366  11.5631502  90.0705764  59.5549216  11.7681505  90.6863420
  58.1276014  12.1308264  90.3354848  59.6811176   7.3141363  96.1908035
  59.6246377   7.7709915  95.3515667  60.2339518   6.5532048  96.0130877
  63.4915982   3.1031095  97.0158154  63.2352916   2.7027731  97.8466362
  62.8668850   3.8174889  96.8908293  67.8028320   5.8427168  99.5229446
  67.2427878   5.9120358 100.2961008  67.1971823   5.6668153  98.8028942
  50.8723529  17.2763896 101.2747632  50.7555913  18.2209328 101.1726322
  50.0515975  16.9737457 101.6633431  60.7600063  12.0014031  92.1204225
  61.5945667  11.5695230  91.9381699  60.5984406  11.8296045  93.0481119
  60.4145955   8.5046145  93.4860564  60.3594759   8.3390416  92.5449008
  59.7892011   9.2122177  93.6422754  53.7242081  -1.9945746  93.0645882
  53.7120751  -1.0503907  93.2214153  54.6165503  -2.1775601  92.7705343
  51.8978043  17.9292157 104.4903560  52.8005289  17.9615768 104.8070055
  51.6715413  16.9992608 104.5049896  53.6531645  16.6823144 101.1513639
  52.7027276  16.6825006 101.0378011  53.9564131  15.9355879 100.6349674
  69.3884338  22.5183682 102.2159401  70.0262748  22.3990430 101.5122741
  69.2705181  23.4664526 102.2747353  66.1974044  22.4711110 102.1520926
  65.8592556  22.3552175 101.2641461  67.0663813  22.0702276 102.1321932
  62.0560860  24.3246587  98.1417817  61.4925725  24.2336524  97.3734105
  61.9413255  23.5046491  98.6220309  66.6793827  23.6245962 108.1107132
  66.6682468  23.2298760 107.2387635  66.8414467  22.8912035 108.7040903
  59.6025292  25.8197778 100.9802037  60.3946584  25.4788603 100.5648337
  59.8421942  25.9292754 101.9004191  67.6360419  27.9917555  93.4532282
  66.9848399  28.5771635  93.0666296  68.4304782  28.5223750  93.5127319
  61.5616046  25.0806692  93.8519416  62.3346922  24.5335679  93.7132292
  61.9141445  25.9450941  94.0633878  63.4001089  26.4083074 107.0586315
  63.1090955  27.3128705 106.9432982  64.0358073  26.4499602 107.7730385
  64.3257295  23.7859923 103.6487675  64.9220868  23.5615945 102.9344638
  64.3832267  23.0444668 104.2513123  63.8982324  21.2399358  91.4837866
  64.1507845  20.7180879  90.7221329  62.9606883  21.0765503  91.5864550
  68.9425607  20.2435136  99.2912609  69.7288696  19.8254559  98.9403026
  69.2064311  21.1481228  99.4594258  69.1135684  25.6807987  93.9901266
  68.4781517  25.7542613  94.7022171  68.7833090  26.2701585  93.3120345
  74.3434034  20.1810369 100.1945588  75.0759206  19.6109586 100.4283417
  73.5873389  19.7931970 100.6352093  63.6178613  23.1427464  93.6862241
  63.5014871  22.4672367  94.3543325  63.7280872  22.6559838  92.8694394
  65.9610154  22.6037611  97.3908930  65.5968361  22.0768232  98.1021852
  66.8177269  22.2136080  97.2175416  71.8659454  13.8931944 104.6540196
  71.5342779  14.7627355 104.4301411  71.2705068  13.5768228 105.3334227
  65.6015640  17.6327511  92.3870279  65.7690043  18.5007747  92.7540750
  65.4112810  17.7954792  91.4631568  68.3590974  26.0944490 104.0536109
  68.0591697  26.9969528 103.9451916  68.0142033  25.8276673 104.9057262
  61.8103455  22.5458286 100.0872814  60.8853952  22.4134500 100.2950505
  62.0587868  23.3252506 100.5842756  71.7588117  18.6127030 101.7333546
  70.8504995  18.5442438 101.4392307  71.7075713  19.0898975 102.5615372
  65.5804861  20.0885168  93.3716946  65.4604487  20.5342219  94.2102426
  64.8857450  20.4370486  92.8130484  59.1712266  22.1891560 100.9216603
  59.3004647  22.4426039 101.8356014  58.4909717  22.7819268 100.6021258
  63.3411753  32.8588810  97.0207077  63.2635783  33.8096635  97.0995557
  62.7373397  32.5134682  97.6782003  65.8328983  20.0316675 109.6768444
  65.0562317  20.5910595 109.6671308  66.4719546  20.5173458 110.1983314
  73.6249764  16.8143468 103.5111420  72.9824144  17.1076001 102.8651215
  73.1204692  16.6996388 104.3164617  71.2789928  20.5606641  94.1997280
  72.1907784  20.7934028  94.0244977  70.7699575  21.1443686  93.6372358
  64.0875356  22.8402129 109.2386411  64.8290040  23.3787173 108.9621234
  63.3812341  23.4668417 109.3957963  69.5630695  24.9831269 107.8358572
  69.9714051  24.5413680 107.0913205  68.8407957  24.4083897 108.0892765
  65.9161765  19.9203876 105.2092129  66.7622960  20.3443289 105.3526778
  65.8560403  19.2637500 105.9030692  69.8859510  25.5432460 101.5910861
  69.2568372  25.7078174 100.8886929  69.4985172  25.9574069 102.3621825
  73.7648742  26.4786898  98.9455225  73.0799780  26.8585799  98.3952258
  73.8492591  27.0882224  99.6787173  69.0661211  17.5808244 106.8673303
  68.8222142  18.3350305 106.3307579  69.3421141  17.9593592 107.7020550
  71.0199673  24.1246857 105.5450568  71.2316569  24.7678617 104.8684950
  70.9729422  23.2909173 105.0772499  68.6225902  16.7364677 102.4487141
  67.7610381  17.0345931 102.7403878  68.6488337  16.9535076 101.5168173
  65.4387472  25.2806868  98.8560946  65.9025817  25.5594571  98.0665569
  65.1744270  24.3790312  98.6734037  62.3311553  24.8278349 101.7940709
  62.9012910  25.2565618 101.1558194  62.9219665  24.5460934 102.4924895
  64.3756358  21.4030020  95.6650511  65.0780401  21.8551064  96.1324438
  64.0436986  20.7613839  96.2930405  62.8236719  19.9941777 110.0401721
  62.1935380  20.6758058 110.2737118  62.7172807  19.8824858 109.0954859
  58.1181692  19.6613573 100.9667645  57.3280746  19.9171101 100.4907756
  58.6092939  20.4761911 101.0719685  72.1345501  27.0018812 103.7172926
  72.9562945  26.5998999 103.4355607  72.1307904  26.8987046 104.6689042
  60.0696437  20.0258152  97.9251122  59.2727600  20.1376846  98.4434617
  59.8422029  20.3644804  97.0592012  65.9002105  26.5502855 105.8733636
  65.9646537  27.0123263 106.7091808  65.1913029  25.9200220 106.0015946
  56.4019395  19.9144063 103.3982636  56.6527433  20.7991073 103.6640212
  56.9378943  19.7348665 102.6257728  80.2251494  23.3457561 100.0657897
  79.4715203  22.7764959  99.9101902  80.3599036  23.3120225 101.0128532
  65.6150122  28.2170963  95.7412617  65.4795797  29.0622499  96.1697464
  66.1559935  28.4190240  94.9778550  59.0679520  25.7346401  96.3140542
  59.5804040  26.5289651  96.4646106  59.7202233  25.0372691  96.2474143
  60.8774404  28.8512157  98.3963295  61.0541033  29.7730122  98.2084279
  61.6731238  28.5370576  98.8257675  65.0185423  15.7120422 109.9947228
  65.7595136  16.3127575 109.9151691  65.2503346  14.9698060 109.4365271
  60.1626761  20.8976789 108.2725458  60.0480276  19.9962046 108.5732557
  59.3071279  21.1440486 107.9210275  67.2418599  28.8394529 109.8712959
  66.7982453  28.0530908 109.5533863  67.9035812  29.0273680 109.2056849
  62.0005720  30.3690331 104.3973637  62.5513145  30.2407394 103.6250631
  61.1617196  30.6685220 104.0468530  69.3399837  29.1197329 107.8994360
  69.3218312  29.9406210 107.4074629  70.2619757  28.9951404 108.1244501
  65.7972891  26.6341459 108.7417868  66.3301228  25.8729747 108.5117176
  65.2686972  26.3415111 109.4842023  68.9642586  11.7401525 104.2711510
  68.6206855  12.6303166 104.1950621  69.3321549  11.5503182 103.4081095
  57.0328437  24.0635055  97.0900112  57.8703659  24.4732064  96.8733820
  57.2106704  23.1234497  97.0600306  68.9292869  21.7310136  92.7783945
  68.4139492  22.5014740  93.0172333  68.6570177  21.0575272  93.4017007
  66.5139980  16.5759837  97.8369184  65.6581576  16.1866687  97.6574822
  66.9266931  16.6551797  96.9768969  68.0439126  14.1106180 102.2360743
  67.5403922  14.0736315 101.4228549  68.3369733  15.0198923 102.2957400
  64.2882012  14.1944910 101.2426925  65.1535009  13.9987718 100.8832815
  64.3559521  13.9655261 102.1696282  73.9027143  24.4842490  94.7137119
  73.1256586  24.1453650  94.2692281  74.5818624  24.4895114  94.0392084
  68.7179172  19.6037228  94.6043726  68.4129307  19.9183377  95.4553870
  69.6709614  19.6818648  94.6471059  67.1625604  25.7627451  96.2536680
  66.6346965  25.0280211  95.9409918  66.6613106  26.5402128  96.0076649
  72.1418450  23.9576472 101.3703727  71.4842124  24.6475733 101.4583855
  72.9458849  24.3472904 101.7137713  61.8944331  16.4247118  98.6143292
  62.4688083  16.2022299  97.8816485  62.4815314  16.4935812  99.3671893
  70.9523909  22.3120844  99.4207668  71.4655790  22.9450836  99.9229378
  71.6025132  21.7122040  99.0551028  62.2213918  18.4551579  92.6339177
  61.3851231  18.7926265  92.9548452  62.0818688  18.3200558  91.6966314
  64.1966999  13.2988366  97.3418361  63.5431411  12.9837384  96.7174976
  64.1547473  12.6764107  98.0678184  65.3078204  23.5807661  89.2571653
  64.4005266  23.3496915  89.4562802  65.8049236  22.7845281  89.4445635
  68.2146283  32.2905169  92.1768340  67.5407982  32.5936865  92.7853297
  68.6012105  33.0934249  91.8273797  67.4304739  19.7870300 101.6666009
  66.5127301  20.0085247 101.5087697  67.8464883  19.8616610 100.8077716
  68.2139787  21.1861716  96.7968689  68.9611606  21.6983113  96.4875811
  68.4831377  20.8645768  97.6573083  66.4866437  23.6820256  93.7795643
  65.5777657  23.3979289  93.8768113  66.5161521  24.1019335  92.9198950
  71.7185705  27.2926846  97.5486811  71.2648032  26.4517756  97.6052002
  71.0879671  27.9288244  97.8861591  70.6618624  18.2218832  98.7787478
  69.9241381  17.7096218  99.1097721  70.9145398  17.7819214  97.9670755
  70.1618644  29.1303343  98.4836629  70.4541618  29.6908400  97.7648995
  70.6717265  29.4231904  99.2389788  70.7630252  10.9995084  99.3729248
  71.0689128  10.1392447  99.0855163  71.4882856  11.5912704  99.1728242
  57.0554608  21.4025770  97.7610846  56.8579008  20.8095131  97.0361912
  56.5001272  21.0977981  98.4786784  65.0351331  21.2948877  99.8805439
  65.0899941  20.3422713  99.8047915  64.2242533  21.4508316 100.3646737
  66.1842525  25.2229000  91.1183722  65.7461955  24.5064859  90.6589359
  66.9252966  25.4505115  90.5568813  62.9743691  19.9125937  97.6395818
  62.1611557  20.2120107  98.0461010  63.4702685  19.5181625  98.3570300
  65.1252269  29.9083694  99.5730082  65.0828448  30.1344540  98.6438614
  66.0414968  29.6747068  99.7215884  68.5717903  20.3767761 106.4710712
  68.9267291  20.6039234 107.3305177  69.2190034  20.7086138 105.8487967
  74.3015640  23.4986197  97.1760041  74.1633538  23.6887793  96.2481230
  73.9451859  24.2605580  97.6328092  62.4657766  17.4844292 103.2557053
  63.1057145  17.3433051 102.5580016  61.6335297  17.1978806 102.8795655
  74.3285019  25.5662724 102.1871312  74.7621526  25.4738013 103.0354366
  75.0416600  25.5420225 101.5491328  63.2418070  26.7846723  99.3692045
  64.0358668  26.2897043  99.1674620  62.5309762  26.2564586  99.0059751
  68.0612914  29.1664818 103.7204413  68.1149937  29.7355755 104.4882129
  67.1927696  29.3366703 103.3558450  59.5500833  20.9289804  95.4451798
  58.6198421  20.8674260  95.6621760  59.6458305  20.4065757  94.6488439
  59.4686382  17.4544617  98.0330039  59.7293200  18.3689950  97.9239200
  60.2903555  16.9869060  98.1826652  60.9411308  18.8682374 105.2028864
  61.6134361  18.6599737 104.5541513  60.1141094  18.6704460 104.7634096
  75.1900569  25.6086425 104.7204198  75.3836459  26.5132235 104.9663472
  75.0901187  25.1493844 105.5542783  66.8436880  15.4944315 107.2194525
  66.1964795  16.1934265 107.1259001  67.6137895  15.9280459 107.5870773
  70.2515678  25.7593167 110.2945078  70.1001184  25.5303719 109.3775162
  70.2420357  26.7163769 110.3076423  67.0201014  23.3325080 105.2791345
  67.9493074  23.4836240 105.1060312  66.5992044  23.4209101 104.4239991
  65.8189346  27.3575745 103.0489882  65.6800432  26.9894529 103.9215820
  65.0303942  27.8723384 102.8773840  66.4137498  32.4584841  94.3915419
  66.5889254  31.9872884  95.2061041  65.7270286  33.0850607  94.6196679
  67.3694561  26.7357347 100.4378720  67.0344394  26.6958117 101.3336370
  66.8698507  26.0702063  99.9649130  61.3438805  22.1424977 105.9631301
  61.2058603  21.4105216 106.5642840  62.2543729  22.0533877 105.6815489
  70.3053753  24.0813382  90.7115780  69.6882923  23.3560210  90.6148832
  69.8370241  24.8422742  90.3682854  63.9721106  21.8544937 105.4514981
  64.6820724  21.2138129 105.4101599  63.9290414  22.1057832 106.3741162
  71.9607884  28.7912290 108.3721560  71.9020431  28.1071510 107.7052143
  72.3627403  29.5331280 107.9202186  62.6850040  18.8410155 107.2710620
  62.1487397  18.3900893 107.9232217  62.0966748  18.9756063 106.5281085
  60.9798583  35.6074204 101.1655279  61.2195181  36.2392728 101.8434297
  60.1367780  35.2562244 101.4520638  62.0952299  18.2998806  89.8337084
  61.2181765  18.1787607  89.4699331  62.5710052  17.5084884  89.5815973
  71.9625292  26.7551874 106.6035540  71.0752070  26.4177796 106.7261939
  72.5323843  26.0234905 106.8404305  53.6154439  23.0875966  99.9278591
  54.3025479  22.7737696  99.3399606  53.4602567  23.9917330  99.6545842
  58.4189161  17.9766162 104.3563615  58.3347350  17.3691832 103.6214025
  57.5971867  18.4675181 104.3573111  65.4926445  31.4153326 103.5696783
  65.4196617  32.2208298 104.0816087  65.0503838  31.6145292 102.7444804
  65.2816225  30.6525096  97.0799604  64.4983747  31.1946777  97.1737829
  65.9808970  31.1699076  97.4793846  68.5912875  16.4619726  99.7233810
  69.0881574  15.7089688  99.4034880  67.8199856  16.4984042  99.1577019
  76.4442632  22.1660091 101.3652101  76.4332508  23.0484807 100.9946034
  75.5760012  21.8131642 101.1706638  67.9525129  31.3140160 105.7254942
  68.6653101  31.9487625 105.6530843  67.4615157  31.4104026 104.9094943
  69.6742655  25.2191413  97.2972233  68.7398934  25.3392875  97.1276938
  69.8519324  24.3163880  97.0332243  65.1747844  18.6037109  99.4505494
  64.8045631  18.0508149 100.1386400  65.6706936  17.9995242  98.8980494
  73.0615207  21.0608732  97.8322267  73.5275659  21.8936724  97.7582570
  73.5122707  20.5953714  98.5367526  63.0037042  29.0634604 106.5460512
  63.7046502  29.6971087 106.6989907  62.5332157  29.4049335 105.7856152
  71.1291438  27.4052554  94.8308419  71.4051282  27.2909148  95.7402293
  70.2595937  27.0070038  94.7920592  71.0331870  13.4289319 101.8713169
  70.1194949  13.6593546 102.0395376  71.4624971  13.5127763 102.7227201
  70.8038328  21.6179211 104.3713063  70.1509778  21.8655119 103.7165515
  71.1818708  20.8043349 104.0375540  67.7645502  31.6538904  98.4741233
  67.9467896  30.8360560  98.9368985  68.5878488  31.8706597  98.0366123
  68.0987667  30.5807090  95.7356281  68.6275434  30.0699544  95.1226444
  68.3615887  30.2649620  96.6001815  66.8525901  22.3599022 110.8579100
  66.1766538  22.2593152 111.5281475  67.6753535  22.2038236 111.3215097
  58.6004760  28.5970959 103.4791615  59.1858197  27.8514647 103.6119519
  58.4029599  28.9074916 104.3628279  61.4543415  31.6322206  98.4954057
  60.7853791  32.1168334  98.0118097  61.3156285  31.8791427  99.4097436
  53.1922415  21.1676559 102.1996058  53.2306514  20.6340150 102.9933176
  52.6862708  20.6411765 101.5807035  65.5948684  33.6665950 105.0936716
  66.1466992  33.8297571 105.8585801  65.9354877  34.2570388 104.4216741
  60.5713177  16.0141100 105.6958600  60.6354504  16.8755930 105.2835998
  60.5080297  15.4015101 104.9630959  70.4459558  28.4927207 110.9485370
  70.9899462  29.1057166 110.4540325  69.8646403  29.0506786 111.4652383
  56.8230992  19.8940661  95.2749990  57.1184434  18.9851340  95.2217043
  55.9219028  19.8728401  94.9530992  68.7317071  31.6147925 102.0800398
  68.6068211  30.8137665 101.5711343  69.3896162  32.1094119 101.5914368
  60.3525239  17.9696658 101.2577538  59.6311825  18.5832626 101.1185011
  61.1418495  18.5054423 101.1794184  70.7951980  29.4156945 103.7079948
  69.8482315  29.2962297 103.6358275  71.1434753  28.5279443 103.7906209
  63.1551553  15.3051084 107.5318190  63.6785955  15.5513381 108.2944499
  62.9363886  16.1371119 107.1121327  58.5518834  17.5754759  95.3989315
  58.2231540  16.6952138  95.2164421  58.9058205  17.5202428  96.2865704
  67.7998413  29.2109662  99.9084300  67.6523375  28.2826369 100.0891870
  68.6251906  29.2329752  99.4241375  61.6660657  17.8627729  95.7664792
  62.0056730  18.3913650  95.0443401  62.1132778  18.2008135  96.5423359
  71.4032535  30.0338220 100.9949173  72.3279082  29.8281082 100.8573624
  71.2347838  29.7854621 101.9038515  64.3604098  16.2464779 105.2167860
  64.0200918  15.4472592 105.6188540  63.6543104  16.5466490 104.6444694
  65.0120570  13.3314092 103.6695183  65.8346639  12.8574570 103.5474074
  65.2558633  14.1104576 104.1693870  63.6528804  16.3602350  93.9658085
  64.3737167  16.7383603  93.4621802  63.0294108  17.0791227  94.0693063
  67.7959927  17.0647499  94.9016417  68.0123542  17.9472137  94.6005246
  67.3153994  16.6733713  94.1722059  62.5359149  20.0233212 101.4787162
  62.3903729  20.3373516 102.3711444  62.0584352  20.6418113 100.9258061
  64.3955532  17.0135760 101.5268052  64.3817100  16.1176854 101.1900350
  65.1127960  17.0206424 102.1606338  66.2481662  17.4473101 103.5721179
  65.9899440  18.3690171 103.5705510  65.7166703  17.0503535 104.2621643
  71.1927851  30.5523888  96.3511264  71.3664729  29.9870310  95.5985117
  71.6856742  31.3524783  96.1690754  57.0104811  22.5638557 104.4174823
  56.4658279  23.3398365 104.5495098  57.8884161  22.9109361 104.2593945
  63.7992427  15.8950141  96.7955622  63.9208339  14.9666787  96.9946509
  63.5094470  15.9088827  95.8833937  66.6683618  13.5805051  99.9322342
  66.6905315  13.6444384  98.9774321  67.0851677  12.7409560 100.1262848
  77.0467242  23.3160311  97.9701564  77.4898388  22.5667636  97.5720687
  76.1693752  23.3070447  97.5875296  72.1803023  29.8690652  93.4508163
  72.8753928  30.4897345  93.6695477  72.5226174  29.0186003  93.7260541
  57.7970833  21.6908453 107.3104980  57.0552569  21.8391088 107.8969611
  57.4763577  21.9516719 106.4471730  74.0794447  27.3190358  94.9795494
  74.6045771  27.6577630  94.2544814  73.9916799  26.3837373  94.7958628
  65.7414495  31.2324431 107.1085370  66.0501622  30.9873578 107.9808070
  66.5389977  31.4371070 106.6204240  65.7635107  33.3862341  99.3390747
  65.3240098  32.8938720 100.0323603  66.5143224  32.8435309  99.0982822
  58.2427446  29.5773882  99.3415375  59.0685466  29.2777654  98.9614018
  57.8921498  28.8081504  99.7905163  63.2108979  28.9300350 101.4113048
  62.5888989  28.2671055 101.1115276  63.8813846  28.9561482 100.7286696
  56.4436051  27.4960208 100.3004308  55.6067960  27.0682383 100.1188310
  56.4159697  27.6892652 101.2375100  73.7688353  27.9523261 110.2846691
  72.9783896  27.9347400 109.7451191  73.5321707  28.4911555 111.0395728
  73.8886228  24.8015728 107.5979420  73.9384233  24.6365735 108.5394943
  73.7800151  23.9342987 107.2077301  62.7722486  27.4804273  94.8871509
  62.9210607  28.1639738  94.2338182  63.5788930  27.4609363  95.4020965
  71.1789990  20.7846656 108.9138727  72.0799853  20.6453121 108.6222725
  71.2537965  20.9501111 109.8536904  65.5132795  18.1613511 107.7591913
  64.6436105  18.4547077 107.4874502  65.7492276  18.7453956 108.4799177
  75.3904425  27.2212669 107.8421442  75.0989233  27.5842650 108.6784903
  74.7776556  26.5079678 107.6634774  76.5900107  24.7865549 100.3624012
  77.4246998  25.2255353 100.5261572  76.7259236  24.3104202  99.5432258
  73.6391613  22.3445284 106.3101500  74.1145734  22.5372930 105.5020351
  72.7157178  22.4004470 106.0644883  60.5275119  23.5069451  95.8932578
  60.2821161  22.6031781  96.0912788  60.6971034  23.5086602  94.9512056
  68.2171829  14.3793127 105.2757333  68.7353773  15.1154154 104.9503822
  67.8626962  14.6857121 106.1104093  59.7970767  19.2397809  93.3918739
  59.1040012  19.3142164  92.7358775  59.5522519  18.4758152  93.9140256
  68.4684423  10.7993410 100.7958230  68.7486177  10.1316599 101.4218657
  69.2535030  10.9922506 100.2832894  66.2717892  29.9752404  92.3583256
  65.6991859  30.5942591  91.9053728  66.8450686  30.5251766  92.8923178
  72.3393282  19.2211044 104.5429805  73.2910705  19.3209142 104.5642029
  72.1696732  18.4289313 105.0527890  70.3607661  16.3066627 104.7289206
  69.7657593  16.5871640 104.0335695  70.0757358  16.7960528 105.5005947
  69.4915152  30.2589554  93.4891839  70.4245825  30.1935116  93.6924714
  69.4038365  31.0945821  93.0306371  72.1203168  29.5755424  90.4495786
  72.0416800  29.2415288  91.3431544  72.9412835  30.0677192  90.4487259
  74.8181360  22.4417164 103.6572105  74.7857680  21.5033164 103.8431789
  75.4281983  22.5201200 102.9237930  66.6564690  21.3113217  89.6999309
  67.6023795  21.1819425  89.7687727  66.2778935  20.5727879  90.1768737
  74.9675848  19.2328207 103.7030388  74.4514897  18.4486664 103.5160317
  75.8515797  18.9046924 103.8676907  72.6286575  12.9769223  99.6626201
  72.4311396  12.6684311 100.5469533  73.2386281  13.7030862  99.7924131
  80.6357909  23.5033170 102.7978142  81.3661298  23.2418459 103.3585845
  80.0264855  22.7661892 102.8380210  78.7173207  21.6441033 103.3952593
  77.9906370  21.5096998 102.7869084  78.3020493  21.9517862 104.2009311
  66.5403383  25.3630963 111.1599966  67.4606392  25.5409562 111.3540012
  66.5052966  24.4187008 111.0079665  64.8407608  19.2363193  89.6354194
  63.9339063  18.9396306  89.7116908  65.1183589  18.9393011  88.7688480
  55.7585548  20.5569556 100.0853240  55.4388332  19.7034865  99.7927614
  55.2118976  20.7718135 100.8411208  59.5365456  23.2731997 103.8022747
  59.7551465  24.2049105 103.8210781  59.9491229  22.9139972 104.5877551
  66.4569673  13.7800083  95.7898435  65.6470402  13.4347168  96.1653681
  67.1454090  13.4707626  96.3786047  68.3860222  12.8578130  97.4122732
  68.9391260  13.2773583  98.0712755  68.6230308  11.9313878  97.4545688
  63.6106392  16.0950128  89.7766173  64.4725556  16.4205027  90.0361991
  63.7956736  15.3081624  89.2639239  55.6273808  24.1772468 102.0546362
  54.9337279  23.7626421 101.5416316  56.3746799  24.2193004 101.4579781
  71.7639029  14.9678655  96.9201396  71.1837698  15.6263459  96.5379449
  71.4974961  14.1455999  96.5088814  70.2142595  14.3683712  99.1222717
  70.7142373  14.4800247  98.3137035  70.8578203  14.0644765  99.7623525
  64.2724591  22.2762342 112.0090558  63.7891673  23.0762702 112.2154447
  64.3585530  22.2870287 111.0558002  57.5410550  24.1090722  99.9312377
  57.5181239  24.2078409  98.9794260  57.8511187  24.9555872 100.2529543
  60.1997928  26.1666877 104.0458991  61.1541182  26.1350819 103.9788923
  60.0010452  25.7057500 104.8609217  60.7897310  24.7367993 106.6129789
  61.6090199  25.2312071 106.6364626  61.0634118  23.8199961 106.5847357
  70.5463907  17.1278745  95.9757745  69.6589762  17.4128396  95.7577939
  70.9617896  16.9672508  95.1285021  73.8978443  17.1525266  99.6912084
  74.6738833  17.6421718  99.9636701  73.1726577  17.5783320 100.1483953
  76.3351001  17.8652885 100.7486024  76.9295492  17.6248621 100.0379333
  76.4077585  17.1460016 101.3759561  58.5548157  31.7086496 101.0629189
  58.4202625  30.9486897 100.4967187  58.1380219  32.4327396 100.5957978
  69.6907120  26.8923420  90.0705764  70.3942970  27.0973422  90.6863420
  68.9669769  27.4600182  90.3354848  70.5204930  22.6433281  96.1908035
  70.4640132  23.1001832  95.3515667  71.0733273  21.8823966  96.0130877
  74.3309736  18.4323013  97.0158154  74.0746671  18.0319649  97.8466362
  73.7062604  19.1466807  96.8908293  78.6422074  21.1719086  99.5229446
  78.0821632  21.2412275 100.2961008  78.0365578  20.9960071  98.8028942
  61.7117283  32.6055813 101.2747632  61.5949667  33.5501246 101.1726322
  60.8909729  32.3029375 101.6633431  71.5993818  27.3305949  92.1204225
  72.4339421  26.8987147  91.9381699  71.4378160  27.1587963  93.0481119
  71.2539710  23.8338062  93.4860564  71.1988514  23.6682334  92.5449008
  70.6285765  24.5414095  93.6422754  56.0432225  19.0706127 107.3121986
  56.6891088  18.5605081 107.8009211  55.8349376  19.8074808 107.8865411
  68.5685617  26.1386974 112.8114127  69.4376777  26.3127626 112.4500762
  68.0892368  26.9581391 112.6889856  64.5635835  13.3346171  93.0645882
  64.5514505  14.2788011  93.2214153  65.4559257  13.1516317  92.7705343
  62.7371797  33.2584075 104.4903560  63.6399044  33.2907685 104.8070055
  62.5109167  32.3284526 104.5049896  64.4925399  32.0115062 101.1513639
  63.5421030  32.0116923 101.0378011  64.7957885  31.2647796 100.6349674
  68.3787955   9.9288948  97.3191819  67.6120350   9.3747435  97.4648501
  68.7898660  10.0010817  98.1805971  80.2278093  37.8475600 102.2159401
  80.8656503  37.7282347 101.5122741  80.1098936  38.7956444 102.2747353
  77.0367799  37.8003028 102.1520926  76.6986310  37.6844093 101.2641461
  77.9057567  37.3994193 102.1321932  72.8954615  39.6538505  98.1417817
  72.3319480  39.5628442  97.3734105  72.7807010  38.8338409  98.6220309
  77.5187582  38.9537880 108.1107132  77.5076223  38.5590678 107.2387635
  77.6808221  38.2203953 108.7040903  70.4419047  41.1489696 100.9802037
  71.2340338  40.8080521 100.5648337  70.6815697  41.2584671 101.9004191
  78.4754173  43.3209472  93.4532282  77.8242153  43.9063553  93.0666296
  79.2698536  43.8515667  93.5127319  72.4009800  40.4098609  93.8519416
  73.1740676  39.8627597  93.7132292  72.7535199  41.2742859  94.0633878
  74.2394843  41.7374992 107.0586315  73.9484709  42.6420623 106.9432982
  74.8751827  41.7791519 107.7730385  75.1651050  39.1151840 103.6487675
  75.7614622  38.8907863 102.9344638  75.2226021  38.3736586 104.2513123
  74.7376078  36.5691276  91.4837866  74.9901599  36.0472797  90.7221329
  73.8000637  36.4057421  91.5864550  79.7819361  35.5727054  99.2912609
  80.5682450  35.1546477  98.9403026  80.0458065  36.4773146  99.4594258
  79.9529438  41.0099904  93.9901266  79.3175271  41.0834531  94.7022171
  79.6226845  41.5993503  93.3120345  85.1827788  35.5102287 100.1945588
  85.9152960  34.9401504 100.4283417  84.4267144  35.1223888 100.6352093
  74.4572367  38.4719382  93.6862241  74.3408625  37.7964285  94.3543325
  74.5674627  37.9851755  92.8694394  76.8003908  37.9329529  97.3908930
  76.4362115  37.4060150  98.1021852  77.6571024  37.5427998  97.2175416
  82.7053209  29.2223861 104.6540196  82.3736533  30.0919272 104.4301411
  82.1098822  28.9060145 105.3334227  76.4409395  32.9619428  92.3870279
  76.6083797  33.8299665  92.7540750  76.2506564  33.1246710  91.4631568
  79.1984728  41.4236407 104.0536109  78.8985451  42.3261446 103.9451916
  78.8535788  41.1568590 104.9057262  72.6497210  37.8750204 100.0872814
  71.7247706  37.7426418 100.2950505  72.8981623  38.6544423 100.5842756
  82.5981872  33.9418947 101.7333546  81.6898749  33.8734356 101.4392307
  82.5469468  34.4190892 102.5615372  76.4198616  35.4177086  93.3716946
  76.2998241  35.8634137  94.2102426  75.7251204  35.7662403  92.8130484
  70.0106021  37.5183478 100.9216603  70.1398402  37.7717957 101.8356014
  69.3303472  38.1111186 100.6021258  74.1805508  48.1880728  97.0207077
  74.1029538  49.1388553  97.0995557  73.5767152  47.8426600  97.6782003
  76.6722738  35.3608593 109.6768444  75.8956072  35.9202513 109.6671308
  77.3113301  35.8465376 110.1983314  84.4643518  32.1435386 103.5111420
  83.8217899  32.4367919 102.8651215  83.9598447  32.0288306 104.3164617
  82.1183682  35.8898559  94.1997280  83.0301538  36.1225946  94.0244977
  81.6093329  36.4735603  93.6372358  74.9269110  38.1694046 109.2386411
  75.6683794  38.7079090 108.9621234  74.2206095  38.7960335 109.3957963
  80.4024450  40.3123187 107.8358572  80.8107806  39.8705597 107.0913205
  79.6801711  39.7375814 108.0892765  76.7555520  35.2495794 105.2092129
  77.6016715  35.6735207 105.3526778  76.6954157  34.5929418 105.9030692
  80.7253264  40.8724377 101.5910861  80.0962127  41.0370092 100.8886929
  80.3378926  41.2865987 102.3621825  84.6042496  41.8078815  98.9455225
  83.9193534  42.1877717  98.3952258  84.6886346  42.4174142  99.6787173
  79.9054965  32.9100162 106.8673303  79.6615897  33.6642222 106.3307579
  80.1814896  33.2885510 107.7020550  81.8593428  39.4538774 105.5450568
  82.0710323  40.0970534 104.8684950  81.8123176  38.6201091 105.0772499
  79.4619657  32.0656595 102.4487141  78.6004136  32.3637849 102.7403878
  79.4882091  32.2826994 101.5168173  76.2781226  40.6098786  98.8560946
  76.7419572  40.8886489  98.0665569  76.0138024  39.7082230  98.6734037
  73.1705307  40.1570267 101.7940709  73.7406664  40.5857535 101.1558194
  73.7613419  39.8752852 102.4924895  75.2150112  36.7321938  95.6650511
  75.9174156  37.1842982  96.1324438  74.8830741  36.0905757  96.2930405
  73.6630474  35.3233695 110.0401721  73.0329134  36.0049975 110.2737118
  73.5566562  35.2116776 109.0954859  68.9575446  34.9905491 100.9667645
  68.1674500  35.2463019 100.4907756  69.4486694  35.8053828 101.0719685
  82.9739256  42.3310730 103.7172926  83.7956699  41.9290917 103.4355607
  82.9701659  42.2278964 104.6689042  70.9090192  35.3550070  97.9251122
  70.1121355  35.4668764  98.4434617  70.6815784  35.6936722  97.0592012
  76.7395859  41.8794773 105.8733636  76.8040292  42.3415180 106.7091808
  76.0306783  41.2492138 106.0015946  67.2413149  35.2435981 103.3982636
  67.4921188  36.1282991 103.6640212  67.7772698  35.0640583 102.6257728
  91.0645249  38.6749478 100.0657897  90.3108957  38.1056876  99.9101902
  91.1992790  38.6412143 101.0128532  76.4543877  43.5462881  95.7412617
  76.3189552  44.3914416  96.1697464  76.9953689  43.7482158  94.9778550
  72.9411217  29.6254460 112.4026972  72.5478162  29.0720659 113.0774616
  73.7577357  29.9365039 112.7933489  69.9073274  41.0638319  96.3140542
  70.4197795  41.8581569  96.4646106  70.5595987  40.3664609  96.2474143
  71.7168159  44.1804075  98.3963295  71.8934787  45.1022040  98.2084279
  72.5124992  43.8662494  98.8257675  75.8579177  31.0412339 109.9947228
  76.5988891  31.6419493 109.9151691  76.0897100  30.2989977 109.4365271
  71.0020516  36.2268707 108.2725458  70.8874031  35.3253964 108.5732557
  70.1465033  36.4732403 107.9210275  78.0812353  44.1686447 109.8712959
  77.6376207  43.3822826 109.5533863  78.7429567  44.3565598 109.2056849
  72.8399474  45.6982249 104.3973637  73.3906900  45.5699312 103.6250631
  72.0010950  45.9977138 104.0468530  80.1793591  44.4489247 107.8994360
  80.1612067  45.2698128 107.4074629  81.1013511  44.3243322 108.1244501
  76.6366645  41.9633376 108.7417868  77.1694982  41.2021665 108.5117176
  76.1080727  41.6707028 109.4842023  79.8036340  27.0693442 104.2711510
  79.4600610  27.9595084 104.1950621  80.1715303  26.8795100 103.4081095
  67.8722191  39.3926973  97.0900112  68.7097413  39.8023981  96.8733820
  68.0500459  38.4526415  97.0600306  79.7686623  37.0602053  92.7783945
  79.2533247  37.8306658  93.0172333  79.4963932  36.3867190  93.4017007
  77.3533734  31.9051754  97.8369184  76.4975331  31.5158605  97.6574822
  77.7660686  31.9843715  96.9768969  78.8832881  29.4398098 102.2360743
  78.3797676  29.4028233 101.4228549  79.1763488  30.3490840 102.2957400
  75.1275767  29.5236827 101.2426925  75.9928763  29.3279636 100.8832815
  75.1953276  29.2947179 102.1696282  84.7420897  39.8134408  94.7137119
  83.9650340  39.4745568  94.2692281  85.4212378  39.8187031  94.0392084
  79.5572926  34.9329146  94.6043726  79.2523062  35.2475295  95.4553870
  80.5103368  35.0110565  94.6471059  78.0019358  41.0919369  96.2536680
  77.4740720  40.3572128  95.9409918  77.5006861  41.8694045  96.0076649
  82.9812204  39.2868389 101.3703727  82.3235879  39.9767651 101.4583855
  83.7852603  39.6764821 101.7137713  72.7338086  31.7539035  98.6143292
  73.3081838  31.5314217  97.8816485  73.3209068  31.8227730  99.3671893
  81.7917663  37.6412762  99.4207668  82.3049545  38.2742754  99.9229378
  82.4418887  37.0413958  99.0551028  73.0607673  33.7843496  92.6339177
  72.2244985  34.1218183  92.9548452  72.9212443  33.6492476  91.6966314
  75.0360753  28.6280284  97.3418361  74.3825166  28.3129301  96.7174976
  74.9941228  28.0056025  98.0678184  76.1471958  38.9099579  89.2571653
  75.2399020  38.6788833  89.4562802  76.6442990  38.1137198  89.4445635
  79.0540037  47.6197086  92.1768340  78.3801736  47.9228783  92.7853297
  79.4405859  48.4226167  91.8273797  78.2698494  35.1162218 101.6666009
  77.3521055  35.3377165 101.5087697  78.6858637  35.1908528 100.8077716
  79.0533542  36.5153633  96.7968689  79.8005361  37.0275031  96.4875811
  79.3225131  36.1937686  97.6573083  77.3260192  39.0112174  93.7795643
  76.4171411  38.7271207  93.8768113  77.3555276  39.4311253  92.9198950
  82.5579459  42.6218764  97.5486811  82.1041786  41.7809673  97.6052002
  81.9273426  43.2580162  97.8861591  81.5012379  33.5510750  98.7787478
  80.7635136  33.0388136  99.1097721  81.7539152  33.1111131  97.9670755
  81.0012398  44.4595260  98.4836629  81.2935373  45.0200317  97.7648995
  81.5111019  44.7523821  99.2389788  81.6024006  26.3287002  99.3729248
  81.9082883  25.4684365  99.0855163  82.3276611  26.9204622  99.1728242
  67.8948362  36.7317688  97.7610846  67.6972762  36.1387049  97.0361912
  67.3395026  36.4269898  98.4786784  75.8745086  36.6240795  99.8805439
  75.9293696  35.6714631  99.8047915  75.0636288  36.7800234 100.3646737
  77.0236280  40.5520918  91.1183722  76.5855710  39.8356777  90.6589359
  77.7646720  40.7797033  90.5568813  73.8137446  35.2417854  97.6395818
  73.0005311  35.5412025  98.0461010  74.3096440  34.8473543  98.3570300
  75.9646024  45.2375611  99.5730082  75.9222202  45.4636458  98.6438614
  76.8808723  45.0038986  99.7215884  79.4111657  35.7059679 106.4710712
  79.7661045  35.9331152 107.3305177  80.0583789  36.0378056 105.8487967
  85.1409394  38.8278115  97.1760041  85.0027293  39.0179711  96.2481230
  84.7845613  39.5897498  97.6328092  73.3051521  32.8136210 103.2557053
  73.9450900  32.6724969 102.5580016  72.4729051  32.5270723 102.8795655
  85.1678774  40.8954642 102.1871312  85.6015281  40.8029931 103.0354366
  85.8810355  40.8712142 101.5491328  74.0811824  42.1138640  99.3692045
  74.8752423  41.6188960  99.1674620  73.3703517  41.5856503  99.0059751
  78.9006669  44.4956736 103.7204413  78.9543691  45.0647672 104.4882129
  78.0321450  44.6658621 103.3558450  70.3894588  36.2581722  95.4451798
  69.4592176  36.1966178  95.6621760  70.4852060  35.7357675  94.6488439
  70.3080137  32.7836535  98.0330039  70.5686954  33.6981868  97.9239200
  71.1297309  32.3160977  98.1826652  71.7805062  34.1974292 105.2028864
  72.4528116  33.9891654 104.5541513  70.9534849  33.9996378 104.7634096
  86.0294324  40.9378342 104.7204198  86.2230214  41.8424153 104.9663472
  85.9294942  40.4785761 105.5542783  77.6830634  30.8236233 107.2194525
  77.0358549  31.5226183 107.1259001  78.4531650  31.2572377 107.5870773
  81.0909432  41.0885085 110.2945078  80.9394939  40.8595637 109.3775162
  81.0814112  42.0455687 110.3076423  77.8594769  38.6616998 105.2791345
  78.7886829  38.8128158 105.1060312  77.4385799  38.7501019 104.4239991
  76.6583100  42.6867662 103.0489882  76.5194186  42.3186447 103.9215820
  75.8697697  43.2015302 102.8773840  77.2531252  47.7876759  94.3915419
  77.4283008  47.3164802  95.2061041  76.5664040  48.4142525  94.6196679
  78.2088316  42.0649265 100.4378720  77.8738148  42.0250035 101.3336370
  77.7092261  41.3993981  99.9649130  72.1832560  37.4716895 105.9631301
  72.0452357  36.7397134 106.5642840  73.0937483  37.3825795 105.6815489
  81.1447507  39.4105299  90.7115780  80.5276678  38.6852128  90.6148832
  80.6763996  40.1714660  90.3682854  74.8114860  37.1836854 105.4514981
  75.5214479  36.5430047 105.4101599  74.7684168  37.4349749 106.3741162
  82.8001639  44.1204208 108.3721560  82.7414185  43.4363428 107.7052143
  83.2021157  44.8623198 107.9202186  73.5243794  34.1702072 107.2710620
  72.9881151  33.7192811 107.9232217  72.9360503  34.3047981 106.5281085
  71.8192338  50.9366122 101.1655279  72.0588936  51.5684646 101.8434297
  70.9761534  50.5854162 101.4520638  72.9346053  33.6290724  89.8337084
  72.0575519  33.5079524  89.4699331  73.4103806  32.8376802  89.5815973
  82.8019046  42.0843792 106.6035540  81.9145825  41.7469713 106.7261939
  83.3717597  41.3526823 106.8404305  64.4548193  38.4167883  99.9278591
  65.1419233  38.1029613  99.3399606  64.2996322  39.3209248  99.6545842
  69.2582915  33.3058080 104.3563615  69.1741104  32.6983750 103.6214025
  68.4365622  33.7967098 104.3573111  76.3320200  46.7445244 103.5696783
  76.2590371  47.5500215 104.0816087  75.8897593  46.9437210 102.7444804
  76.1209979  45.9817014  97.0799604  75.3377501  46.5238694  97.1737829
  76.8202724  46.4990994  97.4793846  79.4306629  31.7911643  99.7233810
  79.9275329  31.0381606  99.4034880  78.6593611  31.8275960  99.1577019
  87.2836387  37.4952009 101.3652101  87.2726263  38.3776724 100.9946034
  86.4153766  37.1423560 101.1706638  78.7918883  46.6432078 105.7254942
  79.5046855  47.2779543 105.6530843  78.3008912  46.7395944 104.9094943
  80.5136410  40.5483331  97.2972233  79.5792689  40.6684793  97.1276938
  80.6913078  39.6455797  97.0332243  76.0141598  33.9329026  99.4505494
  75.6439386  33.3800067 100.1386400  76.5100690  33.3287160  98.8980494
  83.9008961  36.3900650  97.8322267  84.3669414  37.2228642  97.7582570
  84.3516462  35.9245632  98.5367526  73.8430797  44.3926521 106.5460512
  74.5440256  45.0263004 106.6989907  73.3725912  44.7341253 105.7856152
  81.9685192  42.7344471  94.8308419  82.2445036  42.6201066  95.7402293
  81.0989691  42.3361956  94.7920592  81.8725624  28.7581237 101.8713169
  80.9588704  28.9885464 102.0395376  82.3018726  28.8419681 102.7227201
  81.6432083  36.9471129 104.3713063  80.9903533  37.1947036 103.7165515
  82.0212462  36.1335267 104.0375540  78.6039256  46.9830822  98.4741233
  78.7861651  46.1652478  98.9368985  79.4272242  47.1998514  98.0366123
  78.9381422  45.9099007  95.7356281  79.4669188  45.3991462  95.1226444
  79.2009642  45.5941537  96.6001815  77.6919656  37.6890940 110.8579100
  77.0160293  37.5885069 111.5281475  78.5147289  37.5330154 111.3215097
  69.4398515  43.9262877 103.4791615  70.0251951  43.1806564 103.6119519
  69.2423353  44.2366833 104.3628279  72.2937170  46.9614124  98.4954057
  71.6247545  47.4460252  98.0118097  72.1550040  47.2083344  99.4097436
  64.0316169  36.4968477 102.1996058  64.0700269  35.9632067 102.9933176
  63.5256462  35.9703682 101.5807035  76.4342438  48.9957867 105.0936716
  76.9860746  49.1589489 105.8585801  76.7748632  49.5862305 104.4216741
  71.4106932  31.3433017 105.6958600  71.4748258  32.2047848 105.2835998
  71.3474052  30.7307019 104.9630959  70.8859204  33.4156150 109.3431635
  71.5131243  33.0333227 109.9569159  70.0287123  33.1970352 109.7087327
  81.2853313  43.8219125 110.9485370  81.8293217  44.4349083 110.4540325
  80.7040158  44.3798703 111.4652383  67.6624747  35.2232579  95.2749990
  67.9578188  34.3143257  95.2217043  66.7612783  35.2020318  94.9530992
  79.5710826  46.9439843 102.0800398  79.4461965  46.1429583 101.5711343
  80.2289917  47.4386036 101.5914368  71.1918994  33.2988575 101.2577538
  70.4705580  33.9124543 101.1185011  71.9812250  33.8346340 101.1794184
  81.6345734  44.7448863 103.7079948  80.6876070  44.6254214 103.6358275
  81.9828507  43.8571361 103.7906209  73.9945307  30.6343002 107.5318190
  74.5179709  30.8805299 108.2944499  73.7757641  31.4663037 107.1121327
  69.3912589  32.9046677  95.3989315  69.0625295  32.0244055  95.2164421
  69.7451959  32.8494345  96.2865704  78.6392167  44.5401579  99.9084300
  78.4917130  43.6118287 100.0891870  79.4645661  44.5621670  99.4241375
  72.5054412  33.1919646  95.7664792  72.8450484  33.7205568  95.0443401
  72.9526532  33.5300052  96.5423359  82.2426289  45.3630138 100.9949173
  83.1672837  45.1572999 100.8573624  82.0741593  45.1146539 101.9038515
  75.1997853  31.5756697 105.2167860  74.8594673  30.7764510 105.6188540
  74.4936859  31.8758408 104.6444694  75.8514324  28.6606009 103.6695183
  76.6740394  28.1866488 103.5474074  76.0952388  29.4396493 104.1693870
  74.4922559  31.6894268  93.9658085  75.2130921  32.0675521  93.4621802
  73.8687863  32.4083145  94.0693063  78.6353682  32.3939417  94.9016417
  78.8517296  33.2764055  94.6005246  78.1547749  32.0025630  94.1722059
  73.3752903  35.3525130 101.4787162  73.2297484  35.6665433 102.3711444
  72.8978107  35.9710030 100.9258061  75.2349286  32.3427678 101.5268052
  75.2210855  31.4468771 101.1900350  75.9521714  32.3498342 102.1606338
  77.0875417  32.7765018 103.5721179  76.8293195  33.6982089 103.5705510
  76.5560457  32.3795453 104.2621643  82.0321605  45.8815805  96.3511264
  82.2058483  45.3162228  95.5985117  82.5250497  46.6816700  96.1690754
  67.8498565  37.8930475 104.4174823  67.3052033  38.6690283 104.5495098
  68.7277915  38.2401279 104.2593945  74.6386182  31.2242058  96.7955622
  74.7602093  30.2958705  96.9946509  74.3488224  31.2380744  95.8833937
  77.5077372  28.9096969  99.9322342  77.5299069  28.9736302  98.9774321
  77.9245431  28.0701477 100.1262848  87.8860997  38.6452228  97.9701564
  88.3292143  37.8959554  97.5720687  87.0087507  38.6362365  97.5875296
  83.0196778  45.1982570  93.4508163  83.7147683  45.8189263  93.6695477
  83.3619928  44.3477921  93.7260541  68.6364587  37.0200371 107.3104980
  67.8946323  37.1683006 107.8969611  68.3157331  37.2808636 106.4471730
  84.9188201  42.6482275  94.9795494  85.4439525  42.9869548  94.2544814
  84.8310554  41.7129291  94.7958628  76.5808250  46.5616349 107.1085370
  76.8895376  46.3165496 107.9808070  77.3783732  46.7662988 106.6204240
  76.6028862  48.7154259  99.3390747  76.1633852  48.2230637 100.0323603
  77.3536979  48.1727226  99.0982822  69.0821201  44.9065800  99.3415375
  69.9079221  44.6069571  98.9614018  68.7315253  44.1373422  99.7905163
  74.0502734  44.2592268 101.4113048  73.4282743  43.5962973 101.1115276
  74.7207601  44.2853400 100.7286696  67.2829806  42.8252126 100.3004308
  66.4461714  42.3974300 100.1188310  67.2553451  43.0184569 101.2375100
  74.1227261  32.7374056 111.0045554  74.1715417  33.6136179 110.6223324
  74.6649776  32.1951449 110.4317198  84.6082107  43.2815179 110.2846691
  83.8177651  43.2639318 109.7451191  84.3715462  43.8203473 111.0395728
  84.7279982  40.1307645 107.5979420  84.7777987  39.9657653 108.5394943
  84.6193906  39.2634904 107.2077301  73.6116241  42.8096191  94.8871509
  73.7604361  43.4931655  94.2338182  74.4182684  42.7901281  95.4020965
  82.0183745  36.1138573 108.9138727  82.9193607  35.9745038 108.6222725
  82.0931719  36.2793028 109.8536904  76.3526550  33.4905428 107.7591913
  75.4829859  33.7838994 107.4874502  76.5886030  34.0745873 108.4799177
  86.2298179  42.5504587 107.8421442  85.9382987  42.9134567 108.6784903
  85.6170310  41.8371595 107.6634774  87.4293861  40.1157467 100.3624012
  88.2640753  40.5547271 100.5261572  87.5652990  39.6396120  99.5432258
  84.4785367  37.6737202 106.3101500  84.9539489  37.8664848 105.5020351
  83.5550933  37.7296387 106.0644883  71.3668874  38.8361369  95.8932578
  71.1214916  37.9323699  96.0912788  71.5364788  38.8378519  94.9512056
  79.0565584  29.7085045 105.2757333  79.5747528  30.4446072 104.9503822
  78.7020717  30.0149038 106.1104093  70.6364521  34.5689726  93.3918739
  69.9433766  34.6434081  92.7358775  70.3916273  33.8050070  93.9140256
  79.3078178  26.1285328 100.7958230  79.5879932  25.4608517 101.4218657
  80.0928785  26.3214423 100.2832894  77.1111646  45.3044322  92.3583256
  76.5385613  45.9234509  91.9053728  77.6844440  45.8543683  92.8923178
  83.1787036  34.5502962 104.5429805  84.1304459  34.6501059 104.5642029
  83.0090487  33.7581230 105.0527890  81.2001416  31.6358545 104.7289206
  80.6051348  31.9163558 104.0335695  80.9151112  32.1252446 105.5005947
  80.3308906  45.5881472  93.4891839  81.2639579  45.5227033  93.6924714
  80.2432119  46.4237739  93.0306371  82.9596923  44.9047342  90.4495786
  82.8810554  44.5707206  91.3431544  83.7806590  45.3969110  90.4487259
  85.6575114  37.7709081 103.6572105  85.6251434  36.8325082 103.8431789
  86.2675738  37.8493118 102.9237930  77.4958445  36.6405134  89.6999309
  78.4417550  36.5111342  89.7687727  77.1172690  35.9019796  90.1768737
  85.8069603  34.5620125 103.7030388  85.2908651  33.7778581 103.5160317
  86.6909551  34.2338841 103.8676907  83.4680329  28.3061140  99.6626201
  83.2705151  27.9976229 100.5469533  84.0780035  29.0322779  99.7924131
  91.4751664  38.8325088 102.7978142  92.2055052  38.5710376 103.3585845
  90.8658609  38.0953810 102.8380210  89.5566961  36.9732951 103.3952593
  88.8300125  36.8388916 102.7869084  89.1414248  37.2809779 104.2009311
  77.3797137  40.6922880 111.1599966  78.3000147  40.8701479 111.3540012
  77.3446720  39.7478926 111.0079665  75.6801362  34.5655111  89.6354194
  74.7732817  34.2688223  89.7116908  75.9577343  34.2684929  88.7688480
  66.5979302  35.8861474 100.0853240  66.2782087  35.0326782  99.7927614
  66.0512731  36.1010052 100.8411208  70.3759210  38.6023915 103.8022747
  70.5945220  39.5341023 103.8210781  70.7884984  38.2431889 104.5877551
  77.2963428  29.1092000  95.7898435  76.4864156  28.7639085  96.1653681
  77.9847845  28.7999544  96.3786047  79.2253976  28.1870047  97.4122732
  79.7785015  28.6065501  98.0712755  79.4624062  27.2605795  97.4545688
  75.2487075  34.1757121 113.1925496  75.1483802  35.1251478 113.1237587
  75.0308617  33.8475360 112.3201566  74.4500147  31.4242046  89.7766173
  75.3119311  31.7496944  90.0361991  74.6350491  30.6373542  89.2639239
  66.4667562  39.5064386 102.0546362  65.7731034  39.0918338 101.5416316
  67.2140553  39.5484922 101.4579781  82.6032783  30.2970572  96.9201396
  82.0231452  30.9555376  96.5379449  82.3368716  29.4747917  96.5088814
  81.0536350  29.6975630  99.1222717  81.5536128  29.8092165  98.3137035
  81.6971957  29.3936683  99.7623525  75.1118345  37.6054260 112.0090558
  74.6285427  38.4054620 112.2154447  75.1979284  37.6162205 111.0558002
  68.3804305  39.4382639  99.9312377  68.3574993  39.5370327  98.9794260
  68.6904941  40.2847790 100.2529543  71.0391683  41.4958794 104.0458991
  71.9934936  41.4642737 103.9788923  70.8404206  41.0349418 104.8609217
  71.6291065  40.0659910 106.6129789  72.4483954  40.5603989 106.6364626
  71.9027873  39.1491879 106.5847357  81.3857661  32.4570663  95.9757745
  80.4983516  32.7420313  95.7577939  81.8011650  32.2964426  95.1285021
  84.7372197  32.4817184  99.6912084  85.5132587  32.9713636  99.9636701
  84.0120331  32.9075238 100.1483953  87.1744756  33.1944803 100.7486024
  87.7689247  32.9540539 100.0379333  87.2471340  32.4751934 101.3759561
  69.3941912  47.0378414 101.0629189  69.2596380  46.2778815 100.4967187
  68.9773974  47.7619314 100.5957978  80.5300875  42.2215337  90.0705764
  81.2336725  42.4265340  90.6863420  79.8063523  42.7892099  90.3354848
  81.3598685  37.9725199  96.1908035  81.3033886  38.4293750  95.3515667
  81.9127027  37.2115883  96.0130877  85.1703491  33.7614931  97.0158154
  84.9140425  33.3611566  97.8466362  84.5456359  34.4758724  96.8908293
  89.4815829  36.5011004  99.5229446  88.9215387  36.5704193 100.2961008
  88.8759332  36.3251988  98.8028942  72.5511038  47.9347731 101.2747632
  72.4343422  48.8793163 101.1726322  71.7303484  47.6321292 101.6633431
  82.4387572  42.6597867  92.1204225  83.2733176  42.2279065  91.9381699
  82.2771915  42.4879880  93.0481119  82.0933464  39.1629980  93.4860564
  82.0382268  38.9974251  92.5449008  81.4679520  39.8706013  93.6422754
  66.8825979  34.3998044 107.3121986  67.5284843  33.8896998 107.8009211
  66.6743130  35.1366726 107.8865411  79.4079371  41.4678892 112.8114127
  80.2770531  41.6419544 112.4500762  78.9286123  42.2873309 112.6889856
  75.4029590  28.6638089  93.0645882  75.3908260  29.6079929  93.2214153
  76.2953012  28.4808234  92.7705343  73.5765552  48.5875993 104.4903560
  74.4792798  48.6199603 104.8070055  73.3502922  47.6576444 104.5049896
  75.3319154  47.3406979 101.1513639  74.3814785  47.3408841 101.0378011
  75.6351640  46.5939714 100.6349674  79.2181709  25.2580866  97.3191819
  78.4514105  24.7039352  97.4648501  79.6292414  25.3302734  98.1805971
  71.2223470  31.5465661 111.4097000  72.0854932  31.1902466 111.6200325
  70.6488881  31.2079556 112.0972405  91.0671847  53.1767518 102.2159401
  91.7050257  53.0574265 101.5122741  90.9492690  54.1248362 102.2747353
  87.8761553  53.1294946 102.1520926  87.5380065  53.0136011 101.2641461
  88.7451322  52.7286111 102.1321932  83.7348369  54.9830422  98.1417817
  83.1713234  54.8920359  97.3734105  83.6200764  54.1630327  98.6220309
  88.3581336  54.2829798 108.1107132  88.3469977  53.8882596 107.2387635
  88.5201976  53.5495870 108.7040903  81.2812801  56.4781614 100.9802037
  82.0734093  56.1372438 100.5648337  81.5209451  56.5876589 101.9004191
  89.3147928  58.6501390  93.4532282  88.6635908  59.2355470  93.0666296
  90.1092291  59.1807585  93.5127319  83.2403555  55.7390527  93.8519416
  84.0134431  55.1919514  93.7132292  83.5928954  56.6034776  94.0633878
  85.0788598  57.0666909 107.0586315  84.7878464  57.9712540 106.9432982
  85.7145582  57.1083437 107.7730385  86.0044804  54.4443758 103.6487675
  86.6008377  54.2199780 102.9344638  86.0619776  53.7028503 104.2513123
  85.5769833  51.8983193  91.4837866  85.8295353  51.3764714  90.7221329
  84.6394392  51.7349339  91.5864550  90.6213116  50.9018972  99.2912609
  91.4076205  50.4838395  98.9403026  90.8851820  51.8065064  99.4594258
  90.7923193  56.3391822  93.9901266  90.1569026  56.4126448  94.7022171
  90.4620599  56.9285421  93.3120345  96.0221543  50.8394205 100.1945588
  96.7546715  50.2693422 100.4283417  95.2660898  50.4515805 100.6352093
  85.2966122  53.8011299  93.6862241  85.1802380  53.1256203  94.3543325
  85.4068381  53.3143673  92.8694394  87.6397662  53.2621446  97.3908930
  87.2755870  52.7352067  98.1021852  88.4964778  52.8719915  97.2175416
  93.5446963  44.5515779 104.6540196  93.2130288  45.4211190 104.4301411
  92.9492576  44.2352063 105.3334227  87.2803149  48.2911346  92.3870279
  87.4477552  49.1591582  92.7540750  87.0900319  48.4538628  91.4631568
  90.0378483  56.7528325 104.0536109  89.7379206  57.6553364 103.9451916
  89.6929542  56.4860508 104.9057262  83.4890964  53.2042122 100.0872814
  82.5641461  53.0718336 100.2950505  83.7375377  53.9836341 100.5842756
  93.4375626  49.2710865 101.7333546  92.5292504  49.2026273 101.4392307
  93.3863222  49.7482810 102.5615372  87.2592370  50.7469003  93.3716946
  87.1391996  51.1926054  94.2102426  86.5644959  51.0954321  92.8130484
  80.8499775  52.8475395 100.9216603  80.9792156  53.1009874 101.8356014
  80.1697226  53.4403103 100.6021258  85.0199262  63.5172645  97.0207077
  84.9423292  64.4680470  97.0995557  84.4160906  63.1718518  97.6782003
  87.5116492  50.6900511 109.6768444  86.7349826  51.2494431 109.6671308
  88.1507055  51.1757294 110.1983314  95.3037273  47.4727303 103.5111420
  94.6611653  47.7659837 102.8651215  94.7992201  47.3580224 104.3164617
  92.9577436  51.2190477  94.1997280  93.8695293  51.4517863  94.0244977
  92.4487084  51.8027521  93.6372358  85.7662865  53.4985964 109.2386411
  86.5077549  54.0371008 108.9621234  85.0599850  54.1252253 109.3957963
  91.2418204  55.6415104 107.8358572  91.6501560  55.1997515 107.0913205
  90.5195466  55.0667732 108.0892765  87.5949274  50.5787711 105.2092129
  88.4410469  51.0027125 105.3526778  87.5347912  49.9221336 105.9030692
  91.5647019  56.2016295 101.5910861  90.9355881  56.3662009 100.8886929
  91.1772681  56.6157905 102.3621825  95.4436251  57.1370733  98.9455225
  94.7587289  57.5169634  98.3952258  95.5280100  57.7466060  99.6787173
  90.7448720  48.2392080 106.8673303  90.5009651  48.9934140 106.3307579
  91.0208650  48.6177427 107.7020550  92.6987182  54.7830692 105.5450568
  92.9104078  55.4262452 104.8684950  92.6516931  53.9493009 105.0772499
  90.3013411  47.3948513 102.4487141  89.4397890  47.6929766 102.7403878
  90.3275846  47.6118912 101.5168173  87.1174981  55.9390703  98.8560946
  87.5813326  56.2178406  98.0665569  86.8531779  55.0374148  98.6734037
  84.0099062  55.4862185 101.7940709  84.5800419  55.9149453 101.1558194
  84.6007174  55.2044769 102.4924895  86.0543867  52.0613856  95.6650511
  86.7567910  52.5134899  96.1324438  85.7224495  51.4197674  96.2930405
  84.5024228  50.6525612 110.0401721  83.8722889  51.3341893 110.2737118
  84.3960316  50.5408694 109.0954859  79.7969201  50.3197408 100.9667645
  79.0068255  50.5754937 100.4907756  80.2880448  51.1345746 101.0719685
  93.8133010  57.6602647 103.7172926  94.6350454  57.2582835 103.4355607
  93.8095413  57.5570882 104.6689042  81.7483946  50.6841987  97.9251122
  80.9515109  50.7960682  98.4434617  81.5209538  51.0228640  97.0592012
  87.5789614  57.2086691 105.8733636  87.6434046  57.6707098 106.7091808
  86.8700538  56.5784056 106.0015946  78.0806904  50.5727899 103.3982636
  78.3314942  51.4574909 103.6640212  78.6166452  50.3932500 102.6257728
 101.9039003  54.0041396 100.0657897 101.1502712  53.4348794  99.9101902
 102.0386545  53.9704060 101.0128532  87.2937631  58.8754798  95.7412617
  87.1583306  59.7206334  96.1697464  87.8347444  59.0774076  94.9778550
  83.7804971  44.9546378 112.4026972  83.3871917  44.4012577 113.0774616
  84.5971111  45.2656957 112.7933489  80.7467029  56.3930236  96.3140542
  81.2591549  57.1873486  96.4646106  81.3989742  55.6956527  96.2474143
  82.5561913  59.5095993  98.3963295  82.7328542  60.4313957  98.2084279
  83.3518747  59.1954412  98.8257675  86.6972932  46.3704257 109.9947228
  87.4382645  46.9711410 109.9151691  86.9290855  45.6281895 109.4365271
  81.8414270  51.5560624 108.2725458  81.7267785  50.6545882 108.5732557
  80.9858788  51.8024321 107.9210275  88.9206108  59.4978365 109.8712959
  88.4769962  58.7114743 109.5533863  89.5823321  59.6857515 109.2056849
  83.6793229  61.0274166 104.3973637  84.2300654  60.8991230 103.6250631
  82.8404705  61.3269055 104.0468530  91.0187346  59.7781165 107.8994360
  91.0005821  60.5990046 107.4074629  91.9407266  59.6535240 108.1244501
  87.4760400  57.2925294 108.7417868  88.0088737  56.5313582 108.5117176
  86.9474481  56.9998946 109.4842023  90.6430095  42.3985360 104.2711510
  90.2994364  43.2887002 104.1950621  91.0109058  42.2087018 103.4081095
  78.7115946  54.7218891  97.0900112  79.5491168  55.1315899  96.8733820
  78.8894213  53.7818333  97.0600306  90.6080378  52.3893971  92.7783945
  90.0927001  53.1598576  93.0172333  90.3357686  51.7159107  93.4017007
  88.1927489  47.2343672  97.8369184  87.3369085  46.8450522  97.6574822
  88.6054440  47.3135633  96.9768969  89.7226635  44.7690015 102.2360743
  89.2191431  44.7320150 101.4228549  90.0157242  45.6782758 102.2957400
  85.9669521  44.8528745 101.2426925  86.8322518  44.6571554 100.8832815
  86.0347030  44.6239097 102.1696282  95.5814652  55.1426326  94.7137119
  94.8044095  54.8037485  94.2692281  96.2606133  55.1478949  94.0392084
  90.3966681  50.2621063  94.6043726  90.0916816  50.5767212  95.4553870
  91.3497123  50.3402483  94.6471059  88.8413113  56.4211287  96.2536680
  88.3134474  55.6864046  95.9409918  88.3400615  57.1985963  96.0076649
  93.8205959  54.6160307 101.3703727  93.1629633  55.3059568 101.4583855
  94.6246358  55.0056739 101.7137713  83.5731840  47.0830953  98.6143292
  84.1475592  46.8606134  97.8816485  84.1602823  47.1519647  99.3671893
  92.6311417  52.9704680  99.4207668  93.1443299  53.6034672  99.9229378
  93.2812641  52.3705875  99.0551028  83.9001427  49.1135414  92.6339177
  83.0638740  49.4510100  92.9548452  83.7606197  48.9784394  91.6966314
  85.8754508  43.9572202  97.3418361  85.2218920  43.6421219  96.7174976
  85.8334982  43.3347942  98.0678184  86.9865713  54.2391497  89.2571653
  86.0792775  54.0080750  89.4562802  87.4836745  53.4429116  89.4445635
  89.8933792  62.9489004  92.1768340  89.2195490  63.2520701  92.7853297
  90.2799614  63.7518084  91.8273797  89.1092248  50.4454135 101.6666009
  88.1914810  50.6669082 101.5087697  89.5252392  50.5200446 100.8077716
  89.8927296  51.8445551  96.7968689  90.6399115  52.3566948  96.4875811
  90.1618886  51.5229604  97.6573083  88.1653946  54.3404092  93.7795643
  87.2565166  54.0563125  93.8768113  88.1949030  54.7603170  92.9198950
  93.3973214  57.9510681  97.5486811  92.9435541  57.1101591  97.6052002
  92.7667180  58.5872080  97.8861591  92.3406133  48.8802667  98.7787478
  91.6028890  48.3680053  99.1097721  92.5932907  48.4403049  97.9670755
  91.8406153  59.7887178  98.4836629  92.1329127  60.3492235  97.7648995
  92.3504774  60.0815739  99.2389788  92.4417761  41.6578919  99.3729248
  92.7476637  40.7976283  99.0855163  93.1670365  42.2496539  99.1728242
  78.7342117  52.0609606  97.7610846  78.5366516  51.4678967  97.0361912
  78.1788781  51.7561816  98.4786784  86.7138840  51.9532712  99.8805439
  86.7687450  51.0006549  99.8047915  85.9030042  52.1092151 100.3646737
  87.8630034  55.8812835  91.1183722  87.4249464  55.1648694  90.6589359
  88.6040475  56.1088950  90.5568813  84.6531200  50.5709772  97.6395818
  83.8399066  50.8703943  98.0461010  85.1490194  50.1765461  98.3570300
  86.8039778  60.5667529  99.5730082  86.7615957  60.7928375  98.6438614
  87.7202477  60.3330904  99.7215884  90.2505412  51.0351597 106.4710712
  90.6054800  51.2623070 107.3305177  90.8977543  51.3669973 105.8487967
  95.9803149  54.1570032  97.1760041  95.8421047  54.3471628  96.2481230
  95.6239368  54.9189415  97.6328092  84.1445275  48.1428128 103.2557053
  84.7844654  48.0016887 102.5580016  83.3122806  47.8562641 102.8795655
  96.0072528  56.2246559 102.1871312  96.4409035  56.1321849 103.0354366
  96.7204109  56.2004060 101.5491328  84.9205579  57.4430558  99.3692045
  85.7146177  56.9480878  99.1674620  84.2097271  56.9148421  99.0059751
  89.7400423  59.8248654 103.7204413  89.7937446  60.3939590 104.4882129
  88.8715205  59.9950539 103.3558450  81.2288342  51.5873640  95.4451798
  80.2985930  51.5258095  95.6621760  81.3245814  51.0649593  94.6488439
  81.1473891  48.1128453  98.0330039  81.4080709  49.0273786  97.9239200
  81.9691064  47.6452895  98.1826652  82.6198817  49.5266210 105.2028864
  83.2921870  49.3183572 104.5541513  81.7928603  49.3288296 104.7634096
  96.8688078  56.2670260 104.7204198  97.0623968  57.1716071 104.9663472
  96.7688696  55.8077679 105.5542783  88.5224389  46.1528151 107.2194525
  87.8752304  46.8518100 107.1259001  89.2925404  46.5864295 107.5870773
  91.9303187  56.4177003 110.2945078  91.7788693  56.1887555 109.3775162
  91.9207866  57.3747604 110.3076423  88.6988523  53.9908916 105.2791345
  89.6280583  54.1420075 105.1060312  88.2779553  54.0792936 104.4239991
  87.4976855  58.0159580 103.0489882  87.3587941  57.6478364 103.9215820
  86.7091451  58.5307219 102.8773840  88.0925007  63.1168676  94.3915419
  88.2676763  62.6456720  95.2061041  87.4057795  63.7434443  94.6196679
  89.0482070  57.3941183 100.4378720  88.7131903  57.3541953 101.3336370
  88.5486016  56.7285899  99.9649130  83.0226314  52.8008813 105.9631301
  82.8846112  52.0689052 106.5642840  83.9331237  52.7117713 105.6815489
  91.9841262  54.7397217  90.7115780  91.3670432  54.0144045  90.6148832
  91.5157750  55.5006577  90.3682854  85.6508615  52.5128772 105.4514981
  86.3608233  51.8721964 105.4101599  85.6077923  52.7641667 106.3741162
  93.6395393  59.4496125 108.3721560  93.5807940  58.7655346 107.7052143
  94.0414912  60.1915115 107.9202186  84.3637549  49.4993990 107.2710620
  83.8274906  49.0484728 107.9232217  83.7754257  49.6339899 106.5281085
  82.6586092  66.2658039 101.1655279  82.8982690  66.8976563 101.8434297
  81.8155289  65.9146079 101.4520638  83.7739808  48.9582641  89.8337084
  82.8969274  48.8371442  89.4699331  84.2497561  48.1668720  89.5815973
  93.6412801  57.4135709 106.6035540  92.7539579  57.0761631 106.7261939
  94.2111352  56.6818741 106.8404305  75.2941948  53.7459801  99.9278591
  75.9812988  53.4321531  99.3399606  75.1390076  54.6501166  99.6545842
  80.0976670  48.6349998 104.3563615  80.0134859  48.0275667 103.6214025
  79.2759376  49.1259016 104.3573111  87.1713954  62.0737162 103.5696783
  87.0984126  62.8792133 104.0816087  86.7291347  62.2729127 102.7444804
  86.9603734  61.3108932  97.0799604  86.1771256  61.8530612  97.1737829
  87.6596479  61.8282911  97.4793846  90.2700384  47.1203561  99.7233810
  90.7669083  46.3673523  99.4034880  89.4987365  47.1567878  99.1577019
  98.1230141  52.8243927 101.3652101  98.1120017  53.7068642 100.9946034
  97.2547521  52.4715478 101.1706638  89.6312638  61.9723996 105.7254942
  90.3440610  62.6071461 105.6530843  89.1402666  62.0687862 104.9094943
  91.3530164  55.8775248  97.2972233  90.4186443  55.9976711  97.1276938
  91.5306833  54.9747715  97.0332243  86.8535353  49.2620944  99.4505494
  86.4833140  48.7091985 100.1386400  87.3494445  48.6579078  98.8980494
  94.7402716  51.7192568  97.8322267  95.2063168  52.5520559  97.7582570
  95.1910216  51.2537549  98.5367526  84.6824551  59.7218439 106.5460512
  85.3834011  60.3554922 106.6989907  84.2119666  60.0633171 105.7856152
  92.8078947  58.0636389  94.8308419  93.0838791  57.9492984  95.7402293
  91.9383446  57.6653874  94.7920592  92.7119379  44.0873155 101.8713169
  91.7982458  44.3177381 102.0395376  93.1412480  44.1711599 102.7227201
  92.4825837  52.2763047 104.3713063  91.8297287  52.5238954 103.7165515
  92.8606217  51.4627185 104.0375540  89.4433011  62.3122740  98.4741233
  89.6255405  61.4944396  98.9368985  90.2665997  62.5290432  98.0366123
  89.7775176  61.2390925  95.7356281  90.3062943  60.7283380  95.1226444
  90.0403396  60.9233455  96.6001815  88.5313410  53.0182858 110.8579100
  87.8554047  52.9176987 111.5281475  89.3541044  52.8622071 111.3215097
  80.2792269  59.2554794 103.4791615  80.8645706  58.5098482 103.6119519
  80.0817108  59.5658751 104.3628279  83.1330924  62.2906042  98.4954057
  82.4641300  62.7752169  98.0118097  82.9943794  62.5375262  99.4097436
  74.8709924  51.8260394 102.1996058  74.9094023  51.2923985 102.9933176
  74.3650217  51.2995600 101.5807035  87.2736193  64.3249785 105.0936716
  87.8254501  64.4881407 105.8585801  87.6142386  64.9154223 104.4216741
  82.2500686  46.6724935 105.6958600  82.3142013  47.5339766 105.2835998
  82.1867806  46.0598937 104.9630959  81.7252959  48.7448067 109.3431635
  82.3524998  48.3625145 109.9569159  80.8680878  48.5262269 109.7087327
  92.1247067  59.1511043 110.9485370  92.6686971  59.7641001 110.4540325
  91.5433912  59.7090621 111.4652383  78.5018501  50.5524497  95.2749990
  78.7971943  49.6435175  95.2217043  77.6006537  50.5312236  94.9530992
  90.4104580  62.2731761 102.0800398  90.2855720  61.4721500 101.5711343
  91.0683671  62.7677954 101.5914368  82.0312748  48.6280493 101.2577538
  81.3099334  49.2416461 101.1185011  82.8206004  49.1638258 101.1794184
  92.4739489  60.0740781 103.7079948  91.5269824  59.9546132 103.6358275
  92.8222262  59.1863279 103.7906209  84.8339062  45.9634920 107.5318190
  85.3573464  46.2097216 108.2944499  84.6151395  46.7954954 107.1121327
  80.2306343  48.2338594  95.3989315  79.9019049  47.3535973  95.2164421
  80.5845714  48.1786263  96.2865704  89.4785922  59.8693497  99.9084300
  89.3310884  58.9410204 100.0891870  90.3039415  59.8913588  99.4241375
  83.3448166  48.5211564  95.7664792  83.6844239  49.0497485  95.0443401
  83.7920287  48.8591970  96.5423359  93.0820044  60.6922056 100.9949173
  94.0066591  60.4864917 100.8573624  92.9135347  60.4438457 101.9038515
  86.0391607  46.9048615 105.2167860  85.6988427  46.1056428 105.6188540
  85.3330613  47.2050326 104.6444694  86.6908079  43.9897927 103.6695183
  87.5134148  43.5158405 103.5474074  86.9346142  44.7688411 104.1693870
  85.3316313  47.0186186  93.9658085  86.0524676  47.3967438  93.4621802
  84.7081617  47.7375062  94.0693063  89.4747436  47.7231335  94.9016417
  89.6911051  48.6055972  94.6005246  88.9941503  47.3317548  94.1722059
  84.2146658  50.6817048 101.4787162  84.0691238  50.9957351 102.3711444
  83.7371861  51.3001948 100.9258061  86.0743040  47.6719596 101.5268052
  86.0604609  46.7760689 101.1900350  86.7915469  47.6790260 102.1606338
  87.9269171  48.1056936 103.5721179  87.6686949  49.0274007 103.5705510
  87.3954212  47.7087371 104.2621643  92.8715360  61.2107723  96.3511264
  93.0452237  60.6454146  95.5985117  93.3644251  62.0108618  96.1690754
  78.6892320  53.2222392 104.4174823  78.1445788  53.9982200 104.5495098
  79.5671670  53.5693197 104.2593945  85.4779936  46.5533976  96.7955622
  85.5995848  45.6250622  96.9946509  85.1881979  46.5672662  95.8833937
  88.3471127  44.2388887  99.9322342  88.3692824  44.3028220  98.9774321
  88.7639186  43.3993395 100.1262848  98.7254751  53.9744146  97.9701564
  99.1685897  53.2251471  97.5720687  97.8481261  53.9654282  97.5875296
  93.8590532  60.5274488  93.4508163  94.5541437  61.1481180  93.6695477
  94.2013683  59.6769839  93.7260541  79.4758342  52.3492288 107.3104980
  78.7340078  52.4974924 107.8969611  79.1551086  52.6100554 106.4471730
  95.7581956  57.9774193  94.9795494  96.2833280  58.3161466  94.2544814
  95.6704308  57.0421208  94.7958628  87.4202004  61.8908267 107.1085370
  87.7289131  61.6457413 107.9808070  88.2177486  62.0954905 106.6204240
  87.4422616  64.0446176  99.3390747  87.0027607  63.5522555 100.0323603
  88.1930733  63.5019144  99.0982822  79.9214955  60.2357717  99.3415375
  80.7472975  59.9361489  98.9614018  79.5709007  59.4665340  99.7905163
  84.8896488  59.5884185 101.4113048  84.2676498  58.9254890 101.1115276
  85.5601355  59.6145317 100.7286696  78.1223560  58.1544044 100.3004308
  77.2855469  57.7266218 100.1188310  78.0947206  58.3476487 101.2375100
  84.9621016  48.0665973 111.0045554  85.0109171  48.9428096 110.6223324
  85.5043530  47.5243367 110.4317198  95.4475862  58.6107097 110.2846691
  94.6571405  58.5931236 109.7451191  95.2109216  59.1495390 111.0395728
  95.5673737  55.4599563 107.5979420  95.6171742  55.2949571 108.5394943
  95.4587660  54.5926822 107.2077301  84.4509995  58.1388109  94.8871509
  84.5998116  58.8223573  94.2338182  85.2576439  58.1193199  95.4020965
  92.8577499  51.4430491 108.9138727  93.7587362  51.3036956 108.6222725
  92.9325474  51.6084946 109.8536904  87.1920304  48.8197346 107.7591913
  86.3223614  49.1130912 107.4874502  87.4279785  49.4037791 108.4799177
  97.0691934  57.8796505 107.8421442  96.7776742  58.2426485 108.6784903
  96.4564065  57.1663513 107.6634774  98.2687616  55.4449384 100.3624012
  99.1034507  55.8839188 100.5261572  98.4046745  54.9688038  99.5432258
  95.3179122  53.0029119 106.3101500  95.7933243  53.1956766 105.5020351
  94.3944687  53.0588305 106.0644883  82.2062628  54.1653286  95.8932578
  81.9608670  53.2615616  96.0912788  82.3758543  54.1670437  94.9512056
  89.8959338  45.0376963 105.2757333  90.4141282  45.7737990 104.9503822
  89.5414471  45.3440956 106.1104093  81.4758276  49.8981644  93.3918739
  80.7827521  49.9725999  92.7358775  81.2310028  49.1341988  93.9140256
  90.1471932  41.4577245 100.7958230  90.4273686  40.7900434 101.4218657
  90.9322539  41.6506341 100.2832894  87.9505401  60.6336239  92.3583256
  87.3779368  61.2526426  91.9053728  88.5238195  61.1835601  92.8923178
  94.0180791  49.8794879 104.5429805  94.9698214  49.9792977 104.5642029
  93.8484241  49.0873148 105.0527890  92.0395170  46.9650463 104.7289206
  91.4445102  47.2455475 104.0335695  91.7544867  47.4544363 105.5005947
  91.1702661  60.9173389  93.4891839  92.1033334  60.8518951  93.6924714
  91.0825874  61.7529656  93.0306371  93.7990677  60.2339260  90.4495786
  93.7204309  59.8999123  91.3431544  94.6200344  60.7261028  90.4487259
  96.4968869  53.1000999 103.6572105  96.4645189  52.1617000 103.8431789
  97.1069492  53.1785036 102.9237930  88.3352199  51.9697052  89.6999309
  89.2811304  51.8403260  89.7687727  87.9566444  51.2311714  90.1768737
  96.6463357  49.8912042 103.7030388  96.1302406  49.1070499 103.5160317
  97.5303306  49.5630759 103.8676907  94.3074084  43.6353058  99.6626201
  94.1098905  43.3268146 100.5469533  94.9173790  44.3614697  99.7924131
 102.3145418  54.1617006 102.7978142 103.0448807  53.9002294 103.3585845
 101.7052364  53.4245728 102.8380210 100.3960716  52.3024868 103.3952593
  99.6693879  52.1680833 102.7869084  99.9808002  52.6101697 104.2009311
  88.2190892  56.0214798 111.1599966  89.1393901  56.1993397 111.3540012
  88.1840475  55.0770843 111.0079665  86.5195117  49.8947028  89.6354194
  85.6126572  49.5980141  89.7116908  86.7971098  49.5976846  88.7688480
  77.4373057  51.2153392 100.0853240  77.1175841  50.3618700  99.7927614
  76.8906485  51.4301970 100.8411208  81.2152964  53.9315833 103.8022747
  81.4338974  54.8632941 103.8210781  81.6278738  53.5723807 104.5877551
  88.1357182  44.4383918  95.7898435  87.3257911  44.0931003  96.1653681
  88.8241599  44.1291462  96.3786047  90.0647731  43.5161965  97.4122732
  90.6178769  43.9357418  98.0712755  90.3017817  42.5897713  97.4545688
  86.0880830  49.5049039 113.1925496  85.9877557  50.4543395 113.1237587
  85.8702372  49.1767277 112.3201566  85.2893901  46.7533964  89.7766173
  86.1513065  47.0788862  90.0361991  85.4744245  45.9665459  89.2639239
  77.3061317  54.8356303 102.0546362  76.6124788  54.4210256 101.5416316
  78.0534308  54.8776840 101.4579781  93.4426538  45.6262490  96.9201396
  92.8625207  46.2847294  96.5379449  93.1762470  44.8039835  96.5088814
  91.8930104  45.0267548  99.1222717  92.3929882  45.1384082  98.3137035
  92.5365712  44.7228601  99.7623525  85.9512100  52.9346177 112.0090558
  85.4679182  53.7346537 112.2154447  86.0373039  52.9454122 111.0558002
  79.2198059  54.7674557  99.9312377  79.1968748  54.8662244  98.9794260
  79.5298696  55.6139708 100.2529543  81.8785437  56.8250712 104.0458991
  82.8328691  56.7934654 103.9788923  81.6797961  56.3641336 104.8609217
  82.4684819  55.3951828 106.6129789  83.2877708  55.8895907 106.6364626
  82.7421627  54.4783796 106.5847357  92.2251416  47.7862580  95.9757745
  91.3377271  48.0712231  95.7577939  92.6405405  47.6256344  95.1285021
  95.5765952  47.8109101  99.6912084  96.3526342  48.3005554  99.9636701
  94.8514086  48.2367156 100.1483953  98.0138510  48.5236721 100.7486024
  98.6083001  48.2832457 100.0379333  98.0865094  47.8043851 101.3759561
  80.2335666  62.3670332 101.0629189  80.0990134  61.6070732 100.4967187
  79.8167728  63.0911231 100.5957978  91.3694629  57.5507255  90.0705764
  92.0730479  57.7557258  90.6863420  90.6457278  58.1184017  90.3354848
  92.1992439  53.3017116  96.1908035  92.1427641  53.7585668  95.3515667
  92.7520782  52.5407801  96.0130877  96.0097245  49.0906848  97.0158154
  95.7534180  48.6903484  97.8466362  95.3850113  49.8050642  96.8908293
 100.3209583  51.8302921  99.5229446  99.7609141  51.8996111 100.2961008
  99.7153087  51.6543906  98.8028942  83.3904792  63.2639649 101.2747632
  83.2737176  64.2085081 101.1726322  82.5697238  62.9613210 101.6633431
  93.2781327  57.9889784  92.1204225  94.1126930  57.5570983  91.9381699
  93.1165669  57.8171798  93.0481119  92.9327219  54.4921898  93.4860564
  92.8776023  54.3266169  92.5449008  92.3073274  55.1997931  93.6422754
  77.7219734  49.7289962 107.3121986  78.3678597  49.2188916 107.8009211
  77.5136885  50.4658644 107.8865411  90.2473126  56.7970809 112.8114127
  91.1164286  56.9711462 112.4500762  89.7679877  57.6165226 112.6889856
  86.2423344  43.9930007  93.0645882  86.2302014  44.9371847  93.2214153
  87.1346766  43.8100152  92.7705343  84.4159306  63.9167910 104.4903560
  85.3186553  63.9491521 104.8070055  84.1896676  62.9868361 104.5049896
  86.1712908  62.6698897 101.1513639  85.2208539  62.6700759 101.0378011
  86.4745394  61.9231632 100.6349674  90.0575464  40.5872783  97.3191819
  89.2907859  40.0331270  97.4648501  90.4686169  40.6594652  98.1805971
  82.0617225  46.8757579 111.4097000  82.9248686  46.5194384 111.6200325
  81.4882635  46.5371474 112.0972405 101.9065602  68.5059435 102.2159401
 102.5444012  68.3866183 101.5122741 101.7886445  69.4540279 102.2747353
  98.7155308  68.4586864 102.1520926  98.3773819  68.3427928 101.2641461
  99.5845076  68.0578029 102.1321932  94.5742124  70.3122340  98.1417817
  94.0106989  70.2212277  97.3734105  94.4594519  69.4922244  98.6220309
  99.1975091  69.6121715 108.1107132  99.1863732  69.2174514 107.2387635
  99.3595730  68.8787788 108.7040903  92.1206556  71.8073532 100.9802037
  92.9127847  71.4664356 100.5648337  92.3603206  71.9168507 101.9004191
 100.1541682  73.9793308  93.4532282  99.5029662  74.5647388  93.0666296
 100.9486045  74.5099503  93.5127319  94.0797309  71.0682445  93.8519416
  94.8528185  70.5211432  93.7132292  94.4322708  71.9326694  94.0633878
  95.9182352  72.3958827 107.0586315  95.6272218  73.3004458 106.9432982
  96.5539336  72.4375355 107.7730385  96.8438559  69.7735676 103.6487675
  97.4402131  69.5491698 102.9344638  96.9013530  69.0320421 104.2513123
  96.4163587  67.2275111  91.4837866  96.6689108  66.7056632  90.7221329
  95.4788146  67.0641256  91.5864550 101.4606870  66.2310889  99.2912609
 102.2469959  65.8130312  98.9403026 101.7245574  67.1356981  99.4594258
 101.6316947  71.6683740  93.9901266 100.9962780  71.7418366  94.7022171
 101.3014354  72.2577338  93.3120345 106.8615297  66.1686122 100.1945588
 107.5940469  65.5985339 100.4283417 106.1054653  65.7807723 100.6352093
  96.1359876  69.1303217  93.6862241  96.0196134  68.4548120  94.3543325
  96.2462136  68.6435591  92.8694394  98.4791417  68.5913364  97.3908930
  98.1149624  68.0643985  98.1021852  99.3358533  68.2011833  97.2175416
 104.3840718  59.8807697 104.6540196 104.0524042  60.7503108 104.4301411
 103.7886331  59.5643981 105.3334227  98.1196904  63.6203264  92.3870279
  98.2871306  64.4883500  92.7540750  97.9294073  63.7830545  91.4631568
 100.8772237  72.0820243 104.0536109 100.5772960  72.9845281 103.9451916
 100.5323297  71.8152426 104.9057262  94.3284719  68.5334039 100.0872814
  93.4035215  68.4010254 100.2950505  94.5769132  69.3128259 100.5842756
 104.2769381  64.6002783 101.7333546 103.3686258  64.5318191 101.4392307
 104.2256977  65.0774728 102.5615372  98.0986125  66.0760921  93.3716946
  97.9785750  66.5217972  94.2102426  97.4038713  66.4246239  92.8130484
  91.6893530  68.1767313 100.9216603  91.8185911  68.4301792 101.8356014
  91.0090981  68.7695021 100.6021258  95.8593017  78.8464563  97.0207077
  95.7817047  79.7972388  97.0995557  95.2554661  78.5010435  97.6782003
  98.3510247  66.0192428 109.6768444  97.5743581  66.5786348 109.6671308
  98.9900810  66.5049211 110.1983314 106.1431027  62.8019221 103.5111420
 105.5005408  63.0951754 102.8651215 105.6385956  62.6872141 104.3164617
 103.7971191  66.5482394  94.1997280 104.7089047  66.7809781  94.0244977
 103.2880838  67.1319439  93.6372358  96.6056619  68.8277882 109.2386411
  97.3471303  69.3662926 108.9621234  95.8993604  69.4544170 109.3957963
 102.0811959  70.9707022 107.8358572 102.4895315  70.5289433 107.0913205
 101.3589220  70.3959650 108.0892765  98.4343029  65.9079629 105.2092129
  99.2804224  66.3319042 105.3526778  98.3741666  65.2513253 105.9030692
 102.4040773  71.5308213 101.5910861 101.7749636  71.6953927 100.8886929
 102.0166435  71.9449822 102.3621825 106.2830005  72.4662651  98.9455225
 105.5981043  72.8461552  98.3952258 106.3673855  73.0757977  99.6787173
 101.5842474  63.5683997 106.8673303 101.3403406  64.3226058 106.3307579
 101.8602405  63.9469345 107.7020550 103.5380937  70.1122610 105.5450568
 103.7497832  70.7554370 104.8684950 103.4910685  69.2784926 105.0772499
 101.1407166  62.7240430 102.4487141 100.2791645  63.0221684 102.7403878
 101.1669600  62.9410829 101.5168173  97.9568735  71.2682621  98.8560946
  98.4207081  71.5470324  98.0665569  97.6925533  70.3666065  98.6734037
  94.8492816  70.8154102 101.7940709  95.4194173  71.2441371 101.1558194
  95.4400928  70.5336687 102.4924895  96.8937621  67.3905773  95.6650511
  97.5961665  67.8426817  96.1324438  96.5618250  66.7489592  96.2930405
  95.3417983  65.9817530 110.0401721  94.7116643  66.6633811 110.2737118
  95.2354071  65.8700611 109.0954859  90.6362955  65.6489326 100.9667645
  89.8462009  65.9046854 100.4907756  91.1274203  66.4637664 101.0719685
 104.6526765  72.9894565 103.7172926 105.4744208  72.5874752 103.4355607
 104.6489168  72.8862799 104.6689042  92.5877701  66.0133905  97.9251122
  91.7908864  66.1252599  98.4434617  92.3603293  66.3520557  97.0592012
  98.4183368  72.5378608 105.8733636  98.4827801  72.9999016 106.7091808
  97.7094292  71.9075973 106.0015946  88.9200658  65.9019816 103.3982636
  89.1708697  66.7866826 103.6640212  89.4560207  65.7224418 102.6257728
 112.7432758  69.3333314 100.0657897 111.9896466  68.7640712  99.9101902
 112.8780299  69.2995978 101.0128532  98.1331386  74.2046716  95.7412617
  97.9977061  75.0498252  96.1697464  98.6741198  74.4065994  94.9778550
  94.6198725  60.2838296 112.4026972  94.2265671  59.7304494 113.0774616
  95.4364866  60.5948874 112.7933489  91.5860783  71.7222154  96.3140542
  92.0985304  72.5165404  96.4646106  92.2383496  71.0248444  96.2474143
  93.3955668  74.8387910  98.3963295  93.5722296  75.7605875  98.2084279
  94.1912501  74.5246329  98.8257675  97.5366686  61.6996175 109.9947228
  98.2776400  62.3003328 109.9151691  97.7684609  60.9573813 109.4365271
  92.6808024  66.8852542 108.2725458  92.5661540  65.9837799 108.5732557
  91.8252542  67.1316239 107.9210275  99.7599862  74.8270282 109.8712959
  99.3163716  74.0406661 109.5533863 100.4217076  75.0149433 109.2056849
  94.5186983  76.3566084 104.3973637  95.0694409  76.2283147 103.6250631
  93.6798459  76.6560973 104.0468530 101.8581100  75.1073082 107.8994360
 101.8399576  75.9281963 107.4074629 102.7801020  74.9827158 108.1244501
  98.3154154  72.6217212 108.7417868  98.8482491  71.8605500 108.5117176
  97.7868236  72.3290864 109.4842023 101.4823849  57.7277278 104.2711510
 101.1388119  58.6178919 104.1950621 101.8502812  57.5378935 103.4081095
  89.5509700  70.0510808  97.0900112  90.3884922  70.4607817  96.8733820
  89.7287968  69.1110250  97.0600306 101.4474132  67.7185889  92.7783945
 100.9320756  68.4890493  93.0172333 101.1751441  67.0451025  93.4017007
  99.0321243  62.5635590  97.8369184  98.1762840  62.1742440  97.6574822
  99.4448195  62.6427550  96.9768969 100.5620390  60.0981933 102.2360743
 100.0585185  60.0612068 101.4228549 100.8550997  61.0074676 102.2957400
  96.8063276  60.1820663 101.2426925  97.6716272  59.9863471 100.8832815
  96.8740785  59.9531014 102.1696282 106.4208406  70.4718244  94.7137119
 105.6437849  70.1329403  94.2692281 107.0999887  70.4770867  94.0392084
 101.2360435  65.5912981  94.6043726 100.9310571  65.9059130  95.4553870
 102.1890877  65.6694401  94.6471059  99.6806867  71.7503204  96.2536680
  99.1528229  71.0155964  95.9409918  99.1794370  72.5277881  96.0076649
 104.6599713  69.9452225 101.3703727 104.0023388  70.6351486 101.4583855
 105.4640112  70.3348657 101.7137713  94.4125595  62.4122871  98.6143292
  94.9869347  62.1898052  97.8816485  94.9996577  62.4811565  99.3671893
 103.4705172  68.2996597  99.4207668 103.9837054  68.9326589  99.9229378
 104.1206396  67.6997793  99.0551028  94.7395182  64.4427332  92.6339177
  93.9032494  64.7802018  92.9548452  94.5999952  64.3076311  91.6966314
  96.7148262  59.2864119  97.3418361  96.0612675  58.9713137  96.7174976
  96.6728737  58.6639860  98.0678184  97.8259467  69.5683415  89.2571653
  96.9186529  69.3372668  89.4562802  98.3230499  68.7721034  89.4445635
 100.7327546  78.2780922  92.1768340 100.0589245  78.5812618  92.7853297
 101.1193368  79.0810002  91.8273797  99.9486003  65.7746053 101.6666009
  99.0308564  65.9961000 101.5087697 100.3646146  65.8492363 100.8077716
 100.7321051  67.1737469  96.7968689 101.4792870  67.6858866  96.4875811
 101.0012640  66.8521521  97.6573083  99.0047701  69.6696009  93.7795643
  98.0958920  69.3855042  93.8768113  99.0342785  70.0895088  92.9198950
 104.2366968  73.2802599  97.5486811 103.7829295  72.4393509  97.6052002
 103.6060935  73.9163997  97.8861591 103.1799888  64.2094585  98.7787478
 102.4422645  63.6971971  99.1097721 103.4326661  63.7694967  97.9670755
 102.6799907  75.1179096  98.4836629 102.9722882  75.6784153  97.7648995
 103.1898528  75.4107657  99.2389788 103.2811515  56.9870837  99.3729248
 103.5870392  56.1268200  99.0855163 104.0064120  57.5788457  99.1728242
  89.5735871  67.3901524  97.7610846  89.3760271  66.7970884  97.0361912
  89.0182535  67.0853734  98.4786784  97.5532595  67.2824630  99.8805439
  97.6081205  66.3298466  99.8047915  96.7423797  67.4384069 100.3646737
  98.7023789  71.2104753  91.1183722  98.2643219  70.4940612  90.6589359
  99.4434229  71.4380868  90.5568813  95.4924955  65.9001690  97.6395818
  94.6792820  66.1995860  98.0461010  95.9883949  65.5057379  98.3570300
  97.6433533  75.8959447  99.5730082  97.6009711  76.1220293  98.6438614
  98.5596231  75.6622821  99.7215884 101.0899166  66.3643514 106.4710712
 101.4448554  66.5914987 107.3305177 101.7371298  66.6961891 105.8487967
 106.8196903  69.4861950  97.1760041 106.6814802  69.6763546  96.2481230
 106.4633122  70.2481333  97.6328092  94.9839029  63.4720045 103.2557053
  95.6238409  63.3308804 102.5580016  94.1516560  63.1854559 102.8795655
 106.8466283  71.5538477 102.1871312 107.2802790  71.4613766 103.0354366
 107.5597864  71.5295978 101.5491328  95.7599333  72.7722476  99.3692045
  96.5539932  72.2772796  99.1674620  95.0491026  72.2440339  99.0059751
 100.5794178  75.1540571 103.7204413 100.6331200  75.7231508 104.4882129
  99.7108959  75.3242456 103.3558450  92.0682097  66.9165557  95.4451798
  91.1379685  66.8550013  95.6621760  92.1639569  66.3941510  94.6488439
  91.9867646  63.4420370  98.0330039  92.2474463  64.3565704  97.9239200
  92.8084818  62.9744813  98.1826652  93.4592571  64.8558127 105.2028864
  94.1315625  64.6475490 104.5541513  92.6322358  64.6580213 104.7634096
 107.7081833  71.5962178 104.7204198 107.9017723  72.5007988 104.9663472
 107.6082451  71.1369597 105.5542783  99.3618143  61.4820068 107.2194525
  98.7146058  62.1810018 107.1259001 100.1319159  61.9156212 107.5870773
 102.7696941  71.7468921 110.2945078 102.6182448  71.5179472 109.3775162
 102.7601621  72.7039522 110.3076423  99.5382278  69.3200833 105.2791345
 100.4674338  69.4711993 105.1060312  99.1173308  69.4084854 104.4239991
  98.3370609  73.3451498 103.0489882  98.1981695  72.9770282 103.9215820
  97.5485206  73.8599137 102.8773840  98.9318761  78.4460594  94.3915419
  99.1070517  77.9748637  95.2061041  98.2451549  79.0726360  94.6196679
  99.8875825  72.7233100 100.4378720  99.5525657  72.6833870 101.3336370
  99.3879770  72.0577816  99.9649130  93.8620069  68.1300730 105.9631301
  93.7239866  67.3980969 106.5642840  94.7724992  68.0409631 105.6815489
 102.8235016  70.0689135  90.7115780 102.2064187  69.3435963  90.6148832
 102.3551505  70.8298495  90.3682854  96.4902369  67.8420690 105.4514981
  97.2001988  67.2013882 105.4101599  96.4471677  68.0933585 106.3741162
 104.4789148  74.7788043 108.3721560 104.4201694  74.0947263 107.7052143
 104.8808666  75.5207033 107.9202186  95.2031303  64.8285908 107.2710620
  94.6668660  64.3776646 107.9232217  94.6148012  64.9631816 106.5281085
  93.4979847  81.5949957 101.1655279  93.7376445  82.2268481 101.8434297
  92.6549043  81.2437997 101.4520638  94.6133562  64.2874559  89.8337084
  93.7363028  64.1663360  89.4699331  95.0891315  63.4960637  89.5815973
 104.4806555  72.7427627 106.6035540 103.5933334  72.4053549 106.7261939
 105.0505106  72.0110658 106.8404305  86.1335702  69.0751719  99.9278591
  86.8206742  68.7613449  99.3399606  85.9783831  69.9793083  99.6545842
  90.9370424  63.9641915 104.3563615  90.8528613  63.3567585 103.6214025
  90.1153131  64.4550934 104.3573111  98.0107709  77.4029079 103.5696783
  97.9377880  78.2084051 104.0816087  97.5685102  77.6021045 102.7444804
  97.7997488  76.6400849  97.0799604  97.0165010  77.1822530  97.1737829
  98.4990233  77.1574829  97.4793846 101.1094138  62.4495479  99.7233810
 101.6062838  61.6965441  99.4034880 100.3381120  62.4859795  99.1577019
 108.9623896  68.1535844 101.3652101 108.9513772  69.0360560 100.9946034
 108.0941275  67.8007395 101.1706638 100.4706392  77.3015913 105.7254942
 101.1834364  77.9363378 105.6530843  99.9796421  77.3979779 104.9094943
 102.1923919  71.2067166  97.2972233 101.2580198  71.3268629  97.1276938
 102.3700587  70.3039633  97.0332243  97.6929107  64.5912862  99.4505494
  97.3226895  64.0383902 100.1386400  98.1888199  63.9870995  98.8980494
 105.5796470  67.0484485  97.8322267 106.0456922  67.8812477  97.7582570
 106.0303971  66.5829467  98.5367526  95.5218306  75.0510357 106.5460512
  96.2227765  75.6846840 106.6989907  95.0513421  75.3925088 105.7856152
 103.6472701  73.3928307  94.8308419 103.9232545  73.2784901  95.7402293
 102.7777200  72.9945791  94.7920592 103.5513133  59.4165072 101.8713169
 102.6376213  59.6469299 102.0395376 103.9806235  59.5003516 102.7227201
 103.3219592  67.6054964 104.3713063 102.6691042  67.8530872 103.7165515
 103.6999971  66.7919102 104.0375540 100.2826765  77.6414657  98.4741233
 100.4649160  76.8236313  98.9368985 101.1059751  77.8582350  98.0366123
 100.6168931  76.5682843  95.7356281 101.1456697  76.0575297  95.1226444
 100.8797150  76.2525373  96.6001815  99.3707165  68.3474775 110.8579100
  98.6947802  68.2468905 111.5281475 100.1934798  68.1913989 111.3215097
  91.1186024  74.5846712 103.4791615  91.7039460  73.8390400 103.6119519
  90.9210862  74.8950669 104.3628279  93.9724679  77.6197959  98.4954057
  93.3035054  78.1044087  98.0118097  93.8337549  77.8667180  99.4097436
  85.7103678  67.1552312 102.1996058  85.7487778  66.6215903 102.9933176
  85.2043971  66.6287518 101.5807035  98.1129947  79.6541703 105.0936716
  98.6648255  79.8173324 105.8585801  98.4536141  80.2446141 104.4216741
  93.0894441  62.0016853 105.6958600  93.1535767  62.8631684 105.2835998
  93.0261561  61.3890854 104.9630959  92.5646713  64.0739985 109.3431635
  93.1918752  63.6917062 109.9569159  91.7074632  63.8554187 109.7087327
  89.3412256  65.8816414  95.2749990  89.6365697  64.9727093  95.2217043
  88.4400292  65.8604154  94.9530992 101.2498335  77.6023678 102.0800398
 101.1249474  76.8013418 101.5711343 101.9077426  78.0969872 101.5914368
  92.8706503  63.9572411 101.2577538  92.1493089  64.5708379 101.1185011
  93.6599759  64.4930176 101.1794184 103.3133243  75.4032698 103.7079948
 102.3663579  75.2838050 103.6358275 103.6616016  74.5155196 103.7906209
  95.6732816  61.2926837 107.5318190  96.1967218  61.5389134 108.2944499
  95.4545150  62.1246872 107.1121327  91.0700098  63.5630512  95.3989315
  90.7412804  62.6827891  95.2164421  91.4239468  63.5078181  96.2865704
 100.3179676  75.1985415  99.9084300 100.1704639  74.2702122 100.0891870
 101.1433170  75.2205505  99.4241375  94.1841921  63.8503482  95.7664792
  94.5237993  64.3789403  95.0443401  94.6314041  64.1883888  96.5423359
 103.9213798  76.0213973 100.9949173 104.8460346  75.8156835 100.8573624
 103.7529102  75.7730375 101.9038515  96.8785362  62.2340532 105.2167860
  96.5382182  61.4348345 105.6188540  96.1724368  62.5342243 104.6444694
  97.5301833  59.3189845 103.6695183  98.3527903  58.8450323 103.5474074
  97.7739897  60.0980329 104.1693870  96.1710068  62.3478103  93.9658085
  96.8918430  62.7259356  93.4621802  95.5475372  63.0666980  94.0693063
 100.3141191  63.0523252  94.9016417 100.5304805  63.9347890  94.6005246
  99.8335258  62.6609466  94.1722059  95.0540412  66.0108966 101.4787162
  94.9084993  66.3249269 102.3711444  94.5765616  66.6293866 100.9258061
  96.9136795  63.0011513 101.5268052  96.8998364  62.1052607 101.1900350
  97.6309223  63.0082177 102.1606338  98.7662926  63.4348854 103.5721179
  98.5080704  64.3565924 103.5705510  98.2347966  63.0379288 104.2621643
 103.7109114  76.5399641  96.3511264 103.8845992  75.9746063  95.5985117
 104.2038006  77.3400536  96.1690754  89.5286074  68.5514310 104.4174823
  88.9839542  69.3274118 104.5495098  90.4065424  68.8985114 104.2593945
  96.3173691  61.8825894  96.7955622  96.4389602  60.9542540  96.9946509
  96.0275733  61.8964580  95.8833937  99.1864881  59.5680804  99.9322342
  99.2086578  59.6320137  98.9774321  99.6032940  58.7285313 100.1262848
 109.5648506  69.3036064  97.9701564 110.0079652  68.5543389  97.5720687
 108.6875016  69.2946200  97.5875296 104.6984287  75.8566405  93.4508163
 105.3935192  76.4773098  93.6695477 105.0407437  75.0061756  93.7260541
  90.3152096  67.6784206 107.3104980  89.5733832  67.8266842 107.8969611
  89.9944840  67.9392472 106.4471730 106.5975710  73.3066111  94.9795494
 107.1227034  73.6453384  94.2544814 106.5098063  72.3713126  94.7958628
  98.2595759  77.2200184 107.1085370  98.5682885  76.9749331 107.9808070
  99.0571241  77.4246823 106.6204240  98.2816371  79.3738094  99.3390747
  97.8421361  78.8814473 100.0323603  99.0324488  78.8311062  99.0982822
  90.7608710  75.5649635  99.3415375  91.5866730  75.2653407  98.9614018
  90.4102762  74.7957257  99.7905163  95.7290243  74.9176103 101.4113048
  95.1070252  74.2546808 101.1115276  96.3995110  74.9437235 100.7286696
  88.9617315  73.4835961 100.3004308  88.1249223  73.0558136 100.1188310
  88.9340960  73.6768405 101.2375100  95.8014770  63.3957891 111.0045554
  95.8502926  64.2720014 110.6223324  96.3437285  62.8535284 110.4317198
 106.4067491  70.7891481 107.5979420 106.4565496  70.6241488 108.5394943
 106.2981415  69.9218740 107.2077301  95.2903750  73.4680026  94.8871509
  95.4391870  74.1515491  94.2338182  96.0970193  73.4485117  95.4020965
 103.6971254  66.7722409 108.9138727 104.5981116  66.6328874 108.6222725
 103.7719228  66.9376864 109.8536904  98.0314059  64.1489264 107.7591913
  97.1617368  64.4422830 107.4874502  98.2673539  64.7329709 108.4799177
 107.9085688  73.2088422 107.8421442 107.6170496  73.5718403 108.6784903
 107.2957819  72.4955431 107.6634774 109.1081370  70.7741302 100.3624012
 109.9428262  71.2131106 100.5261572 109.2440499  70.2979955  99.5432258
 106.1572876  68.3321037 106.3101500 106.6326998  68.5248683 105.5020351
 105.2338442  68.3880223 106.0644883  93.0456383  69.4945204  95.8932578
  92.8002425  68.5907534  96.0912788  93.2152297  69.4962355  94.9512056
 100.7353093  60.3668880 105.2757333 101.2535037  61.1029907 104.9503822
 100.3808226  60.6732874 106.1104093  92.3152030  65.2273562  93.3918739
  91.6221275  65.3017917  92.7358775  92.0703782  64.4633905  93.9140256
 100.9865687  56.7869163 100.7958230 101.2667441  56.1192352 101.4218657
 101.7716294  56.9798259 100.2832894  98.7899155  75.9628157  92.3583256
  98.2173122  76.5818344  91.9053728  99.3631949  76.5127519  92.8923178
 104.8574545  65.2086797 104.5429805 105.8091968  65.3084895 104.5642029
 104.6877996  64.4165066 105.0527890 102.8788925  62.2942380 104.7289206
 102.2838857  62.5747393 104.0335695 102.5938621  62.7836281 105.5005947
 102.0096415  76.2465307  93.4891839 102.9427088  76.1810869  93.6924714
 101.9219628  77.0821574  93.0306371 104.6384432  75.5631177  90.4495786
 104.5598063  75.2291041  91.3431544 105.4594099  76.0552945  90.4487259
 107.3362623  68.4292917 103.6572105 107.3038943  67.4908917 103.8431789
 107.9463247  68.5076953 102.9237930  99.1745954  67.2988970  89.6999309
 100.1205059  67.1695178  89.7687727  98.7960199  66.5603632  90.1768737
 107.4857112  65.2203960 103.7030388 106.9696160  64.4362417 103.5160317
 108.3697060  64.8922677 103.8676907 105.1467838  58.9644976  99.6626201
 104.9492660  58.6560064 100.5469533 105.7567544  59.6906615  99.7924131
 113.1539173  69.4908924 102.7978142 113.8842561  69.2294212 103.3585845
 112.5446118  68.7537645 102.8380210 111.2354470  67.6316786 103.3952593
 110.5087634  67.4972751 102.7869084 110.8201757  67.9393615 104.2009311
  99.0584646  71.3506716 111.1599966  99.9787656  71.5285315 111.3540012
  99.0234229  70.4062761 111.0079665  97.3588871  65.2238946  89.6354194
  96.4520326  64.9272059  89.7116908  97.6364852  64.9268764  88.7688480
  88.2766811  66.5445309 100.0853240  87.9569596  65.6910618  99.7927614
  87.7300240  66.7593888 100.8411208  92.0546719  69.2607750 103.8022747
  92.2732729  70.1924858 103.8210781  92.4672493  68.9015725 104.5877551
  98.9750937  59.7675836  95.7898435  98.1651665  59.4222921  96.1653681
  99.6635354  59.4583379  96.3786047 100.9041485  58.8453883  97.4122732
 101.4572524  59.2649336  98.0712755 101.1411571  57.9189631  97.4545688
  96.9274584  64.8340956 113.1925496  96.8271311  65.7835313 113.1237587
  96.7096126  64.5059195 112.3201566  96.1287656  62.0825881  89.7766173
  96.9906820  62.4080780  90.0361991  96.3138000  61.2957377  89.2639239
  88.1455071  70.1648221 102.0546362  87.4518543  69.7502174 101.5416316
  88.8928062  70.2068757 101.4579781 104.2820292  60.9554408  96.9201396
 103.7018961  61.6139212  96.5379449 104.0156225  60.1331752  96.5088814
 102.7323859  60.3559465  99.1222717 103.2323637  60.4676000  98.3137035
 103.3759466  60.0520518  99.7623525  96.7905854  68.2638095 112.0090558
  96.3072936  69.0638455 112.2154447  96.8766793  68.2746040 111.0558002
  90.0591814  70.0966475  99.9312377  90.0362502  70.1954162  98.9794260
  90.3692450  70.9431626 100.2529543  92.7179192  72.1542630 104.0458991
  93.6722445  72.1226572 103.9788923  92.5191715  71.6933253 104.8609217
  93.3078574  70.7243746 106.6129789  94.1271463  71.2187824 106.6364626
  93.5815382  69.8075714 106.5847357 103.0645170  63.1154498  95.9757745
 102.1771025  63.4004149  95.7577939 103.4799159  62.9548261  95.1285021
 106.4159706  63.1401019  99.6912084 107.1920096  63.6297472  99.9636701
 105.6907840  63.5659073 100.1483953 108.8532265  63.8528638 100.7486024
 109.4476756  63.6124374 100.0379333 108.9258849  63.1335769 101.3759561
  91.0729421  77.6962249 101.0629189  90.9383889  76.9362650 100.4967187
  90.6561483  78.4203149 100.5957978 102.2088384  72.8799173  90.0705764
 102.9124234  73.0849175  90.6863420 101.4851032  73.4475935  90.3354848
 103.0386194  68.6309034  96.1908035 102.9821395  69.0877585  95.3515667
 103.5914536  67.8699719  96.0130877 106.8491000  64.4198766  97.0158154
 106.5927934  64.0195402  97.8466362 106.2243868  65.1342560  96.8908293
 111.1603338  67.1594839  99.5229446 110.6002896  67.2288028 100.2961008
 110.5546841  66.9835824  98.8028942  94.2298546  78.5931566 101.2747632
  94.1130931  79.5376999 101.1726322  93.4090993  78.2905128 101.6633431
 104.1175081  73.3181702  92.1204225 104.9520685  72.8862900  91.9381699
 103.9559424  73.1463716  93.0481119 103.7720973  69.8213815  93.4860564
 103.7169777  69.6558087  92.5449008 103.1467028  70.5289848  93.6422754
  88.5613488  65.0581880 107.3121986  89.2072352  64.5480834 107.8009211
  88.3530639  65.7950561 107.8865411  97.0817099  59.3221924  93.0645882
  97.0695769  60.2663764  93.2214153  97.9740521  59.1392070  92.7705343
  95.2553061  79.2459828 104.4903560  96.1580307  79.2783438 104.8070055
  95.0290431  78.3160279 104.5049896  97.0106663  77.9990815 101.1513639
  96.0602294  77.9992676 101.0378011  97.3139149  77.2523549 100.6349674
 100.8969218  55.9164701  97.3191819 100.1301614  55.3623188  97.4648501
 101.3079923  55.9886570  98.1805971  92.9010979  62.2049497 111.4097000
  93.7642441  61.8486302 111.6200325  92.3276390  61.8663392 112.0972405
 105.4135878  85.6414258  98.1417817 104.8500743  85.5504195  97.3734105
 105.2988273  84.8214162  98.6220309 102.9600310  87.1365449 100.9802037
 103.7521602  86.7956274 100.5648337 103.1996960  87.2460424 101.9004191
 110.9935437  89.3085225  93.4532282 110.3423417  89.8939306  93.0666296
 111.7879800  89.8391420  93.5127319 104.9191064  86.3974362  93.8519416
 105.6921940  85.8503350  93.7132292 105.2716463  87.2618612  94.0633878
 107.2557342  82.5567029  91.4837866 107.5082862  82.0348550  90.7221329
 106.3181901  82.3933174  91.5864550 112.3000625  81.5602807  99.2912609
 113.0863714  81.1422230  98.9403026 112.5639329  82.4648899  99.4594258
 112.4710702  86.9975657  93.9901266 111.8356535  87.0710284  94.7022171
 112.1408108  87.5869256  93.3120345 106.9753631  84.4595135  93.6862241
 106.8589889  83.7840038  94.3543325 107.0855890  83.9727508  92.8694394
 109.3185171  83.9205282  97.3908930 108.9543379  83.3935903  98.1021852
 110.1752287  83.5303751  97.2175416 108.9590658  78.9495181  92.3870279
 109.1265061  79.8175418  92.7540750 108.7687828  79.1122463  91.4631568
 105.1678473  83.8625957 100.0872814 104.2428970  83.7302171 100.2950505
 105.4162886  84.6420176 100.5842756 108.9379879  81.4052839  93.3716946
 108.8179505  81.8509890  94.2102426 108.2432468  81.7538157  92.8130484
 102.5287284  83.5059231 100.9216603 102.6579665  83.7593710 101.8356014
 101.8484735  84.0986939 100.6021258 114.6364945  81.8774312  94.1997280
 115.5482802  82.1101699  94.0244977 114.1274593  82.4611356  93.6372358
 111.9800920  78.0532348 102.4487141 111.1185399  78.3513602 102.7403878
 112.0063355  78.2702747 101.5168173 108.7962490  86.5974539  98.8560946
 109.2600835  86.8762242  98.0665569 108.5319288  85.6957983  98.6734037
 107.7331376  82.7197691  95.6650511 108.4355419  83.1718735  96.1324438
 107.4012004  82.0781510  96.2930405 101.4756710  80.9781244 100.9667645
 100.6855764  81.2338772 100.4907756 101.9667957  81.7929581 101.0719685
 103.4271455  81.3425823  97.9251122 102.6302618  81.4544517  98.4434617
 103.1997047  81.6812475  97.0592012  99.7594413  81.2311734 103.3982636
 100.0102451  82.1158744 103.6640212 100.2953961  81.0516336 102.6257728
 108.9725140  89.5338634  95.7412617 108.8370815  90.3790169  96.1697464
 109.5134953  89.7357911  94.9778550 102.4254538  87.0514072  96.3140542
 102.9379058  87.8457322  96.4646106 103.0777251  86.3540362  96.2474143
 104.2349422  90.1679828  98.3963295 104.4116051  91.0897793  98.2084279
 105.0306256  89.8538247  98.8257675 112.3217604  73.0569195 104.2711510
 111.9781873  73.9470837 104.1950621 112.6896567  72.8670853 103.4081095
 100.3903455  85.3802726  97.0900112 101.2278677  85.7899734  96.8733820
 100.5681722  84.4402168  97.0600306 112.2867887  83.0477807  92.7783945
 111.7714510  83.8182411  93.0172333 112.0145195  82.3742943  93.4017007
 109.8714998  77.8927507  97.8369184 109.0156594  77.5034358  97.6574822
 110.2841949  77.9719468  96.9768969 111.4014144  75.4273851 102.2360743
 110.8978940  75.3903986 101.4228549 111.6944751  76.3366593 102.2957400
 107.6457030  75.5112580 101.2426925 108.5110027  75.3155389 100.8832815
 107.7134539  75.2822932 102.1696282 117.2602161  85.8010161  94.7137119
 116.4831604  85.4621321  94.2692281 117.9393642  85.8062784  94.0392084
 112.0754190  80.9204899  94.6043726 111.7704325  81.2351048  95.4553870
 113.0284632  80.9986319  94.6471059 110.5200622  87.0795122  96.2536680
 109.9921983  86.3447882  95.9409918 110.0188124  87.8569798  96.0076649
 105.2519349  77.7414788  98.6143292 105.8263101  77.5189970  97.8816485
 105.8390332  77.8103483  99.3671893 105.5788936  79.7719249  92.6339177
 104.7426249  80.1093936  92.9548452 105.4393706  79.6368229  91.6966314
 107.5542017  74.6156037  97.3418361 106.9006429  74.3005054  96.7174976
 107.5122491  73.9931778  98.0678184 108.6653222  84.8975332  89.2571653
 107.7580284  84.6664586  89.4562802 109.1624254  84.1012951  89.4445635
 111.5721301  93.6072839  92.1768340 110.8982999  93.9104536  92.7853297
 111.9587123  94.4101920  91.8273797 110.7879757  81.1037971 101.6666009
 109.8702319  81.3252918 101.5087697 111.2039901  81.1784281 100.8077716
 111.5714805  82.5029386  96.7968689 112.3186624  83.0150784  96.4875811
 111.8406395  82.1813439  97.6573083 109.8441455  84.9987927  93.7795643
 108.9352675  84.7146960  93.8768113 109.8736539  85.4187006  92.9198950
 114.0193642  79.5386503  98.7787478 113.2816399  79.0263889  99.1097721
 114.2720416  79.0986884  97.9670755 114.1205270  72.3162755  99.3729248
 114.4264146  71.4560118  99.0855163 114.8457874  72.9080375  99.1728242
 100.4129626  82.7193441  97.7610846 100.2154025  82.1262802  97.0361912
  99.8576290  82.4145651  98.4786784 108.3926349  82.6116548  99.8805439
 108.4474959  81.6590384  99.8047915 107.5817551  82.7675987 100.3646737
 109.5417543  86.5396671  91.1183722 109.1036973  85.8232530  90.6589359
 110.2827984  86.7672786  90.5568813 106.3318709  81.2293607  97.6395818
 105.5186575  81.5287778  98.0461010 106.8277703  80.8349296  98.3570300
 117.6590658  84.8153868  97.1760041 117.5208556  85.0055464  96.2481230
 117.3026877  85.5773251  97.6328092 105.8232784  78.8011963 103.2557053
 106.4632163  78.6600722 102.5580016 104.9910315  78.5146476 102.8795655
 106.5993088  88.1014393  99.3692045 107.3933686  87.6064714  99.1674620
 105.8884780  87.5732256  99.0059751 102.9075851  82.2457475  95.4451798
 101.9773439  82.1841931  95.6621760 103.0033323  81.7233428  94.6488439
 102.8261400  78.7712288  98.0330039 103.0868218  79.6857621  97.9239200
 103.6478573  78.3036730  98.1826652 104.2986326  80.1850045 105.2028864
 104.9709379  79.9767407 104.5541513 103.4716112  79.9872131 104.7634096
 109.7712516  93.7752512  94.3915419 109.9464272  93.3040555  95.2061041
 109.0845304  94.4018278  94.6196679 113.6628771  85.3981052  90.7115780
 113.0457941  84.6727881  90.6148832 113.1945259  86.1590413  90.3682854
 105.4527317  79.6166477  89.8337084 104.5756783  79.4955277  89.4699331
 105.9285070  78.8252555  89.5815973  96.9729457  84.4043636  99.9278591
  97.6600497  84.0905366  99.3399606  96.8177585  85.3085001  99.6545842
 101.7764179  79.2933833 104.3563615 101.6922368  78.6859503 103.6214025
 100.9546885  79.7842851 104.3573111 111.9487893  77.7787397  99.7233810
 112.4456592  77.0257359  99.4034880 111.1774874  77.8151713  99.1577019
 113.0317673  86.5359084  97.2972233 112.0973952  86.6560546  97.1276938
 113.2094342  85.6331551  97.0332243 108.5322861  79.9204780  99.4505494
 108.1620649  79.3675820 100.1386400 109.0281954  79.3162913  98.8980494
 116.4190225  82.3776403  97.8322267 116.8850677  83.2104395  97.7582570
 116.8697725  81.9121385  98.5367526 114.4866456  88.7220224  94.8308419
 114.7626300  88.6076819  95.7402293 113.6170955  88.3237709  94.7920592
 114.3906888  74.7456990 101.8713169 113.4769967  74.9761217 102.0395376
 114.8199989  74.8295434 102.7227201 111.4562685  91.8974760  95.7356281
 111.9850452  91.3867215  95.1226444 111.7190905  91.5817290  96.6001815
  96.5497433  82.4844230 102.1996058  96.5881532  81.9507820 102.9933176
  96.0437726  81.9579435 101.5807035 103.9288195  77.3308770 105.6958600
 103.9929522  78.1923601 105.2835998 103.8655315  76.7182772 104.9630959
 100.1806010  81.2108332  95.2749990 100.4759452  80.3019010  95.2217043
  99.2794046  81.1896071  94.9530992 103.7100257  79.2864329 101.2577538
 102.9886843  79.9000296 101.1185011 104.4993513  79.8222093 101.1794184
 101.9093852  78.8922430  95.3989315 101.5806558  78.0119809  95.2164421
 102.2633223  78.8370098  96.2865704 105.0235675  79.1795399  95.7664792
 105.3631748  79.7081321  95.0443401 105.4707796  79.5175806  96.5423359
 107.7179116  77.5632450 105.2167860 107.3775936  76.7640263 105.6188540
 107.0118122  77.8634161 104.6444694 108.3695588  74.6481763 103.6695183
 109.1921657  74.1742241 103.5474074 108.6133651  75.4272246 104.1693870
 107.0103822  77.6770021  93.9658085 107.7312185  78.0551274  93.4621802
 106.3869126  78.3958898  94.0693063 111.1534945  78.3815170  94.9016417
 111.3698560  79.2639808  94.6005246 110.6729012  77.9901383  94.1722059
 105.8934167  81.3400883 101.4787162 105.7478747  81.6541186 102.3711444
 105.4159370  81.9585784 100.9258061 107.7530549  78.3303431 101.5268052
 107.7392118  77.4344524 101.1900350 108.4702978  78.3374095 102.1606338
 109.6056680  78.7640771 103.5721179 109.3474458  79.6857842 103.5705510
 109.0741721  78.3671206 104.2621643 100.3679829  83.8806228 104.4174823
  99.8233297  84.6566036 104.5495098 101.2459179  84.2277032 104.2593945
 107.1567445  77.2117811  96.7955622 107.2783357  76.2834458  96.9946509
 106.8669488  77.2256497  95.8833937 110.0258636  74.8972722  99.9322342
 110.0480333  74.9612055  98.9774321 110.4426695  74.0577231 100.1262848
 115.5378041  91.1858323  93.4508163 116.2328946  91.8065016  93.6695477
 115.8801192  90.3353674  93.7260541 117.4369465  88.6358028  94.9795494
 117.9620789  88.9745301  94.2544814 117.3491817  87.7005044  94.7958628
 101.6002464  90.8941553  99.3415375 102.4260484  90.5945324  98.9614018
 101.2496516  90.1249175  99.7905163  99.8011069  88.8127879 100.3004308
  98.9642978  88.3850053 100.1188310  99.7734715  89.0060322 101.2375100
 106.1297504  88.7971944  94.8871509 106.2785625  89.4807409  94.2338182
 106.9363948  88.7777034  95.4020965 103.8850137  84.8237122  95.8932578
 103.6396179  83.9199452  96.0912788 104.0546052  84.8254272  94.9512056
 103.1545785  80.5565479  93.3918739 102.4615030  80.6309834  92.7358775
 102.9097537  79.7925823  93.9140256 111.8259441  72.1161081 100.7958230
 112.1061195  71.4484270 101.4218657 112.6110048  72.3090176 100.2832894
 109.6292910  91.2920075  92.3583256 109.0566877  91.9110262  91.9053728
 110.2025704  91.8419436  92.8923178 112.8490170  91.5757225  93.4891839
 113.7820843  91.5102786  93.6924714 112.7613382  92.4113492  93.0306371
 115.4778186  90.8923095  90.4495786 115.3991818  90.5582959  91.3431544
 116.2987853  91.3844863  90.4487259 110.0139708  82.6280887  89.6999309
 110.9598813  82.4987095  89.7687727 109.6353953  81.8895549  90.1768737
 115.9861593  74.2936893  99.6626201 115.7886414  73.9851982 100.5469533
 116.5961299  75.0198532  99.7924131 108.1982626  80.5530864  89.6354194
 107.2914081  80.2563976  89.7116908 108.4758607  80.2560682  88.7688480
  99.1160566  81.8737227 100.0853240  98.7963350  81.0202535  99.7927614
  98.5693994  82.0885805 100.8411208 109.8144691  75.0967753  95.7898435
 109.0045420  74.7514838  96.1653681 110.5029108  74.7875297  96.3786047
 111.7435240  74.1745800  97.4122732 112.2966278  74.5941254  98.0712755
 111.9805326  73.2481548  97.4545688 106.9681410  77.4117799  89.7766173
 107.8300574  77.7372697  90.0361991 107.1531754  76.6249295  89.2639239
  98.9848826  85.4940139 102.0546362  98.2912297  85.0794091 101.5416316
  99.7321817  85.5360675 101.4579781 115.1214047  76.2846325  96.9201396
 114.5412716  76.9431129  96.5379449 114.8549979  75.4623670  96.5088814
 113.5717613  75.6851383  99.1222717 114.0717391  75.7967918  98.3137035
 114.2153221  75.3812436  99.7623525 100.8985568  85.4258392  99.9312377
 100.8756257  85.5246080  98.9794260 101.2086205  86.2723543 100.2529543
 113.9038925  78.4446416  95.9757745 113.0164780  78.7296066  95.7577939
 114.3192914  78.2840179  95.1285021 117.2553461  78.4692937  99.6912084
 118.0313851  78.9589389  99.9636701 116.5301595  78.8950991 100.1483953
 113.0482138  88.2091090  90.0705764 113.7517988  88.4141093  90.6863420
 112.3244787  88.7767852  90.3354848 113.8779948  83.9600952  96.1908035
 113.8215150  84.4169503  95.3515667 114.4308291  83.1991636  96.0130877
 117.6884754  79.7490684  97.0158154 117.4321689  79.3487319  97.8466362
 117.0637622  80.4634478  96.8908293 114.9568836  88.6473620  92.1204225
 115.7914439  88.2154818  91.9381699 114.7953178  88.4755633  93.0481119
 114.6114728  85.1505733  93.4860564 114.5563531  84.9850004  92.5449008
 113.9860783  85.8581766  93.6422754  99.4007243  80.3873797 107.3121986
 100.0466106  79.8772751 107.8009211  99.1924394  81.1242479 107.8865411
 107.9210853  74.6513842  93.0645882 107.9089523  75.5955682  93.2214153
 108.8134275  74.4683987  92.7705343 111.7362973  71.2456619  97.3191819
 110.9695368  70.6915105  97.4648501 112.1473678  71.3178487  98.1805971
 116.4182691  95.1011167  92.6339177 115.5820003  95.4385853  92.9548452
 116.2787461  94.9660147  91.6966314 116.2921071  94.9458394  89.8337084
 115.4150537  94.8247195  89.4699331 116.7678824  94.1544473  89.5815973
 113.9939539  95.8857397  93.3918739 113.3008784  95.9601752  92.7358775
 113.7491291  95.1217741  93.9140256 119.0376380  95.8822781  89.6354194
 118.1307835  95.5855894  89.7116908 119.3152361  95.5852599  88.7688480
 117.8075165  92.7409717  89.7766173 118.6694329  93.0664615  90.0361991
 117.9925509  91.9541213  89.2639239 118.7604608  89.9805760  93.0645882
 118.7483277  90.9247600  93.2214153 119.6528030  89.7975905  92.7705343
  52.5018000  -5.4640985  83.7452384  52.4242030  -4.5133160  83.8240864
  51.8979644  -5.8095113  84.4027310  50.1404830  -2.7155591  87.8900586
  50.3801428  -2.0837067  88.5679604  49.2974026  -3.0667551  88.1765945
  50.6149662  -6.6907589  85.2199364  49.9460037  -6.2061461  84.7363404
  50.4762532  -6.4438368  86.1342743  54.7554931  -4.6563845  91.8182022
  55.3073239  -4.4932224  92.5831108  55.0961124  -4.0659407  91.1462047
  47.7154404  -6.6143299  87.7874496  47.5808872  -7.3742898  87.2212494
  47.2986466  -5.8902399  87.3203285  50.8723530  -5.7173982  87.9992939
  50.7555914  -4.7728549  87.8971629  50.0515976  -6.0200420  88.3878738
  51.8978044  -5.0645720  91.2148867  52.8005291  -5.0322110  91.5315362
  51.6715414  -5.9945269  91.2295203  66.1974046  -0.5226767  88.8766233
  65.8592557  -0.6385702  87.9886767  67.0663814  -0.9235602  88.8567239
  62.0560861   1.3308709  84.8663124  61.4925727   1.2398646  84.0979411
  61.9413256   0.5108614  85.3465616  66.6793829   0.6308085  94.8352438
  66.6682469   0.2360883  93.9632942  66.8414468  -0.1025843  95.4286210
  59.6025293   2.8259901  87.7047344  60.3946585   2.4850726  87.2893643
  59.8421943   2.9354876  88.6249497  67.6360420   4.9979677  80.1777588
  66.9848400   5.5833758  79.7911602  68.4304783   5.5285872  80.2372626
  61.5616047   2.0868814  80.5764723  62.3346923   1.5397801  80.4377599
  61.9141446   2.9513064  80.7879184  63.4001090   3.4145197  93.7831622
  63.1090956   4.3190827  93.6678288  64.0358074   3.4561724  94.4975692
  64.3257297   0.7922045  90.3732982  64.9220869   0.5678068  89.6589945
  64.3832268   0.0506791  90.9758430  69.1135685   2.6870109  80.7146573
  68.4781518   2.7604736  81.4267477  68.7833092   3.2763708  80.0365652
  63.6178614   0.1489586  80.4107548  63.5014872  -0.5265510  81.0788632
  63.7280874  -0.3378040  79.5939701  65.9610155  -0.3900266  84.1154237
  65.5968362  -0.9169646  84.8267158  66.8177271  -0.7801797  83.9420722
  68.3590975   3.1006612  90.7781416  68.0591698   4.0031651  90.6697223
  68.0142034   2.8338795  91.6302569  61.8103456  -0.4479591  86.8118120
  60.8853953  -0.5803377  87.0195812  62.0587870   0.3314628  87.3088063
  59.1712267  -0.8046317  87.6461909  59.3004649  -0.5511839  88.5601321
  58.4909719  -0.2118609  87.3266564  63.3411755   9.8650932  83.7452384
  63.2635784  10.8158758  83.8240864  62.7373398   9.5196805  84.4027310
  64.0875357  -0.1535749  95.9631717  64.8290041   0.3849295  95.6866541
  63.3812342   0.4730540  96.1203269  69.5630696   1.9893392  94.5603879
  69.9714052   1.5475802  93.8158511  68.8407958   1.4146019  94.8138072
  69.8859511   2.5494582  88.3156168  69.2568374   2.7140296  87.6132236
  69.4985173   2.9636192  89.0867132  73.7648743   3.4849020  85.6700532
  73.0799781   3.8647922  85.1197565  73.8492592   4.0944347  86.4032479
  71.0199675   1.1308979  92.2695875  71.2316570   1.7740739  91.5930256
  70.9729423   0.2971296  91.8017805  65.4387473   2.2868990  85.5806253
  65.9025818   2.5656693  84.7910875  65.1744271   1.3852435  85.3979344
  62.3311554   1.8340472  88.5186016  62.9012911   2.2627740  87.8803501
  62.9219666   1.5523057  89.2170202  58.1181693  -3.3324305  87.6912952
  57.3280747  -3.0766776  87.2153062  58.6092940  -2.5175967  87.7964992
  72.1345503   4.0080935  90.4418232  72.9562946   3.6061122  90.1600914
  72.1307905   3.9049169  91.3934348  60.0696438  -2.9679725  84.6496428
  59.2727602  -2.8561031  85.1679924  59.8422031  -2.6293073  83.7837319
  65.9002106   3.5564978  92.5978943  65.9646538   4.0185385  93.4337115
  65.1913030   2.9262343  92.7261253  56.4019396  -3.0793814  90.1227942
  56.6527434  -2.1946804  90.3885518  56.9378944  -3.2589213  89.3503034
  65.6150124   5.2233085  82.4657923  65.4795798   6.0684621  82.8942771
  66.1559936   5.4252363  81.7023857  59.0679521   2.7408523  83.0385848
  59.5804042   3.5351774  83.1891413  59.7202234   2.0434814  82.9719450
  60.8774406   5.8574280  85.1208602  61.0541034   6.7792244  84.9329585
  61.6731239   5.5432699  85.5502981  60.1626762  -2.0961088  94.9970765
  60.0480277  -2.9975831  95.2977864  59.3071280  -1.8497392  94.6455581
  67.2418600   5.8456652  96.5958265  66.7982454   5.0593030  96.2779170
  67.9035814   6.0335802  95.9302156  62.0005721   7.3752454  91.1218944
  62.5513146   7.2469517  90.3495938  61.1617197   7.6747343  90.7713837
  69.3399838   6.1259452  94.6239667  69.3218313   6.9468333  94.1319936
  70.2619758   6.0013527  94.8489808  65.7972892   3.6403581  95.4663175
  66.3301229   2.8791870  95.2362483  65.2686973   3.3477233  96.2087329
  57.0328438   1.0697178  83.8145419  57.8703660   1.4794186  83.5979127
  57.2106706   0.1296620  83.7845613  67.1625605   2.7689574  82.9781987
  66.6346967   2.0342333  82.6655224  66.6613108   3.5464250  82.7321955
  72.1418451   0.9638594  88.0949033  71.4842125   1.6537856  88.1829162
  72.9458850   1.3535026  88.4383020  65.3078205   0.5869784  75.9816960
  64.4005267   0.3559038  76.1808109  65.8049237  -0.2092597  76.1690942
  68.2146284   9.2967291  78.9013646  67.5407983   9.5998988  79.5098604
  68.6012106  10.0996372  78.5519103  66.4866439   0.6882379  80.5040950
  65.5777658   0.4041412  80.6013420  66.5161522   1.1081458  79.6444257
  71.7185706   4.2988968  84.2732118  71.2648033   3.4579878  84.3297308
  71.0879673   4.9350367  84.6106898  70.1618645   6.1365465  85.2081936
  70.4541620   6.6970522  84.4894301  70.6717266   6.4294026  85.9635095
  57.0554609  -1.5912107  84.4856152  56.8579009  -2.1842746  83.7607219
  56.5001273  -1.8959897  85.2032091  66.1842526   2.2291123  77.8429029
  65.7461956   1.5126982  77.3834666  66.9252967   2.4567237  77.2814120
  65.1252270   6.9145816  86.2975389  65.0828449   7.1406663  85.3683921
  66.0414969   6.6809191  86.4461190  74.3285021   2.5724847  88.9116619
  74.7621527   2.4800136  89.7599673  75.0416601   2.5482347  88.2736635
  63.2418071   3.7908845  86.0937352  64.0358670   3.2959165  85.8919927
  62.5309764   3.2626708  85.7305057  68.0612916   6.1726941  90.4449719
  68.1149938   6.7417877  91.2127435  67.1927697   6.3428826  90.0803756
  59.5500835  -2.0648073  82.1697104  58.6198423  -2.1263618  82.3867067
  59.6458307  -2.5872120  81.3733746  75.1900570   2.6148547  91.4449504
  75.3836460   3.5194358  91.6908779  75.0901188   2.1555966  92.2788089
  70.2515679   2.7655290  97.0190385  70.1001185   2.5365842  96.1020468
  70.2420358   3.7225891  97.0321730  67.0201015   0.3387203  92.0036651
  67.9493075   0.4898362  91.8305619  66.5992045   0.4271224  91.1485298
  65.8189347   4.3637867  89.7735189  65.6800433   3.9956652  90.6461127
  65.0303943   4.8785507  89.6019147  66.4137499   9.4646964  81.1160725
  66.5889255   8.9935007  81.9306348  65.7270287  10.0912730  81.3441986
  67.3694562   3.7419470  87.1624027  67.0344395   3.7020240  88.0581677
  66.8698508   3.0764186  86.6894437  61.3438806  -0.8512900  92.6876608
  61.2058604  -1.5832661  93.2888147  62.2543730  -0.9404000  92.4060796
  70.3053754   1.0875504  77.4361086  69.6882925   0.3622332  77.3394139
  69.8370242   1.8484865  77.0928161  63.9721107  -1.1392941  92.1760287
  64.6820725  -1.7799749  92.1346906  63.9290415  -0.8880046  93.0986468
  71.9607886   5.7974413  95.0966867  71.9020432   5.1133633  94.4297450
  72.3627404   6.5393403  94.6447493  60.9798584  12.6136326  87.8900586
  61.2195183  13.2454851  88.5679604  60.1367781  12.2624366  88.1765945
  71.9625293   3.7613997  93.3280846  71.0752072   3.4239918  93.4507245
  72.5323844   3.0297028  93.5649612  53.6154440   0.0938088  86.6523898
  54.3025480  -0.2200182  86.0644913  53.4602569   0.9979453  86.3791149
  65.4926446   8.4215449  90.2942090  65.4196618   9.2270420  90.8061394
  65.0503839   8.6207415  89.4690111  65.2816226   7.6587219  83.8044911
  64.4983748   8.2008899  83.8983136  65.9808971   8.1761199  84.2039152
  67.9525130   8.3202283  92.4500248  68.6653102   8.9549748  92.3776150
  67.4615158   8.4166149  91.6340250  69.6742657   2.2253536  84.0217540
  68.7398935   2.3454998  83.8522244  69.8519325   1.3226002  83.7577550
  63.0037043   6.0696726  93.2705819  63.7046503   6.7033209  93.4235213
  62.5332158   6.4111458  92.5101458  71.1291439   4.4114676  81.5553726
  71.4051283   4.2971271  82.4647600  70.2595938   4.0132161  81.5165899
  67.7645503   8.6601027  85.1986540  67.9467898   7.8422683  85.6614292
  68.5878489   8.8768719  84.7611430  68.0987669   7.5869212  82.4601588
  68.6275435   7.0761667  81.8471750  68.3615888   7.2711742  83.3247121
  66.8525902  -0.6338855  97.5824406  66.1766539  -0.7344726  98.2526782
  67.6753536  -0.7899641  98.0460404  58.6004761   5.6033081  90.2036922
  59.1858198   4.8576769  90.3364826  58.4029600   5.9137038  91.0873586
  61.4543417   8.6384329  85.2199364  60.7853792   9.1230456  84.7363404
  61.3156286   8.8853549  86.1342743  53.1922416  -1.8261318  88.9241365
  53.2306516  -2.3597728  89.7178483  52.6862709  -2.3526113  88.3052342
  65.5948685  10.6728072  91.8182022  66.1466993  10.8359694  92.5831108
  65.9354879  11.2632510  91.1462047  70.4459560   5.4989330  97.6730677
  70.9899464   6.1119288  97.1785632  69.8646404   6.0568908  98.1897690
  56.8230994  -3.0997216  81.9995296  57.1184435  -4.0086538  81.9462350
  55.9219029  -3.1209477  81.6776299  68.7317072   8.6210048  88.8045705
  68.6068212   7.8199788  88.2956650  69.3896164   9.1156241  88.3159675
  70.7951981   6.4219068  90.4325255  69.8482316   6.3024419  90.3603581
  71.1434754   5.5341566  90.5151516  67.7998414   6.2171784  86.6329607
  67.6523377   5.2888492  86.8137177  68.6251908   6.2391875  86.1486682
  71.4032536   7.0400343  87.7194480  72.3279083   6.8343204  87.5818931
  71.2347839   6.7916744  88.6283821  71.1927852   7.5586010  83.0756571
  71.3664730   6.9932433  82.3230424  71.6856743   8.3586905  82.8936061
  57.0104812  -0.4299321  91.1420130  56.4658280   0.3460487  91.2740404
  57.8884162  -0.0828516  90.9839251  72.1803025   6.8752775  80.1753469
  72.8753929   7.4959467  80.3940784  72.5226175   6.0248126  80.4505847
  57.7970834  -1.3029424  94.0350287  57.0552570  -1.1546789  94.6214917
  57.4763578  -1.0421159  93.1717036  74.0794448   4.3252480  81.7040800
  74.6045772   4.6639753  80.9790120  73.9916800   3.3899496  81.5203935
  65.7414497   8.2386554  93.8330677  66.0501623   7.9935701  94.7053376
  66.5389979   8.4433192  93.3449547  65.7635109  10.3924464  86.0636053
  65.3240099   9.9000842  86.7568910  66.5143226   9.8497431  85.8228129
  58.2427448   6.5836004  86.0660681  59.0685467   6.2839776  85.6859325
  57.8921500   5.8143627  86.5150470  63.2108981   5.9362473  88.1358355
  62.5888990   5.2733178  87.8360583  63.8813848   5.9623605  87.4532003
  56.4436053   4.5022331  87.0249615  55.6067961   4.0744505  86.8433616
  56.4159698   4.6954774  87.9620406  73.7688354   4.9585384  97.0091998
  72.9783898   4.9409523  96.4696498  73.5321708   5.4973678  97.7641035
  62.7722488   4.4866396  81.6116816  62.9210608   5.1701860  80.9583488
  63.5788931   4.4671486  82.1266271  75.3904426   4.2274792  94.5666748
  75.0989234   4.5904772  95.4030209  74.7776557   3.5141800  94.3880080
  60.5275121   0.5131574  82.6177884  60.2821163  -0.3906096  82.8158095
  60.6971035   0.5148724  81.6757362  66.2717893   6.9814526  79.0828563
  65.6991860   7.6004714  78.6299035  66.8450687   7.5313888  79.6168485
  69.4915153   7.2651677  80.2137145  70.4245826   7.1997238  80.4170021
  69.4038366   8.1007943  79.7551678  72.1203170   6.5817547  77.1741093
  72.0416801   6.2477411  78.0676851  72.9412836   7.0739315  77.1732565
  66.5403384   2.3693085  97.8845272  67.4606394   2.5471684  98.0785319
  66.5052967   1.4249131  97.7324972  55.7585549  -2.4368321  86.8098547
  55.4388334  -3.2903013  86.5172921  55.2118977  -2.2219743  87.5656514
  59.5365457   0.2794120  90.5268054  59.7551467   1.2111228  90.5456087
  59.9491231  -0.0797906  91.3122857  55.6273809   1.1834590  88.7791669
  54.9337281   0.7688543  88.2661623  56.3746800   1.2255127  88.1825088
  64.2724592  -0.7175535  98.7335864  63.7891674   0.0824825  98.9399753
  64.3585531  -0.7067591  97.7803308  57.5410552   1.1152844  86.6557684
  57.5181240   1.2140532  85.7039567  57.8511188   1.9617995  86.9774850
  60.1997930   3.1728999  90.7704298  61.1541183   3.1412942  90.7034230
  60.0010453   2.7119623  91.5854524  60.7897312   1.7430115  93.3375096
  61.6090201   2.2374194  93.3609933  61.0634119   0.8262083  93.3092663
  58.5548158   8.7148619  87.7874496  58.4202626   7.9549020  87.2212494
  58.1380221   9.4389519  87.3203285  69.6907121   3.8985542  76.7951071
  70.3942972   4.1035545  77.4108727  68.9669770   4.4662304  77.0600155
  61.7117284   9.6117936  87.9992939  61.5949668  10.5563368  87.8971629
  60.8909731   9.3091497  88.3878738  71.5993819   4.3368072  78.8449531
  72.4339423   3.9049270  78.6627006  71.4378162   4.1650085  79.7726426
  71.2539711   0.8400185  80.2105871  71.1988515   0.6744456  79.2694315
  70.6285766   1.5476218  80.3668060  56.0432226  -3.9231751  94.0367293
  56.6891090  -4.4332797  94.5254518  55.8349377  -3.1863069  94.6110718
  68.5685618   3.1449097  99.5359433  69.4376778   3.3189749  99.1746068
  68.0892370   3.9643514  99.4135163  62.7371798  10.2646198  91.2148867
  63.6399045  10.2969808  91.5315362  62.5109168   9.3346649  91.2295203
  64.4925400   9.0177184  87.8758946  63.5421031   9.0179046  87.7623318
  64.7957887   8.2709919  87.3594980  80.2278094  14.8537723  88.9404708
  80.8656504  14.7344470  88.2368048  80.1098937  15.8018567  88.9992660
  77.0367800  14.8065151  88.8766233  76.6986312  14.6906215  87.9886767
  77.9057568  14.4056316  88.8567239  72.8954616  16.6600627  84.8663124
  72.3319481  16.5690564  84.0979411  72.7807011  15.8400532  85.3465616
  77.5187583  15.9600002  94.8352438  77.5076224  15.5652801  93.9632942
  77.6808223  15.2266075  95.4286210  70.4419048  18.1551819  87.7047344
  71.2340340  17.8142643  87.2893643  70.6815698  18.2646794  88.6249497
  78.4754175  20.3271595  80.1777588  77.8242154  20.9125675  79.7911602
  79.2698537  20.8577790  80.2372626  72.4009802  17.4160732  80.5764723
  73.1740678  16.8689719  80.4377599  72.7535201  18.2804981  80.7879184
  74.2394844  18.7437114  93.7831622  73.9484710  19.6482745  93.6678288
  74.8751829  18.7853642  94.4975692  75.1651051  16.1213963  90.3732982
  75.7614623  15.8969985  89.6589945  75.2226023  15.3798708  90.9758430
  74.7376080  13.5753398  78.2083173  74.9901600  13.0534919  77.4466636
  73.8000639  13.4119544  78.3109856  79.7819362  12.5789176  86.0157916
  80.5682452  12.1608600  85.6648333  80.0458067  13.4835269  86.1839564
  79.9529440  18.0162027  80.7146573  79.3175273  18.0896653  81.4267477
  79.6226846  18.6055626  80.0365652  85.1827790  12.5164410  86.9190894
  85.9152961  11.9463627  87.1528724  84.4267145  12.1286010  87.3597400
  74.4572368  15.4781504  80.4107548  74.3408626  14.8026407  81.0788632
  74.5674628  14.9913878  79.5939701  76.8003909  14.9391651  84.1154237
  76.4362116  14.4122272  84.8267158  77.6571025  14.5490120  83.9420722
  82.7053210   6.2285984  91.3785503  82.3736535   7.0981395  91.1546718
  82.1098823   5.9122268  92.0579533  76.4409396   9.9681551  79.1115585
  76.6083799  10.8361787  79.4786057  76.2506565  10.1308833  78.1876875
  79.1984729  18.4298530  90.7781416  78.8985452  19.3323569  90.6697223
  78.8535789  18.1630713  91.6302569  72.6497211  14.8812327  86.8118120
  71.7247707  14.7488541  87.0195812  72.8981624  15.6606546  87.3088063
  82.5981873  10.9481070  88.4578853  81.6898751  10.8796478  88.1637614
  82.5469469  11.4253015  89.2860679  76.4198617  12.4239208  80.0962252
  76.2998242  12.8696259  80.9347733  75.7251205  12.7724526  79.5375790
  70.0106022  14.5245600  87.6461909  70.1398403  14.7780079  88.5601321
  69.3303473  15.1173308  87.3266564  74.1805509  25.1942850  83.7452384
  74.1029539  26.1450675  83.8240864  73.5767153  24.8488723  84.4027310
  76.6722739  12.3670716  96.4013750  75.8956073  12.9264636  96.3916615
  77.3113302  12.8527499  96.9228621  84.4643520   9.1497508  90.2356727
  83.8217900   9.4430042  89.5896522  83.9598448   9.0350429  91.0409924
  82.1183683  12.8960682  80.9242586  83.0301539  13.1288068  80.7490284
  81.6093330  13.4797726  80.3617665  74.9269111  15.1756169  95.9631717
  75.6683796  15.7141213  95.6866541  74.2206097  15.8022458  96.1203269
  80.4024451  17.3185309  94.5603879  80.8107807  16.8767720  93.8158511
  79.6801712  16.7437937  94.8138072  76.7555521  12.2557916  91.9337436
  77.6016716  12.6797330  92.0772085  76.6954159  11.5991540  92.6275999
  80.7253266  17.8786500  88.3156168  80.0962128  18.0432214  87.6132236
  80.3378928  18.2928110  89.0867132  84.6042497  18.8140938  85.6700532
  83.9193536  19.1939839  85.1197565  84.6886347  19.4236265  86.4032479
  79.9054966   9.9162285  93.5918609  79.6615898  10.6704345  93.0552885
  80.1814897  10.2947632  94.4265857  81.8593429  16.4600897  92.2695875
  82.0710324  17.1032657  91.5930256  81.8123177  15.6263213  91.8017805
  79.4619658   9.0718718  89.1732447  78.6004137   9.3699971  89.4649185
  79.4882093   9.2889116  88.2413480  76.2781227  17.6160908  85.5806253
  76.7419573  17.8948611  84.7910875  76.0138026  16.7144353  85.3979344
  73.1705309  17.1632390  88.5186016  73.7406666  17.5919658  87.8803501
  73.7613420  16.8814974  89.2170202  75.2150114  13.7384060  82.3895818
  75.9174157  14.1905104  82.8569744  74.8830742  13.0967879  83.0175711
  73.6630475  12.3295817  96.7647027  73.0329136  13.0112098  96.9982424
  73.5566563  12.2178899  95.8200166  68.9575447  11.9967613  87.6912952
  68.1674501  12.2525142  87.2153062  69.4486695  12.8115951  87.7964992
  82.9739257  19.3372852  90.4418232  83.7956701  18.9353040  90.1600914
  82.9701660  19.2341086  91.3934348  70.9090193  12.3612192  84.6496428
  70.1121356  12.4730887  85.1679924  70.6815785  12.6998845  83.7837319
  76.7395860  18.8856896  92.5978943  76.8040293  19.3477303  93.4337115
  76.0306784  18.2554261  92.7261253  67.2413150  12.2498104  90.1227942
  67.4921189  13.1345114  90.3885518  67.7772699  12.0702705  89.3503034
  91.0645250  15.6811601  86.7903204  90.3108958  15.1118999  86.6347208
  91.1992791  15.6474265  87.7373839  76.4543878  20.5525003  82.4657923
  76.3189553  21.3976539  82.8942771  76.9953691  20.7544281  81.7023857
  72.9411218   6.6316583  99.1272278  72.5478163   6.0782782  99.8019923
  73.7577358   6.9427161  99.5178796  69.9073276  18.0700441  83.0385848
  70.4197796  18.8643691  83.1891413  70.5595988  17.3726732  82.9719450
  71.7168160  21.1866197  85.1208602  71.8934789  22.1084162  84.9329585
  72.5124994  20.8724617  85.5502981  75.8579179   8.0474462  96.7192535
  76.5988892   8.6481615  96.6396998  76.0897102   7.3052100  96.1610578
  71.0020517  13.2330829  94.9970765  70.8874032  12.3316087  95.2977864
  70.1465035  13.4794526  94.6455581  78.0812355  21.1748570  96.5958265
  77.6376209  20.3884948  96.2779170  78.7429568  21.3627720  95.9302156
  72.8399476  22.7044371  91.1218944  73.3906901  22.5761435  90.3495938
  72.0010952  23.0039260  90.7713837  80.1793593  21.4551370  94.6239667
  80.1612068  22.2760251  94.1319936  81.1013513  21.3305445  94.8489808
  76.6366647  18.9695499  95.4663175  77.1694984  18.2083787  95.2362483
  76.1080728  18.6769151  96.2087329  79.8036342   4.0755565  90.9956817
  79.4600611   4.9657207  90.9195927  80.1715304   3.8857223  90.1326402
  67.8722192  16.3989095  83.8145419  68.7097414  16.8086104  83.5979127
  68.0500460  15.4588538  83.7845613  79.7686624  14.0664176  79.5029252
  79.2533248  14.8368781  79.7417639  79.4963933  13.3929312  80.1262313
  77.3533735   8.9113877  84.5614490  76.4975332   8.5220727  84.3820129
  77.7660687   8.9905838  83.7014276  78.8832882   6.4460220  88.9606050
  78.3797678   6.4090355  88.1473855  79.1763489   7.3552963  89.0202707
  75.1275768   6.5298950  87.9672232  75.9928765   6.3341759  87.6078121
  75.1953277   6.3009302  88.8941588  84.7420899  16.8196531  81.4382425
  83.9650341  16.4807690  80.9937587  85.4212380  16.8249154  80.7637390
  79.5572928  11.9391268  81.3289033  79.2523063  12.2537417  82.1799176
  80.5103370  12.0172688  81.3716366  78.0019359  18.0981492  82.9781987
  77.4740721  17.3634251  82.6655224  77.5006862  18.8756168  82.7321955
  82.9812205  16.2930512  88.0949033  82.3235880  16.9829773  88.1829162
  83.7852605  16.6826944  88.4383020  72.7338087   8.7601158  85.3388599
  73.3081839   8.5376339  84.6061791  73.3209069   8.8289852  86.0917200
  81.7917664  14.6474885  86.1452975  82.3049546  15.2804877  86.6474685
  82.4418888  14.0476080  85.7796335  73.0607674  10.7905619  79.3584484
  72.2244986  11.1280305  79.6793759  72.9212444  10.6554599  78.4211621
  75.0360755   5.6342407  84.0663668  74.3825167   5.3191424  83.4420283
  74.9941229   5.0118147  84.7923491  76.1471960  15.9161702  75.9816960
  75.2399021  15.6850955  76.1808109  76.6442992  15.1199321  76.1690942
  79.0540038  24.6259209  78.9013646  78.3801737  24.9290906  79.5098604
  79.4405860  25.4288289  78.5519103  78.2698495  12.1224340  88.3911316
  77.3521056  12.3439287  88.2333004  78.6858639  12.1970651  87.5323023
  79.0533543  13.5215756  83.5213996  79.8005362  14.0337153  83.2121118
  79.3225132  13.1999809  84.3818389  77.3260193  16.0174297  80.5040950
  76.4171412  15.7333329  80.6013420  77.3555277  16.4373375  79.6444257
  82.5579460  19.6280886  84.2732118  82.1041788  18.7871796  84.3297308
  81.9273427  20.2642285  84.6106898  81.5012380  10.5572872  85.5032785
  80.7635137  10.0450258  85.8343028  81.7539154  10.1173254  84.6916062
  81.0012400  21.4657383  85.2081936  81.2935374  22.0262440  84.4894301
  81.5111020  21.7585944  85.9635095  67.8948363  13.7379811  84.4856152
  67.6972763  13.1449171  83.7607219  67.3395027  13.4332021  85.2032091
  75.8745087  13.6302917  86.6050745  75.9293697  12.6776754  86.5293222
  75.0636289  13.7862356  87.0892044  77.0236281  17.5583040  77.8429029
  76.5855711  16.8418899  77.3834666  77.7646722  17.7859155  77.2814120
  73.8137447  12.2479977  84.3641124  73.0005313  12.5474148  84.7706316
  74.3096441  11.8535666  85.0815607  75.9646025  22.2437734  86.2975389
  75.9222204  22.4698580  85.3683921  76.8808724  22.0101109  86.4461190
  79.4111659  12.7121801  93.1956018  79.7661046  12.9393275  94.0550484
  80.0583790  13.0440178  92.5733274  85.1409396  15.8340237  83.9005347
  85.0027294  16.0241833  82.9726536  84.7845614  16.5959620  84.3573398
  73.3051522   9.8198333  89.9802359  73.9450901   9.6787092  89.2825323
  72.4729052   9.5332846  89.6040961  85.1678775  17.9016764  88.9116619
  85.6015282  17.8092053  89.7599673  85.8810356  17.8774265  88.2736635
  74.0811826  19.1200763  86.0937352  74.8752424  18.6251083  85.8919927
  73.3703518  18.5918626  85.7305057  78.9006670  21.5018858  90.4449719
  78.9543692  22.0709795  91.2127435  78.0321452  21.6720743  90.0803756
  70.3894589  13.2643845  82.1697104  69.4592177  13.2028300  82.3867067
  70.4852061  12.7419797  81.3733746  70.3080138   9.7898657  84.7575346
  70.5686955  10.7043991  84.6484507  71.1297311   9.3223100  84.9071959
  71.7805064  11.2036415  91.9274171  72.4528117  10.9953777  91.2786820
  70.9534850  11.0058501  91.4879403  86.0294325  17.9440465  91.4449504
  86.2230215  18.8486276  91.6908779  85.9294943  17.4847884  92.2788089
  77.6830636   7.8298356  93.9439831  77.0358551   8.5288305  93.8504308
  78.4531651   8.2634500  94.3116080  81.0909433  18.0947208  97.0190385
  80.9394940  17.8657759  96.1020468  81.0814113  19.0517809  97.0321730
  77.8594770  15.6679120  92.0036651  78.7886830  15.8190280  91.8305619
  77.4385800  15.7563141  91.1485298  76.6583102  19.6929785  89.7735189
  76.5194187  19.3248569  90.6461127  75.8697698  20.2077424  89.6019147
  77.2531254  24.7938881  81.1160725  77.4283009  24.3226925  81.9306348
  76.5664042  25.4204648  81.3441986  78.2088317  19.0711388  87.1624027
  77.8738149  19.0312158  88.0581677  77.7092262  18.4056104  86.6894437
  72.1832561  14.4779018  92.6876608  72.0452359  13.7459256  93.2888147
  73.0937484  14.3887918  92.4060796  81.1447508  16.4167422  77.4361086
  80.5276679  15.6914250  77.3394139  80.6763997  17.1776782  77.0928161
  74.8114861  14.1898977  92.1760287  75.5214480  13.5492169  92.1346906
  74.7684170  14.4411872  93.0986468  82.8001640  21.1266330  95.0966867
  82.7414186  20.4425550  94.4297450  83.2021159  21.8685320  94.6447493
  73.5243795  11.1764195  93.9955927  72.9881152  10.7254933  94.6477523
  72.9360504  11.3110104  93.2526391  71.8192339  27.9428244  87.8900586
  72.0588937  28.5746768  88.5679604  70.9761535  27.5916284  88.1765945
  72.9346054  10.6352846  76.5582391  72.0575521  10.5141647  76.1944637
  73.4103807   9.8438925  76.3061279  82.8019047  19.0905914  93.3280846
  81.9145826  18.7531836  93.4507245  83.3717598  18.3588945  93.5649612
  64.4548195  15.4230006  86.6523898  65.1419234  15.1091736  86.0644913
  64.2996323  16.3271371  86.3791149  69.2582917  10.3120203  91.0808921
  69.1741105   9.7045872  90.3459331  68.4365623  10.8029221  91.0818418
  76.3320201  23.7507367  90.2942090  76.2590372  24.5562338  90.8061394
  75.8897594  23.9499332  89.4690111  76.1209980  22.9879137  83.8044911
  75.3377502  23.5300817  83.8983136  76.8202726  23.5053116  84.2039152
  79.4306631   8.7973766  86.4479116  79.9275330   8.0443728  86.1280187
  78.6593612   8.8338083  85.8822326  87.2836388  14.5014132  88.0897408
  87.2726264  15.3838847  87.7191341  86.4153767  14.1485682  87.8951945
  78.7918884  23.6494201  92.4500248  79.5046857  24.2841665  92.3776150
  78.3008913  23.7458067  91.6340250  80.5136411  17.5545453  84.0217540
  79.5792690  17.6746916  83.8522244  80.6913080  16.6517920  83.7577550
  76.0141599  10.9391149  86.1750801  75.6439387  10.3862189  86.8631707
  76.5100692  10.3349283  85.6225801  83.9008963  13.3962773  84.5567574
  84.3669415  14.2290764  84.4827877  84.3516463  12.9307754  85.2612832
  73.8430798  21.3988644  93.2705819  74.5440257  22.0325127  93.4235213
  73.3725913  21.7403376  92.5101458  81.9685194  19.7406594  81.5553726
  82.2445038  19.6263188  82.4647600  81.0989692  19.3424079  81.5165899
  81.8725625   5.7643360  88.5958475  80.9588705   5.9947586  88.7640682
  82.3018727   5.8481804  89.4472508  81.6432084  13.9533252  91.0958369
  80.9903534  14.2009159  90.4410822  82.0212464  13.1397390  90.7620847
  78.6039258  23.9892945  85.1986540  78.7861652  23.1714601  85.6614292
  79.4272244  24.2060637  84.7611430  78.9381423  22.9161130  82.4601588
  79.4669190  22.4053584  81.8471750  79.2009643  22.6003660  83.3247121
  77.6919657  14.6953063  97.5824406  77.0160294  14.5947192  98.2526782
  78.5147291  14.5392276  98.0460404  69.4398516  20.9324999  90.2036922
  70.0251953  20.1868687  90.3364826  69.2423354  21.2428956  91.0873586
  72.2937171  23.9676247  85.2199364  71.6247546  24.4522374  84.7363404
  72.1550041  24.2145467  86.1342743  64.0316171  13.5030599  88.9241365
  64.0700270  12.9694190  89.7178483  63.5256463  12.9765805  88.3052342
  76.4342440  26.0019990  91.8182022  76.9860748  26.1651612  92.5831108
  76.7748633  26.5924428  91.1462047  71.4106933   8.3495140  92.4203907
  71.4748259   9.2109971  92.0081305  71.3474053   7.7369141  91.6876266
  70.8859205  10.4218272  96.0676941  71.5131244  10.0395350  96.6814466
  70.0287124  10.2032474  96.4332634  81.2853314  20.8281248  97.6730677
  81.8293218  21.4411206  97.1785632  80.7040159  21.3860826  98.1897690
  67.6624748  12.2294702  81.9995296  67.9578189  11.3205380  81.9462350
  66.7612784  12.2082441  81.6776299  79.5710827  23.9501966  88.8045705
  79.4461966  23.1491705  88.2956650  80.2289918  24.4448159  88.3159675
  71.1918995  10.3050698  87.9822845  70.4705581  10.9186666  87.8430318
  71.9812251  10.8408463  87.9039491  81.6345735  21.7510986  90.4325255
  80.6876071  21.6316337  90.3603581  81.9828508  20.8633484  90.5151516
  73.9945309   7.6405125  94.2563497  74.5179711   7.8867421  95.0189806
  73.7757642   8.4725159  93.8366634  69.3912590   9.9108799  82.1234621
  69.0625296   9.0306178  81.9409727  69.7451960   9.8556468  83.0111011
  78.6392169  21.5463702  86.6329607  78.4917131  20.6180409  86.8137177
  79.4645662  21.5683793  86.1486682  72.5054413  10.1981769  82.4910099
  72.8450485  10.7267690  81.7688707  72.9526533  10.5362175  83.2668666
  82.2426291  22.3692261  87.7194480  83.1672838  22.1635122  87.5818931
  82.0741594  22.1208662  88.6283821  75.1997854   8.5818820  91.9413167
  74.8594674   7.7826633  92.3433847  74.4936860   8.8820531  91.3690000
  75.8514326   5.6668132  90.3940490  76.6740395   5.1928610  90.2719380
  76.0952389   6.4458616  90.8939176  74.4922560   8.6956391  80.6903392
  75.2130923   9.0737643  80.1867109  73.8687864   9.4145267  80.7938370
  78.6353683   9.4001540  81.6261724  78.8517297  10.2826177  81.3250552
  78.1547750   9.0087753  80.8967366  73.3752904  12.3587253  88.2032469
  73.2297485  12.6727556  89.0956750  72.8978108  12.9772153  87.6503367
  75.2349287   9.3489801  88.2513358  75.2210856   8.4530894  87.9145656
  75.9521715   9.3560464  88.8851644  77.0875418   9.7827141  90.2966486
  76.8293196  10.7044212  90.2950816  76.5560458   9.3857575  90.9866950
  82.0321607  22.8877928  83.0756571  82.2058484  22.3224351  82.3230424
  82.5250498  23.6878823  82.8936061  67.8498567  14.8992597  91.1420130
  67.3052035  15.6752405  91.2740404  68.7277916  15.2463402  90.9839251
  74.6386183   8.2304181  83.5200928  74.7602094   7.3020827  83.7191816
  74.3488226   8.2442867  82.6079244  77.5077374   5.9159091  86.6567648
  77.5299070   5.9798425  85.7019628  77.9245433   5.0763600  86.8508154
  87.8860998  15.6514351  84.6946871  88.3292144  14.9021676  84.2965994
  87.0087508  15.6424487  84.3120603  83.0196779  22.2044692  80.1753469
  83.7147684  22.8251385  80.3940784  83.3619929  21.3540044  80.4505847
  68.6364588  14.0262493  94.0350287  67.8946324  14.1745129  94.6214917
  68.3157333  14.2870759  93.1717036  84.9188202  19.6544398  81.7040800
  85.4439526  19.9931671  80.9790120  84.8310555  18.7191413  81.5203935
  76.5808251  23.5678472  93.8330677  76.8895377  23.3227618  94.7053376
  77.3783733  23.7725110  93.3449547  76.6028863  25.7216381  86.0636053
  76.1633853  25.2292760  86.7568910  77.3536980  25.1789349  85.8228129
  69.0821202  21.9127922  86.0660681  69.9079222  21.6131694  85.6859325
  68.7315254  21.1435545  86.5150470  74.0502735  21.2654390  88.1358355
  73.4282745  20.6025095  87.8360583  74.7207602  21.2915522  87.4532003
  67.2829807  19.8314249  87.0249615  66.4461715  19.4036423  86.8433616
  67.2553453  20.0246692  87.9620406  74.1227263   9.7436178  97.7290861
  74.1715418  10.6198301  97.3468631  74.6649777   9.2013571  97.1562504
  84.6082108  20.2877302  97.0091998  83.8177652  20.2701440  96.4696498
  84.3715463  20.8265595  97.7641035  84.7279983  17.1369768  94.3224727
  84.7777988  16.9719775  95.2640249  84.6193907  16.2697027  93.9322607
  73.6116242  19.8158314  81.6116816  73.7604363  20.4993778  80.9583488
  74.4182686  19.7963404  82.1266271  82.0183746  13.1200696  95.6384033
  82.9193609  12.9807161  95.3468031  82.0931720  13.2855151  96.5782211
  76.3526551  10.4967551  94.4837220  75.4829861  10.7901117  94.2119808
  76.5886032  11.0807996  95.2044483  86.2298180  19.5566710  94.5666748
  85.9382989  19.9196690  95.4030209  85.6170312  18.8433718  94.3880080
  87.4293863  17.1219589  87.0869318  88.2640754  17.5609393  87.2506879
  87.5652991  16.6458243  86.2677564  84.4785369  14.6799324  93.0346806
  84.9539490  14.8726970  92.2265658  83.5550934  14.7358510  92.7890190
  71.3668875  15.8423491  82.6177884  71.1214917  14.9385821  82.8158095
  71.5364790  15.8440642  81.6757362  79.0565585   6.7147168  92.0002640
  79.5747529   7.4508195  91.6749129  78.7020718   7.0211161  92.8349399
  70.6364523  11.5751849  80.1164046  69.9433768  11.6496204  79.4604082
  70.3916275  10.8112193  80.6385563  77.1111648  22.3106444  79.0828563
  76.5385615  22.9296631  78.6299035  77.6844441  22.8605806  79.6168485
  83.1787038  11.5565084  91.2675112  84.1304460  11.6563182  91.2887336
  83.0090488  10.7643353  91.7773196  81.2001417   8.6420667  91.4534513
  80.6051349   8.9225680  90.7581001  80.9151114   9.1314568  92.2251254
  80.3308907  22.5943594  80.2137145  81.2639581  22.5289156  80.4170021
  80.2432120  23.4299861  79.7551678  82.9596924  21.9109465  77.1741093
  82.8810556  21.5769328  78.0676851  83.7806591  22.4031233  77.1732565
  85.6575115  14.7771204  90.3817411  85.6251435  13.8387205  90.5677095
  86.2675739  14.8555241  89.6483236  77.4958446  13.6467257  76.4244615
  78.4417551  13.5173465  76.4933034  77.1172691  12.9081919  76.9014044
  85.8069604  11.5682247  90.4275695  85.2908652  10.7840704  90.2405623
  86.6909552  11.2400964  90.5922214  83.4680331   5.3123263  86.3871507
  83.2705152   5.0038351  87.2714839  84.0780036   6.0384902  86.5169437
  91.4751665  15.8387211  89.5223448  92.2055054  15.5772499  90.0831152
  90.8658611  15.1015933  89.5625516  89.5566962  13.9795073  90.1197899
  88.8300126  13.8451038  89.5114391  89.1414249  14.2871902  90.9254617
  77.3797139  17.6985003  97.8845272  78.3000148  17.8763602  98.0785319
  77.3446722  16.7541048  97.7324972  75.6801363  11.5717233  76.3599501
  74.7732819  11.2750346  76.4362214  75.9577344  11.2747051  75.4933787
  66.5979304  12.8923597  86.8098547  66.2782088  12.0388905  86.5172921
  66.0512732  13.1072175  87.5656514  70.3759211  15.6086038  90.5268054
  70.5945221  16.5403145  90.5456087  70.7884985  15.2494012  91.3122857
  77.2963429   6.1154123  82.5143742  76.4864157   5.7701208  82.8898988
  77.9847846   5.8061667  83.1031354  79.2253977   5.1932170  84.1368039
  79.7785016   5.6127623  84.7958062  79.4624064   4.2667918  84.1790995
  75.2487077  11.1819243  99.9170803  75.1483803  12.1313600  99.8482894
  75.0308619  10.8537482  99.0446873  74.4500148   8.4304169  76.5011480
  75.3119312   8.7559067  76.7607297  74.6350492   7.6435664  75.9884546
  66.4667564  16.5126508  88.7791669  65.7731035  16.0980461  88.2661623
  67.2140555  16.5547045  88.1825088  82.6032784   7.3032695  83.6446703
  82.0231453   7.9617499  83.2624755  82.3368717   6.4810040  83.2334120
  81.0536351   6.7037753  85.8468023  81.5536129   6.8154287  85.0382342
  81.6971959   6.3998806  86.4868832  75.1118347  14.6116382  98.7335864
  74.6285428  15.4116742  98.9399753  75.1979286  14.6224327  97.7803308
  68.3804306  16.4444762  86.6557684  68.3574994  16.5432449  85.7039567
  68.6904943  17.2909913  86.9774850  71.0391684  18.5020917  90.7704298
  71.9934938  18.4704859  90.7034230  70.8404208  18.0411541  91.5854524
  71.6291066  17.0722033  93.3375096  72.4483955  17.5666112  93.3609933
  71.9027874  16.1554001  93.3092663  81.3857662   9.4632785  82.7003051
  80.4983517   9.7482436  82.4823246  81.8011652   9.3026549  81.8530328
  84.7372199   9.4879306  86.4157390  85.5132589   9.9775759  86.6882007
  84.0120333   9.9137361  86.8729260  87.1744757  10.2006926  87.4731331
  87.7689248   9.9602662  86.7624639  87.2471341   9.4814056  88.1004867
  69.3941913  24.0440536  87.7874496  69.2596381  23.2840937  87.2212494
  68.9773975  24.7681436  87.3203285  80.5300876  19.2277460  76.7951071
  81.2336726  19.4327463  77.4108727  79.8063525  19.7954222  77.0600155
  81.3598686  14.9787321  82.9153341  81.3033888  15.4355873  82.0760974
  81.9127029  14.2178006  82.7376184  85.1703492  10.7677053  83.7403461
  84.9140426  10.3673689  84.5711669  84.5456360  11.4820847  83.6153600
  89.4815830  13.5073126  86.2474752  88.9215388  13.5766316  87.0206314
  88.8759333  13.3314111  85.5274248  72.5511039  24.9409854  87.9992939
  72.4343423  25.8855286  87.8971629  71.7303485  24.6383415  88.3878738
  82.4387573  19.6659989  78.8449531  83.2733177  19.2341188  78.6627006
  82.2771916  19.4942003  79.7726426  82.0933465  16.1692103  80.2105871
  82.0382269  16.0036374  79.2694315  81.4679521  16.8768135  80.3668060
  66.8825980  11.4060167  94.0367293  67.5284844  10.8959121  94.5254518
  66.6743132  12.1428849  94.6110718  79.4079373  18.4741014  99.5359433
  80.2770532  18.6481667  99.1746068  78.9286124  19.2935431  99.4135163
  75.4029591   5.6700212  79.7891189  75.3908261   6.6142051  79.9459460
  76.2953013   5.4870357  79.4950650  73.5765553  25.5938115  91.2148867
  74.4792800  25.6261726  91.5315362  73.3502923  24.6638566  91.2295203
  75.3319155  24.3469102  87.8758946  74.3814786  24.3470964  87.7623318
  75.6351641  23.6001837  87.3594980  71.2223471   8.5527784  98.1342307
  72.0854933   8.1964589  98.3445632  70.6488882   8.2141679  98.8217711
  91.0671848  30.1829640  88.9404708  91.7050258  30.0636388  88.2368048
  90.9492691  31.1310484  88.9992660  87.8761555  30.1357068  88.8766233
  87.5380066  30.0198133  87.9886767  88.7451323  29.7348234  88.8567239
  83.7348370  31.9892545  84.8663124  83.1713236  31.8982482  84.0979411
  83.6200765  31.1692449  85.3465616  88.3581338  31.2891920  94.8352438
  88.3469978  30.8944718  93.9632942  88.5201977  30.5557993  95.4286210
  81.2812802  33.4843736  87.7047344  82.0734094  33.1434561  87.2893643
  81.5209452  33.5938711  88.6249497  89.3147929  35.6563513  80.1777588
  88.6635909  36.2417593  79.7911602  90.1092292  36.1869707  80.2372626
  83.2403556  32.7452650  80.5764723  84.0134432  32.1981637  80.4377599
  83.5928955  33.6096899  80.7879184  85.0788599  34.0729032  93.7831622
  84.7878465  34.9774663  93.6678288  85.7145583  34.1145560  94.4975692
  86.0044806  31.4505880  90.3732982  86.6008378  31.2261903  89.6589945
  86.0619777  30.7090626  90.9758430  85.5769834  28.9045316  78.2083173
  85.8295355  28.3826837  77.4466636  84.6394393  28.7411461  78.3109856
  90.6213117  27.9081094  86.0157916  91.4076206  27.4900517  85.6648333
  90.8851821  28.8127186  86.1839564  90.7923194  33.3453944  80.7146573
  90.1569027  33.4188571  81.4267477  90.4620601  33.9347543  80.0365652
  96.0221544  27.8456327  86.9190894  96.7546716  27.2755544  87.1528724
  95.2660900  27.4577928  87.3597400  85.2966123  30.8073422  80.4107548
  85.1802381  30.1318325  81.0788632  85.4068383  30.3205796  79.5939701
  87.6397664  30.2683569  84.1154237  87.2755871  29.7414190  84.8267158
  88.4964780  29.8782038  83.9420722  93.5446964  21.5577901  91.3785503
  93.2130289  22.4273312  91.1546718  92.9492578  21.2414185  92.0579533
  87.2803151  25.2973469  79.1115585  87.4477553  26.1653705  79.4786057
  87.0900320  25.4600750  78.1876875  90.0378484  33.7590447  90.7781416
  89.7379207  34.6615486  90.6697223  89.6929543  33.4922631  91.6302569
  83.4890965  30.2104244  86.8118120  82.5641462  30.0780458  87.0195812
  83.7375379  30.9898464  87.3088063  93.4375628  26.2772988  88.4578853
  92.5292505  26.2088396  88.1637614  93.3863223  26.7544933  89.2860679
  87.2592372  27.7531126  80.0962252  87.1391997  28.1988177  80.9347733
  86.5644960  28.1016444  79.5375790  80.8499776  29.8537518  87.6461909
  80.9792158  30.1071997  88.5601321  80.1697228  30.4465226  87.3266564
  85.0199264  40.5234768  83.7452384  84.9423293  41.4742593  83.8240864
  84.4160907  40.1780640  84.4027310  87.5116493  27.6962633  96.4013750
  86.7349828  28.2556553  96.3916615  88.1507057  28.1819416  96.9228621
  95.3037274  24.4789426  90.2356727  94.6611654  24.7721959  89.5896522
  94.7992203  24.3642346  91.0409924  92.9577438  28.2252599  80.9242586
  93.8695294  28.4579986  80.7490284  92.4487085  28.8089643  80.3617665
  85.7662866  30.5048087  95.9631717  86.5077550  31.0433131  95.6866541
  85.0599851  31.1314375  96.1203269  91.2418205  32.6477227  94.5603879
  91.6501561  32.2059638  93.8158511  90.5195467  32.0729855  94.8138072
  87.5949275  27.5849834  91.9337436  88.4410471  28.0089247  92.0772085
  87.5347913  26.9283458  92.6275999  91.5647020  33.2078418  88.3156168
  90.9355883  33.3724132  87.6132236  91.1772682  33.6220027  89.0867132
  95.4436252  34.1432856  85.6700532  94.7587290  34.5231757  85.1197565
  95.5280101  34.7528182  86.4032479  90.7448721  25.2454202  93.5918609
  90.5009653  25.9996263  93.0552885  91.0208651  25.6239550  94.4265857
  92.6987184  31.7892815  92.2695875  92.9104079  32.4324574  91.5930256
  92.6516932  30.9555131  91.8017805  90.3013413  24.4010635  89.1732447
  89.4397892  24.6991889  89.4649185  90.3275847  24.6181034  88.2413480
  87.1174982  32.9452826  85.5806253  87.5813327  33.2240529  84.7910875
  86.8531780  32.0436270  85.3979344  84.0099063  32.4924307  88.5186016
  84.5800420  32.9211576  87.8803501  84.6007175  32.2106892  89.2170202
  86.0543868  29.0675978  82.3895818  86.7567911  29.5197022  82.8569744
  85.7224496  28.4259797  83.0175711  84.5024230  27.6587735  96.7647027
  83.8722890  28.3404016  96.9982424  84.3960317  27.5470816  95.8200166
  79.7969202  27.3259531  87.6912952  79.0068256  27.5817059  87.2153062
  80.2880449  28.1407869  87.7964992  93.8133012  34.6664770  90.4418232
  94.6350455  34.2644957  90.1600914  93.8095414  34.5633004  91.3934348
  81.7483947  27.6904110  84.6496428  80.9515111  27.8022804  85.1679924
  81.5209540  28.0290762  83.7837319  87.5789615  34.2148813  92.5978943
  87.6434047  34.6769221  93.4337115  86.8700539  33.5846178  92.7261253
  78.0806905  27.5790021  90.1227942  78.3314943  28.4637031  90.3885518
  78.6166453  27.3994623  89.3503034 101.9039005  31.0103518  86.7903204
 101.1502713  30.4410917  86.6347208 102.0386546  30.9766183  87.7373839
  87.2937633  35.8816921  82.4657923  87.1583307  36.7268457  82.8942771
  87.8347445  36.0836198  81.7023857  83.7804972  21.9608501  99.1272278
  83.3871918  21.4074699  99.8019923  84.5971113  22.2719079  99.5178796
  80.7467030  33.3992359  83.0385848  81.2591551  34.1935609  83.1891413
  81.3989743  32.7018649  82.9719450  82.5561915  36.5158115  85.1208602
  82.7328543  37.4376080  84.9329585  83.3518748  36.2016534  85.5502981
  86.6972933  23.3766380  96.7192535  87.4382647  23.9773533  96.6396998
  86.9290856  22.6344018  96.1610578  81.8414271  28.5622747  94.9970765
  81.7267786  27.6608004  95.2977864  80.9858789  28.8086444  94.6455581
  88.9206109  36.5040487  96.5958265  88.4769963  35.7176866  96.2779170
  89.5823323  36.6919638  95.9302156  83.6793230  38.0336289  91.1218944
  84.2300655  37.9053352  90.3495938  82.8404706  38.3331178  90.7713837
  91.0187347  36.7843287  94.6239667  91.0005822  37.6052168  94.1319936
  91.9407267  36.6597362  94.8489808  87.4760401  34.2987417  95.4663175
  88.0088738  33.5375705  95.2362483  86.9474482  34.0061069  96.2087329
  90.6430096  19.4047483  90.9956817  90.2994366  20.2949124  90.9195927
  91.0109059  19.2149140  90.1326402  78.7115947  31.7281013  83.8145419
  79.5491169  32.1378021  83.5979127  78.8894214  30.7880455  83.7845613
  90.6080379  29.3956094  79.5029252  90.0927002  30.1660698  79.7417639
  90.3357687  28.7221230  80.1262313  88.1927490  24.2405795  84.5614490
  87.3369086  23.8512645  84.3820129  88.6054442  24.3197755  83.7014276
  89.7226637  21.7752138  88.9606050  89.2191432  21.7382273  88.1473855
  90.0157243  22.6844881  89.0202707  85.9669522  21.8590868  87.9672232
  86.8322519  21.6633676  87.6078121  86.0347031  21.6301219  88.8941588
  95.5814653  32.1488448  81.4382425  94.8044096  31.8099608  80.9937587
  96.2606134  32.1541072  80.7637390  90.3966682  27.2683186  81.3289033
  90.0916818  27.5829335  82.1799176  91.3497124  27.3464606  81.3716366
  88.8413114  33.4273409  82.9781987  88.3134475  32.6926169  82.6655224
  88.3400617  34.2048086  82.7321955  93.8205960  31.6222430  88.0949033
  93.1629634  32.3121691  88.1829162  94.6246359  32.0118862  88.4383020
  83.5731842  24.0893075  85.3388599  84.1475593  23.8668257  84.6061791
  84.1602824  24.1581770  86.0917200  92.6311419  29.9766802  86.1452975
  93.1443300  30.6096794  86.6474685  93.2812643  29.3767998  85.7796335
  83.9001429  26.1197536  79.3584484  83.0638741  26.4572223  79.6793759
  83.7606198  25.9846516  78.4211621  85.8754509  20.9634324  84.0663668
  85.2218922  20.6483342  83.4420283  85.8334983  20.3410065  84.7923491
  86.9865714  31.2453619  75.9816960  86.0792776  31.0142873  76.1808109
  87.4836746  30.4491239  76.1690942  89.8933793  39.9551127  78.9013646
  89.2195492  40.2582823  79.5098604  90.2799615  40.7580207  78.5519103
  89.1092250  27.4516258  88.3911316  88.1914811  27.6731205  88.2333004
  89.5252393  27.5262568  87.5323023  89.8927297  28.8507674  83.5213996
  90.6399116  29.3629071  83.2121118  90.1618887  28.5291726  84.3818389
  88.1653948  31.3466214  80.5040950  87.2565167  31.0625247  80.6013420
  88.1949031  31.7665293  79.6444257  93.3973215  34.9572804  84.2732118
  92.9435542  34.1163714  84.3297308  92.7667182  35.5934202  84.6106898
  92.3406135  25.8864790  85.5032785  91.6028891  25.3742176  85.8343028
  92.5932908  25.4465171  84.6916062  91.8406154  36.7949301  85.2081936
  92.1329129  37.3554358  84.4894301  92.3504775  37.0877862  85.9635095
  92.4417762  18.6641042  86.0974554  92.7476639  17.8038405  85.8100469
  93.1670367  19.2558662  85.8973548  78.7342118  29.0671728  84.4856152
  78.5366518  28.4741089  83.7607219  78.1788782  28.7623939  85.2032091
  86.7138842  28.9594835  86.6050745  86.7687451  28.0068671  86.5293222
  85.9030044  29.1154274  87.0892044  87.8630035  32.8874958  77.8429029
  87.4249465  32.1710817  77.3834666  88.6040476  33.1151073  77.2814120
  84.6531202  27.5771895  84.3641124  83.8399067  27.8766065  84.7706316
  85.1490196  27.1827583  85.0815607  86.8039779  37.5729652  86.2975389
  86.7615958  37.7990498  85.3683921  87.7202478  37.3393026  86.4461190
  90.2505413  28.0413719  93.1956018  90.6054801  28.2685192  94.0550484
  90.8977544  28.3732096  92.5733274  95.9803150  31.1632155  83.9005347
  95.8421049  31.3533751  82.9726536  95.6239369  31.9251538  84.3573398
  84.1445276  25.1490250  89.9802359  84.7844656  25.0079009  89.2825323
  83.3122807  24.8624764  89.6040961  96.0072530  33.2308682  88.9116619
  96.4409036  33.1383971  89.7599673  96.7204110  33.2066182  88.2736635
  84.9205580  34.4492681  86.0937352  85.7146179  33.9543001  85.8919927
  84.2097273  33.9210544  85.7305057  89.7400425  36.8310776  90.4449719
  89.7937447  37.4001712  91.2127435  88.8715206  37.0012661  90.0803756
  81.2288344  28.5935762  82.1697104  80.2985932  28.5320218  82.3867067
  81.3245816  28.0711715  81.3733746  81.1473893  25.1190575  84.7575346
  81.4080710  26.0335908  84.6484507  81.9691065  24.6515018  84.9071959
  82.6198818  26.5328332  91.9274171  83.2921871  26.3245694  91.2786820
  81.7928605  26.3350418  91.4879403  96.8688079  33.2732383  91.4449504
  97.0623969  34.1778193  91.6908779  96.7688697  32.8139802  92.2788089
  88.5224390  23.1590273  93.9439831  87.8752305  23.8580223  93.8504308
  89.2925405  23.5926417  94.3116080  91.9303188  33.4239125  97.0190385
  91.7788694  33.1949677  96.1020468  91.9207867  34.3809727  97.0321730
  88.6988524  30.9971038  92.0036651  89.6280584  31.1482198  91.8305619
  88.2779554  31.0855059  91.1485298  87.4976856  35.0221703  89.7735189
  87.3587942  34.6540487  90.6461127  86.7091452  35.5369342  89.6019147
  88.0925008  40.1230799  81.1160725  88.2676764  39.6518842  81.9306348
  87.4057796  40.7496565  81.3441986  89.0482071  34.4003305  87.1624027
  88.7131904  34.3604075  88.0581677  88.5486017  33.7348021  86.6894437
  83.0226315  29.8070935  92.6876608  82.8846113  29.0751174  93.2888147
  83.9331239  29.7179835  92.4060796  91.9841263  31.7459340  77.4361086
  91.3670434  31.0206168  77.3394139  91.5157751  32.5068700  77.0928161
  85.6508616  29.5190895  92.1760287  86.3608234  28.8784087  92.1346906
  85.6077924  29.7703789  93.0986468  93.6395395  36.4558248  95.0966867
  93.5807941  35.7717468  94.4297450  94.0414913  37.1977238  94.6447493
  84.3637550  26.5056113  93.9955927  83.8274907  26.0546851  94.6477523
  83.7754258  26.6402021  93.2526391  82.6586093  43.2720162  87.8900586
  82.8982692  43.9038686  88.5679604  81.8155290  42.9208202  88.1765945
  83.7739809  25.9644764  76.5582391  82.8969275  25.8433565  76.1944637
  84.2497562  25.1730842  76.3061279  93.6412802  34.4197832  93.3280846
  92.7539581  34.0823754  93.4507245  94.2111353  33.6880863  93.5649612
  75.2941949  30.7521924  86.6523898  75.9812989  30.4383654  86.0644913
  75.1390078  31.6563288  86.3791149  80.0976671  25.6412120  91.0808921
  80.0134860  25.0337790  90.3459331  79.2759378  26.1321139  91.0818418
  87.1713955  39.0799284  90.2942090  87.0984127  39.8854256  90.8061394
  86.7291348  39.2791250  89.4690111  86.9603735  38.3171054  83.8044911
  86.1771257  38.8592734  83.8983136  87.6596480  38.8345034  84.2039152
  90.2700385  24.1265684  86.4479116  90.7669085  23.3735646  86.1280187
  89.4987367  24.1630000  85.8822326  98.1230142  29.8306049  88.0897408
  98.1120019  30.7130765  87.7191341  97.2547522  29.4777600  87.8951945
  89.6312639  38.9786118  92.4500248  90.3440611  39.6133583  92.3776150
  89.1402667  39.0749984  91.6340250  91.3530166  32.8837371  84.0217540
  90.4186444  33.0038833  83.8522244  91.5306834  31.9809838  83.7577550
  86.8535354  26.2683067  86.1750801  86.4833141  25.7154107  86.8631707
  87.3494446  25.6641200  85.6225801  94.7402717  28.7254690  84.5567574
  95.2063169  29.5582682  84.4827877  95.1910218  28.2599672  85.2612832
  84.6824552  36.7280562  93.2705819  85.3834012  37.3617045  93.4235213
  84.2119667  37.0695293  92.5101458  92.8078948  35.0698512  81.5553726
  93.0838792  34.9555106  82.4647600  91.9383447  34.6715996  81.5165899
  92.7119380  21.0935277  88.5958475  91.7982460  21.3239504  88.7640682
  93.1412481  21.1773721  89.4472508  92.4825838  29.2825169  91.0958369
  91.8297289  29.5301077  90.4410822  92.8606218  28.4689307  90.7620847
  89.4433012  39.3184862  85.1986540  89.6255407  38.5006518  85.6614292
  90.2665998  39.5352555  84.7611430  89.7775178  38.2453048  82.4601588
  90.3062944  37.7345502  81.8471750  90.0403397  37.9295578  83.3247121
  88.5313411  30.0244980  97.5824406  87.8554048  29.9239110  98.2526782
  89.3541045  29.8684194  98.0460404  80.2792270  36.2616917  90.2036922
  80.8645707  35.5160605  90.3364826  80.0817109  36.5720874  91.0873586
  83.1330926  39.2968164  85.2199364  82.4641301  39.7814292  84.7363404
  82.9943795  39.5437385  86.1342743  74.8709925  28.8322517  88.9241365
  74.9094025  28.2986108  89.7178483  74.3650218  28.3057723  88.3052342
  87.2736194  41.3311908  91.8182022  87.8254502  41.4943529  92.5831108
  87.6142388  41.9216346  91.1462047  82.2500687  23.6787058  92.4203907
  82.3142014  24.5401888  92.0081305  82.1867808  23.0661059  91.6876266
  81.7252960  25.7510190  96.0676941  82.3524999  25.3687267  96.6814466
  80.8680879  25.5324392  96.4332634  92.1247069  36.1573165  97.6730677
  92.6686973  36.7703124  97.1785632  91.5433913  36.7152744  98.1897690
  78.5018503  27.5586619  81.9995296  78.7971944  26.6497298  81.9462350
  77.6006538  27.5374359  81.6776299  90.4104581  39.2793883  88.8045705
  90.2855721  38.4783623  88.2956650  91.0683673  39.7740077  88.3159675
  82.0312750  25.6342616  87.9822845  81.3099335  26.2478583  87.8430318
  82.8206005  26.1700381  87.9039491  92.4739490  37.0802903  90.4325255
  91.5269825  36.9608255  90.3603581  92.8222263  36.1925401  90.5151516
  84.8339063  22.9697042  94.2563497  85.3573465  23.2159339  95.0189806
  84.6151397  23.8017077  93.8366634  80.2306344  25.2400717  82.1234621
  79.9019050  24.3598096  81.9409727  80.5845715  25.1848386  83.0111011
  89.4785923  36.8755620  86.6329607  89.3310886  35.9472327  86.8137177
  90.3039417  36.8975710  86.1486682  83.3448167  25.5273687  82.4910099
  83.6844240  26.0559608  81.7688707  83.7920288  25.8654093  83.2668666
  93.0820045  37.6984178  87.7194480  94.0066592  37.4927040  87.5818931
  92.9135348  37.4500579  88.6283821  86.0391608  23.9110737  91.9413167
  85.6988429  23.1118550  92.3433847  85.3330615  24.2112448  91.3690000
  86.6908080  20.9960050  90.3940490  87.5134149  20.5220528  90.2719380
  86.9346144  21.7750534  90.8939176  85.3316315  24.0248308  80.6903392
  86.0524677  24.4029561  80.1867109  84.7081619  24.7437185  80.7938370
  89.4747437  24.7293457  81.6261724  89.6911052  25.6118095  81.3250552
  88.9941505  24.3379671  80.8967366  84.2146659  27.6879170  88.2032469
  84.0691240  28.0019473  89.0956750  83.7371862  28.3064071  87.6503367
  86.0743042  24.6781718  88.2513358  86.0604611  23.7822812  87.9145656
  86.7915470  24.6852382  88.8851644  87.9269172  25.1119059  90.2966486
  87.6686950  26.0336129  90.2950816  87.3954213  24.7149493  90.9866950
  92.8715361  38.2169846  83.0756571  93.0452239  37.6516268  82.3230424
  93.3644252  39.0170741  82.8936061  78.6892321  30.2284515  91.1420130
  78.1445789  31.0044323  91.2740404  79.5671671  30.5755319  90.9839251
  85.4779938  23.5596099  83.5200928  85.5995849  22.6312745  83.7191816
  85.1881980  23.5734785  82.6079244  88.3471128  21.2451009  86.6567648
  88.3692825  21.3090342  85.7019628  88.7639187  20.4055518  86.8508154
  98.7254752  30.9806269  84.6946871  99.1685898  30.2313594  84.2965994
  97.8481263  30.9716405  84.3120603  93.8590534  37.5336610  80.1753469
  94.5541438  38.1543303  80.3940784  94.2013684  36.6831961  80.4505847
  79.4758343  29.3554411  94.0350287  78.7340079  29.5037046  94.6214917
  79.1551087  29.6162677  93.1717036  95.7581957  34.9836316  81.7040800
  96.2833281  35.3223588  80.9790120  95.6704309  34.0483331  81.5203935
  87.4202006  38.8970389  93.8330677  87.7289132  38.6519536  94.7053376
  88.2177488  39.1017028  93.3449547  87.4422618  41.0508299  86.0636053
  87.0027608  40.5584678  86.7568910  88.1930735  40.5081267  85.8228129
  79.9214957  37.2419840  86.0660681  80.7472976  36.9423612  85.6859325
  79.5709009  36.4727462  86.5150470  84.8896490  36.5946308  88.1358355
  84.2676499  35.9317013  87.8360583  85.5601357  36.6207440  87.4532003
  78.1223562  35.1606166  87.0249615  77.2855470  34.7328341  86.8433616
  78.0947207  35.3538610  87.9620406  84.9621017  25.0728096  97.7290861
  85.0109173  25.9490219  97.3468631  85.5043531  24.5305489  97.1562504
  95.4475863  35.6169219  97.0091998  94.6571407  35.5993358  96.4696498
  95.2109217  36.1557513  97.7641035  95.5673738  32.4661686  94.3224727
  95.6171743  32.3011693  95.2640249  95.4587661  31.5988945  93.9322607
  84.4509997  35.1450231  81.6116816  84.5998117  35.8285696  80.9583488
  85.2576440  35.1255321  82.1266271  92.8577500  28.4492614  95.6384033
  93.7587363  28.3099079  95.3468031  92.9325475  28.6147069  96.5782211
  87.1920306  25.8259468  94.4837220  86.3223615  26.1193035  94.2119808
  87.4279786  26.4099913  95.2044483  97.0691935  34.8858627  94.5666748
  96.7776743  35.2488608  95.4030209  96.4564066  34.1725635  94.3880080
  98.2687617  32.4511507  87.0869318  99.1034508  32.8901311  87.2506879
  98.4046746  31.9750160  86.2677564  95.3179123  30.0091242  93.0346806
  95.7933245  30.2018888  92.2265658  94.3944688  30.0650428  92.7890190
  82.2062630  31.1715409  82.6177884  81.9608672  30.2677739  82.8158095
  82.3758544  31.1732559  81.6757362  89.8959339  22.0439085  92.0002640
  90.4141283  22.7800112  91.6749129  89.5414472  22.3503079  92.8349399
  81.4758277  26.9043767  80.1164046  80.7827522  26.9788122  79.4604082
  81.2310029  26.1404110  80.6385563  90.1471934  18.4639368  87.5203537
  90.4273687  17.7962557  88.1463963  90.9322541  18.6568464  87.0078201
  87.9505402  37.6398362  79.0828563  87.3779369  38.2588549  78.6299035
  88.5238196  38.1897724  79.6168485  94.0180792  26.8857002  91.2675112
  94.9698215  26.9855100  91.2887336  93.8484242  26.0935270  91.7773196
  92.0395171  23.9712585  91.4534513  91.4445104  24.2517598  90.7581001
  91.7544868  24.4606486  92.2251254  91.1702662  37.9235512  80.2137145
  92.1033335  37.8581074  80.4170021  91.0825875  38.7591779  79.7551678
  93.7990679  37.2401382  77.1741093  93.7204310  36.9061246  78.0676851
  94.6200345  37.7323150  77.1732565  96.4968870  30.1063122  90.3817411
  96.4645190  29.1679122  90.5677095  97.1069493  30.1847158  89.6483236
  88.3352201  28.9759175  76.4244615  89.2811305  28.8465383  76.4933034
  87.9566446  28.2373836  76.9014044  96.6463358  26.8974165  90.4275695
  96.1302407  26.1132622  90.2405623  97.5303307  26.5692882  90.5922214
  94.3074085  20.6415181  86.3871507  94.1098906  20.3330269  87.2714839
  94.9173791  21.3676820  86.5169437 102.3145420  31.1679128  89.5223448
 103.0448808  30.9064417  90.0831152 101.7052365  30.4307850  89.5625516
 100.3960717  29.3086991  90.1197899  99.6693880  29.1742956  89.5114391
  99.9808004  29.6163820  90.9254617  88.2190893  33.0276921  97.8845272
  89.1393903  33.2055520  98.0785319  88.1840476  32.0832966  97.7324972
  86.5195118  26.9009151  76.3599501  85.6126573  26.6042264  76.4362214
  86.7971099  26.6038969  75.4933787  77.4373058  28.2215514  86.8098547
  77.1175843  27.3680823  86.5172921  76.8906486  28.4364093  87.5656514
  81.2152966  30.9377955  90.5268054  81.4338976  31.8695063  90.5456087
  81.6278740  30.5785930  91.3122857  88.1357184  21.4446041  82.5143742
  87.3257912  21.0993126  82.8898988  88.8241600  21.1353584  83.1031354
  90.0647732  20.5224087  84.1368039  90.6178770  20.9419541  84.7958062
  90.3017818  19.5959836  84.1790995  86.0880831  26.5111161  99.9170803
  85.9877558  27.4605518  99.8482894  85.8702373  26.1829400  99.0446873
  85.2893902  23.7596086  76.5011480  86.1513066  24.0850984  76.7607297
  85.4744247  22.9727582  75.9884546  77.3061318  31.8418426  88.7791669
  76.6124790  31.4272379  88.2661623  78.0534309  31.8838962  88.1825088
  93.4426539  22.6324613  83.6446703  92.8625208  23.2909417  83.2624755
  93.1762472  21.8101957  83.2334120  91.8930105  22.0329670  85.8468023
  92.3929884  22.1446205  85.0382342  92.5365713  21.7290723  86.4868832
  85.9512101  29.9408300  98.7335864  85.4679183  30.7408660  98.9399753
  86.0373040  29.9516245  97.7803308  79.2198061  31.7736680  86.6557684
  79.1968749  31.8724367  85.7039567  79.5298697  32.6201830  86.9774850
  81.8785439  33.8312835  90.7704298  82.8328692  33.7996777  90.7034230
  81.6797962  33.3703458  91.5854524  82.4684821  32.4013951  93.3375096
  83.2877710  32.8958029  93.3609933  82.7421628  31.4845919  93.3092663
  92.2251417  24.7924703  82.7003051  91.3377272  25.0774354  82.4823246
  92.6405406  24.6318466  81.8530328  95.5765953  24.8171224  86.4157390
  96.3526343  25.3067676  86.6882007  94.8514087  25.2429278  86.8729260
  98.0138512  25.5298843  87.4731331  98.6083002  25.2894579  86.7624639
  98.0865095  24.8105974  88.1004867  80.2335667  39.3732454  87.7874496
  80.0990135  38.6132855  87.2212494  79.8167730  40.0973354  87.3203285
  91.3694630  34.5569378  76.7951071  92.0730481  34.7619380  77.4108727
  90.6457279  35.1246140  77.0600155  92.1992441  30.3079239  82.9153341
  92.1427642  30.7647790  82.0760974  92.7520783  29.5469924  82.7376184
  96.0097247  26.0968971  83.7403461  95.7534181  25.6965606  84.5711669
  95.3850115  26.8112765  83.6153600 100.3209584  28.8365044  86.2474752
  99.7609142  28.9058233  87.0206314  99.7153088  28.6606029  85.5274248
  83.3904793  40.2701771  87.9992939  83.2737177  41.2147204  87.8971629
  82.5697240  39.9675333  88.3878738  93.2781328  34.9951907  78.8449531
  94.1126932  34.5633105  78.6627006  93.1165671  34.8233921  79.7726426
  92.9327220  31.4984020  80.2105871  92.8776024  31.3328292  79.2694315
  92.3073275  32.2060053  80.3668060  77.7219735  26.7352085  94.0367293
  78.3678599  26.2251039  94.5254518  77.5136886  27.4720766  94.6110718
  90.2473127  33.8032932  99.5359433  91.1164287  33.9773584  99.1746068
  89.7679879  34.6227349  99.4135163  86.2423345  20.9992129  79.7891189
  86.2302015  21.9433969  79.9459460  87.1346767  20.8162275  79.4950650
  84.4159307  40.9230033  91.2148867  85.3186554  40.9553643  91.5315362
  84.1896677  39.9930484  91.2295203  86.1712909  39.6761020  87.8758946
  85.2208540  39.6762881  87.7623318  86.4745396  38.9293754  87.3594980
  90.0575465  17.5934906  84.0437126  89.2907861  17.0393393  84.1893808
  90.4686170  17.6656775  84.9051277  82.0617226  23.8819702  98.1342307
  82.9248688  23.5256507  98.3445632  81.4882637  23.5433596  98.8217711
 101.9065603  45.5121558  88.9404708 102.5444013  45.3928305  88.2368048
 101.7886446  46.4602402  88.9992660  98.7155309  45.4648986  88.8766233
  98.3773821  45.3490051  87.9886767  99.5845077  45.0640151  88.8567239
  94.5742125  47.3184463  84.8663124  94.0106990  47.2274399  84.0979411
  94.4594520  46.4984367  85.3465616  99.1975092  46.6183838  94.8352438
  99.1863733  46.2236636  93.9632942  99.3595732  45.8849910  95.4286210
  92.1206557  48.8135654  87.7047344  92.9127849  48.4726479  87.2893643
  92.3603207  48.9230629  88.6249497 100.1541684  50.9855430  80.1777588
  99.5029663  51.5709511  79.7911602 100.9486046  51.5161625  80.2372626
  94.0797311  48.0744567  80.5764723  94.8528187  47.5273554  80.4377599
  94.4322710  48.9388817  80.7879184  95.9182353  49.4020950  93.7831622
  95.6272219  50.3066580  93.6678288  96.5539338  49.4437477  94.4975692
  96.8438560  46.7797798  90.3732982  97.4402132  46.5553821  89.6589945
  96.9013532  46.0382544  90.9758430  96.4163589  44.2337233  78.2083173
  96.6689109  43.7118755  77.4466636  95.4788148  44.0703379  78.3109856
 101.4606871  43.2373012  86.0157916 102.2469961  42.8192435  85.6648333
 101.7245576  44.1419104  86.1839564 101.6316949  48.6745862  80.7146573
 100.9962782  48.7480489  81.4267477 101.3014355  49.2639461  80.0365652
 106.8615299  43.1748245  86.9190894 107.5940470  42.6047462  87.1528724
 106.1054654  42.7869846  87.3597400  96.1359877  46.1365339  80.4107548
  96.0196135  45.4610243  81.0788632  96.2462137  45.6497713  79.5939701
  98.4791418  45.5975487  84.1154237  98.1149625  45.0706108  84.8267158
  99.3358534  45.2073956  83.9420722 104.3840719  36.8869819  91.3785503
 104.0524044  37.7565230  91.1546718 103.7886332  36.5706103  92.0579533
  98.1196905  40.6265386  79.1115585  98.2871308  41.4945623  79.4786057
  97.9294074  40.7892668  78.1876875 100.8772238  49.0882365  90.7781416
 100.5772961  49.9907404  90.6697223 100.5323298  48.8214548  91.6302569
  94.3284720  45.5396162  86.8118120  93.4035216  45.4072376  87.0195812
  94.5769133  46.3190381  87.3088063 104.2769382  41.6064905  88.4578853
 103.3686260  41.5380314  88.1637614 104.2256978  42.0836850  89.2860679
  98.0986126  43.0823044  80.0962252  97.9785751  43.5280095  80.9347733
  97.4038714  43.4308361  79.5375790  91.6893531  45.1829436  87.6461909
  91.8185912  45.4363914  88.5601321  91.0090982  45.7757144  87.3266564
  95.8593018  55.8526686  83.7452384  95.7817048  56.8034511  83.8240864
  95.2554662  55.5072558  84.4027310  98.3510248  43.0254551  96.4013750
  97.5743582  43.5848471  96.3916615  98.9900811  43.5111334  96.9228621
 106.1431029  39.8081344  90.2356727 105.5005409  40.1013877  89.5896522
 105.6385957  39.6934264  91.0409924 103.7971192  43.5544517  80.9242586
 104.7089048  43.7871904  80.7490284 103.2880839  44.1381561  80.3617665
  96.6056620  45.8340004  95.9631717  97.3471305  46.3725048  95.6866541
  95.8993606  46.4606293  96.1203269 102.0811960  47.9769145  94.5603879
 102.4895316  47.5351555  93.8158511 101.3589221  47.4021772  94.8138072
  98.4343030  42.9141752  91.9337436  99.2804225  43.3381165  92.0772085
  98.3741668  42.2575376  92.6275999 102.4040775  48.5370335  88.3156168
 101.7749637  48.7016050  87.6132236 102.0166437  48.9511945  89.0867132
 106.2830006  49.4724773  85.6700532 105.5981045  49.8523675  85.1197565
 106.3673856  50.0820100  86.4032479 101.5842475  40.5746120  93.5918609
 101.3403407  41.3288180  93.0552885 101.8602406  40.9531467  94.4265857
 103.5380938  47.1184732  92.2695875 103.7497833  47.7616492  91.5930256
 103.4910686  46.2847049  91.8017805 101.1407167  39.7302553  89.1732447
 100.2791646  40.0283806  89.4649185 101.1669602  39.9472952  88.2413480
  97.9568736  48.2744743  85.5806253  98.4207082  48.5532446  84.7910875
  97.6925535  47.3728188  85.3979344  94.8492817  47.8216225  88.5186016
  95.4194175  48.2503493  87.8803501  95.4400929  47.5398810  89.2170202
  96.8937622  44.3967896  82.3895818  97.5961666  44.8488940  82.8569744
  96.5618251  43.7551715  83.0175711  95.3417984  42.9879652  96.7647027
  94.7116645  43.6695933  96.9982424  95.2354072  42.8762734  95.8200166
  90.6362956  42.6551448  87.6912952  89.8462010  42.9108977  87.2153062
  91.1274204  43.4699786  87.7964992 104.6526766  49.9956688  90.4418232
 105.4744210  49.5936875  90.1600914 104.6489169  49.8924922  91.3934348
  92.5877702  43.0196028  84.6496428  91.7908865  43.1314722  85.1679924
  92.3603294  43.3582680  83.7837319  98.4183369  49.5440731  92.5978943
  98.4827802  50.0061138  93.4337115  97.7094293  48.9138096  92.7261253
  88.9200659  42.9081939  90.1227942  89.1708698  43.7928949  90.3885518
  89.4560208  42.7286540  89.3503034 112.7432759  46.3395436  86.7903204
 111.9896467  45.7702834  86.6347208 112.8780300  46.3058101  87.7373839
  98.1331387  51.2108838  82.4657923  97.9977062  52.0560374  82.8942771
  98.6741200  51.4128116  81.7023857  94.6198727  37.2900418  99.1272278
  94.2265672  36.7366617  99.8019923  95.4364867  37.6010997  99.5178796
  91.5860785  48.7284276  83.0385848  92.0985305  49.5227527  83.1891413
  92.2383497  48.0310567  82.9719450  93.3955669  51.8450033  85.1208602
  93.5722298  52.7667997  84.9329585  94.1912503  51.5308452  85.5502981
  97.5366688  38.7058297  96.7192535  98.2776401  39.3065451  96.6396998
  97.7684611  37.9635935  96.1610578  92.6808026  43.8914665  94.9970765
  92.5661541  42.9899922  95.2977864  91.8252543  44.1378361  94.6455581
  99.7599863  51.8332405  96.5958265  99.3163718  51.0468784  96.2779170
 100.4217077  52.0211555  95.9302156  94.5186985  53.3628207  91.1218944
  95.0694410  53.2345270  90.3495938  93.6798461  53.6623096  90.7713837
 101.8581102  52.1135205  94.6239667 101.8399577  52.9344086  94.1319936
 102.7801022  51.9889280  94.8489808  98.3154156  49.6279334  95.4663175
  98.8482493  48.8667623  95.2362483  97.7868237  49.3352986  96.2087329
 101.4823851  34.7339400  90.9956817 101.1388120  35.6241042  90.9195927
 101.8502813  34.5441058  90.1326402  89.5509701  47.0572931  83.8145419
  90.3884923  47.4669939  83.5979127  89.7287969  46.1172373  83.7845613
 101.4474133  44.7248011  79.5029252 100.9320757  45.4952616  79.7417639
 101.1751442  44.0513148  80.1262313  99.0321244  39.5697712  84.5614490
  98.1762841  39.1804563  84.3820129  99.4448196  39.6489673  83.7014276
 100.5620391  37.1044055  88.9606050 100.0585187  37.0674191  88.1473855
 100.8550998  38.0136798  89.0202707  96.8063277  37.1882785  87.9672232
  97.6716274  36.9925594  87.6078121  96.8740786  36.9593137  88.8941588
 106.4208408  47.4780366  81.4382425 105.6437850  47.1391526  80.9937587
 107.0999889  47.4832989  80.7637390 101.2360437  42.5975104  81.3289033
 100.9310572  42.9121253  82.1799176 102.1890879  42.6756523  81.3716366
  99.6806868  48.7565327  82.9781987  99.1528230  48.0218086  82.6655224
  99.1794371  49.5340003  82.7321955 104.6599714  46.9514347  88.0949033
 104.0023389  47.6413609  88.1829162 105.4640114  47.3410779  88.4383020
  94.4125596  39.4184993  85.3388599  94.9869348  39.1960175  84.6061791
  94.9996578  39.4873688  86.0917200 103.4705173  45.3058720  86.1452975
 103.9837055  45.9388712  86.6474685 104.1206397  44.7059916  85.7796335
  94.7395183  41.4489454  79.3584484  93.9032495  41.7864141  79.6793759
  94.5999953  41.3138434  78.4211621  96.7148264  36.2926242  84.0663668
  96.0612676  35.9775259  83.4420283  96.6728738  35.6701983  84.7923491
  97.8259469  46.5745537  75.9816960  96.9186530  46.3434791  76.1808109
  98.3230501  45.7783156  76.1690942 100.7327547  55.2843044  78.9013646
 100.0589246  55.5874741  79.5098604 101.1193369  56.0872125  78.5519103
  99.9486004  42.7808176  88.3911316  99.0308565  43.0023123  88.2333004
 100.3646148  42.8554486  87.5323023 100.7321052  44.1799591  83.5213996
 101.4792871  44.6920988  83.2121118 101.0012641  43.8583644  84.3818389
  99.0047702  46.6758132  80.5040950  98.0958921  46.3917165  80.6013420
  99.0342786  47.0957211  79.6444257 104.2366969  50.2864721  84.2732118
 103.7829297  49.4455631  84.3297308 103.6060936  50.9226120  84.6106898
 103.1799889  41.2156708  85.5032785 102.4422646  40.7034094  85.8343028
 103.4326663  40.7757089  84.6916062 102.6799909  52.1241218  85.2081936
 102.9722883  52.6846275  84.4894301 103.1898529  52.4169779  85.9635095
 103.2811516  33.9932960  86.0974554 103.5870393  33.1330323  85.8100469
 104.0064121  34.5850580  85.8973548  89.5735872  44.3963646  84.4856152
  89.3760272  43.8033007  83.7607219  89.0182536  44.0915856  85.2032091
  97.5532596  44.2886753  86.6050745  97.6081206  43.3360589  86.5293222
  96.7423798  44.4446192  87.0892044  98.7023790  48.2166876  77.8429029
  98.2643220  47.5002735  77.3834666  99.4434231  48.4442990  77.2814120
  95.4924956  42.9063812  84.3641124  94.6792822  43.2057983  84.7706316
  95.9883950  42.5119501  85.0815607  97.6433534  52.9021569  86.2975389
  97.6009713  53.1282416  85.3683921  98.5596233  52.6684944  86.4461190
 101.0899168  43.3705637  93.1956018 101.4448555  43.5977110  94.0550484
 101.7371299  43.7024014  92.5733274 106.8196905  46.4924073  83.9005347
 106.6814803  46.6825669  82.9726536 106.4633123  47.2543456  84.3573398
  94.9839031  40.4782168  89.9802359  95.6238410  40.3370927  89.2825323
  94.1516561  40.1916681  89.6040961 106.8466284  48.5600600  88.9116619
 107.2802791  48.4675889  89.7599673 107.5597865  48.5358100  88.2736635
  95.7599335  49.7784598  86.0937352  96.5539933  49.2834918  85.8919927
  95.0491027  49.2502461  85.7305057 100.5794179  52.1602694  90.4449719
 100.6331201  52.7293630  91.2127435  99.7108960  52.3304579  90.0803756
  92.0682098  43.9227680  82.1697104  91.1379686  43.8612136  82.3867067
  92.1639570  43.4003633  81.3733746  91.9867647  40.4482493  84.7575346
  92.2474464  41.3627826  84.6484507  92.8084820  39.9806935  84.9071959
  93.4592573  41.8620250  91.9274171  94.1315626  41.6537612  91.2786820
  92.6322359  41.6642336  91.4879403 107.7081834  48.6024300  91.4449504
 107.9017724  49.5070111  91.6908779 107.6082452  48.1431719  92.2788089
  99.3618145  38.4882191  93.9439831  98.7146060  39.1872141  93.8504308
 100.1319160  38.9218335  94.3116080 102.7696942  48.7531043  97.0190385
 102.6182449  48.5241595  96.1020468 102.7601622  49.7101645  97.0321730
  99.5382279  46.3262956  92.0036651 100.4674339  46.4774115  91.8305619
  99.1173309  46.4146977  91.1485298  98.3370611  50.3513620  89.7735189
  98.1981696  49.9832405  90.6461127  97.5485207  50.8661260  89.6019147
  98.9318763  55.4522717  81.1160725  99.1070518  54.9810760  81.9306348
  98.2451551  56.0788483  81.3441986  99.8875826  49.7295223  87.1624027
  99.5525658  49.6895993  88.0581677  99.3879771  49.0639939  86.6894437
  93.8620070  45.1362853  92.6876608  93.7239868  44.4043092  93.2888147
  94.7724993  45.0471753  92.4060796 102.8235017  47.0751257  77.4361086
 102.2064188  46.3498085  77.3394139 102.3551506  47.8360618  77.0928161
  96.4902370  44.8482812  92.1760287  97.2001989  44.2076005  92.1346906
  96.4471679  45.0995707  93.0986468 104.4789149  51.7850166  95.0966867
 104.4201695  51.1009386  94.4297450 104.8808667  52.5269156  94.6447493
  95.2031304  41.8348030  93.9955927  94.6668661  41.3838769  94.6477523
  94.6148013  41.9693939  93.2526391  93.4979848  58.6012080  87.8900586
  93.7376446  59.2330604  88.5679604  92.6549044  58.2500120  88.1765945
  94.6133563  41.2936682  76.5582391  93.7363030  41.1725482  76.1944637
  95.0891316  40.5022760  76.3061279 104.4806556  49.7489750  93.3280846
 103.5933335  49.4115671  93.4507245 105.0505107  49.0172781  93.5649612
  86.1335703  46.0813841  86.6523898  86.8206743  45.7675571  86.0644913
  85.9783832  46.9855206  86.3791149  90.9370426  40.9704038  91.0808921
  90.8528614  40.3629707  90.3459331  90.1153132  41.4613056  91.0818418
  98.0107710  54.4091202  90.2942090  97.9377881  55.2146173  90.8061394
  97.5685103  54.6083168  89.4690111  97.7997489  53.6462972  83.8044911
  97.0165011  54.1884652  83.8983136  98.4990235  54.1636952  84.2039152
 101.1094140  39.4557601  86.4479116 101.6062839  38.7027564  86.1280187
 100.3381121  39.4921918  85.8822326 108.9623897  45.1597967  88.0897408
 108.9513773  46.0422682  87.7191341 108.0941276  44.8069518  87.8951945
 100.4706393  54.3078036  92.4500248 101.1834365  54.9425501  92.3776150
  99.9796422  54.4041902  91.6340250 102.1923920  48.2129289  84.0217540
 101.2580199  48.3330751  83.8522244 102.3700589  47.3101755  83.7577550
  97.6929108  41.5974984  86.1750801  97.3226896  41.0446025  86.8631707
  98.1888201  40.9933118  85.6225801 105.5796472  44.0546608  84.5567574
 106.0456924  44.8874600  84.4827877 106.0303972  43.5891590  85.2612832
  95.5218307  52.0572479  93.2705819  96.2227766  52.6908962  93.4235213
  95.0513422  52.3987211  92.5101458 103.6472703  50.3990429  81.5553726
 103.9232547  50.2847024  82.4647600 102.7777201  50.0007914  81.5165899
 103.5513134  36.4227195  88.5958475 102.6376214  36.6531422  88.7640682
 103.9806236  36.5065639  89.4472508 103.3219593  44.6117087  91.0958369
 102.6691043  44.8592994  90.4410822 103.6999973  43.7981225  90.7620847
 100.2826767  54.6476780  85.1986540 100.4649161  53.8298436  85.6614292
 101.1059753  54.8644472  84.7611430 100.6168932  53.5744965  82.4601588
 101.1456699  53.0637420  81.8471750 100.8797152  53.2587495  83.3247121
  99.3707166  45.3536898  97.5824406  98.6947803  45.2531027  98.2526782
 100.1934800  45.1976112  98.0460404  91.1186025  51.5908834  90.2036922
  91.7039462  50.8452522  90.3364826  90.9210863  51.9012791  91.0873586
  93.9724680  54.6260082  85.2199364  93.3035055  55.1106210  84.7363404
  93.8337550  54.8729302  86.1342743  85.7103680  44.1614435  88.9241365
  85.7487779  43.6278025  89.7178483  85.2043972  43.6349640  88.3052342
  98.1129949  56.6603825  91.8182022  98.6648257  56.8235447  92.5831108
  98.4536142  57.2508263  91.1462047  93.0894442  39.0078975  92.4203907
  93.1535768  39.8693806  92.0081305  93.0261562  38.3952977  91.6876266
  92.5646714  41.0802108  96.0676941  93.1918753  40.6979185  96.6814466
  91.7074633  40.8616310  96.4332634 102.9640823  51.4865083  97.6730677
 103.5080727  52.0995041  97.1785632 102.3827668  52.0444661  98.1897690
  89.3412257  42.8878537  81.9995296  89.6365698  41.9789215  81.9462350
  88.4400293  42.8666276  81.6776299 101.2498336  54.6085801  88.8045705
 101.1249475  53.8075541  88.2956650 101.9077427  55.1031994  88.3159675
  92.8706504  40.9634533  87.9822845  92.1493090  41.5770501  87.8430318
  93.6599760  41.4992298  87.9039491 103.3133244  52.4094821  90.4325255
 102.3663580  52.2900172  90.3603581 103.6616017  51.5217319  90.5151516
  95.6732818  38.2988960  94.2563497  96.1967220  38.5451256  95.0189806
  95.4545151  39.1308995  93.8366634  91.0700099  40.5692635  82.1234621
  90.7412805  39.6890013  81.9409727  91.4239469  40.5140303  83.0111011
 100.3179678  52.2047537  86.6329607 100.1704640  51.2764245  86.8137177
 101.1433171  52.2267628  86.1486682  94.1841922  40.8565604  82.4910099
  94.5237994  41.3851526  81.7688707  94.6314042  41.1946010  83.2668666
 103.9213799  53.0276096  87.7194480 104.8460347  52.8218957  87.5818931
 103.7529103  52.7792497  88.6283821  96.8785363  39.2402655  91.9413167
  96.5382183  38.4410468  92.3433847  96.1724369  39.5404366  91.3690000
  97.5301835  36.3251967  90.3940490  98.3527904  35.8512446  90.2719380
  97.7739898  37.1042451  90.8939176  96.1710069  39.3540226  80.6903392
  96.8918432  39.7321479  80.1867109  95.5475373  40.0729103  80.7938370
 100.3141192  40.0585375  81.6261724 100.5304806  40.9410013  81.3250552
  99.8335259  39.6671588  80.8967366  95.0540413  43.0171088  88.2032469
  94.9084994  43.3311391  89.0956750  94.5765617  43.6355988  87.6503367
  96.9136796  40.0073636  88.2513358  96.8998365  39.1114729  87.9145656
  97.6309224  40.0144300  88.8851644  98.7662927  40.4410976  90.2966486
  98.5080705  41.3628047  90.2950816  98.2347967  40.0441411  90.9866950
 103.7109116  53.5461763  83.0756571 103.8845993  52.9808186  82.3230424
 104.2038007  54.3462658  82.8936061  89.5286076  45.5576432  91.1420130
  88.9839544  46.3336240  91.2740404  90.4065425  45.9047237  90.9839251
  96.3173692  38.8888016  83.5200928  96.4389603  37.9604663  83.7191816
  96.0275735  38.9026702  82.6079244  99.1864883  36.5742927  86.6567648
  99.2086579  36.6382260  85.7019628  99.6032942  35.7347435  86.8508154
 109.5648507  46.3098186  84.6946871 110.0079653  45.5605512  84.2965994
 108.6875017  46.3008323  84.3120603 104.6984288  52.8628528  80.1753469
 105.3935193  53.4835220  80.3940784 105.0407438  52.0123879  80.4505847
  90.3152097  44.6846329  94.0350287  89.5733833  44.8328964  94.6214917
  89.9944842  44.9454594  93.1717036 106.5975711  50.3128233  81.7040800
 107.1227035  50.6515506  80.9790120 106.5098064  49.3775249  81.5203935
  98.2595760  54.2262307  93.8330677  98.5682886  53.9811454  94.7053376
  99.0571242  54.4308945  93.3449547  98.2816372  56.3800217  86.0636053
  97.8421362  55.8876595  86.7568910  99.0324489  55.8373184  85.8228129
  90.7608711  52.5711757  86.0660681  91.5866731  52.2715529  85.6859325
  90.4102763  51.8019380  86.5150470  95.7290244  51.9238226  88.1358355
  95.1070253  51.2608931  87.8360583  96.3995111  51.9499358  87.4532003
  88.9617316  50.4898084  87.0249615  88.1249224  50.0620258  86.8433616
  88.9340962  50.6830527  87.9620406  95.8014772  40.4020014  97.7290861
  95.8502927  41.2782137  97.3468631  96.3437286  39.8597407  97.1562504
 106.2869617  50.9461137  97.0091998 105.4965161  50.9285276  96.4696498
 106.0502972  51.4849431  97.7641035 106.4067492  47.7953603  94.3224727
 106.4565497  47.6303611  95.2640249 106.2981416  46.9280862  93.9322607
  95.2903751  50.4742149  81.6116816  95.4391871  51.1577613  80.9583488
  96.0970195  50.4547239  82.1266271 103.6971255  43.7784531  95.6384033
 104.5981118  43.6390996  95.3468031 103.7719229  43.9438986  96.5782211
  98.0314060  41.1551386  94.4837220  97.1617370  41.4484952  94.2119808
  98.2673541  41.7391831  95.2044483 107.9085689  50.2150545  94.5666748
 107.6170498  50.5780525  95.4030209 107.2957821  49.5017553  94.3880080
 109.1081372  47.7803425  87.0869318 109.9428263  48.2193229  87.2506879
 109.2440500  47.3042078  86.2677564 106.1572878  45.3383159  93.0346806
 106.6326999  45.5310806  92.2265658 105.2338443  45.3942345  92.7890190
  93.0456384  46.5007327  82.6177884  92.8002426  45.5969657  82.8158095
  93.2152299  46.5024477  81.6757362 100.7353094  37.3731003  92.0002640
 101.2535038  38.1092030  91.6749129 100.3808227  37.6794996  92.8349399
  92.3152032  42.2335684  80.1164046  91.6221277  42.3080039  79.4604082
  92.0703784  41.4696028  80.6385563 100.9865688  33.7931286  87.5203537
 101.2667442  33.1254475  88.1463963 101.7716295  33.9860381  87.0078201
  98.7899157  52.9690279  79.0828563  98.2173124  53.5880467  78.6299035
  99.3631950  53.5189641  79.6168485 104.8574547  42.2148920  91.2675112
 105.8091969  42.3147017  91.2887336 104.6877997  41.4227188  91.7773196
 102.8788926  39.3004503  91.4534513 102.2838858  39.5809516  90.7581001
 102.5938623  39.7898404  92.2251254 102.0096416  53.2527430  80.2137145
 102.9427090  53.1872991  80.4170021 101.9219629  54.0883696  79.7551678
 104.6384433  52.5693300  77.1741093 104.5598065  52.2353164  78.0676851
 105.4594100  53.0615068  77.1732565 107.3362624  45.4355039  90.3817411
 107.3038944  44.4971040  90.5677095 107.9463248  45.5139076  89.6483236
  99.1745955  44.3051092  76.4244615 100.1205060  44.1757300  76.4933034
  98.7960200  43.5665754  76.9014044 107.4857113  42.2266083  90.4275695
 106.9696161  41.4424539  90.2405623 108.3697061  41.8984799  90.5922214
 105.1467840  35.9707098  86.3871507 104.9492661  35.6622186  87.2714839
 105.7567545  36.6968737  86.5169437 113.1539174  46.4971046  89.5223448
 113.8842563  46.2356334  90.0831152 112.5446120  45.7599768  89.5625516
 111.2354471  44.6378909  90.1197899 110.5087635  44.5034874  89.5114391
 110.8201758  44.9455737  90.9254617  99.0584648  48.3568838  97.8845272
  99.9787657  48.5347437  98.0785319  99.0234231  47.4124884  97.7324972
  97.3588872  42.2301069  76.3599501  96.4520328  41.9334181  76.4362214
  97.6364853  41.9330887  75.4933787  88.2766813  43.5507432  86.8098547
  87.9569597  42.6972740  86.5172921  87.7300241  43.7656010  87.5656514
  92.0546720  46.2669873  90.5268054  92.2732730  47.1986981  90.5456087
  92.4672494  45.9077847  91.3122857  98.9750938  36.7737958  82.5143742
  98.1651666  36.4285043  82.8898988  99.6635355  36.4645502  83.1031354
 100.9041486  35.8516005  84.1368039 101.4572525  36.2711459  84.7958062
 101.1411573  34.9251753  84.1790995  96.9274586  41.8403079  99.9170803
  96.8271312  42.7897436  99.8482894  96.7096128  41.5121318  99.0446873
  96.1287657  39.0888004  76.5011480  96.9906821  39.4142902  76.7607297
  96.3138001  38.3019500  75.9884546  88.1455073  47.1710344  88.7791669
  87.4518544  46.7564296  88.2661623  88.8928064  47.2130880  88.1825088
 104.2820293  37.9616530  83.6446703 103.7018962  38.6201334  83.2624755
 104.0156226  37.1393875  83.2334120 102.7323860  37.3621588  85.8468023
 103.2323638  37.4738123  85.0382342 103.3759468  37.0582641  86.4868832
  96.7905856  45.2700218  98.7335864  96.3072937  46.0700578  98.9399753
  96.8766795  45.2808163  97.7803308  90.0591815  47.1028597  86.6557684
  90.0362503  47.2016285  85.7039567  90.3692452  47.9493748  86.9774850
  92.7179193  49.1604752  90.7704298  93.6722447  49.1288695  90.7034230
  92.5191717  48.6995376  91.5854524  93.3078575  47.7305868  93.3375096
  94.1271464  48.2249947  93.3609933  93.5815383  46.8137837  93.3092663
 103.0645171  40.1216621  82.7003051 102.1771026  40.4066271  82.4823246
 103.4799160  39.9610384  81.8530328 106.4159708  40.1463142  86.4157390
 107.1920098  40.6359594  86.6882007 105.6907842  40.5721196  86.8729260
 108.8532266  40.8590761  87.4731331 109.4476757  40.6186497  86.7624639
 108.9258850  40.1397891  88.1004867  91.0729422  54.7024372  87.7874496
  90.9383890  53.9424773  87.2212494  90.6561484  55.4265272  87.3203285
 102.2088385  49.8861295  76.7951071 102.9124235  50.0911298  77.4108727
 101.4851034  50.4538057  77.0600155 103.0386195  45.6371157  82.9153341
 102.9821397  46.0939708  82.0760974 103.5914538  44.8761841  82.7376184
 106.8491001  41.4260888  83.7403461 106.5927935  41.0257524  84.5711669
 106.2243869  42.1404682  83.6153600 111.1603339  44.1656962  86.2474752
 110.6002897  44.2350151  87.0206314 110.5546842  43.9897946  85.5274248
  94.2298548  55.5993689  87.9992939  94.1130932  56.5439121  87.8971629
  93.4090994  55.2967250  88.3878738 104.1175082  50.3243825  78.8449531
 104.9520686  49.8925023  78.6627006 103.9559425  50.1525838  79.7726426
 103.7720974  46.8275938  80.2105871 103.7169778  46.6620209  79.2694315
 103.1467030  47.5351971  80.3668060  88.5613489  42.0644002  94.0367293
  89.2072353  41.5542956  94.5254518  88.3530641  42.8012684  94.6110718
 101.0866882  49.1324850  99.5359433 101.9558041  49.3065502  99.1746068
 100.6073633  49.9519267  99.4135163  97.0817100  36.3284047  79.7891189
  97.0695770  37.2725887  79.9459460  97.9740522  36.1454192  79.4950650
  95.2553062  56.2521951  91.2148867  96.1580309  56.2845561  91.5315362
  95.0290432  55.3222402  91.2295203  97.0106664  55.0052937  87.8758946
  96.0602295  55.0054799  87.7623318  97.3139150  54.2585672  87.3594980
 100.8969219  32.9226824  84.0437126 100.1301615  32.3685310  84.1893808
 101.3079924  32.9948692  84.9051277  92.9010980  39.2111619  98.1342307
  93.7642442  38.8548424  98.3445632  92.3276391  38.8725514  98.8217711
 112.7459357  60.8413476  88.9404708 113.3837767  60.7220223  88.2368048
 112.6280200  61.7894320  88.9992660 109.5549064  60.7940904  88.8766233
 109.2167575  60.6781968  87.9886767 110.4238832  60.3932069  88.8567239
 105.4135879  62.6476380  84.8663124 104.8500744  62.5566317  84.0979411
 105.2988274  61.8276285  85.3465616 110.0368847  61.9475756  94.8352438
 110.0257487  61.5528554  93.9632942 110.1989486  61.2141828  95.4286210
 102.9600311  64.1427572  87.7047344 103.7521603  63.8018396  87.2893643
 103.1996961  64.2522547  88.6249497 110.9935438  66.3147348  80.1777588
 110.3423418  66.9001428  79.7911602 111.7879801  66.8453543  80.2372626
 104.9191065  63.4036485  80.5764723 105.6921941  62.8565472  80.4377599
 105.2716464  64.2680734  80.7879184 106.7576108  64.7312867  93.7831622
 106.4665974  65.6358498  93.6678288 107.3933092  64.7729395  94.4975692
 107.6832315  62.1089716  90.3732982 108.2795887  61.8845738  89.6589945
 107.7407286  61.3674461  90.9758430 107.2557343  59.5629151  78.2083173
 107.5082864  59.0410672  77.4466636 106.3181902  59.3995297  78.3109856
 112.3000626  58.5664930  86.0157916 113.0863715  58.1484353  85.6648333
 112.5639330  59.4711022  86.1839564 112.4710703  64.0037780  80.7146573
 111.8356536  64.0772406  81.4267477 112.1408110  64.5931379  80.0365652
 117.7009053  58.5040163  86.9190894 118.4334225  57.9339380  87.1528724
 116.9448409  58.1161763  87.3597400 106.9753632  61.4657257  80.4107548
 106.8589890  60.7902161  81.0788632 107.0855892  60.9789631  79.5939701
 109.3185173  60.9267404  84.1154237 108.9543380  60.3998025  84.8267158
 110.1752289  60.5365873  83.9420722 115.2234473  52.2161737  91.3785503
 114.8917798  53.0857148  91.1546718 114.6280087  51.8998021  92.0579533
 108.9590660  55.9557304  79.1115585 109.1265062  56.8237540  79.4786057
 108.7687829  56.1184586  78.1876875 111.7165993  64.4174283  90.7781416
 111.4166716  65.3199322  90.6697223 111.3717052  64.1506466  91.6302569
 105.1678474  60.8688080  86.8118120 104.2428971  60.7364294  87.0195812
 105.4162888  61.6482299  87.3088063 115.1163137  56.9356823  88.4578853
 114.2080014  56.8672231  88.1637614 115.0650732  57.4128768  89.2860679
 108.9379881  58.4114961  80.0962252 108.8179506  58.8572012  80.9347733
 108.2432469  58.7600279  79.5375790 102.5287285  60.5121353  87.6461909
 102.6579667  60.7655832  88.5601321 101.8484737  61.1049061  87.3266564
 106.6986773  71.1818603  83.7452384 106.6210802  72.1326428  83.8240864
 106.0948416  70.8364476  84.4027310 109.1904002  58.3546469  96.4013750
 108.4137337  58.9140389  96.3916615 109.8294566  58.8403252  96.9228621
 116.9824783  55.1373261  90.2356727 116.3399163  55.4305795  89.5896522
 116.4779712  55.0226182  91.0409924 114.6364947  58.8836435  80.9242586
 115.5482803  59.1163821  80.7490284 114.1274594  59.4673479  80.3617665
 107.4450375  61.1631922  95.9631717 108.1865059  61.7016966  95.6866541
 106.7387360  61.7898211  96.1203269 112.9205714  63.3061062  94.5603879
 113.3289070  62.8643473  93.8158511 112.1982976  62.7313690  94.8138072
 109.2736784  58.2433669  91.9337436 110.1197980  58.6673083  92.0772085
 109.2135422  57.5867294  92.6275999 113.2434529  63.8662253  88.3156168
 112.6143391  64.0307967  87.6132236 112.8560191  64.2803863  89.0867132
 117.1223761  64.8016691  85.6700532 116.4374799  65.1815592  85.1197565
 117.2067610  65.4112018  86.4032479 112.4236230  55.9038038  93.5918609
 112.1797162  56.6580098  93.0552885 112.6996160  56.2823385  94.4265857
 114.3774693  62.4476650  92.2695875 114.5891588  63.0908410  91.5930256
 114.3304441  61.6138966  91.8017805 111.9800922  55.0594471  89.1732447
 111.1185401  55.3575724  89.4649185 112.0063356  55.2764869  88.2413480
 108.7962491  63.6036661  85.5806253 109.2600836  63.8824364  84.7910875
 108.5319289  62.7020106  85.3979344 105.6886572  63.1508143  88.5186016
 106.2587929  63.5795411  87.8803501 106.2794684  62.8690727  89.2170202
 107.7331377  59.7259814  82.3895818 108.4355420  60.1780857  82.8569744
 107.4012005  59.0843632  83.0175711 106.1811739  58.3171570  96.7647027
 105.5510399  58.9987851  96.9982424 106.0747826  58.2054652  95.8200166
 101.4756711  57.9843366  87.6912952 100.6855765  58.2400895  87.2153062
 101.9667958  58.7991704  87.7964992 115.4920520  65.3248605  90.4418232
 116.3137964  64.9228793  90.1600914 115.4882923  65.2216840  91.3934348
 103.4271456  58.3487945  84.6496428 102.6302620  58.4606640  85.1679924
 103.1997049  58.6874598  83.7837319 109.2577124  64.8732649  92.5978943
 109.3221556  65.3353056  93.4337115 108.5488048  64.2430014  92.7261253
  99.7594414  58.2373857  90.1227942 100.0102452  59.1220867  90.3885518
 100.2953962  58.0578458  89.3503034 108.9725142  66.5400756  82.4657923
 108.8370816  67.3852292  82.8942771 109.5134954  66.7420034  81.7023857
 105.4592481  52.6192336  99.1272278 105.0659427  52.0658535  99.8019923
 106.2758622  52.9302914  99.5178796 102.4254539  64.0576194  83.0385848
 102.9379060  64.8519444  83.1891413 103.0777252  63.3602485  82.9719450
 104.2349424  67.1741950  85.1208602 104.4116052  68.0959915  84.9329585
 105.0306257  66.8600370  85.5502981 108.3760442  54.0350215  96.7192535
 109.1170156  54.6357368  96.6396998 108.6078365  53.2927853  96.1610578
 103.5201780  59.2206582  94.9970765 103.4055295  58.3191840  95.2977864
 102.6646298  59.4670279  94.6455581 110.5993618  67.1624323  96.5958265
 110.1557472  66.3760701  96.2779170 111.2610832  67.3503473  95.9302156
 105.3580739  68.6920124  91.1218944 105.9088164  68.5637188  90.3495938
 104.5192215  68.9915013  90.7713837 112.6974856  67.4427123  94.6239667
 112.6793331  68.2636004  94.1319936 113.6194776  67.3181198  94.8489808
 109.1547910  64.9571252  95.4663175 109.6876247  64.1959540  95.2362483
 108.6261991  64.6644904  96.2087329 112.3217605  50.0631318  90.9956817
 111.9781875  50.9532960  90.9195927 112.6896568  49.8732976  90.1326402
 100.3903456  62.3864848  83.8145419 101.2278678  62.7961857  83.5979127
 100.5681723  61.4464291  83.7845613 112.2867888  60.0539929  79.5029252
 111.7714511  60.8244534  79.7417639 112.0145196  59.3805065  80.1262313
 109.8714999  54.8989630  84.5614490 109.0156595  54.5096480  84.3820129
 110.2841951  54.9781591  83.7014276 111.4014146  52.4335973  88.9606050
 110.8978941  52.3966108  88.1473855 111.6944752  53.3428716  89.0202707
 107.6457031  52.5174703  87.9672232 108.5110028  52.3217512  87.6078121
 107.7134540  52.2885055  88.8941588 117.2602162  62.8072284  81.4382425
 116.4831605  62.4683443  80.9937587 117.9393643  62.8124907  80.7637390
 112.0754191  57.9267021  81.3289033 111.7704327  58.2413170  82.1799176
 113.0284633  58.0048441  81.3716366 110.5200623  64.0857245  82.9781987
 109.9921984  63.3510004  82.6655224 110.0188126  64.8631921  82.7321955
 115.4993469  62.2806265  88.0949033 114.8417143  62.9705526  88.1829162
 116.3033868  62.6702697  88.4383020 105.2519351  54.7476911  85.3388599
 105.8263102  54.5252092  84.6061791 105.8390333  54.8165605  86.0917200
 114.3098928  60.6350638  86.1452975 114.8230809  61.2680630  86.6474685
 114.9600152  60.0351833  85.7796335 105.5788938  56.7781372  79.3584484
 104.7426250  57.1156058  79.6793759 105.4393707  56.6430352  78.4211621
 107.5542018  51.6218160  84.0663668 106.9006431  51.3067177  83.4420283
 107.5122492  50.9993900  84.7923491 108.6653223  61.9037455  75.9816960
 107.7580285  61.6726708  76.1808109 109.1624255  61.1075074  76.1690942
 111.5721302  70.6134962  78.9013646 110.8983001  70.9166659  79.5098604
 111.9587124  71.4164042  78.5519103 110.7879759  58.1100093  88.3911316
 109.8702320  58.3315040  88.2333004 111.2039902  58.1846404  87.5323023
 111.5714806  59.5091509  83.5213996 112.3186625  60.0212906  83.2121118
 111.8406396  59.1875562  84.3818389 109.8441457  62.0050050  80.5040950
 108.9352676  61.7209082  80.6013420 109.8736540  62.4249128  79.6444257
 115.0760724  65.6156639  84.2732118 114.6223051  64.7747549  84.3297308
 114.4454691  66.2518038  84.6106898 114.0193644  56.5448625  85.5032785
 113.2816400  56.0326011  85.8343028 114.2720417  56.1049007  84.6916062
 113.5193663  67.4533136  85.2081936 113.8116638  68.0138193  84.4894301
 114.0292284  67.7461697  85.9635095 114.1205271  49.3224877  86.0974554
 114.4264148  48.4622241  85.8100469 114.8457876  49.9142497  85.8973548
 100.4129627  59.7255564  84.4856152 100.2154027  59.1324924  83.7607219
  99.8576291  59.4207774  85.2032091 108.3926351  59.6178670  86.6050745
 108.4474960  58.6652507  86.5293222 107.5817553  59.7738109  87.0892044
 109.5417544  63.5458793  77.8429029 109.1036974  62.8294652  77.3834666
 110.2827985  63.7734908  77.2814120 106.3318710  58.2355730  84.3641124
 105.5186576  58.5349901  84.7706316 106.8277705  57.8411419  85.0815607
 108.4827288  68.2313487  86.2975389 108.4403467  68.4574333  85.3683921
 109.3989987  67.9976862  86.4461190 111.9292922  58.6997554  93.1956018
 112.2842310  58.9269028  94.0550484 112.5765053  59.0315931  92.5733274
 117.6590659  61.8215990  83.9005347 117.5208558  62.0117586  82.9726536
 117.3026878  62.5835373  84.3573398 105.8232785  55.8074086  89.9802359
 106.4632165  55.6662845  89.2825323 104.9910316  55.5208599  89.6040961
 117.6860039  63.8892517  88.9116619 118.1196545  63.7967806  89.7599673
 118.3991619  63.8650018  88.2736635 106.5993089  65.1076516  86.0937352
 107.3933688  64.6126836  85.8919927 105.8884782  64.5794379  85.7305057
 111.4187934  67.4894611  90.4449719 111.4724956  68.0585548  91.2127435
 110.5502715  67.6596497  90.0803756 102.9075853  59.2519598  82.1697104
 101.9773441  59.1904053  82.3867067 103.0033325  58.7295550  81.3733746
 102.8261402  55.7774411  84.7575346 103.0868219  56.6919744  84.6484507
 103.6478574  55.3098853  84.9071959 104.2986327  57.1912168  91.9274171
 104.9709380  56.9829530  91.2786820 103.4716114  56.9934254  91.4879403
 118.5475588  63.9316218  91.4449504 118.7411478  64.8362029  91.6908779
 118.4476206  63.4723637  92.2788089 110.2011899  53.8174109  93.9439831
 109.5539814  54.5164058  93.8504308 110.9712914  54.2510253  94.3116080
 113.6090697  64.0822961  97.0190385 113.4576203  63.8533512  96.1020468
 113.5995376  65.0393562  97.0321730 110.3776033  61.6554874  92.0036651
 111.3068093  61.8066033  91.8305619 109.9567063  61.7438894  91.1485298
 109.1764365  65.6805538  89.7735189 109.0375451  65.3124322  90.6461127
 108.3878961  66.1953177  89.6019147 109.7712517  70.7814634  81.1160725
 109.9464273  70.3102678  81.9306348 109.0845305  71.4080401  81.3441986
 110.7269580  65.0587141  87.1624027 110.3919413  65.0187911  88.0581677
 110.2273526  64.3931857  86.6894437 104.7013824  60.4654771  92.6876608
 104.5633622  59.7335009  93.2888147 105.6118748  60.3763671  92.4060796
 113.6628772  62.4043175  77.4361086 113.0457943  61.6790003  77.3394139
 113.1945260  63.1652535  77.0928161 107.3296125  60.1774730  92.1760287
 108.0395743  59.5367922  92.1346906 107.2865433  60.4287625  93.0986468
 115.3182904  67.1142083  95.0966867 115.2595450  66.4301303  94.4297450
 115.7202422  67.8561073  94.6447493 106.0425059  57.1639948  93.9955927
 105.5062416  56.7130686  94.6477523 105.4541767  57.2985857  93.2526391
 104.3373602  73.9303997  87.8900586 104.5770201  74.5622521  88.5679604
 103.4942799  73.5792037  88.1765945 105.4527318  56.6228599  76.5582391
 104.5756784  56.5017400  76.1944637 105.9285071  55.8314678  76.3061279
 115.3200311  65.0781667  93.3280846 114.4327090  64.7407589  93.4507245
 115.8898862  64.3464699  93.5649612  96.9729458  61.4105759  86.6523898
  97.6600498  61.0967489  86.0644913  96.8177587  62.3147124  86.3791149
 101.7764180  56.2995956  91.0808921 101.6922369  55.6921625  90.3459331
 100.9546887  56.7904974  91.0818418 108.8501464  69.7383120  90.2942090
 108.7771636  70.5438091  90.8061394 108.4078857  69.9375085  89.4690111
 108.6391244  68.9754890  83.8044911 107.8558766  69.5176570  83.8983136
 109.3383989  69.4928869  84.2039152 111.9487894  54.7849519  86.4479116
 112.4456594  54.0319481  86.1280187 111.1774876  54.8213836  85.8822326
 119.8017651  60.4889885  88.0897408 119.7907528  61.3714600  87.7191341
 118.9335031  60.1361435  87.8951945 111.3100148  69.6369954  92.4500248
 112.0228120  70.2717418  92.3776150 110.8190176  69.7333820  91.6340250
 113.0317675  63.5421206  84.0217540 112.0973953  63.6622669  83.8522244
 113.2094343  62.6393673  83.7577550 108.5322863  56.9266902  86.1750801
 108.1620650  56.3737942  86.8631707 109.0281955  56.3225036  85.6225801
 116.4190226  59.3838526  84.5567574 116.8850678  60.2166517  84.4827877
 116.8697727  58.9183507  85.2612832 106.3612061  67.3864397  93.2705819
 107.0621521  68.0200880  93.4235213 105.8907176  67.7279129  92.5101458
 114.4866457  65.7282347  81.5553726 114.7626301  65.6138941  82.4647600
 113.6170956  65.3299832  81.5165899 114.3906889  51.7519113  88.5958475
 113.4769969  51.9823339  88.7640682 114.8199990  51.8357557  89.4472508
 114.1613347  59.9409005  91.0958369 113.5084798  60.1884912  90.4410822
 114.5393727  59.1273143  90.7620847 111.1220521  69.9768698  85.1986540
 111.3042916  69.1590354  85.6614292 111.9453507  70.1936390  84.7611430
 111.4562687  68.9036883  82.4601588 111.9850453  68.3929337  81.8471750
 111.7190906  68.5879413  83.3247121 110.2100920  60.6828816  97.5824406
 109.5341557  60.5822945  98.2526782 111.0328554  60.5268029  98.0460404
 101.9579779  66.9200752  90.2036922 102.5433216  66.1744440  90.3364826
 101.7604618  67.2304709  91.0873586 104.8118435  69.9552000  85.2199364
 104.1428810  70.4398127  84.7363404 104.6731304  70.2021220  86.1342743
  96.5497434  59.4906352  88.9241365  96.5881534  58.9569943  89.7178483
  96.0437727  58.9641558  88.3052342 108.9523703  71.9895743  91.8182022
 109.5042011  72.1527365  92.5831108 109.2929897  72.5800181  91.1462047
 103.9288196  54.3370893  92.4203907 103.9929523  55.1985724  92.0081305
 103.8655317  53.7244895  91.6876266 103.4040469  56.4094025  96.0676941
 104.0312508  56.0271103  96.6814466 102.5468388  56.1908227  96.4332634
 113.8034578  66.8157001  97.6730677 114.3474481  67.4286959  97.1785632
 113.2221422  67.3736579  98.1897690 100.1806012  58.2170455  81.9995296
 100.4759453  57.3081133  81.9462350  99.2794047  58.1958194  81.6776299
 112.0892090  69.9377719  88.8045705 111.9643230  69.1367458  88.2956650
 112.7471182  70.4323912  88.3159675 103.7100259  56.2926451  87.9822845
 102.9886844  56.9062419  87.8430318 104.4993514  56.8284216  87.9039491
 114.1526999  67.7386739  90.4325255 113.2057334  67.6192090  90.3603581
 114.5009772  66.8509237  90.5151516 106.5126572  53.6280878  94.2563497
 107.0360974  53.8743174  95.0189806 106.2938905  54.4600912  93.8366634
 101.9093853  55.8984552  82.1234621 101.5806559  55.0181931  81.9409727
 102.2633224  55.8432221  83.0111011 111.1573432  67.5339455  86.6329607
 111.0098395  66.6056162  86.8137177 111.9826926  67.5559546  86.1486682
 105.0235676  56.1857522  82.4910099 105.3631749  56.7143443  81.7688707
 105.4707797  56.5237928  83.2668666 114.7607554  68.3568014  87.7194480
 115.6854101  68.1510875  87.5818931 114.5922857  68.1084415  88.6283821
 107.7179117  54.5694573  91.9413167 107.3775938  53.7702386  92.3433847
 107.0118124  54.8696284  91.3690000 108.3695589  51.6543885  90.3940490
 109.1921658  51.1804363  90.2719380 108.6133653  52.4334369  90.8939176
 107.0103824  54.6832144  80.6903392 107.7312186  55.0613396  80.1867109
 106.3869128  55.4021020  80.7938370 111.1534946  55.3877293  81.6261724
 111.3698561  56.2701930  81.3250552 110.6729014  54.9963506  80.8967366
 105.8934168  58.3463006  88.2032469 105.7478749  58.6603309  89.0956750
 105.4159371  58.9647906  87.6503367 107.7530551  55.3365554  88.2513358
 107.7392119  54.4406647  87.9145656 108.4702979  55.3436218  88.8851644
 109.6056681  55.7702894  90.2966486 109.3474459  56.6919965  90.2950816
 109.0741722  55.3733328  90.9866950 114.5502870  68.8753681  83.0756571
 114.7239748  68.3100104  82.3230424 115.0431761  69.6754576  82.8936061
 100.3679830  60.8868350  91.1420130  99.8233298  61.6628158  91.2740404
 101.2459180  61.2339155  90.9839251 107.1567447  54.2179934  83.5200928
 107.2783358  53.2896580  83.7191816 106.8669489  54.2318620  82.6079244
 110.0258637  51.9034844  86.6567648 110.0480334  51.9674178  85.7019628
 110.4426696  51.0639353  86.8508154 120.4042261  61.6390104  84.6946871
 120.8473407  60.8897429  84.2965994 119.5268772  61.6300240  84.3120603
 115.5378043  68.1920445  80.1753469 116.2328947  68.8127138  80.3940784
 115.8801193  67.3415797  80.4505847 101.1545852  60.0138246  94.0350287
 100.4127588  60.1620882  94.6214917 100.8338596  60.2746512  93.1717036
 117.4369466  65.6420151  81.7040800 117.9620790  65.9807424  80.9790120
 117.3491818  64.7067166  81.5203935 109.0989515  69.5554225  93.8330677
 109.4076641  69.3103371  94.7053376 109.8964997  69.7600863  93.3449547
 109.1210127  71.7092134  86.0636053 108.6815117  71.2168513  86.7568910
 109.8718244  71.1665102  85.8228129 101.6002466  67.9003675  86.0660681
 102.4260485  67.6007447  85.6859325 101.2496518  67.1311298  86.5150470
 106.5683999  67.2530143  88.1358355 105.9464008  66.5900848  87.8360583
 107.2388866  67.2791275  87.4532003  99.8011071  65.8190002  87.0249615
  98.9642979  65.3912176  86.8433616  99.7734716  66.0122445  87.9620406
 106.6408526  55.7311931  97.7290861 106.6896682  56.6074054  97.3468631
 107.1831040  55.1889324  97.1562504 117.1263372  66.2753055  97.0091998
 116.3358916  66.2577194  96.4696498 116.8896726  66.8141348  97.7641035
 117.2461247  63.1245521  94.3224727 117.2959252  62.9595528  95.2640249
 117.1375170  62.2572780  93.9322607 106.1297506  65.8034067  81.6116816
 106.2785626  66.4869531  80.9583488 106.9363949  65.7839157  82.1266271
 114.5365009  59.1076449  95.6384033 115.4374872  58.9682914  95.3468031
 114.6112984  59.2730904  96.5782211 108.8707815  56.4843304  94.4837220
 108.0011124  56.7776870  94.2119808 109.1067295  57.0683749  95.2044483
 118.7479444  65.5442463  94.5666748 118.4564252  65.9072443  95.4030209
 118.1351575  64.8309471  94.3880080 119.9475126  63.1095342  87.0869318
 120.7822017  63.5485146  87.2506879 120.0834255  62.6333996  86.2677564
 116.9966632  60.6675077  93.0346806 117.4720754  60.8602723  92.2265658
 116.0732197  60.7234263  92.7890190 103.8850139  61.8299244  82.6177884
 103.6396181  60.9261574  82.8158095 104.0546053  61.8316395  81.6757362
 111.5746848  52.7022921  92.0002640 112.0928792  53.4383948  91.6749129
 111.2201981  53.0086914  92.8349399 103.1545786  57.5627602  80.1164046
 102.4615031  57.6371957  79.4604082 102.9097538  56.7987946  80.6385563
 111.8259443  49.1223203  87.5203537 112.1061196  48.4546392  88.1463963
 112.6110050  49.3152299  87.0078201 109.6292911  68.2982197  79.0828563
 109.0566878  68.9172384  78.6299035 110.2025705  68.8481559  79.6168485
 115.6968301  57.5440837  91.2675112 116.6485724  57.6438935  91.2887336
 115.5271751  56.7519106  91.7773196 113.7182680  54.6296420  91.4534513
 113.1232613  54.9101433  90.7581001 113.4332377  55.1190321  92.2251254
 112.8490171  68.5819347  80.2137145 113.7820844  68.5164909  80.4170021
 112.7613384  69.4175614  79.7551678 115.4778188  67.8985218  77.1741093
 115.3991819  67.5645081  78.0676851 116.2987854  68.3906986  77.1732565
 118.1756379  60.7646957  90.3817411 118.1432699  59.8262958  90.5677095
 118.7857002  60.8430994  89.6483236 110.0139710  59.6343010  76.4244615
 110.9598814  59.5049218  76.4933034 109.6353955  58.8957672  76.9014044
 118.3250867  57.5558000  90.4275695 117.8089916  56.7716457  90.2405623
 119.2090816  57.2276717  90.5922214 115.9861594  51.2999016  86.3871507
 115.7886415  50.9914104  87.2714839 116.5961300  52.0260655  86.5169437
 109.8978402  63.6860756  97.8845272 110.8181412  63.8639355  98.0785319
 109.8627985  62.7416801  97.7324972 108.1982627  57.5592986  76.3599501
 107.2914082  57.2626099  76.4362214 108.4758608  57.2622804  75.4933787
  99.1160567  58.8799350  86.8098547  98.7963352  58.0264658  86.5172921
  98.5693995  59.0947928  87.5656514 102.8940475  61.5961791  90.5268054
 103.1126484  62.5278899  90.5456087 103.3066249  61.2369765  91.3122857
 109.8144693  52.1029876  82.5143742 109.0045421  51.7576961  82.8898988
 110.5029109  51.7937420  83.1031354 111.7435241  51.1807923  84.1368039
 112.2966279  51.6003376  84.7958062 111.9805327  50.2543671  84.1790995
 107.7668340  57.1694996  99.9170803 107.6665067  58.1189353  99.8482894
 107.5489882  56.8413235  99.0446873 106.9681411  54.4179922  76.5011480
 107.8300575  54.7434820  76.7607297 107.1531756  53.6311417  75.9884546
  98.9848827  62.5002261  88.7791669  98.2912299  62.0856214  88.2661623
  99.7321818  62.5422798  88.1825088 115.1214048  53.2908448  83.6446703
 114.5412717  53.9493252  83.2624755 114.8549981  52.4685793  83.2334120
 113.5717614  52.6913506  85.8468023 114.0717393  52.8030040  85.0382342
 114.2153222  52.3874559  86.4868832 107.6299610  60.5992135  98.7335864
 107.1466692  61.3992495  98.9399753 107.7160549  60.6100080  97.7803308
 100.8985570  62.4320515  86.6557684 100.8756258  62.5308202  85.7039567
 101.2086206  63.2785666  86.9774850 103.5572948  64.4896670  90.7704298
 104.5116201  64.4580612  90.7034230 103.3585471  64.0287294  91.5854524
 104.1472330  63.0597786  93.3375096 104.9665219  63.5541865  93.3609933
 104.4209137  62.1429754  93.3092663 113.9038926  55.4508538  82.7003051
 113.0164781  55.7358189  82.4823246 114.3192915  55.2902302  81.8530328
 117.2553462  55.4755059  86.4157390 118.0313852  55.9651512  86.6882007
 116.5301596  55.9013114  86.8729260 119.6926021  56.1882679  87.4731331
 120.2870511  55.9478415  86.7624639 119.7652604  55.4689809  88.1004867
 101.9123176  70.0316290  87.7874496 101.7777644  69.2716690  87.2212494
 101.4955239  70.7557189  87.3203285 113.0482139  65.2153213  76.7951071
 113.7517990  65.4203216  77.4108727 112.3244788  65.7829975  77.0600155
 113.8779950  60.9663074  82.9153341 113.8215151  61.4231626  82.0760974
 114.4308292  60.2053759  82.7376184 117.6884756  56.7552806  83.7403461
 117.4321690  56.3549442  84.5711669 117.0637624  57.4696600  83.6153600
 105.0692302  70.9285607  87.9992939 104.9524686  71.8731039  87.8971629
 104.2484749  70.6259168  88.3878738 114.9568837  65.6535742  78.8449531
 115.7914441  65.2216941  78.6627006 114.7953180  65.4817756  79.7726426
 114.6114729  62.1567856  80.2105871 114.5563533  61.9912127  79.2694315
 113.9860784  62.8643888  80.3668060  99.4007244  57.3935920  94.0367293
 100.0466108  56.8834874  94.5254518  99.1924395  58.1304602  94.6110718
 111.9260636  64.4616767  99.5359433 112.7951796  64.6357420  99.1746068
 111.4467388  65.2811184  99.4135163 107.9210854  51.6575965  79.7891189
 107.9089524  52.6017804  79.9459460 108.8134276  51.4746110  79.4950650
 106.0946816  71.5813868  91.2148867 106.9974063  71.6137479  91.5315362
 105.8684186  70.6514319  91.2295203 107.8500418  70.3344855  87.8758946
 106.8996049  70.3346717  87.7623318 108.1532905  69.5877590  87.3594980
 111.7362974  48.2518741  84.0437126 110.9695370  47.6977228  84.1893808
 112.1473679  48.3240610  84.9051277 103.7404735  54.5403537  98.1342307
 104.6036197  54.1840342  98.3445632 103.1670146  54.2017432  98.8217711
 120.3942818  76.1232821  88.8766233 120.0561330  76.0073886  87.9886767
 121.2632586  75.7223987  88.8567239 116.2529634  77.9768298  84.8663124
 115.6894499  77.8858235  84.0979411 116.1382029  77.1568202  85.3465616
 120.8762601  77.2767673  94.8352438 120.8651242  76.8820471  93.9632942
 121.0383241  76.5433746  95.4286210 113.7994066  79.4719489  87.7047344
 114.5915358  79.1310314  87.2893643 114.0390716  79.5814465  88.6249497
 115.7584820  78.7328403  80.5764723 116.5315696  78.1857390  80.4377599
 116.1110219  79.5972652  80.7879184 117.5969862  80.0604785  93.7831622
 117.3059728  80.9650416  93.6678288 118.2326847  80.1021313  94.4975692
 118.5226069  77.4381634  90.3732982 119.1189641  77.2137656  89.6589945
 118.5801041  76.6966379  90.9758430 118.0951098  74.8921069  78.2083173
 118.3476618  74.3702590  77.4466636 117.1575657  74.7287214  78.3109856
 117.8147386  76.7949175  80.4107548 117.6983644  76.1194078  81.0788632
 117.9249646  76.3081549  79.5939701 120.1578927  76.2559322  84.1154237
 119.7937134  75.7289943  84.8267158 121.0146043  75.8657791  83.9420722
 119.7984414  71.2849222  79.1115585 119.9658817  72.1529458  79.4786057
 119.6081583  71.4476503  78.1876875 116.0072229  76.1979997  86.8118120
 115.0822725  76.0656211  87.0195812 116.2556642  76.9774217  87.3088063
 119.7773635  73.7406879  80.0962252 119.6573260  74.1863930  80.9347733
 119.0826223  74.0892197  79.5375790 113.3681040  75.8413271  87.6461909
 113.4973421  76.0947750  88.5601321 112.6878491  76.4340979  87.3266564
 117.5380527  86.5110521  83.7452384 117.4604557  87.4618346  83.8240864
 116.9342171  86.1656393  84.4027310 120.0297757  73.6838386  96.4013750
 119.2531091  74.2432306  96.3916615 120.6688320  74.1695169  96.9228621
 118.2844129  76.4923840  95.9631717 119.0258814  77.0308884  95.6866541
 117.5781115  77.1190128  96.1203269 120.1130539  73.5725587  91.9337436
 120.9591734  73.9965000  92.0772085 120.0529177  72.9159211  92.6275999
 119.6356245  78.9328579  85.5806253 120.0994591  79.2116282  84.7910875
 119.3713044  78.0312023  85.3979344 116.5280326  78.4800060  88.5186016
 117.0981684  78.9087329  87.8803501 117.1188438  78.1982645  89.2170202
 118.5725131  75.0551731  82.3895818 119.2749175  75.5072775  82.8569744
 118.2405760  74.4135550  83.0175711 117.0205493  73.6463488  96.7647027
 116.3904154  74.3279769  96.9982424 116.9141581  73.5346569  95.8200166
 112.3150465  73.3135284  87.6912952 111.5249519  73.5692812  87.2153062
 112.8061713  74.1283622  87.7964992 114.2665211  73.6779863  84.6496428
 113.4696374  73.7898557  85.1679924 114.0390803  74.0166515  83.7837319
 120.0970878  80.2024566  92.5978943 120.1615311  80.6644974  93.4337115
 119.3881802  79.5721931  92.7261253 110.5988168  73.5665774  90.1227942
 110.8496207  74.4512784  90.3885518 111.1347717  73.3870376  89.3503034
 119.8118896  81.8692674  82.4657923 119.6764571  82.7144210  82.8942771
 120.3528709  82.0711951  81.7023857 116.2986236  67.9484254  99.1272278
 115.9053181  67.3950452  99.8019923 117.1152376  68.2594832  99.5178796
 113.2648293  79.3868112  83.0385848 113.7772814  80.1811362  83.1891413
 113.9171006  78.6894402  82.9719450 115.0743178  82.5033868  85.1208602
 115.2509807  83.4251833  84.9329585 115.8700012  82.1892287  85.5502981
 119.2154197  69.3642133  96.7192535 119.9563910  69.9649286  96.6396998
 119.4472120  68.6219771  96.1610578 114.3595535  74.5498500  94.9970765
 114.2449050  73.6483757  95.2977864 113.5040052  74.7962197  94.6455581
 116.1974494  84.0212042  91.1218944 116.7481919  83.8929105  90.3495938
 115.3585970  84.3206931  90.7713837 119.9941665  80.2863170  95.4663175
 120.5270001  79.5251458  95.2362483 119.4655746  79.9936822  96.2087329
 111.2297210  77.7156766  83.8145419 112.0672432  78.1253775  83.5979127
 111.4075478  76.7756208  83.7845613 120.7108753  70.2281548  84.5614490
 119.8550350  69.8388398  84.3820129 121.1235705  70.3073508  83.7014276
 118.4850786  67.8466621  87.9672232 119.3503783  67.6509429  87.6078121
 118.5528295  67.6176972  88.8941588 121.3594377  79.4149162  82.9781987
 120.8315739  78.6801922  82.6655224 120.8581880  80.1923839  82.7321955
 116.0913105  70.0768828  85.3388599 116.6656857  69.8544010  84.6061791
 116.6784087  70.1457523  86.0917200 116.4182692  72.1073290  79.3584484
 115.5820004  72.4447976  79.6793759 116.2787462  71.9722269  78.4211621
 118.3935773  66.9510077  84.0663668 117.7400185  66.6359095  83.4420283
 118.3516247  66.3285818  84.7923491 119.5046978  77.2329372  75.9816960
 118.5974039  77.0018626  76.1808109 120.0018010  76.4366992  76.1690942
 120.6835211  77.3341967  80.5040950 119.7746430  77.0501000  80.6013420
 120.7130295  77.7541046  79.6444257 111.2523381  75.0547481  84.4856152
 111.0547781  74.4616842  83.7607219 110.6970045  74.7499692  85.2032091
 119.2320105  74.9470588  86.6050745 119.2868715  73.9944424  86.5293222
 118.4211307  75.1030027  87.0892044 120.3811299  78.8750711  77.8429029
 119.9430729  78.1586570  77.3834666 121.1221740  79.1026826  77.2814120
 117.1712465  73.5647648  84.3641124 116.3580331  73.8641818  84.7706316
 117.6671459  73.1703336  85.0815607 119.3221043  83.5605405  86.2975389
 119.2797222  83.7866251  85.3683921 120.2383742  83.3268779  86.4461190
 116.6626540  71.1366003  89.9802359 117.3025919  70.9954762  89.2825323
 115.8304070  70.8500517  89.6040961 117.4386844  80.4368434  86.0937352
 118.2327442  79.9418754  85.8919927 116.7278536  79.9086297  85.7305057
 113.7469607  74.5811515  82.1697104 112.8167195  74.5195971  82.3867067
 113.8427079  74.0587468  81.3733746 113.6655156  71.1066328  84.7575346
 113.9261973  72.0211661  84.6484507 114.4872328  70.6390771  84.9071959
 115.1380081  72.5204085  91.9274171 115.8103135  72.3121448  91.2786820
 114.3109868  72.3226171  91.4879403 120.0158120  81.0097456  89.7735189
 119.8769205  80.6416240  90.6461127 119.2272716  81.5245095  89.6019147
 120.6106272  86.1106552  81.1160725 120.7858027  85.6394595  81.9306348
 119.9239060  86.7372318  81.3441986 121.5663335  80.3879058  87.1624027
 121.2313167  80.3479828  88.0581677 121.0667280  79.7223774  86.6894437
 115.5407579  75.7946688  92.6876608 115.4027377  75.0626927  93.2888147
 116.4512502  75.7055588  92.4060796 118.1689879  75.5066648  92.1760287
 118.8789498  74.8659840  92.1346906 118.1259188  75.7579543  93.0986468
 116.8818813  72.4931866  93.9955927 116.3456170  72.0422604  94.6477523
 116.2935522  72.6277774  93.2526391 115.1767357  89.2595915  87.8900586
 115.4163955  89.8914439  88.5679604 114.3336553  88.9083955  88.1765945
 116.2921072  71.9520517  76.5582391 115.4150539  71.8309318  76.1944637
 116.7678825  71.1606595  76.3061279 107.8123212  76.7397677  86.6523898
 108.4994252  76.4259407  86.0644913 107.6571341  77.6439041  86.3791149
 112.6157935  71.6287873  91.0808921 112.5316123  71.0213543  90.3459331
 111.7940641  72.1196892  91.0818418 119.6895219  85.0675037  90.2942090
 119.6165390  85.8730009  90.8061394 119.2472612  85.2667003  89.4690111
 119.4784998  84.3046807  83.8044911 118.6952520  84.8468488  83.8983136
 120.1777744  84.8220787  84.2039152 119.3716617  72.2558820  86.1750801
 119.0014405  71.7029860  86.8631707 119.8675710  71.6516953  85.6225801
 117.2005816  82.7156315  93.2705819 117.9015275  83.3492798  93.4235213
 116.7300931  83.0571046  92.5101458 112.7973534  82.2492670  90.2036922
 113.3826971  81.5036358  90.3364826 112.5998372  82.5596627  91.0873586
 115.6512189  85.2843917  85.2199364 114.9822564  85.7690045  84.7363404
 115.5125059  85.5313138  86.1342743 107.3891189  74.8198270  88.9241365
 107.4275288  74.2861861  89.7178483 106.8831481  74.2933476  88.3052342
 119.7917458  87.3187661  91.8182022 120.3435766  87.4819282  92.5831108
 120.1323651  87.9092099  91.1462047 114.7681951  69.6662811  92.4203907
 114.8323277  70.5277641  92.0081305 114.7049071  69.0536812  91.6876266
 114.2434223  71.7385943  96.0676941 114.8706262  71.3563020  96.6814466
 113.3862142  71.5200145  96.4332634 111.0199766  73.5462372  81.9995296
 111.3153207  72.6373051  81.9462350 110.1187802  73.5250112  81.6776299
 114.5494013  71.6218369  87.9822845 113.8280599  72.2354336  87.8430318
 115.3387269  72.1576134  87.9039491 117.3520327  68.9572795  94.2563497
 117.8754729  69.2035092  95.0189806 117.1332660  69.7892830  93.8366634
 112.7487608  71.2276470  82.1234621 112.4200314  70.3473849  81.9409727
 113.1026978  71.1724139  83.0111011 115.8629431  71.5149440  82.4910099
 116.2025503  72.0435361  81.7688707 116.3101551  71.8529846  83.2668666
 118.5572872  69.8986490  91.9413167 118.2169692  69.0994303  92.3433847
 117.8511878  70.1988201  91.3690000 119.2089344  66.9835803  90.3940490
 120.0315413  66.5096281  90.2719380 119.4527407  67.7626287  90.8939176
 117.8497578  70.0124061  80.6903392 118.5705941  70.3905314  80.1867109
 117.2262882  70.7312938  80.7938370 116.7327922  73.6754923  88.2032469
 116.5872503  73.9895227  89.0956750 116.2553126  74.2939824  87.6503367
 118.5924305  70.6657471  88.2513358 118.5785874  69.7698565  87.9145656
 119.3096733  70.6728135  88.8851644 120.4450436  71.0994812  90.2966486
 120.1868214  72.0211882  90.2950816 119.9135476  70.7025246  90.9866950
 111.2073584  76.2160268  91.1420130 110.6627053  76.9920076  91.2740404
 112.0852934  76.5631072  90.9839251 117.9961201  69.5471852  83.5200928
 118.1177112  68.6188498  83.7191816 117.7063244  69.5610538  82.6079244
 120.8652392  67.2326762  86.6567648 120.8874088  67.2966095  85.7019628
 121.2820451  66.3931271  86.8508154 111.9939606  75.3430164  94.0350287
 111.2521342  75.4912799  94.6214917 111.6732351  75.6038430  93.1717036
 119.9383269  84.8846142  93.8330677 120.2470395  84.6395289  94.7053376
 120.7358751  85.0892781  93.3449547 119.9603881  87.0384052  86.0636053
 119.5208871  86.5460431  86.7568910 120.7111998  86.4957020  85.8228129
 112.4396220  83.2295593  86.0660681 113.2654240  82.9299365  85.6859325
 112.0890272  82.4603215  86.5150470 117.4077753  82.5822061  88.1358355
 116.7857762  81.9192766  87.8360583 118.0782620  82.6083193  87.4532003
 110.6404825  81.1481919  87.0249615 109.8036733  80.7204094  86.8433616
 110.6128471  81.3414363  87.9620406 117.4802281  71.0603849  97.7290861
 117.5290436  71.9365972  97.3468631 118.0224795  70.5181242  97.1562504
 116.9691260  81.1325984  81.6116816 117.1179380  81.8161449  80.9583488
 117.7757704  81.1131074  82.1266271 119.7101569  71.8135221  94.4837220
 118.8404879  72.1068788  94.2119808 119.9461049  72.3975666  95.2044483
 114.7243893  77.1591162  82.6177884 114.4789935  76.2553492  82.8158095
 114.8939808  77.1608312  81.6757362 113.9939541  72.8919520  80.1164046
 113.3008786  72.9663875  79.4604082 113.7491293  72.1279863  80.6385563
 120.4686666  83.6274115  79.0828563 119.8960633  84.2464302  78.6299035
 121.0419459  84.1773477  79.6168485 119.0376381  72.8884904  76.3599501
 118.1307837  72.5918017  76.4362214 119.3152362  72.5914722  75.4933787
 109.9554322  74.2091267  86.8098547 109.6357106  73.3556576  86.5172921
 109.4087750  74.4239846  87.5656514 113.7334229  76.9253708  90.5268054
 113.9520239  77.8570816  90.5456087 114.1460003  76.5661683  91.3122857
 120.6538447  67.4321794  82.5143742 119.8439175  67.0868879  82.8898988
 121.3422864  67.1229337  83.1031354 118.6062095  72.4986914  99.9170803
 118.5058821  73.4481271  99.8482894 118.3883637  72.1705153  99.0446873
 117.8075166  69.7471839  76.5011480 118.6694330  70.0726738  76.7607297
 117.9925510  68.9603335  75.9884546 109.8242582  77.8294179  88.7791669
 109.1306053  77.4148132  88.2661623 110.5715573  77.8714715  88.1825088
 118.4693365  75.9284053  98.7335864 117.9860446  76.7284413  98.9399753
 118.5554304  75.9391998  97.7803308 111.7379324  77.7612433  86.6557684
 111.7150012  77.8600120  85.7039567 112.0479961  78.6077583  86.9774850
 114.3966702  79.8188588  90.7704298 115.3509956  79.7872530  90.7034230
 114.1979226  79.3579211  91.5854524 114.9866084  78.3889704  93.3375096
 115.8058973  78.8833782  93.3609933 115.2602892  77.4721672  93.3092663
 112.7516931  85.3608207  87.7874496 112.6171399  84.6008608  87.2212494
 112.3348993  86.0849107  87.3203285 115.9086057  86.2577524  87.9992939
 115.7918441  87.2022957  87.8971629 115.0878503  85.9551086  88.3878738
 110.2400998  72.7227838  94.0367293 110.8859862  72.2126792  94.5254518
 110.0318150  73.4596519  94.6110718 118.7604609  66.9867882  79.7891189
 118.7483279  67.9309722  79.9459460 119.6528031  66.8038028  79.4950650
 116.9340571  86.9105786  91.2148867 117.8367818  86.9429396  91.5315362
 116.7077941  85.9806237  91.2295203 118.6894173  85.6636773  87.8758946
 117.7389804  85.6638634  87.7623318 118.9926659  84.9169507  87.3594980
 114.5798489  69.8695455  98.1342307 115.4429951  69.5132260  98.3445632
 114.0063900  69.5309350  98.8217711 118.6516967  92.0689594  86.6523898
 119.3388007  91.7551324  86.0644913 118.4965096  92.9730959  86.3791149
 118.2284943  90.1490188  88.9241365 118.2669043  89.6153778  89.7178483
 117.7225236  89.6225393  88.3052342 121.4798580  96.4773837  87.0249615
 120.6430488  96.0496011  86.8433616 121.4522225  96.6706280  87.9620406
 120.7948076  89.5383185  86.8098547 120.4750860  88.6848493  86.5172921
 120.2481504  89.7531763  87.5656514 120.6636336  93.1586097  88.7791669
 119.9699808  92.7440049  88.2661623 121.4109327  93.2006633  88.1825088
  74.1805510   2.2004973  70.4697690  74.1029540   3.1512798  70.5486171
  73.5767154   1.8550845  71.1272616  71.8192340   4.9490367  74.6145892
  72.0588938   5.5808891  75.2924911  70.9761537   4.5978407  74.9011251
  72.2937172   0.9738369  71.9444671  71.6247548   1.4584497  71.4608711
  72.1550042   1.2207590  72.8588049  76.4342441   3.0082113  78.5427329
  76.9860749   3.1713734  79.3076414  76.7748634   3.5986550  77.8707354
  69.3941914   1.0502659  74.5119802  69.2596382   0.2903060  73.9457801
  68.9773976   1.7743559  74.0448591  72.5511040   1.9471976  74.7238245
  72.4343424   2.8917409  74.6216935  71.7303486   1.6445538  75.1124044
  73.5765554   2.6000238  77.9394174  74.4792801   2.6323848  78.2560669
  73.3502924   1.6700689  77.9540509  87.8761556   7.1419191  75.6011539
  87.5380067   7.0260256  74.7132074  88.7451324   6.7410356  75.5812545
  83.7348372   8.9954667  71.5908430  83.1713237   8.9044604  70.8224718
  83.6200767   8.1754572  72.0710923  88.3581339   8.2954043  81.5597745
  88.3469980   7.9006841  80.6878248  88.5201978   7.5620115  82.1531516
  81.2812804  10.4905859  74.4292651  82.0734095  10.1496684  74.0138950
  81.5209454  10.6000834  75.3494804  89.3147930  12.6625635  66.9022895
  88.6635910  13.2479716  66.5156909  90.1092293  13.1931830  66.9617933
  83.2403558   9.7514772  67.3010029  84.0134434   9.2043759  67.1622905
  83.5928956  10.6159022  67.5124491  85.0788600  11.0791155  80.5076929
  84.7878466  11.9836785  80.3923595  85.7145584  11.1207682  81.2220998
  86.0044807   8.4568003  77.0978288  86.6008379   8.2324025  76.3835251
  86.0619778   7.7152749  77.7003736  90.7923195  10.3516067  67.4391879
  90.1569028  10.4250694  68.1512784  90.4620602  10.9409666  66.7610959
  85.2966124   7.8135544  67.1352854  85.1802382   7.1380448  67.8033939
  85.4068384   7.3267918  66.3185007  87.6397665   7.2745691  70.8399544
  87.2755872   6.7476312  71.5512465  88.4964781   6.8844161  70.6666029
  90.0378485  10.7652570  77.5026722  89.7379208  11.6677609  77.3942530
  89.6929545  10.4984753  78.3547875  83.4890967   7.2166367  73.5363427
  82.5641463   7.0842581  73.7441119  83.7375380   7.9960586  74.0333369
  80.8499778   6.8599640  74.3707216  80.9792159   7.1134119  75.2846628
  80.1697229   7.4527348  74.0511871  85.0199265  17.5296890  70.4697690
  84.9423295  18.4804716  70.5486171  84.4160909  17.1842763  71.1272616
  85.7662867   7.5110209  82.6877024  86.5077551   8.0495253  82.4111848
  85.0599853   8.1376498  82.8448576  91.2418207   9.6539350  81.2849186
  91.6501563   9.2121760  80.5403818  90.5195468   9.0791977  81.5383378
  91.5647021  10.2140540  75.0401474  90.9355884  10.3786254  74.3377542
  91.1772683  10.6282150  75.8112438  95.4436253  11.1494978  72.3945838
  94.7587291  11.5293880  71.8442872  95.5280103  11.7590305  73.1277786
  92.6987185   8.7954937  78.9941182  92.9104080   9.4386697  78.3175563
  92.6516933   7.9617254  78.5263112  87.1174983   9.9514948  72.3051560
  87.5813329  10.2302651  71.5156182  86.8531781   9.0498393  72.1224650
  84.0099064   9.4986430  75.2431323  84.5800421   9.9273698  74.6048807
  84.6007176   9.2169015  75.9415508  79.7969203   4.3321653  74.4158258
  79.0068257   4.5879182  73.9398369  80.2880451   5.1469991  74.5210299
  93.8133013  11.6726893  77.1663539  94.6350456  11.2707080  76.8846221
  93.8095416  11.5695127  78.1179655  81.7483949   4.6966233  71.3741735
  80.9515112   4.8084927  71.8925231  81.5209541   5.0352885  70.5082625
  87.5789616  11.2210936  79.3224250  87.6434049  11.6831343  80.1582421
  86.8700540  10.5908301  79.4506559  78.0806906   4.5852144  76.8473249
  78.3314945   5.4699154  77.1130825  78.6166455   4.4056745  76.0748341
  87.2937634  12.8879043  69.1903230  87.1583309  13.7330579  69.6188078
  87.8347446  13.0898321  68.4269164  80.7467031  10.4054481  69.7631155
  81.2591552  11.1997732  69.9136720  81.3989744   9.7080772  69.6964756
  82.5561916  13.5220238  71.8453908  82.7328544  14.4438202  71.6574892
  83.3518749  13.2078657  72.2748288  81.8414273   5.5684870  81.7216071
  81.7267788   4.6670127  82.0223170  80.9858790   5.8148566  81.3700888
  88.9206110  13.5102610  83.3203572  88.4769964  12.7238988  83.0024476
  89.5823324  13.6981760  82.6547463  83.6793231  15.0398411  77.8464250
  84.2300657  14.9115475  77.0741244  82.8404707  15.3393300  77.4959143
  91.0187348  13.7905410  81.3484973  91.0005824  14.6114291  80.8565242
  91.9407268  13.6659485  81.5735114  87.4760402  11.3049539  82.1908482
  88.0088739  10.5437827  81.9607790  86.9474484  11.0123191  82.9332636
  78.7115948   8.7343136  70.5390726  79.5491170   9.1440144  70.3224433
  78.8894216   7.7942578  70.5090919  88.8413115  10.4335532  69.7027294
  88.3134477   9.6988291  69.3900531  88.3400618  11.2110208  69.4567262
  93.8205961   8.6284552  74.8194340  93.1629636   9.3183814  74.9074469
  94.6246360   9.0180984  75.1628326  86.9865715   8.2515742  62.7062267
  86.0792777   8.0204995  62.9053416  87.4836747   7.4553361  62.8936248
  89.8933794  16.9613249  65.6258953  89.2195493  17.2644946  66.2343911
  90.2799616  17.7642330  65.2764410  88.1653949   8.3528337  67.2286257
  87.2565168   8.0687370  67.3258726  88.1949033   8.7727415  66.3689564
  93.3973216  11.9634926  70.9977424  92.9435543  11.1225836  71.0542615
  92.7667183  12.5996325  71.3352204  91.8406155  13.8011423  71.9327242
  92.1329130  14.3616480  71.2139608  92.3504776  14.0939984  72.6880402
  78.7342119   6.0733851  71.2101459  78.5366519   5.4803212  70.4852526
  78.1788783   5.7686061  71.9277398  87.8630037   9.8937081  64.5674335
  87.4249467   9.1772940  64.1079973  88.6040477  10.1213195  64.0059427
  86.8039781  14.5791774  73.0220696  86.7615959  14.8052620  72.0929228
  87.7202480  14.3455149  73.1706497  96.0072531  10.2370805  75.6361925
  96.4409038  10.1446094  76.4844979  96.7204112  10.2128305  74.9981941
  84.9205581  11.4554803  72.8182658  85.7146180  10.9605123  72.6165233
  84.2097274  10.9272666  72.4550364  89.7400426  13.8372899  77.1695026
  89.7937448  14.4063835  77.9372742  88.8715207  14.0074784  76.8049063
  81.2288345   5.5997885  68.8942411  80.2985933   5.5382340  69.1112373
  81.3245817   5.0773838  68.0979052  96.8688081  10.2794505  78.1694811
  97.0623971  11.1840316  78.4154086  96.7688699   9.8201924  79.0033396
  91.9303189  10.4301248  83.7435691  91.7788696  10.2011800  82.8265775
  91.9207869  11.3871849  83.7567036  88.6988526   8.0033161  78.7281958
  89.6280586   8.1544320  78.5550925  88.2779556   8.0917182  77.8730604
  87.4976857  12.0283825  76.4980495  87.3587943  11.6602610  77.3706434
  86.7091454  12.5431465  76.3264453  88.0925009  17.1292922  67.8406032
  88.2676765  16.6580965  68.6551655  87.4057797  17.7558688  68.0687293
  89.0482073  11.4065428  73.8869333  88.7131905  11.3666198  74.7826983
  88.5486018  10.7410144  73.4139743  83.0226317   6.8133058  79.4121914
  82.8846114   6.0813297  80.0133453  83.9331240   6.7241958  79.1306102
  91.9841264   8.7521462  64.1606393  91.3670435   8.0268290  64.0639446
  91.5157753   9.5130823  63.8173467  85.6508617   6.5253017  78.9005594
  86.3608236   5.8846209  78.8592212  85.6077925   6.7765912  79.8231775
  93.6395396  13.4620371  81.8212173  93.5807942  12.7779591  81.1542756
  94.0414914  14.2039361  81.3692799  82.6586095  20.2782284  74.6145892
  82.8982693  20.9100809  75.2924911  81.8155291  19.9270324  74.9011251
  93.6412803  11.4259955  80.0526153  92.7539582  11.0885876  80.1752552
  94.2111354  10.6942986  80.2894918  75.2941950   7.7584046  73.3769204
  75.9812990   7.4445776  72.7890220  75.1390079   8.6625411  73.1036456
  87.1713957  16.0861407  77.0187396  87.0984128  16.8916378  77.5306701
  86.7291350  16.2853373  76.1935418  86.9603736  15.3233177  70.5290218
  86.1771258  15.8654857  70.6228442  87.6596481  15.8407157  70.9284459
  89.6312640  15.9848241  79.1745555  90.3440612  16.6195706  79.1021456
  89.1402669  16.0812107  78.3585557  91.3530167   9.8899494  70.7462846
  90.4186446  10.0100956  70.5767551  91.5306835   8.9871960  70.4822856
  84.6824554  13.7342684  79.9951126  85.3834013  14.3679167  80.1480520
  84.2119669  14.0757416  79.2346765  92.8078949  12.0760634  68.2799033
  93.0838793  11.9617229  69.1892907  91.9383448  11.6778119  68.2411206
  89.4433013  16.3246985  71.9231846  89.6255408  15.5068641  72.3859599
  90.2665999  16.5414677  71.4856736  89.7775179  15.2515170  69.1846895
  90.3062945  14.7407625  68.5717057  90.0403399  14.9357700  70.0492428
  88.5313413   7.0307103  84.3069713  87.8554050   6.9301232  84.9772088
  89.3541046   6.8746317  84.7705710  80.2792272  13.2679039  76.9282228
  80.8645708  12.5222727  77.0610133  80.0817110  13.5782996  77.8118892
  83.1330927  16.3030287  71.9444671  82.4641302  16.7876414  71.4608711
  82.9943797  16.5499507  72.8588049  74.8709926   5.8384640  75.6486671
  74.9094026   5.3048230  76.4423790  74.3650219   5.3119845  75.0297649
  87.2736195  18.3374030  78.5427329  87.8254503  18.5005652  79.3076414
  87.6142389  18.9278468  77.8707354  92.1247070  13.1635288  84.3975983
  92.6686974  13.7765246  83.9030938  91.5433915  13.7214866  84.9142996
  78.5018504   4.5648742  68.7240603  78.7971945   3.6559420  68.6707657
  77.6006540   4.5436481  68.4021605  90.4104583  16.2856006  75.5291011
  90.2855722  15.4845746  75.0201957  91.0683674  16.7802199  75.0404981
  92.4739491  14.0865026  77.1570561  91.5269827  13.9670377  77.0848888
  92.8222264  13.1987524  77.2396823  89.4785924  13.8817742  73.3574914
  89.3310887  12.9534450  73.5382484  90.3039418  13.9037833  72.8731989
  93.0820046  14.7046301  74.4439786  94.0066594  14.4989162  74.3064237
  92.9135350  14.4562702  75.3529128  92.8715362  15.2231968  69.8001878
  93.0452240  14.6578391  69.0475730  93.3644254  16.0232863  69.6181368
  78.6892322   7.2346637  77.8665437  78.1445790   8.0106445  77.9985711
  79.5671672   7.5817442  77.7084558  93.8590535  14.5398733  66.8998776
  94.5541440  15.1605425  67.1186091  94.2013685  13.6894084  67.1751154
  79.4758344   6.3616534  80.7595593  78.7340080   6.5099169  81.3460224
  79.1551088   6.6224799  79.8962343  95.7581958  11.9898438  68.4286107
  96.2833282  12.3285711  67.7035427  95.6704311  11.0545454  68.2449241
  87.4202007  15.9032512  80.5575983  87.7289133  15.6581659  81.4298683
  88.2177489  16.1079150  80.0694854  87.4422619  18.0570422  72.7881360
  87.0027609  17.5646800  73.4814217  88.1930736  17.5143389  72.5473435
  79.9214958  14.2481962  72.7905988  80.7472978  13.9485734  72.4104632
  79.5709010  13.4789585  73.2395777  84.8896491  13.6008431  74.8603662
  84.2676500  12.9379136  74.5605890  85.5601358  13.6269563  74.1777309
  78.1223563  12.1668289  73.7494922  77.2855471  11.7390463  73.5678923
  78.0947208  12.3600732  74.6865713  95.4475864  12.6231342  83.7337305
  94.6571408  12.6055481  83.1941804  95.2109219  13.1619636  84.4886341
  84.4509998  12.1512354  68.3362122  84.5998118  12.8347818  67.6828795
  85.2576441  12.1317444  68.8511578  97.0691936  11.8920750  81.2912055
  96.7776744  12.2550730  82.1275516  96.4564067  11.1787758  81.1125387
  82.2062631   8.1777532  69.3423191  81.9608673   7.2739862  69.5403401
  82.3758545   8.1794682  68.4002669  87.9505403  14.6460484  65.8073870
  87.3779371  15.2650672  65.3544341  88.5238197  15.1959846  66.3413792
  91.1702663  14.9297635  66.9382452  92.1033336  14.8643196  67.1415327
  91.0825876  15.7653901  66.4796985  93.7990680  14.2463505  63.8986399
  93.7204311  13.9123368  64.7922157  94.6200347  14.7385273  63.8977872
  88.2190894  10.0339043  84.6090579  89.1393904  10.2117642  84.8030626
  88.1840477   9.0895089  84.4570278  77.4373059   5.2277637  73.5343854
  77.1175844   4.3742945  73.2418228  76.8906488   5.4426215  74.2901821
  81.2152967   7.9440078  77.2513360  81.4338977   8.8757186  77.2701394
  81.6278741   7.5848052  78.0368164  77.3061319   8.8480548  75.5036975
  76.6124791   8.4334501  74.9906930  78.0534310   8.8901085  74.9070394
  85.9512102   6.9470423  85.4581171  85.4679184   7.7470783  85.6645060
  86.0373041   6.9578367  84.5048615  79.2198062   8.7798802  73.3802990
  79.1968750   8.8786490  72.4284873  79.5298698   9.6263953  73.7020156
  81.8785440  10.8374957  77.4949605  82.8328693  10.8058900  77.4279536
  81.6797963  10.3765581  78.3099831  82.4684822   9.4076073  80.0620402
  83.2877711   9.9020152  80.0855240  82.7421630   8.4908041  80.0337970
  80.2335669  16.3794577  74.5119802  80.0990137  15.6194978  73.9457801
  79.8167731  17.1035477  74.0448591  91.3694632  11.5631500  63.5196378
  92.0730482  11.7681503  64.1354033  90.6457280  12.1308262  63.7845461
  83.3904795  17.2763894  74.7238245  83.2737179  18.2209326  74.6216935
  82.5697241  16.9737455  75.1124044  93.2781329  12.0014029  65.5694838
  94.1126933  11.5695228  65.3872313  93.1165672  11.8296043  66.4971732
  92.9327221   8.5046143  66.9351177  92.8776025   8.3390414  65.9939621
  92.3073277   9.2122176  67.0913367  77.7219736   3.7414207  80.7612599
  78.3678600   3.2313161  81.2499825  77.5136887   4.4782889  81.3356025
  90.2473128  10.8095055  86.2604740  91.1164288  10.9835707  85.8991375
  89.7679880  11.6289471  86.1380469  84.4159309  17.9292156  77.9394174
  85.3186555  17.9615766  78.2560669  84.1896679  16.9992607  77.9540509
  86.1712911  16.6823142  74.6004252  85.2208542  16.6825004  74.4868624
  86.4745397  15.9355877  74.0840287 101.9065604  22.5183681  75.6650015
 102.5444014  22.3990428  74.9613355 101.7886447  23.4664525  75.7237967
  98.7155310  22.4711109  75.6011539  98.3773822  22.3552173  74.7132074
  99.5845079  22.0702274  75.5812545  94.5742126  24.3246585  71.5908430
  94.0106991  24.2336522  70.8224718  94.4594521  23.5046490  72.0710923
  99.1975093  23.6245960  81.5597745  99.1863734  23.2298759  80.6878248
  99.3595733  22.8912033  82.1531516  92.1206558  25.8197777  74.4292651
  92.9127850  25.4788601  74.0138950  92.3603208  25.9292752  75.3494804
 100.1541685  27.9917553  66.9022895  99.5029665  28.5771633  66.5156909
 100.9486048  28.5223748  66.9617933  94.0797312  25.0806690  67.3010029
  94.8528188  24.5335677  67.1622905  94.4322711  25.9450939  67.5124491
  95.9182355  26.4083072  80.5076929  95.6272221  27.3128703  80.3923595
  96.5539339  26.4499600  81.2220998  96.8438561  23.7859921  77.0978288
  97.4402134  23.5615943  76.3835251  96.9013533  23.0444666  77.7003736
  96.4163590  21.2399356  64.9328479  96.6689111  20.7180877  64.1711942
  95.4788149  21.0765502  65.0355163 101.4606873  20.2435134  72.7403223
 102.2469962  19.8254558  72.3893640 101.7245577  21.1481227  72.9084871
 101.6316950  25.6807985  67.4391879 100.9962783  25.7542611  68.1512784
 101.3014356  26.2701584  66.7610959 106.8615300  20.1810368  73.6436201
 107.5940472  19.6109584  73.8774031 106.1054655  19.7931968  74.0842707
  96.1359879  23.1427462  67.1352854  96.0196137  22.4672365  67.8033939
  96.2462138  22.6559836  66.3185007  98.4791419  22.6037609  70.8399544
  98.1149627  22.0768230  71.5512465  99.3358535  22.2136078  70.6666029
 104.3840720  13.8931942  78.1030810 104.0524045  14.7627353  77.8792025
 103.7886334  13.5768226  78.7824840  98.1196906  17.6327509  65.8360892
  98.2871309  18.5007745  66.2031363  97.9294076  17.7954791  64.9122181
 100.8772240  26.0944488  77.5026722 100.5772963  26.9969527  77.3942530
 100.5323299  25.8276671  78.3547875  94.3284721  22.5458285  73.5363427
  93.4035218  22.4134499  73.7441119  94.5769134  23.3252504  74.0333369
 104.2769383  18.6127028  75.1824160 103.3686261  18.5442436  74.8882921
 104.2256979  19.0898973  76.0105985  98.0986127  20.0885166  66.8207559
  97.9785753  20.5342217  67.6593039  97.4038716  20.4370484  66.2621097
  91.6893532  22.1891558  74.3707216  91.8185913  22.4426037  75.2846628
  91.0090983  22.7819266  74.0511871  95.8593019  32.8588808  70.4697690
  95.7817049  33.8096633  70.5486171  95.2554663  32.5134681  71.1272616
  98.3510249  20.0316674  83.1259057  97.5743583  20.5910594  83.1161922
  98.9900812  20.5173457  83.6473927 106.1431030  16.8143466  76.9602034
 105.5005410  17.1075999  76.3141828 105.6385958  16.6996387  77.7655230
 103.7971194  20.5606640  67.6487893 104.7089050  20.7934026  67.4735591
 103.2880841  21.1443684  67.0862972  96.6056622  22.8402127  82.6877024
  97.3471306  23.3787171  82.4111848  95.8993607  23.4668416  82.8448576
 102.0811961  24.9831267  81.2849186 102.4895317  24.5413678  80.5403818
 101.3589223  24.4083895  81.5383378  98.4343031  19.9203874  78.6582742
  99.2804226  20.3443288  78.8017391  98.3741669  19.2637498  79.3521306
 102.4040776  25.5432458  75.0401474 101.7749638  25.7078172  74.3377542
 102.0166438  25.9574068  75.8112438 106.2830008  26.4786896  72.3945838
 105.5981046  26.8585797  71.8442872 106.3673857  27.0882222  73.1277786
 101.5842477  17.5808242  80.3163916 101.3403408  18.3350303  79.7798192
 101.8602407  17.9593590  81.1511163 103.5380939  24.1246855  78.9941182
 103.7497835  24.7678615  78.3175563 103.4910688  23.2909171  78.5263112
 101.1407168  16.7364675  75.8977754 100.2791647  17.0345929  76.1894491
 101.1669603  16.9535074  74.9658786  97.9568738  25.2806866  72.3051560
  98.4207083  25.5594569  71.5156182  97.6925536  24.3790311  72.1224650
  94.8492819  24.8278348  75.2431323  95.4194176  25.2565616  74.6048807
  95.4400931  24.5460932  75.9415508  96.8937624  21.4030018  69.1141125
  97.5961667  21.8551062  69.5815051  96.5618252  20.7613837  69.7421018
  95.3417985  19.9941775  83.4892334  94.7116646  20.6758056  83.7227731
  95.2354073  19.8824857  82.5445472  90.6362958  19.6613571  74.4158258
  89.8462012  19.9171100  73.9398369  91.1274205  20.4761909  74.5210299
 104.6526767  27.0018810  77.1663539 105.4744211  26.5998998  76.8846221
 104.6489170  26.8987044  78.1179655  92.5877703  20.0258150  71.3741735
  91.7908866  20.1376845  71.8925231  92.3603295  20.3644803  70.5082625
  98.4183371  26.5502854  79.3224250  98.4827803  27.0123261  80.1582421
  97.7094295  25.9200218  79.4506559  88.9200661  19.9144062  76.8473249
  89.1708699  20.7991071  77.1130825  89.4560209  19.7348663  76.0748341
 112.7432760  23.3457559  73.5148511 111.9896469  22.7764957  73.3592515
 112.8780302  23.3120223  74.4619145  98.1331388  28.2170961  69.1903230
  97.9977063  29.0622497  69.6188078  98.6741201  28.4190239  68.4269164
  94.6198728  14.2962541  85.8517585  94.2265674  13.7428739  86.5265229
  95.4364868  14.6073119  86.2424103  91.5860786  25.7346399  69.7631155
  92.0985306  26.5289649  69.9136720  92.2383499  25.0372690  69.6964756
  93.3955670  28.8512155  71.8453908  93.5722299  29.7730120  71.6574892
  94.1912504  28.5370575  72.2748288  97.5366689  15.7120420  83.4437842
  98.2776402  16.3127573  83.3642304  97.7684612  14.9698058  82.8855884
  92.6808027  20.8976787  81.7216071  92.5661542  19.9962044  82.0223170
  91.8252545  21.1440484  81.3700888  99.7599865  28.8394528  83.3203572
  99.3163719  28.0530906  83.0024476 100.4217078  29.0273678  82.6547463
  94.5186986  30.3690329  77.8464250  95.0694411  30.2407393  77.0741244
  93.6798462  30.6685218  77.4959143 101.8581103  29.1197327  81.3484973
 101.8399578  29.9406209  80.8565242 102.7801023  28.9951403  81.5735114
  98.3154157  26.6341457  82.1908482  98.8482494  25.8729745  81.9607790
  97.7868238  26.3415109  82.9332636 101.4823852  11.7401523  77.7202123
 101.1388121  12.6303165  77.6441234 101.8502815  11.5503181  76.8571708
  89.5509703  24.0635053  70.5390726  90.3884925  24.4732062  70.3224433
  89.7287970  23.1234496  70.5090919 101.4474135  21.7310134  66.2274558
 100.9320758  22.5014739  66.4662946 101.1751443  21.0575270  66.8507620
  99.0321246  16.5759835  71.2859797  98.1762842  16.1866685  71.1065436
  99.4448197  16.6551796  70.4259582 100.5620392  14.1106178  75.6851357
 100.0585188  14.0736313  74.8719162 100.8550999  15.0198921  75.7448013
  96.8063278  14.1944908  74.6917538  97.6716275  13.9987716  74.3323428
  96.8740787  13.9655260  75.6186895 106.4208409  24.4842489  68.1627732
 105.6437852  24.1453648  67.7182894 107.0999890  24.4895112  67.4882697
 101.2360438  19.6037226  68.0534340 100.9310573  19.9183375  68.9044483
 102.1890880  19.6818646  68.0961673  99.6806870  25.7627449  69.7027294
  99.1528231  25.0280209  69.3900531  99.1794372  26.5402126  69.4567262
 104.6599716  23.9576470  74.8194340 104.0023390  24.6475731  74.9074469
 105.4640115  24.3472902  75.1628326  94.4125597  16.4247116  72.0633905
  94.9869349  16.2022297  71.3307098  94.9996580  16.4935810  72.8162506
 103.4705174  22.3120843  72.8698282 103.9837056  22.9450834  73.3719991
 104.1206398  21.7122038  72.5041642  94.7395184  18.4551577  66.0829790
  93.9032497  18.7926263  66.4039065  94.5999954  18.3200557  65.1456927
  96.7148265  13.2988365  70.7908975  96.0612677  12.9837382  70.1665589
  96.6728739  12.6764105  71.5168798  97.8259470  23.5807660  62.7062267
  96.9186532  23.3496913  62.9053416  98.3230502  22.7845279  62.8936248
 100.7327549  32.2905167  65.6258953 100.0589247  32.5936864  66.2343911
 101.1193371  33.0934247  65.2764410  99.9486005  19.7870298  75.1156622
  99.0308567  20.0085245  74.9578310 100.3646149  19.8616609  74.2568330
 100.7321053  21.1861714  70.2459302 101.4792872  21.6983111  69.9366425
 101.0012643  20.8645767  71.1063696  99.0047703  23.6820255  67.2286257
  98.0958923  23.3979287  67.3258726  99.0342787  24.1019333  66.3689564
 104.2366971  27.2926844  70.9977424 103.7829298  26.4517754  71.0542615
 103.6060937  27.9288242  71.3352204 103.1799890  18.2218830  72.2278092
 102.4422647  17.7096216  72.5588334 103.4326664  17.7819212  71.4161369
 102.6799910  29.1303341  71.9327242 102.9722884  29.6908398  71.2139608
 103.1898531  29.4231902  72.6880402  89.5735874  21.4025769  71.2101459
  89.3760273  20.8095129  70.4852526  89.0182538  21.0977979  71.9277398
  97.5532597  21.2948875  73.3296052  97.6081207  20.3422712  73.2538529
  96.7423799  21.4508314  73.8137351  98.7023791  25.2228998  64.5674335
  98.2643221  24.5064857  64.1079973  99.4434232  25.4505113  64.0059427
  95.4924957  19.9125935  71.0886431  94.6792823  20.2120105  71.4951623
  95.9883951  19.5181624  71.8060913  97.6433535  29.9083692  73.0220696
  97.6009714  30.1344538  72.0929228  98.5596234  29.6747066  73.1706497
 101.0899169  20.3767759  79.9201325 101.4448557  20.6039233  80.7795791
 101.7371300  20.7086136  79.2978580 106.8196906  23.4986195  70.6250654
 106.6814804  23.6887791  69.6971843 106.4633125  24.2605578  71.0818705
  94.9839032  17.4844290  76.7047666  95.6238411  17.3433050  76.0070629
  94.1516563  17.1978804  76.3286268 106.8466285  25.5662722  75.6361925
 107.2802792  25.4738011  76.4844979 107.5597866  25.5420223  74.9981941
  95.7599336  26.7846721  72.8182658  96.5539934  26.2897041  72.6165233
  95.0491028  26.2564584  72.4550364 100.5794180  29.1664816  77.1695026
 100.6331203  29.7355753  77.9372742  99.7108962  29.3366701  76.8049063
  92.0682099  20.9289803  68.8942411  91.1379687  20.8674258  69.1112373
  92.1639571  20.4065755  68.0979052  91.9867648  17.4544615  71.4820653
  92.2474466  18.3689949  71.3729813  92.8084821  16.9869058  71.6317266
  93.4592574  18.8682373  78.6519477  94.1315627  18.6599735  78.0032126
  92.6322360  18.6704459  78.2124710 107.7081835  25.6086423  78.1694811
 107.9017725  26.5132233  78.4154086 107.6082453  25.1493842  79.0033396
  99.3618146  15.4944314  80.6685138  98.7146061  16.1934263  80.5749615
 100.1319161  15.9280457  81.0361386 102.7696944  25.7593166  83.7435691
 102.6182450  25.5303717  82.8265775 102.7601623  26.7163767  83.7567036
  99.5382280  23.3325078  78.7281958 100.4674340  23.4836238  78.5550925
  99.1173310  23.4209099  77.8730604  98.3370612  27.3575743  76.4980495
  98.1981698  26.9894527  77.3706434  97.5485208  27.8723382  76.3264453
  98.9318764  32.4584839  67.8406032  99.1070520  31.9872883  68.6551655
  98.2451552  33.0850606  68.0687293  99.8875827  26.7357346  73.8869333
  99.5525660  26.6958116  74.7826983  99.3879773  26.0702061  73.4139743
  93.8620071  22.1424976  79.4121914  93.7239869  21.4105214  80.0133453
  94.7724994  22.0533876  79.1306102 102.8235019  24.0813380  64.1606393
 102.2064189  23.3560208  64.0639446 102.3551507  24.8422740  63.8173467
  96.4902372  21.8544935  78.9005594  97.2001990  21.2138127  78.8592212
  96.4471680  22.1057830  79.8231775 104.4789150  28.7912288  81.8212173
 104.4201697  28.1071508  81.1542756 104.8808669  29.5331278  81.3692799
  95.2031306  18.8410153  80.7201234  94.6668663  18.3900891  81.3722830
  94.6148014  18.9756062  79.9771698  93.4979849  35.6074202  74.6145892
  93.7376447  36.2392726  75.2924911  92.6549046  35.2562242  74.9011251
  94.6133565  18.2998804  63.2827697  93.7363031  18.1787605  62.9189944
  95.0891318  17.5084883  63.0306586 104.4806558  26.7551872  80.0526153
 103.5933336  26.4177794  80.1752552 105.0505109  26.0234903  80.2894918
  86.1335705  23.0875964  73.3769204  86.8206745  22.7737694  72.7890220
  85.9783833  23.9917329  73.1036456  90.9370427  17.9766160  77.8054228
  90.8528616  17.3691830  77.0704638  90.1153133  18.4675179  77.8063724
  98.0107711  31.4153325  77.0187396  97.9377883  32.2208296  77.5306701
  97.5685104  31.6145290  76.1935418  97.7997491  30.6525095  70.5290218
  97.0165013  31.1946775  70.6228442  98.4990236  31.1699074  70.9284459
 101.1094141  16.4619724  73.1724423 101.6062840  15.7089686  72.8525493
 100.3381122  16.4984041  72.6067632 108.9623898  22.1660090  74.8142715
 108.9513774  23.0484805  74.4436648 108.0941278  21.8131640  74.6197252
 100.4706395  31.3140159  79.1745555 101.1834367  31.9487623  79.1021456
  99.9796423  31.4104025  78.3585557 102.1923921  25.2191411  70.7462846
 101.2580200  25.3392874  70.5767551 102.3700590  24.3163878  70.4822856
  97.6929110  18.6037107  72.8996108  97.3226897  18.0508147  73.5877013
  98.1888202  17.9995240  72.3471108 105.5796473  21.0608731  71.2812881
 106.0456925  21.8936722  71.2073183 106.0303973  20.5953712  71.9858139
  95.5218308  29.0634602  79.9951126  96.2227768  29.6971085  80.1480520
  95.0513423  29.4049334  79.2346765 103.6472704  27.4052552  68.2799033
 103.9232548  27.2909146  69.1892907 102.7777203  27.0070037  68.2411206
 103.5513136  13.4289318  75.3203782 102.6376215  13.6593544  75.4885989
 103.9806237  13.5127762  76.1717814 103.3219594  21.6179209  77.8203676
 102.6691044  21.8655117  77.1656129 103.6999974  20.8043348  77.4866153
 100.2826768  31.6538903  71.9231846 100.4649162  30.8360559  72.3859599
 101.1059754  31.8706595  71.4856736 100.6168933  30.5807088  69.1846895
 101.1456700  30.0699542  68.5717057 100.8797153  30.2649618  70.0492428
  99.3707167  22.3599021  84.3069713  98.6947804  22.2593150  84.9772088
 100.1934801  22.2038234  84.7705710  91.1186026  28.5970957  76.9282228
  91.7039463  27.8514645  77.0610133  90.9210865  28.9074914  77.8118892
  93.9724681  31.6322204  71.9444671  93.3035057  32.1168332  71.4608711
  93.8337551  31.8791425  72.8588049  85.7103681  21.1676557  75.6486671
  85.7487780  20.6340148  76.4423790  85.2043974  20.6411763  75.0297649
  98.1129950  33.6665948  78.5427329  98.6648258  33.8297569  79.3076414
  98.4536143  34.2570386  77.8707354  93.0894443  16.0141098  79.1449214
  93.1535770  16.8755929  78.7326611  93.0261563  15.4015099  78.4121572
  92.5646716  18.0864230  82.7922248  93.1918755  17.7041308  83.4059772
  91.7074635  17.8678432  83.1577941 102.9640824  28.4927206  84.3975983
 103.5080728  29.1057164  83.9030938 102.3827669  29.0506784  84.9142996
  89.3412258  19.8940659  68.7240603  89.6365700  18.9851338  68.6707657
  88.4400294  19.8728399  68.4021605 101.2498337  31.6147924  75.5291011
 101.1249477  30.8137663  75.0201957 101.9077428  32.1094117  75.0404981
  92.8706505  17.9696656  74.7068151  92.1493091  18.5832624  74.5675625
  93.6599761  18.5054421  74.6284797 103.3133246  29.4156944  77.1570561
 102.3663581  29.2962295  77.0848888 103.6616019  28.5279442  77.2396823
  95.6732819  15.3051083  80.9808803  96.1967221  15.5513379  81.7435113
  95.4545152  16.1371117  80.5611941  91.0700100  17.5754757  68.8479928
  90.7412806  16.6952136  68.6655034  91.4239471  17.5202426  69.7356317
 100.3179679  29.2109660  73.3574914 100.1704641  28.2826367  73.5382484
 101.1433172  29.2329751  72.8731989  94.1841923  17.8627727  69.2155406
  94.5237996  18.3913648  68.4934014  94.6314044  18.2008133  69.9913972
 103.9213801  30.0338219  74.4439786 104.8460348  29.8281080  74.3064237
 103.7529104  29.7854620  75.3529128  96.8785364  16.2464778  78.6658474
  96.5382184  15.4472591  79.0679154  96.1724370  16.5466488  78.0935307
  97.5301836  13.3314090  77.1185797  98.3527905  12.8574568  76.9964687
  97.7739899  14.1104574  77.6184483  96.1710070  16.3602348  67.4148698
  96.8918433  16.7383601  66.9112415  95.5475374  17.0791225  67.5183676
 100.3141193  17.0647497  68.3507031 100.5304808  17.9472135  68.0495859
  99.8335260  16.6733711  67.6212673  95.0540415  20.0233211  74.9277775
  94.9084995  20.3373514  75.8202057  94.5765618  20.6418111  74.3748674
  96.9136797  17.0135759  74.9758665  96.8998366  16.1176852  74.6390963
  97.6309226  17.0206422  75.6096951  98.7662928  17.4473099  77.0211792
  98.5080706  18.3690170  77.0196123  98.2347969  17.0503533  77.7112256
 103.7109117  30.5523886  69.8001878 103.8845994  29.9870308  69.0475730
 104.2038008  31.3524781  69.6181368  89.5286077  22.5638555  77.8665437
  88.9839545  23.3398363  77.9985711  90.4065427  22.9109360  77.7084558
  96.3173693  15.8950139  70.2446235  96.4389605  14.9666785  70.4437123
  96.0275736  15.9088825  69.3324550  99.1864884  13.5805049  73.3812955
  99.2086581  13.6444382  72.4264934  99.6032943  12.7409558  73.5753461
 109.5648508  23.3160309  71.4192177 110.0079654  22.5667634  71.0211301
 108.6875018  23.3070445  71.0365909 104.6984289  29.8690650  66.8998776
 105.3935194  30.4897343  67.1186091 105.0407440  29.0186002  67.1751154
  90.3152099  21.6908451  80.7595593  89.5733835  21.8391087  81.3460224
  89.9944843  21.9516717  79.8962343 106.5975713  27.3190356  68.4286107
 107.1227037  27.6577629  67.7035427 106.5098065  26.3837371  68.2449241
  98.2595761  31.2324430  80.5575983  98.5682888  30.9873576  81.4298683
  99.0571243  31.4371068  80.0694854  98.2816373  33.3862339  72.7881360
  97.8421364  32.8938718  73.4814217  99.0324490  32.8435307  72.5473435
  90.7608712  29.5773880  72.7905988  91.5866732  29.2777652  72.4104632
  90.4102764  28.8081503  73.2395777  95.7290245  28.9300348  74.8603662
  95.1070255  28.2671053  74.5605890  96.3995112  28.9561480  74.1777309
  88.9617317  27.4960207  73.7494922  88.1249226  27.0682381  73.5678923
  88.9340963  27.6892650  74.6865713  95.8014773  17.4082136  84.4536168
  95.8502928  18.2844259  84.0713937  96.3437287  16.8659529  83.8807811
 106.2869619  27.9523260  83.7337305 105.4965162  27.9347398  83.1941804
 106.0502973  28.4911553  84.4886341 106.4067494  24.8015726  81.0470033
 106.4565499  24.6365733  81.9885556 106.2981417  23.9342985  80.6567914
  95.2903752  27.4804272  68.3362122  95.4391873  28.1639736  67.6828795
  96.0970196  27.4609362  68.8511578 103.6971256  20.7846654  82.3629340
 104.5981119  20.6453119  82.0713338 103.7719231  20.9501109  83.3027517
  98.0314061  18.1613509  81.2082526  97.1617371  18.4547075  80.9365115
  98.2673542  18.7453954  81.9289790 107.9085691  27.2212667  81.2912055
 107.6170499  27.5842648  82.1275516 107.2957822  26.5079676  81.1125387
 109.1081373  24.7865547  73.8114625 109.9428264  25.2255351  73.9752185
 109.2440502  24.3104200  72.9922871 106.1572879  22.3445282  79.7592113
 106.6327000  22.5372928  78.9510964 105.2338444  22.4004468  79.5135496
  93.0456385  23.5069449  69.3423191  92.8002427  22.6031779  69.5403401
  93.2152300  23.5086600  68.4002669 100.7353095  14.3793126  78.7247947
 101.2535039  15.1154153  78.3994435 100.3808228  14.6857119  79.5594706
  92.3152033  19.2397807  66.8409353  91.6221278  19.3142162  66.1849389
  92.0703785  18.4758150  67.3630869  98.7899158  29.9752402  65.8073870
  98.2173125  30.5942589  65.3544341  99.3631952  30.5251764  66.3413792
 104.8574548  19.2211042  77.9920418 105.8091971  19.3209140  78.0132642
 104.6877998  18.4289311  78.5018503 102.8788927  16.3066625  78.1779819
 102.2838859  16.5871638  77.4826308 102.5938624  16.7960526  78.9496560
 102.0096418  30.2589552  66.9382452 102.9427091  30.1935114  67.1415327
 101.9219631  31.0945819  66.4796985 104.6384434  29.5755423  63.8986399
 104.5598066  29.2415286  64.7922157 105.4594101  30.0677190  63.8977872
 107.3362626  22.4417162  77.1062718 107.3038946  21.5033163  77.2922402
 107.9463249  22.5201199  76.3728543  99.1745956  21.3113215  63.1489922
 100.1205061  21.1819423  63.2178340  98.7960201  20.5727877  63.6259350
 107.4857114  19.2328205  77.1521001 106.9696163  18.4486662  76.9650930
 108.3697063  18.9046922  77.3167521 105.1467841  12.9769221  73.1116814
 104.9492662  12.6684309  73.9960146 105.7567547  13.7030860  73.2414744
 113.1539175  23.5033169  76.2468755 113.8842564  23.2418457  76.8076458
 112.5446121  22.7661891  76.2870823 111.2354473  21.6441031  76.8443206
 110.5087636  21.5096996  76.2359698 110.8201759  21.9517860  77.6499924
  99.0584649  25.3630961  84.6090579  99.9787658  25.5409560  84.8030626
  99.0234232  24.4187006  84.4570278  97.3588874  19.2363191  63.0844807
  96.4520329  18.9396304  63.1607521  97.6364855  18.9393009  62.2179094
  88.2766814  20.5569555  73.5343854  87.9569598  19.7034863  73.2418228
  87.7300242  20.7718133  74.2901821  92.0546721  23.2731996  77.2513360
  92.2732731  24.2049103  77.2701394  92.4672495  22.9139970  78.0368164
  98.9750939  13.7800081  69.2389049  98.1651668  13.4347166  69.6144295
  99.6635356  13.4707625  69.8276660 100.9041488  12.8578128  70.8613345
 101.4572526  13.2773581  71.5203368 101.1411574  11.9313876  70.9036301
  96.9274587  18.8465201  86.6416109  96.8271314  19.7959558  86.5728200
  96.7096129  18.5183440  85.7692179  96.1287658  16.0950126  63.2256787
  96.9906822  16.4205025  63.4852604  96.3138002  15.3081622  62.7129852
  88.1455074  24.1772466  75.5036975  87.4518545  23.7626419  74.9906930
  88.8928065  24.2193003  74.9070394 104.2820295  14.9678653  70.3692010
 103.7018964  15.6263457  69.9870062 104.0156227  14.1455998  69.9579427
 102.7323861  14.3683711  72.5713330 103.2323639  14.4800245  71.7627649
 103.3759469  14.0644763  73.2114138  96.7905857  22.2762340  85.4581171
  96.3072939  23.0762700  85.6645060  96.8766796  22.2870285  84.5048615
  90.0591816  24.1090720  73.3802990  90.0362505  24.2078407  72.4284873
  90.3692453  24.9555871  73.7020156  92.7179194  26.1666875  77.4949605
  93.6722448  26.1350817  77.4279536  92.5191718  25.7057499  78.3099831
  93.3078576  24.7367991  80.0620402  94.1271465  25.2312070  80.0855240
  93.5815384  23.8199959  80.0337970 103.0645173  17.1278743  69.4248358
 102.1771028  17.4128394  69.2068553 103.4799162  16.9672507  68.5775635
 106.4159709  17.1525264  73.1402697 107.1920099  17.6421717  73.4127314
 105.6907843  17.5783318  73.5974567 108.8532267  17.8652883  74.1976638
 109.4476758  17.6248619  73.4869946 108.9258851  17.1460014  74.8250174
  91.0729423  31.7086494  74.5119802  90.9383891  30.9486895  73.9457801
  90.6561485  32.4327394  74.0448591 102.2088386  26.8923418  63.5196378
 102.9124236  27.0973420  64.1354033 101.4851035  27.4600180  63.7845461
 103.0386196  22.6433279  69.6398648 102.9821398  23.1001831  68.8006280
 103.5914539  21.8823964  69.4621491 106.8491002  18.4323011  70.4648767
 106.5927937  18.0319647  71.2956975 106.2243870  19.1466805  70.3398907
 111.1603340  21.1719084  72.9720059 110.6002898  21.2412274  73.7451621
 110.5546844  20.9960069  72.2519555  94.2298549  32.6055811  74.7238245
  94.1130933  33.5501244  74.6216935  93.4090995  32.3029373  75.1124044
 104.1175084  27.3305947  65.5694838 104.9520687  26.8987146  65.3872313
 103.9559426  27.1587961  66.4971732 103.7720976  23.8338060  66.9351177
 103.7169780  23.6682332  65.9939621 103.1467031  24.5414093  67.0913367
  88.5613491  19.0706125  80.7612599  89.2072354  18.5605079  81.2499825
  88.3530642  19.8074806  81.3356025 101.0866883  26.1386972  86.2604740
 101.9558043  26.3127625  85.8991375 100.6073634  26.9581389  86.1380469
  97.0817101  13.3346169  66.5136496  97.0695771  14.2788009  66.6704766
  97.9740523  13.1516315  66.2195957  95.2553063  33.2584073  77.9394174
  96.1580310  33.2907684  78.2560669  95.0290433  32.3284524  77.9540509
  97.0106665  32.0115060  74.6004252  96.0602296  32.0116921  74.4868624
  97.3139151  31.2647794  74.0840287  92.9010982  16.2173742  84.8587614
  93.7642443  15.8610547  85.0690938  92.3276392  15.8787637  85.5463018
 112.7459359  37.8475598  75.6650015 113.3837769  37.7282346  74.9613355
 112.6280202  38.7956442  75.7237967 109.5549065  37.8003026  75.6011539
 109.2167576  37.6844091  74.7132074 110.4238833  37.3994191  75.5812545
 105.4135881  39.6538503  71.5908430 104.8500746  39.5628440  70.8224718
 105.2988276  38.8338407  72.0710923 110.0368848  38.9537878  81.5597745
 110.0257489  38.5590676  80.6878248 110.1989487  38.2203951  82.1531516
 102.9600313  41.1489694  74.4292651 103.7521604  40.8080519  74.0138950
 103.1996963  41.2584669  75.3494804 110.9935439  43.3209470  66.9022895
 110.3423419  43.9063551  66.5156909 111.7879802  43.8515665  66.9617933
 104.9191066  40.4098608  67.3010029 105.6921942  39.8627595  67.1622905
 105.2716465  41.2742857  67.5124491 106.7576109  41.7374990  80.5076929
 106.4665975  42.6420621  80.3923595 107.3933093  41.7791518  81.2220998
 107.6832316  39.1151838  77.0978288 108.2795888  38.8907861  76.3835251
 107.7407287  38.3736584  77.7003736 107.2557344  36.5691274  64.9328479
 107.5082865  36.0472795  64.1711942 106.3181903  36.4057419  65.0355163
 112.3000627  35.5727052  72.7403223 113.0863716  35.1546475  72.3893640
 112.5639331  36.4773144  72.9084871 112.4710704  41.0099902  67.4391879
 111.8356537  41.0834529  68.1512784 112.1408111  41.5993501  66.7610959
 117.7009054  35.5102285  73.6436201 118.4334226  34.9401502  73.8774031
 116.9448410  35.1223886  74.0842707 106.9753633  38.4719380  67.1352854
 106.8589891  37.7964283  67.8033939 107.0855893  37.9851754  66.3185007
 109.3185174  37.9329527  70.8399544 108.9543381  37.4060148  71.5512465
 110.1752290  37.5427996  70.6666029 115.2234475  29.2223859  78.1030810
 114.8917799  30.0919270  77.8792025 114.6280088  28.9060143  78.7824840
 108.9590661  32.9619427  65.8360892 109.1265063  33.8299663  66.2031363
 108.7687830  33.1246708  64.9122181 111.7165994  41.4236405  77.5026722
 111.4166717  42.3261444  77.3942530 111.3717054  41.1568589  78.3547875
 105.1678476  37.8750202  73.5363427 104.2428972  37.7426416  73.7441119
 105.4162889  38.6544422  74.0333369 115.1163138  33.9418946  75.1824160
 114.2080015  33.8734354  74.8882921 115.0650734  34.4190891  76.0105985
 108.9379882  35.4177084  66.8207559 108.8179507  35.8634135  67.6593039
 108.2432470  35.7662402  66.2621097 102.5287287  37.5183476  74.3707216
 102.6579668  37.7717955  75.2846628 101.8484738  38.1111184  74.0511871
 106.6986774  48.1880726  70.4697690 106.6210804  49.1388551  70.5486171
 106.0948418  47.8426598  71.1272616 109.1904004  35.3608591  83.1259057
 108.4137338  35.9202511  83.1161922 109.8294567  35.8465374  83.6473927
 116.9824784  32.1435384  76.9602034 116.3399165  32.4367917  76.3141828
 116.4779713  32.0288304  77.7655230 114.6364948  35.8898557  67.6487893
 115.5482804  36.1225944  67.4735591 114.1274595  36.4735601  67.0862972
 107.4450376  38.1694045  82.6877024 108.1865060  38.7079089  82.4111848
 106.7387361  38.7960333  82.8448576 112.9205716  40.3123185  81.2849186
 113.3289072  39.8705596  80.5403818 112.1982977  39.7375813  81.5383378
 109.2736786  35.2495792  78.6582742 110.1197981  35.6735205  78.8017391
 109.2135423  34.5929416  79.3521306 113.2434530  40.8724376  75.0401474
 112.6143393  41.0370090  74.3377542 112.8560192  41.2865985  75.8112438
 117.1223762  41.8078814  72.3945838 116.4374800  42.1877715  71.8442872
 117.2067612  42.4174140  73.1277786 112.4236231  32.9100160  80.3163916
 112.1797163  33.6642221  79.7798192 112.6996162  33.2885508  81.1511163
 114.3774694  39.4538773  78.9941182 114.5891589  40.0970532  78.3175563
 114.3304442  38.6201089  78.5263112 111.9800923  32.0656593  75.8977754
 111.1185402  32.3637847  76.1894491 112.0063357  32.2826992  74.9658786
 108.7962492  40.6098784  72.3051560 109.2600838  40.8886487  71.5156182
 108.5319290  39.7082228  72.1224650 105.6886573  40.1570265  75.2431323
 106.2587930  40.5857534  74.6048807 106.2794685  39.8752850  75.9415508
 107.7331378  36.7321936  69.1141125 108.4355422  37.1842980  69.5815051
 107.4012007  36.0905755  69.7421018 106.1811740  35.3233693  83.4892334
 105.5510400  36.0049974  83.7227731 106.0747828  35.2116774  82.5445472
 101.4756712  34.9905489  74.4158258 100.6855766  35.2463017  73.9398369
 101.9667960  35.8053827  74.5210299 115.4920522  42.3310728  77.1663539
 116.3137965  41.9290915  76.8846221 115.4882925  42.2278962  78.1179655
 103.4271458  35.3550068  71.3741735 102.6302621  35.4668762  71.8925231
 103.1997050  35.6936720  70.5082625 109.2577125  41.8794771  79.3224250
 109.3221558  42.3415178  80.1582421 108.5488049  41.2492136  79.4506559
  99.7594415  35.2435979  76.8473249 100.0102454  36.1282989  77.1130825
 100.2953964  35.0640581  76.0748341 108.9725143  43.5462879  69.1903230
 108.8370818  44.3914414  69.6188078 109.5134955  43.7482156  68.4269164
 105.4592482  29.6254459  85.8517585 105.0659428  29.0720657  86.5265229
 106.2758623  29.9365037  86.2424103 102.4254540  41.0638317  69.7631155
 102.9379061  41.8581567  69.9136720 103.0777253  40.3664607  69.6964756
 104.2349425  44.1804073  71.8453908 104.4116053  45.1022038  71.6574892
 105.0306258  43.8662492  72.2748288 108.3760443  31.0412338  83.4437842
 109.1170157  31.6419491  83.3642304 108.6078366  30.2989975  82.8855884
 103.5201781  36.2268705  81.7216071 103.4055297  35.3253962  82.0223170
 102.6646299  36.4732402  81.3700888 110.5993619  44.1686445  83.3203572
 110.1557473  43.3822824  83.0024476 111.2610833  44.3565596  82.6547463
 105.3580740  45.6982247  77.8464250 105.9088166  45.5699310  77.0741244
 104.5192216  45.9977136  77.4959143 112.6974857  44.4489245  81.3484973
 112.6793333  45.2698126  80.8565242 113.6194777  44.3243320  81.5735114
 109.1547911  41.9633375  82.1908482 109.6876248  41.2021663  81.9607790
 108.6261993  41.6707026  82.9332636 112.3217606  27.0693441  77.7202123
 111.9781876  27.9595082  77.6441234 112.6896569  26.8795098  76.8571708
 100.3903457  39.3926971  70.5390726 101.2278679  39.8023979  70.3224433
 100.5681725  38.4526413  70.5090919 112.2867889  37.0602052  66.2274558
 111.7714513  37.8306656  66.4662946 112.0145198  36.3867188  66.8507620
 109.8715000  31.9051752  71.2859797 109.0156597  31.5158603  71.1065436
 110.2841952  31.9843713  70.4259582 111.4014147  29.4398096  75.6851357
 110.8978942  29.4028231  74.8719162 111.6944754  30.3490838  75.7448013
 107.6457033  29.5236825  74.6917538 108.5110029  29.3279634  74.3323428
 107.7134542  29.2947177  75.6186895 117.2602163  39.8134406  68.1627732
 116.4831606  39.4745566  67.7182894 117.9393644  39.8187030  67.4882697
 112.0754192  34.9329144  68.0534340 111.7704328  35.2475293  68.9044483
 113.0284634  35.0110564  68.0961673 110.5200624  41.0919367  69.7027294
 109.9921986  40.3572127  69.3900531 110.0188127  41.8694043  69.4567262
 115.4993470  39.2868388  74.8194340 114.8417145  39.9767649  74.9074469
 116.3033869  39.6764820  75.1628326 105.2519352  31.7539033  72.0633905
 105.8263104  31.5314215  71.3307098 105.8390334  31.8227728  72.8162506
 114.3098929  37.6412760  72.8698282 114.8230811  38.2742752  73.3719991
 114.9600153  37.0413956  72.5041642 105.5788939  33.7843494  66.0829790
 104.7426251  34.1218181  66.4039065 105.4393709  33.6492474  65.1456927
 107.5542019  28.6280282  70.7908975 106.9006432  28.3129299  70.1665589
 107.5122494  28.0056023  71.5168798 108.6653224  38.9099577  62.7062267
 107.7580286  38.6788831  62.9053416 109.1624256  38.1137197  62.8936248
 111.5721303  47.6197085  65.6258953 110.8983002  47.9228781  66.2343911
 111.9587125  48.4226165  65.2764410 110.7879760  35.1162216  75.1156622
 109.8702321  35.3377163  74.9578310 111.2039903  35.1908526  74.2568330
 111.5714808  36.5153632  70.2459302 112.3186627  37.0275029  69.9366425
 111.8406397  36.1937684  71.1063696 109.8441458  39.0112172  67.2286257
 108.9352677  38.7271205  67.3258726 109.8736542  39.4311251  66.3689564
 115.0760725  42.6218762  70.9977424 114.6223052  41.7809672  71.0542615
 114.4454692  43.2580160  71.3352204 114.0193645  33.5510748  72.2278092
 113.2816402  33.0388134  72.5588334 114.2720418  33.1111129  71.4161369
 113.5193664  44.4595258  71.9327242 113.8116639  45.0200316  71.2139608
 114.0292285  44.7523819  72.6880402 114.1205272  26.3287000  72.8219861
 114.4264149  25.4684363  72.5345776 114.8457877  26.9204620  72.6218855
 100.4129628  36.7317686  71.2101459 100.2154028  36.1387047  70.4852526
  99.8576292  36.4269897  71.9277398 108.3926352  36.6240793  73.3296052
 108.4474962  35.6714629  73.2538529 107.5817554  36.7800232  73.8137351
 109.5417546  40.5520916  64.5674335 109.1036976  39.8356775  64.1079973
 110.2827986  40.7797031  64.0059427 106.3318712  35.2417853  71.0886431
 105.5186577  35.5412023  71.4951623 106.8277706  34.8473541  71.8060913
 108.4827290  45.2375610  73.0220696 108.4403468  45.4636456  72.0929228
 109.3989988  45.0038984  73.1706497 111.9292923  35.7059677  79.9201325
 112.2842311  35.9331150  80.7795791 112.5765055  36.0378054  79.2978580
 117.6590660  38.8278113  70.6250654 117.5208559  39.0179709  69.6971843
 117.3026879  39.5897496  71.0818705 105.8232787  32.8136208  76.7047666
 106.4632166  32.6724967  76.0070629 104.9910317  32.5270722  76.3286268
 117.6860040  40.8954640  75.6361925 118.1196547  40.8029929  76.4844979
 118.3991621  40.8712140  74.9981941 106.5993090  42.1138639  72.8182658
 107.3933689  41.6188959  72.6165233 105.8884783  41.5856502  72.4550364
 111.4187935  44.4956734  77.1695026 111.4724957  45.0647670  77.9372742
 110.5502716  44.6658619  76.8049063 102.9075854  36.2581720  68.8942411
 101.9773442  36.1966176  69.1112373 103.0033326  35.7357673  68.0979052
 102.8261403  32.7836533  71.4820653 103.0868220  33.6981866  71.3729813
 103.6478575  32.3160976  71.6317266 104.2986328  34.1974290  78.6519477
 104.9709382  33.9891652  78.0032126 103.4716115  33.9996376  78.2124710
 118.5475590  40.9378341  78.1694811 118.7411480  41.8424151  78.4154086
 118.4476208  40.4785760  79.0033396 110.2011900  30.8236231  80.6685138
 109.5539815  31.5226181  80.5749615 110.9712916  31.2572375  81.0361386
 113.6090698  41.0885083  83.7435691 113.4576205  40.8595635  82.8265775
 113.5995378  42.0455685  83.7567036 110.3776035  38.6616996  78.7281958
 111.3068095  38.8128156  78.5550925 109.9567065  38.7501017  77.8730604
 109.1764366  42.6867661  76.4980495 109.0375452  42.3186445  77.3706434
 108.3878963  43.2015300  76.3264453 109.7712518  47.7876757  67.8406032
 109.9464274  47.3164800  68.6551655 109.0845306  48.4142523  68.0687293
 110.7269582  42.0649263  73.8869333 110.3919414  42.0250033  74.7826983
 110.2273527  41.3993979  73.4139743 104.7013826  37.4716893  79.4121914
 104.5633623  36.7397132  80.0133453 105.6118749  37.3825793  79.1306102
 113.6628773  39.4105298  64.1606393 113.0457944  38.6852126  64.0639446
 113.1945262  40.1714658  63.8173467 107.3296126  37.1836853  78.9005594
 108.0395745  36.5430045  78.8592212 107.2865434  37.4349747  79.8231775
 115.3182905  44.1204206  81.8212173 115.2595451  43.4363426  81.1542756
 115.7202423  44.8623196  81.3692799 106.0425060  34.1702070  80.7201234
 105.5062417  33.7192809  81.3722830 105.4541769  34.3047979  79.9771698
 104.3373604  50.9366120  74.6145892 104.5770202  51.5684644  75.2924911
 103.4942800  50.5854160  74.9011251 105.4527319  33.6290722  63.2827697
 104.5756785  33.5079523  62.9189944 105.9285072  32.8376800  63.0306586
 115.3200312  42.0843790  80.0526153 114.4327091  41.7469712  80.1752552
 115.8898863  41.3526821  80.2894918  96.9729459  38.4167882  73.3769204
  97.6600499  38.1029612  72.7890220  96.8177588  39.3209246  73.1036456
 101.7764181  33.3058078  77.8054228 101.6922370  32.6983748  77.0704638
 100.9546888  33.7967096  77.8063724 108.8501466  46.7445242  77.0187396
 108.7771637  47.5500214  77.5306701 108.4078859  46.9437208  76.1935418
 108.6391245  45.9817012  70.5290218 107.8558767  46.5238692  70.6228442
 109.3383990  46.4990992  70.9284459 111.9487895  31.7911642  73.1724423
 112.4456595  31.0381604  72.8525493 111.1774877  31.8275958  72.6067632
 119.8017653  37.4952007  74.8142715 119.7907529  38.3776723  74.4436648
 118.9335032  37.1423558  74.6197252 111.3100149  46.6432076  79.1745555
 112.0228121  47.2779541  79.1021456 110.8190178  46.7395942  78.3585557
 113.0317676  40.5483329  70.7462846 112.0973955  40.6684791  70.5767551
 113.2094344  39.6455796  70.4822856 108.5322864  33.9329025  72.8996108
 108.1620652  33.3800065  73.5877013 109.0281956  33.3287158  72.3471108
 116.4190227  36.3900648  71.2812881 116.8850680  37.2228640  71.2073183
 116.8697728  35.9245630  71.9858139 106.3612063  44.3926520  79.9951126
 107.0621522  45.0263003  80.1480520 105.8907178  44.7341251  79.2346765
 114.4866458  42.7344469  68.2799033 114.7626302  42.6201064  69.1892907
 113.6170957  42.3361954  68.2411206 114.3906890  28.7581235  75.3203782
 113.4769970  28.9885462  75.4885989 114.8199992  28.8419679  76.1717814
 114.1613349  36.9471127  77.8203676 113.5084799  37.1947035  77.1656129
 114.5393728  36.1335265  77.4866153 111.1220522  46.9830820  71.9231846
 111.3042917  46.1652476  72.3859599 111.9453508  47.1998513  71.4856736
 111.4562688  45.9099005  69.1846895 111.9850454  45.3991460  68.5717057
 111.7190908  45.5941536  70.0492428 110.2100922  37.6890938  84.3069713
 109.5341559  37.5885068  84.9772088 111.0328555  37.5330152  84.7705710
 101.9579781  43.9262875  76.9282228 102.5433217  43.1806563  77.0610133
 101.7604619  44.2366831  77.8118892 104.8118436  46.9614122  71.9444671
 104.1428811  47.4460250  71.4608711 104.6731306  47.2083343  72.8588049
  96.5497435  36.4968475  75.6486671  96.5881535  35.9632066  76.4423790
  96.0437728  35.9703680  75.0297649 108.9523704  48.9957866  78.5427329
 109.5042012  49.1589487  79.3076414 109.2929898  49.5862303  77.8707354
 103.9288198  31.3433015  79.1449214 103.9929524  32.2047846  78.7326611
 103.8655318  30.7307017  78.4121572 103.4040470  33.4156148  82.7922248
 104.0312509  33.0333225  83.4059772 102.5468389  33.1970350  83.1577941
 113.8034579  43.8219123  84.3975983 114.3474483  44.4349081  83.9030938
 113.2221424  44.3798702  84.9142996 100.1806013  35.2232577  68.7240603
 100.4759454  34.3143256  68.6707657  99.2794049  35.2020317  68.4021605
 112.0892092  46.9439841  75.5291011 111.9643231  46.1429581  75.0201957
 112.7471183  47.4386035  75.0404981 103.7100260  33.2988574  74.7068151
 102.9886846  33.9124541  74.5675625 104.4993516  33.8346339  74.6284797
 114.1527000  44.7448861  77.1570561 113.2057336  44.6254212  77.0848888
 114.5009773  43.8571359  77.2396823 106.5126573  30.6343000  80.9808803
 107.0360975  30.8805297  81.7435113 106.2938907  31.4663035  80.5611941
 101.9093855  32.9046675  68.8479928 101.5806561  32.0244054  68.6655034
 102.2633225  32.8494343  69.7356317 111.1573433  44.5401577  73.3574914
 111.0098396  43.6118285  73.5382484 111.9826927  44.5621668  72.8731989
 105.0235678  33.1919645  69.2155406 105.3631750  33.7205566  68.4934014
 105.4707798  33.5300051  69.9913972 114.7607555  45.3630136  74.4439786
 115.6854103  45.1572998  74.3064237 114.5922859  45.1146537  75.3529128
 107.7179119  31.5756695  78.6658474 107.3775939  30.7764508  79.0679154
 107.0118125  31.8758406  78.0935307 108.3695590  28.6606008  77.1185797
 109.1921660  28.1866486  76.9964687 108.6133654  29.4396491  77.6184483
 107.0103825  31.6894266  67.4148698 107.7312187  32.0675519  66.9112415
 106.3869129  32.4083143  67.5183676 111.1534948  32.3939415  68.3507031
 111.3698562  33.2764053  68.0495859 110.6729015  32.0025629  67.6212673
 105.8934169  35.3525128  74.9277775 105.7478750  35.6665431  75.8202057
 105.4159373  35.9710029  74.3748674 107.7530552  32.3427676  74.9758665
 107.7392121  31.4468770  74.6390963 108.4702980  32.3498340  75.6096951
 109.6056683  32.7765017  77.0211792 109.3474461  33.6982087  77.0196123
 109.0741723  32.3795451  77.7112256 114.5502871  45.8815804  69.8001878
 114.7239749  45.3162226  69.0475730 115.0431763  46.6816699  69.6181368
 100.3679831  37.8930473  77.8665437  99.8233299  38.6690281  77.9985711
 101.2459181  38.2401277  77.7084558 107.1567448  31.2242057  70.2446235
 107.2783359  30.2958703  70.4437123 106.8669490  31.2380743  69.3324550
 110.0258638  28.9096967  73.3812955 110.0480335  28.9736300  72.4264934
 110.4426697  28.0701476  73.5753461 120.4042263  38.6452227  71.4192177
 120.8473409  37.8959552  71.0211301 119.5268773  38.6362363  71.0365909
 115.5378044  45.1982568  66.8998776 116.2328949  45.8189261  67.1186091
 115.8801194  44.3477919  67.1751154 101.1545853  37.0200369  80.7595593
 100.4127589  37.1683004  81.3460224 100.8338597  37.2808635  79.8962343
 117.4369467  42.6482274  68.4286107 117.9620791  42.9869546  67.7035427
 117.3491820  41.7129289  68.2449241 109.0989516  46.5616347  80.5575983
 109.4076642  46.3165494  81.4298683 109.8964998  46.7662986  80.0694854
 109.1210128  48.7154257  72.7881360 108.6815118  48.2230636  73.4814217
 109.8718245  48.1727225  72.5473435 101.6002467  44.9065798  72.7905988
 102.4260487  44.6069570  72.4104632 101.2496519  44.1373420  73.2395777
 106.5684000  44.2592266  74.8603662 105.9464009  43.5962971  74.5605890
 107.2388867  44.2853398  74.1777309  99.8011072  42.8252124  73.7494922
  98.9642980  42.3974299  73.5678923  99.7734717  43.0184568  74.6865713
 106.6408527  32.7374054  84.4536168 106.6896683  33.6136177  84.0713937
 107.1831042  32.1951447  83.8807811 117.1263373  43.2815177  83.7337305
 116.3358917  43.2639316  83.1941804 116.8896728  43.8203471  84.4886341
 117.2461248  40.1307644  81.0470033 117.2959253  39.9657651  81.9885556
 117.1375172  39.2634903  80.6567914 106.1297507  42.8096189  68.3362122
 106.2785627  43.4931654  67.6828795 106.9363950  42.7901279  68.8511578
 114.5365011  36.1138572  82.3629340 115.4374873  35.9745037  82.0713338
 114.6112985  36.2793026  83.3027517 108.8707816  33.4905426  81.2082526
 108.0011125  33.7838992  80.9365115 109.1067296  34.0745871  81.9289790
 118.7479445  42.5504585  81.2912055 118.4564253  42.9134566  82.1275516
 118.1351576  41.8371593  81.1125387 119.9475127  40.1157465  73.8114625
 120.7822019  40.5547269  73.9752185 120.0834256  39.6396118  72.9922871
 116.9966633  37.6737200  79.7592113 117.4720755  37.8664846  78.9510964
 116.0732199  37.7296386  79.5135496 103.8850140  38.8361367  69.3423191
 103.6396182  37.9323697  69.5403401 104.0546054  38.8378517  68.4002669
 111.5746850  29.7085043  78.7247947 112.0928794  30.4446070  78.3994435
 111.2201983  30.0149037  79.5594706 103.1545787  34.5689725  66.8409353
 102.4615032  34.6434080  66.1849389 102.9097539  33.8050068  67.3630869
 111.8259444  26.1285326  74.2448843 112.1061198  25.4608515  74.8709270
 112.6110051  26.3214421  73.7323507 109.6292912  45.3044320  65.8073870
 109.0566879  45.9234507  65.3544341 110.2025706  45.8543681  66.3413792
 115.6968302  34.5502960  77.9920418 116.6485725  34.6501058  78.0132642
 115.5271753  33.7581228  78.5018503 113.7182682  31.6358543  78.1779819
 113.1232614  31.9163556  77.4826308 113.4332378  32.1252444  78.9496560
 112.8490172  45.5881470  66.9382452 113.7820845  45.5227032  67.1415327
 112.7613385  46.4237737  66.4796985 115.4778189  44.9047340  63.8986399
 115.3991820  44.5707204  64.7922157 116.2987856  45.3969108  63.8977872
 118.1756380  37.7709080  77.1062718 118.1432700  36.8325080  77.2922402
 118.7857004  37.8493116  76.3728543 110.0139711  36.6405133  63.1489922
 110.9598816  36.5111341  63.2178340 109.6353956  35.9019794  63.6259350
 118.3250869  34.5620123  77.1521001 117.8089917  33.7778580  76.9650930
 119.2090817  34.2338840  77.3167521 115.9861595  28.3061139  73.1116814
 115.7886417  27.9976227  73.9960146 116.5961301  29.0322777  73.2414744
 109.8978403  40.6922879  84.6090579 110.8181413  40.8701478  84.8030626
 109.8627986  39.7478924  84.4570278 108.1982628  34.5655109  63.0844807
 107.2914083  34.2688222  63.1607521 108.4758609  34.2684927  62.2179094
  99.1160568  35.8861472  73.5343854  98.7963353  35.0326781  73.2418228
  98.5693997  36.1010050  74.2901821 102.8940476  38.6023913  77.2513360
 103.1126486  39.5341021  77.2701394 103.3066250  38.2431888  78.0368164
 109.8144694  29.1091999  69.2389049 109.0045422  28.7639084  69.6144295
 110.5029111  28.7999542  69.8276660 111.7435242  28.1870045  70.8613345
 112.2966281  28.6065499  71.5203368 111.9805328  27.2605794  70.9036301
 107.7668341  34.1757119  86.6416109 107.6665068  35.1251476  86.5728200
 107.5489883  33.8475358  85.7692179 106.9681413  31.4242044  63.2256787
 107.8300577  31.7496942  63.4852604 107.1531757  30.6373540  62.7129852
  98.9848828  39.5064384  75.5036975  98.2912300  39.0918337  74.9906930
  99.7321819  39.5484920  74.9070394 115.1214049  30.2970571  70.3692010
 114.5412718  30.9555375  69.9870062 114.8549982  29.4747915  69.9579427
 113.5717616  29.6975628  72.5713330 114.0717394  29.8092163  71.7627649
 114.2153223  29.3936681  73.2114138 107.6299611  37.6054258  85.4581171
 107.1466693  38.4054618  85.6645060 107.7160550  37.6162203  84.5048615
 100.8985571  39.4382638  73.3802990 100.8756259  39.5370325  72.4284873
 101.2086207  40.2847788  73.7020156 103.5572949  41.4958793  77.4949605
 104.5116202  41.4642735  77.4279536 103.3585472  41.0349416  78.3099831
 104.1472331  40.0659909  80.0620402 104.9665220  40.5603987  80.0855240
 104.4209139  39.1491877  80.0337970 113.9038927  32.4570661  69.4248358
 113.0164782  32.7420312  69.2068553 114.3192916  32.2964424  68.5775635
 117.2553463  32.4817182  73.1402697 118.0313853  32.9713634  73.4127314
 116.5301597  32.9075236  73.5974567 119.6926022  33.1944801  74.1976638
 120.2870513  32.9540537  73.4869946 119.7652606  32.4751932  74.8250174
 101.9123178  47.0378412  74.5119802 101.7777646  46.2778813  73.9457801
 101.4955240  47.7619312  74.0448591 113.0482141  42.2215336  63.5196378
 113.7517991  42.4265338  64.1354033 112.3244789  42.7892098  63.7845461
 113.8779951  37.9725197  69.6398648 113.8215152  38.4293748  68.8006280
 114.4308293  37.2115882  69.4621491 117.6884757  33.7614929  70.4648767
 117.4321691  33.3611564  71.2956975 117.0637625  34.4758723  70.3398907
 105.0692303  47.9347729  74.7238245 104.9524688  48.8793162  74.6216935
 104.2484750  47.6321291  75.1124044 114.9568838  42.6597865  65.5694838
 115.7914442  42.2279063  65.3872313 114.7953181  42.4879879  66.4971732
 114.6114730  39.1629978  66.9351177 114.5563534  38.9974250  65.9939621
 113.9860785  39.8706011  67.0913367  99.4007245  34.3998043  80.7612599
 100.0466109  33.8896997  81.2499825  99.1924396  35.1366724  81.3356025
 111.9260637  41.4678890  86.2604740 112.7951797  41.6419542  85.8991375
 111.4467389  42.2873307  86.1380469 107.9210856  28.6638087  66.5136496
 107.9089526  29.6079927  66.6704766 108.8134278  28.4808233  66.2195957
 106.0946818  48.5875991  77.9394174 106.9974064  48.6199601  78.2560669
 105.8684188  47.6576442  77.9540509 107.8500420  47.3406978  74.6004252
 106.8996051  47.3408839  74.4868624 108.1532906  46.5939712  74.0840287
 111.7362975  25.2580864  70.7682432 110.9695371  24.7039350  70.9139115
 112.1473680  25.3302733  71.6296584 103.7404736  31.5465660  84.8587614
 104.6036198  31.1902464  85.0690938 103.1670147  31.2079554  85.5463018
 120.3942819  53.1294944  75.6011539 120.0561331  53.0136009  74.7132074
 121.2632588  52.7286109  75.5812545 116.2529635  54.9830420  71.5908430
 115.6894500  54.8920357  70.8224718 116.1382030  54.1630325  72.0710923
 120.8762602  54.2829796  81.5597745 120.8651243  53.8882594  80.6878248
 121.0383242  53.5495868  82.1531516 113.7994067  56.4781612  74.4292651
 114.5915359  56.1372437  74.0138950 114.0390717  56.5876587  75.3494804
 115.7584821  55.7390525  67.3010029 116.5315697  55.1919512  67.1622905
 116.1110220  56.6034775  67.5124491 117.5969864  57.0666908  80.5076929
 117.3059730  57.9712538  80.3923595 118.2326848  57.1083435  81.2220998
 118.5226070  54.4443756  77.0978288 119.1189643  54.2199779  76.3835251
 118.5801042  53.7028502  77.7003736 118.0951099  51.8983191  64.9328479
 118.3476619  51.3764713  64.1711942 117.1575658  51.7349337  65.0355163
 117.8147388  53.8011297  67.1352854 117.6983646  53.1256201  67.8033939
 117.9249647  53.3143671  66.3185007 120.1578928  53.2621445  70.8399544
 119.7937136  52.7352065  71.5512465 121.0146044  52.8719914  70.6666029
 119.7984415  48.2911344  65.8360892 119.9658818  49.1591581  66.2031363
 119.6081585  48.4538626  64.9122181 116.0072230  53.2042120  73.5363427
 115.0822727  53.0718334  73.7441119 116.2556643  53.9836339  74.0333369
 119.7773636  50.7469002  66.8207559 119.6573262  51.1926052  67.6593039
 119.0826225  51.0954319  66.2621097 113.3681041  52.8475393  74.3707216
 113.4973422  53.1009872  75.2846628 112.6878492  53.4403101  74.0511871
 117.5380528  63.5172643  70.4697690 117.4604558  64.4680469  70.5486171
 116.9342172  63.1718516  71.1272616 120.0297758  50.6900509  83.1259057
 119.2531092  51.2494429  83.1161922 120.6688321  51.1757292  83.6473927
 118.2844131  53.4985962  82.6877024 119.0258815  54.0371006  82.4111848
 117.5781116  54.1252251  82.8448576 120.1130540  50.5787709  78.6582742
 120.9591735  51.0027123  78.8017391 120.0529178  49.9221334  79.3521306
 119.6356247  55.9390701  72.3051560 120.0994592  56.2178404  71.5156182
 119.3713045  55.0374146  72.1224650 116.5280328  55.4862183  75.2431323
 117.0981685  55.9149451  74.6048807 117.1188440  55.2044768  75.9415508
 118.5725133  52.0613854  69.1141125 119.2749176  52.5134897  69.5815051
 118.2405761  51.4197673  69.7421018 117.0205494  50.6525610  83.4892334
 116.3904155  51.3341891  83.7227731 116.9141582  50.5408692  82.5445472
 112.3150467  50.3197406  74.4158258 111.5249521  50.5754935  73.9398369
 112.8061714  51.1345744  74.5210299 114.2665212  50.6841986  71.3741735
 113.4696375  50.7960680  71.8925231 114.0390804  51.0228638  70.5082625
 120.0970880  57.2086689  79.3224250 120.1615312  57.6707096  80.1582421
 119.3881804  56.5784054  79.4506559 110.5988170  50.5727897  76.8473249
 110.8496208  51.4574907  77.1130825 111.1347718  50.3932498  76.0748341
 119.8118897  58.8754796  69.1903230 119.6764572  59.7206332  69.6188078
 120.3528710  59.0774074  68.4269164 116.2986237  44.9546376  85.8517585
 115.9053183  44.4012575  86.5265229 117.1152377  45.2656955  86.2424103
 113.2648295  56.3930234  69.7631155 113.7772815  57.1873485  69.9136720
 113.9171008  55.6956525  69.6964756 115.0743179  59.5095991  71.8453908
 115.2509808  60.4313955  71.6574892 115.8700013  59.1954410  72.2748288
 119.2154198  46.3704255  83.4437842 119.9563911  46.9711408  83.3642304
 119.4472121  45.6281893  82.8855884 114.3595536  51.5560623  81.7216071
 114.2449051  50.6545880  82.0223170 113.5040054  51.8024319  81.3700888
 116.1974495  61.0274165  77.8464250 116.7481920  60.8991228  77.0741244
 115.3585971  61.3269054  77.4959143 119.9941666  57.2925292  82.1908482
 120.5270003  56.5313581  81.9607790 119.4655747  56.9998944  82.9332636
 111.2297212  54.7218889  70.5390726 112.0672434  55.1315897  70.3224433
 111.4075479  53.7818331  70.5090919 120.7108755  47.2343670  71.2859797
 119.8550351  46.8450521  71.1065436 121.1235706  47.3135631  70.4259582
 118.4850787  44.8528743  74.6917538 119.3503784  44.6571552  74.3323428
 118.5528296  44.6239095  75.6186895 121.3594379  56.4211285  69.7027294
 120.8315740  55.6864044  69.3900531 120.8581881  57.1985961  69.4567262
 116.0913106  47.0830951  72.0633905 116.6656858  46.8606133  71.3307098
 116.6784089  47.1519646  72.8162506 116.4182693  49.1135412  66.0829790
 115.5820006  49.4510099  66.4039065 116.2787463  48.9784392  65.1456927
 118.3935774  43.9572200  70.7908975 117.7400186  43.6421217  70.1665589
 118.3516248  43.3347940  71.5168798 119.5046979  54.2391495  62.7062267
 118.5974041  54.0080749  62.9053416 120.0018011  53.4429114  62.8936248
 120.6835212  54.3404090  67.2286257 119.7746432  54.0563123  67.3258726
 120.7130296  54.7603169  66.3689564 111.2523383  52.0609604  71.2101459
 111.0547782  51.4678965  70.4852526 110.6970047  51.7561814  71.9277398
 119.2320106  51.9532711  73.3296052 119.2868716  51.0006547  73.2538529
 118.4211308  52.1092150  73.8137351 120.3811300  55.8812834  64.5674335
 119.9430730  55.1648693  64.1079973 121.1221741  56.1088948  64.0059427
 117.1712466  50.5709770  71.0886431 116.3580332  50.8703941  71.4951623
 117.6671460  50.1765459  71.8060913 119.3221044  60.5667527  73.0220696
 119.2797223  60.7928374  72.0929228 120.2383743  60.3330902  73.1706497
 116.6626541  48.1428126  76.7047666 117.3025920  48.0016885  76.0070629
 115.8304072  47.8562639  76.3286268 117.4386845  57.4430556  72.8182658
 118.2327443  56.9480876  72.6165233 116.7278537  56.9148419  72.4550364
 113.7469608  51.5873638  68.8942411 112.8167196  51.5258093  69.1112373
 113.8427080  51.0649591  68.0979052 113.6655157  48.1128451  71.4820653
 113.9261975  49.0273784  71.3729813 114.4872330  47.6452893  71.6317266
 115.1380083  49.5266208  78.6519477 115.8103136  49.3183570  78.0032126
 114.3109869  49.3288294  78.2124710 120.0158121  58.0159578  76.4980495
 119.8769207  57.6478363  77.3706434 119.2272717  58.5307218  76.3264453
 120.6106273  63.1168675  67.8406032 120.7858029  62.6456718  68.6551655
 119.9239061  63.7434441  68.0687293 121.5663336  57.3941181  73.8869333
 121.2313169  57.3541951  74.7826983 121.0667282  56.7285897  73.4139743
 115.5407580  52.8008811  79.4121914 115.4027378  52.0689050  80.0133453
 116.4512503  52.7117711  79.1306102 118.1689881  52.5128770  78.9005594
 118.8789499  51.8721962  78.8592212 118.1259189  52.7641665  79.8231775
 116.8818815  49.4993988  80.7201234 116.3456172  49.0484727  81.3722830
 116.2935523  49.6339897  79.9771698 115.1767358  66.2658037  74.6145892
 115.4163956  66.8976562  75.2924911 114.3336555  65.9146077  74.9011251
 116.2921074  48.9582640  63.2827697 115.4150540  48.8371440  62.9189944
 116.7678827  48.1668718  63.0306586 107.8123214  53.7459799  73.3769204
 108.4994254  53.4321529  72.7890220 107.6571342  54.6501164  73.1036456
 112.6157936  48.6349996  77.8054228 112.5316125  48.0275665  77.0704638
 111.7940642  49.1259014  77.8063724 119.6895220  62.0737160  77.0187396
 119.6165391  62.8792131  77.5306701 119.2472613  62.2729126  76.1935418
 119.4785000  61.3108930  70.5290218 118.6952522  61.8530610  70.6228442
 120.1777745  61.8282910  70.9284459 119.3716618  49.2620942  72.8996108
 119.0014406  48.7091983  73.5877013 119.8675711  48.6579076  72.3471108
 117.2005817  59.7218437  79.9951126 117.9015277  60.3554920  80.1480520
 116.7300932  60.0633169  79.2346765 112.7973535  59.2554792  76.9282228
 113.3826972  58.5098480  77.0610133 112.5998374  59.5658749  77.8118892
 115.6512190  62.2906040  71.9444671 114.9822566  62.7752167  71.4608711
 115.5125060  62.5375260  72.8588049 107.3891190  51.8260393  75.6486671
 107.4275289  51.2923983  76.4423790 106.8831483  51.2995598  75.0297649
 119.7917459  64.3249783  78.5427329 120.3435767  64.4881405  79.3076414
 120.1323652  64.9154221  77.8707354 114.7681952  46.6724933  79.1449214
 114.8323279  47.5339764  78.7326611 114.7049072  46.0598935  78.4121572
 114.2434225  48.7448066  82.7922248 114.8706263  48.3625143  83.4059772
 113.3862144  48.5262268  83.1577941 111.0199767  50.5524495  68.7240603
 111.3153209  49.6435173  68.6707657 110.1187803  50.5312234  68.4021605
 114.5494014  48.6280491  74.7068151 113.8280600  49.2416459  74.5675625
 115.3387270  49.1638256  74.6284797 117.3520328  45.9634918  80.9808803
 117.8754730  46.2097214  81.7435113 117.1332661  46.7954953  80.5611941
 112.7487609  48.2338592  68.8479928 112.4200315  47.3535971  68.6655034
 113.1026980  48.1786261  69.7356317 115.8629432  48.5211562  69.2155406
 116.2025505  49.0497484  68.4934014 116.3101553  48.8591968  69.9913972
 118.5572873  46.9048613  78.6658474 118.2169693  46.1056426  79.0679154
 117.8511879  47.2050324  78.0935307 119.2089345  43.9897925  77.1185797
 120.0315414  43.5158404  76.9964687 119.4527408  44.7688409  77.6184483
 117.8497579  47.0186184  67.4148698 118.5705942  47.3967437  66.9112415
 117.2262883  47.7375061  67.5183676 116.7327924  50.6817046  74.9277775
 116.5872504  50.9957349  75.8202057 116.2553127  51.3001946  74.3748674
 118.5924306  47.6719594  74.9758665 118.5785875  46.7760687  74.6390963
 119.3096735  47.6790258  75.6096951 120.4450437  48.1056934  77.0211792
 120.1868215  49.0274005  77.0196123 119.9135478  47.7087369  77.7112256
 111.2073586  53.2222390  77.8665437 110.6627054  53.9982198  77.9985711
 112.0852936  53.5693195  77.7084558 117.9961202  46.5533974  70.2446235
 118.1177114  45.6250620  70.4437123 117.7063245  46.5672660  69.3324550
 120.8652393  44.2388885  73.3812955 120.8874090  44.3028218  72.4264934
 121.2820452  43.3993393  73.5753461 111.9939608  52.3492287  80.7595593
 111.2521344  52.4974922  81.3460224 111.6732352  52.6100552  79.8962343
 119.9383270  61.8908265  80.5575983 120.2470397  61.6457412  81.4298683
 120.7358752  62.0954903  80.0694854 119.9603882  64.0446175  72.7881360
 119.5208873  63.5522553  73.4814217 120.7111999  63.5019142  72.5473435
 112.4396221  60.2357715  72.7905988 113.2654241  59.9361487  72.4104632
 112.0890273  59.4665338  73.2395777 117.4077754  59.5884184  74.8603662
 116.7857764  58.9254889  74.5605890 118.0782621  59.6145316  74.1777309
 110.6404826  58.1544042  73.7494922 109.8036735  57.7266216  73.5678923
 110.6128472  58.3476485  74.6865713 117.4802282  48.0665972  84.4536168
 117.5290437  48.9428094  84.0713937 118.0224796  47.5243365  83.8807811
 116.9691261  58.1388107  68.3362122 117.1179382  58.8223571  67.6828795
 117.7757705  58.1193197  68.8511578 119.7101570  48.8197344  81.2082526
 118.8404880  49.1130910  80.9365115 119.9461051  49.4037789  81.9289790
 114.7243894  54.1653285  69.3423191 114.4789936  53.2615615  69.5403401
 114.8939809  54.1670435  68.4002669 113.9939542  49.8981642  66.8409353
 113.3008787  49.9725997  66.1849389 113.7491294  49.1341986  67.3630869
 120.4686667  60.6336237  65.8073870 119.8960634  61.2526425  65.3544341
 121.0419461  61.1835599  66.3413792 119.0376383  49.8947027  63.0844807
 118.1307838  49.5980139  63.1607521 119.3152364  49.5976845  62.2179094
 109.9554323  51.2153390  73.5343854 109.6357107  50.3618698  73.2418228
 109.4087751  51.4301968  74.2901821 113.7334230  53.9315831  77.2513360
 113.9520240  54.8632939  77.2701394 114.1460004  53.5723805  78.0368164
 120.6538448  44.4383916  69.2389049 119.8439177  44.0931001  69.6144295
 121.3422865  44.1291460  69.8276660 118.6062096  49.5049037  86.6416109
 118.5058823  50.4543394  86.5728200 118.3883638  49.1767276  85.7692179
 117.8075167  46.7533962  63.2256787 118.6694331  47.0788860  63.4852604
 117.9925511  45.9665458  62.7129852 109.8242583  54.8356301  75.5036975
 109.1306054  54.4210254  74.9906930 110.5715574  54.8776838  74.9070394
 118.4693366  52.9346176  85.4581171 117.9860448  53.7346536  85.6645060
 118.5554305  52.9454120  84.5048615 111.7379325  54.7674555  73.3802990
 111.7150014  54.8662243  72.4284873 112.0479962  55.6139706  73.7020156
 114.3966703  56.8250710  77.4949605 115.3509957  56.7934653  77.4279536
 114.1979227  56.3641334  78.3099831 114.9866085  55.3951826  80.0620402
 115.8058974  55.8895905  80.0855240 115.2602893  54.4783794  80.0337970
 112.7516932  62.3670330  74.5119802 112.6171400  61.6070731  73.9457801
 112.3348994  63.0911230  74.0448591 115.9086058  63.2639647  74.7238245
 115.7918442  64.2085079  74.6216935 115.0878504  62.9613208  75.1124044
 110.2401000  49.7289960  80.7612599 110.8859863  49.2188914  81.2499825
 110.0318151  50.4658642  81.3356025 118.7604610  43.9930005  66.5136496
 118.7483280  44.9371845  66.6704766 119.6528032  43.8100150  66.2195957
 116.9340572  63.9167909  77.9394174 117.8367819  63.9491519  78.2560669
 116.7077942  62.9868360  77.9540509 118.6894174  62.6698895  74.6004252
 117.7389805  62.6700757  74.4868624 118.9926660  61.9231630  74.0840287
 114.5798491  46.8757577  84.8587614 115.4429952  46.5194382  85.0690938
 114.0063901  46.5371472  85.5463018 118.6516968  69.0751717  73.3769204
 119.3388008  68.7613447  72.7890220 118.4965097  69.9793082  73.1036456
 118.2284944  67.1552310  75.6486671 118.2669044  66.6215901  76.4423790
 117.7225237  66.6287516  75.0297649 121.4798581  73.4835960  73.7494922
 120.6430489  73.0558134  73.5678923 121.4522226  73.6768403  74.6865713
 120.7948077  66.5445308  73.5343854 120.4750862  65.6910616  73.2418228
 120.2481506  66.7593886  74.2901821 120.6636337  70.1648219  75.5036975
 119.9699809  69.7502172  74.9906930 121.4109328  70.2068756  74.9070394
  95.8593021   9.8650931  57.1942997  95.7817050  10.8158756  57.2731477
  95.2554664   9.5196803  57.8517923  93.4979850  12.6136325  61.3391199
  93.7376449  13.2454849  62.0170217  92.6549047  12.2624365  61.6256558
  93.9724683   8.6384327  58.6689977  93.3035058   9.1230455  58.1854017
  93.8337552   8.8853548  59.5833356  98.1129951  10.6728071  65.2672636
  98.6648259  10.8359692  66.0321721  98.4536145  11.2632508  64.5952661
  91.0729424   8.7148617  61.2365109  90.9383892   7.9549018  60.6703107
  90.6561487   9.4389517  60.7693898  94.2298550   9.6117934  61.4483552
  94.1130934  10.5563367  61.3462242  93.4090997   9.3091496  61.8369351
  95.2553064  10.2646196  64.6639480  96.1580311  10.2969806  64.9805975
  95.0290434   9.3346647  64.6785816 109.5549066  14.8065149  62.3256846
 109.2167578  14.6906214  61.4377381 110.4238834  14.4056314  62.3057852
 105.4135882  16.6600625  58.3153737 104.8500747  16.5690562  57.5470025
 105.2988277  15.8400530  58.7956229 110.0368849  15.9600001  68.2843051
 110.0257490  15.5652799  67.4123555 110.1989489  15.2266073  68.8776823
 102.9600314  18.1551817  61.1537957 103.7521606  17.8142642  60.7384257
 103.1996964  18.2646792  62.0740111 110.9935441  20.3271593  53.6268202
 110.3423420  20.9125674  53.2402216 111.7879803  20.8577788  53.6863239
 104.9191068  17.4160730  54.0255336 105.6921944  16.8689717  53.8868212
 105.2716467  18.2804980  54.2369797 106.7576110  18.7437113  67.2322235
 106.4665976  19.6482743  67.1168902 107.3933095  18.7853640  67.9466305
 107.6832317  16.1213961  63.8223595 108.2795889  15.8969983  63.1080558
 107.7407289  15.3798707  64.4249043 112.4710706  18.0162025  54.1637186
 111.8356539  18.0896652  54.8758091 112.1408112  18.6055624  53.4856265
 106.9753634  15.4781502  53.8598161 106.8589892  14.8026406  54.5279245
 107.0855894  14.9913876  53.0430314 109.3185175  14.9391649  57.5644850
 108.9543382  14.4122270  58.2757772 110.1752291  14.5490118  57.3911336
 111.7165995  18.4298528  64.2272029 111.4166718  19.3323567  64.1187836
 111.3717055  18.1630711  65.0793182 105.1678477  14.8812325  60.2608734
 104.2428973  14.7488539  60.4686425 105.4162890  15.6606544  60.7578676
 102.5287288  14.5245598  61.0952523 102.6579669  14.7780077  62.0091934
 101.8484739  15.1173306  60.7757178 106.6986775  25.1942848  57.1942997
 106.6210805  26.1450673  57.2731477 106.0948419  24.8488721  57.8517923
 107.4450377  15.1756167  69.4122331 108.1865062  15.7141211  69.1357154
 106.7387363  15.8022456  69.5693882 112.9205717  17.3185308  68.0094492
 113.3289073  16.8767718  67.2649125 112.1982978  16.7437935  68.2628685
 113.2434532  17.8786498  61.7646781 112.6143394  18.0432212  61.0622849
 112.8560194  18.2928108  62.5357745 117.1223763  18.8140936  59.1191145
 116.4374802  19.1939837  58.5688178 117.2067613  19.4236263  59.8523093
 114.3774695  16.4600895  65.7186488 114.5891590  17.1032655  65.0420869
 114.3304443  15.6263212  65.2508418 108.7962493  17.6160906  59.0296866
 109.2600839  17.8948609  58.2401489 108.5319292  16.7144351  58.8469957
 105.6886575  17.1632388  61.9676629 106.2587932  17.5919656  61.3294114
 106.2794686  16.8814973  62.6660815 101.4756713  11.9967611  61.1403565
 100.6855767  12.2525140  60.6643675 101.9667961  12.8115949  61.2455605
 115.4920523  19.3372851  63.8908846 116.3137967  18.9353038  63.6091527
 115.4882926  19.2341085  64.8424961 103.4271459  12.3612191  58.0987042
 102.6302622  12.4730885  58.6170537 103.1997051  12.6998843  57.2327932
 109.2577126  18.8856894  66.0469556 109.3221559  19.3477301  66.8827728
 108.5488050  18.2554259  66.1751866  99.7594416  12.2498102  63.5718556
 100.0102455  13.1345112  63.8376132 100.2953965  12.0702703  62.7993647
 108.9725144  20.5525001  55.9148537 108.8370819  21.3976537  56.3433384
 109.5134957  20.7544279  55.1514470 102.4254542  18.0700439  56.4876462
 102.9379062  18.8643690  56.6382026 103.0777254  17.3726730  56.4210063
 104.2349426  21.1866196  58.5699215 104.4116055  22.1084160  58.3820199
 105.0306260  20.8724615  58.9993595 103.5201783  13.2330828  68.4461378
 103.4055298  12.3316085  68.7468477 102.6646300  13.4794524  68.0946195
 110.5993620  21.1748568  70.0448879 110.1557475  20.3884946  69.7269783
 111.2610834  21.3627718  69.3792769 105.3580742  22.7044369  64.5709557
 105.9088167  22.5761433  63.7986551 104.5192218  23.0039258  64.2204450
 112.6974859  21.4551368  68.0730280 112.6793334  22.2760249  67.5810549
 113.6194779  21.3305443  68.2980421 109.1547913  18.9695497  68.9153788
 109.6876250  18.2083785  68.6853096 108.6261994  18.6769149  69.6577943
 100.3903458  16.3989094  57.2636032 101.2278680  16.8086102  57.0469740
 100.5681726  15.4588536  57.2336226 110.5200625  18.0981490  56.4272600
 109.9921987  17.3634249  56.1145838 110.0188128  18.8756166  56.1812569
 115.4993471  16.2930510  61.5439647 114.8417146  16.9829772  61.6319775
 116.3033871  16.6826942  61.8873633 108.6653226  15.9161700  49.4307573
 107.7580287  15.6850953  49.6298722 109.1624258  15.1199319  49.6181555
 111.5721304  24.6259207  52.3504259 110.8983003  24.9290904  52.9589217
 111.9587126  25.4288288  52.0009717 109.8441459  16.0174295  53.9531563
 108.9352678  15.7333328  54.0504033 109.8736543  16.4373373  53.0934870
 115.0760726  19.6280884  57.7222731 114.6223054  18.7871794  57.7787921
 114.4454693  20.2642283  58.0597511 113.5193666  21.4657381  58.6572549
 113.8116640  22.0262438  57.9384915 114.0292286  21.7585942  59.4125708
 100.4129629  13.7379809  57.9346766 100.2154029  13.1449170  57.2097832
  99.8576293  13.4332019  58.6522704 109.5417547  17.5583039  51.2919642
 109.1036977  16.8418897  50.8325279 110.2827988  17.7859153  50.7304733
 108.4827291  22.2437732  59.7466002 108.4403470  22.4698578  58.8174534
 109.3989990  22.0101107  59.8951803 117.6860041  17.9016763  62.3607232
 118.1196548  17.8092052  63.2090286 118.3991622  17.8774263  61.7227248
 106.5993092  19.1200761  59.5427965 107.3933690  18.6251081  59.3410540
 105.8884784  18.5918624  59.1795671 111.4187936  21.5018857  63.8940333
 111.4724958  22.0709793  64.6618049 110.5502717  21.6720742  63.5294370
 102.9075855  13.2643843  55.6187718 101.9773443  13.2028298  55.8357680
 103.0033327  12.7419796  54.8224359 118.5475591  17.9440463  64.8940117
 118.7411481  18.8486274  65.1399392 118.4476209  17.4847882  65.7278702
 113.6090699  18.0947206  70.4680998 113.4576206  17.8657758  69.5511082
 113.5995379  19.0517807  70.4812343 110.3776036  15.6679119  65.4527264
 111.3068096  15.8190278  65.2796232 109.9567066  15.7563140  64.5975911
 109.1764368  19.6929783  63.2225802 109.0375453  19.3248568  64.0951740
 108.3878964  20.2077423  63.0509760 109.7712520  24.7938880  54.5651339
 109.9464275  24.3226923  55.3796961 109.0845308  25.4204646  54.7932599
 110.7269583  19.0711386  60.6114640 110.3919415  19.0312156  61.5072290
 110.2273528  18.4056102  60.1385050 104.7013827  14.4779016  66.1367221
 104.5633625  13.7459255  66.7378760 105.6118750  14.3887916  65.8551409
 113.6628774  16.4167420  50.8851700 113.0457945  15.6914248  50.7884752
 113.1945263  17.1776780  50.5418774 107.3296127  14.1898975  65.6250901
 108.0395746  13.5492167  65.5837519 107.2865436  14.4411870  66.5477081
 115.3182906  21.1266329  68.5457480 115.2595452  20.4425549  67.8788063
 115.7202424  21.8685319  68.0938106 104.3373605  27.9428242  61.3391199
 104.5770203  28.5746767  62.0170217 103.4942801  27.5916282  61.6256558
 115.3200313  19.0905912  66.7771460 114.4327092  18.7531834  66.8997858
 115.8898864  18.3588944  67.0140225  96.9729460  15.4230004  60.1014511
  97.6600500  15.1091734  59.5135526  96.8177589  16.3271369  59.8281762
 108.8501467  23.7507365  63.7432703 108.7771638  24.5562336  64.2552007
 108.4078860  23.9499331  62.9180724 108.6391246  22.9879135  57.2535524
 107.8558768  23.5300815  57.3473749 109.3383992  23.5053114  57.6529766
 111.3100150  23.6494199  65.8990861 112.0228123  24.2841664  65.8266763
 110.8190179  23.7458065  65.0830863 113.0317677  17.5545452  57.4708153
 112.0973956  17.6746914  57.3012857 113.2094346  16.6517918  57.2068163
 106.3612064  21.3988642  66.7196432 107.0621523  22.0325125  66.8725826
 105.8907179  21.7403374  65.9592072 114.4866460  19.7406592  55.0044339
 114.7626304  19.6263187  55.9138213 113.6170958  19.3424077  54.9656512
 111.1220524  23.9892943  58.6477153 111.3042918  23.1714599  59.1104905
 111.9453510  24.2060635  58.2102043 111.4562689  22.9161128  55.9092201
 111.9850456  22.4053583  55.2962364 111.7190909  22.6003658  56.7737734
 110.2100923  14.6953061  71.0315020 109.5341560  14.5947190  71.7017395
 111.0328557  14.5392275  71.4951017 101.9579782  20.9324997  63.6527535
 102.5433219  20.1868685  63.7855439 101.7604620  21.2428954  64.5364199
 104.8118437  23.9676245  58.6689977 104.1428812  24.4522372  58.1854017
 104.6731307  24.2145465  59.5833356  96.5497437  13.5030598  62.3731978
  96.5881536  12.9694188  63.1669096  96.0437729  12.9765803  61.7542955
 108.9523706  26.0019988  65.2672636 109.5042014  26.1651610  66.0321721
 109.2929899  26.5924426  64.5952661 113.8034580  20.8281246  71.1221290
 114.3474484  21.4411204  70.6276245 113.2221425  21.3860824  71.6388303
 100.1806014  12.2294700  55.4485909 100.4759455  11.3205378  55.3952963
  99.2794050  12.2082439  55.1266912 112.0892093  23.9501964  62.2536318
 111.9643232  23.1491704  61.7447263 112.7471184  24.4448157  61.7650288
 114.1527001  21.7510984  63.8815868 113.2057337  21.6316335  63.8094195
 114.5009774  20.8633482  63.9642129 111.1573435  21.5463700  60.0820220
 111.0098397  20.6180408  60.2627790 111.9826928  21.5683791  59.5977295
 114.7607556  22.3692259  61.1685093 115.6854104  22.1635120  61.0309544
 114.5922860  22.1208660  62.0774434 114.5502873  22.8877926  56.5247184
 114.7239750  22.3224349  55.7721037 115.0431764  23.6878821  56.3426674
 100.3679833  14.8992595  64.5910743  99.8233301  15.6752403  64.7231018
 101.2459182  15.2463400  64.4329865 115.5378045  22.2044691  53.6244083
 116.2328950  22.8251383  53.8431397 115.8801195  21.3540042  53.8996461
 101.1545854  14.0262492  67.4840900 100.4127590  14.1745127  68.0705530
 100.8338599  14.2870757  66.6207649 117.4369468  19.6544396  55.1531413
 117.9620792  19.9931669  54.4280733 117.3491821  18.7191412  54.9694548
 109.0989517  23.5678470  67.2821290 109.4076643  23.3227617  68.1543990
 109.8964999  23.7725108  66.7940160 109.1210129  25.7216379  59.5126667
 108.6815119  25.2292758  60.2059523 109.8718246  25.1789347  59.2718742
 101.6002468  21.9127920  59.5151295 102.4260488  21.6131692  59.1349938
 101.2496520  21.1435543  59.9641083 106.5684001  21.2654389  61.5848968
 105.9464011  20.6025094  61.2851196 107.2388868  21.2915520  60.9022616
  99.8011073  19.8314247  60.4740228  98.9642981  19.4036421  60.2924230
  99.7734719  20.0246690  61.4111019 117.1263374  20.2877300  70.4582611
 116.3358918  20.2701439  69.9187111 116.8896729  20.8265594  71.2131648
 106.1297508  19.8158312  55.0607429 106.2785628  20.4993776  54.4074102
 106.9363952  19.7963402  55.5756885 118.7479446  19.5566708  68.0157361
 118.4564255  19.9196688  68.8520822 118.1351578  18.8433716  67.8370694
 103.8850141  15.8423490  56.0668498 103.6396183  14.9385820  56.2648708
 104.0546056  15.8440640  55.1247976 109.6292914  22.3106442  52.5319176
 109.0566881  22.9296629  52.0789648 110.2025707  22.8605804  53.0659098
 112.8490173  22.5943592  53.6627759 113.7820847  22.5289154  53.8660634
 112.7613386  23.4299859  53.2042291 115.4778190  21.9109463  50.6231706
 115.3991822  21.5769326  51.5167464 116.2987857  22.4031231  50.6223178
 109.8978405  17.6985001  71.3335886 110.8181414  17.8763600  71.5275932
 109.8627988  16.7541047  71.1815585  99.1160570  12.8923595  60.2589160
  98.7963354  12.0388903  59.9663534  98.5693998  13.1072173  61.0147128
 102.8940477  15.6086036  63.9758667 103.1126487  16.5403144  63.9946701
 103.3066251  15.2494010  64.7613471  98.9848830  16.5126506  62.2282282
  98.2912301  16.0980459  61.7152236  99.7321821  16.5547043  61.6315701
 107.6299613  14.6116381  72.1826477 107.1466694  15.4116741  72.3890366
 107.7160552  14.6224325  71.2293921 100.8985572  16.4444760  60.1048297
 100.8756260  16.5432447  59.1530180 101.2086209  17.2909911  60.4265463
 103.5572950  18.5020915  64.2194911 104.5116204  18.4704858  64.1524843
 103.3585474  18.0411539  65.0345137 104.1472332  17.0722031  66.7865709
 104.9665221  17.5666110  66.8100546 104.4209140  16.1553999  66.7583276
 101.9123179  24.0440535  61.2365109 101.7777647  23.2840936  60.6703107
 101.4955241  24.7681435  60.7693898 113.0482142  19.2277458  50.2441684
 113.7517992  19.4327461  50.8599340 112.3244791  19.7954220  50.5090768
 105.0692305  24.9409852  61.4483552 104.9524689  25.8855284  61.3462242
 104.2484751  24.6383413  61.8369351 114.9568839  19.6659987  52.2940144
 115.7914443  19.2341186  52.1117619 114.7953182  19.4942001  53.2217039
 114.6114731  16.1692101  53.6596484 114.5563535  16.0036372  52.7184928
 113.9860787  16.8768134  53.8158673  99.4007246  11.4060165  67.4857906
 100.0466110  10.8959119  67.9745131  99.1924398  12.1428847  68.0601331
 111.9260639  18.4741013  72.9850047 112.7951798  18.6481665  72.6236681
 111.4467390  19.2935429  72.8625776 106.0946819  25.5938114  64.6639480
 106.9974066  25.6261724  64.9805975 105.8684189  24.6638565  64.6785816
 107.8500421  24.3469100  61.3249559 106.8996052  24.3470962  61.2113931
 108.1532907  23.6001835  60.8085593 120.3942821  30.1357067  62.3256846
 120.0561332  30.0198131  61.4377381 121.2632589  29.7348232  62.3057852
 116.2529636  31.9892543  58.3153737 115.6894502  31.8982480  57.5470025
 116.1382031  31.1692448  58.7956229 120.8762604  31.2891918  68.2843051
 120.8651244  30.8944717  67.4123555 121.0383243  30.5557991  68.8776823
 113.7994068  33.4843735  61.1537957 114.5915360  33.1434559  60.7384257
 114.0390718  33.5938710  62.0740111 115.7584822  32.7452648  54.0255336
 116.5315698  32.1981635  53.8868212 116.1110221  33.6096897  54.2369797
 117.5969865  34.0729030  67.2322235 117.3059731  34.9774661  67.1168902
 118.2326849  34.1145558  67.9466305 118.5226072  31.4505879  63.8223595
 119.1189644  31.2261901  63.1080558 118.5801043  30.7090624  64.4249043
 118.0951100  28.9045314  51.6573786 118.3476621  28.3826835  50.8957249
 117.1575659  28.7411459  51.7600470 117.8147389  30.8073420  53.8598161
 117.6983647  30.1318323  54.5279245 117.9249649  30.3205794  53.0430314
 120.1578930  30.2683567  57.5644850 119.7937137  29.7414188  58.2757772
 121.0146046  29.8782036  57.3911336 119.7984417  25.2973467  52.5606199
 119.9658819  26.1653703  52.9276670 119.6081586  25.4600748  51.6367488
 116.0072231  30.2104243  60.2608734 115.0822728  30.0780457  60.4686425
 116.2556645  30.9898462  60.7578676 119.7773638  27.7531124  53.5452866
 119.6573263  28.1988175  54.3838346 119.0826226  28.1016442  52.9866404
 113.3681042  29.8537516  61.0952523 113.4973424  30.1071995  62.0091934
 112.6878494  30.4465224  60.7757178 117.5380530  40.5234766  57.1942997
 117.4604559  41.4742591  57.2731477 116.9342173  40.1780639  57.8517923
 120.0297759  27.6962631  69.8504364 119.2531094  28.2556552  69.8407228
 120.6688323  28.1819414  70.3719234 118.2844132  30.5048085  69.4122331
 119.0258816  31.0433129  69.1357154 117.5781117  31.1314374  69.5693882
 120.1130541  27.5849832  65.3828049 120.9591737  28.0089246  65.5262698
 120.0529179  26.9283456  66.0766612 119.6356248  32.9452824  59.0296866
 120.0994593  33.2240527  58.2401489 119.3713046  32.0436269  58.8469957
 116.5280329  32.4924306  61.9676629 117.0981686  32.9211574  61.3294114
 117.1188441  32.2106890  62.6660815 118.5725134  29.0675976  55.8386431
 119.2749177  29.5197020  56.3060358 118.2405762  28.4259795  56.4666324
 117.0205496  27.6587733  70.2137641 116.3904156  28.3404014  70.4473038
 116.9141583  27.5470815  69.2690779 112.3150468  27.3259529  61.1403565
 111.5249522  27.5817058  60.6643675 112.8061715  28.1407867  61.2455605
 114.2665213  27.6904108  58.0987042 113.4696377  27.8022803  58.6170537
 114.0390806  28.0290761  57.2327932 120.0970881  34.2148812  66.0469556
 120.1615313  34.6769219  66.8827728 119.3881805  33.5846176  66.1751866
 110.5988171  27.5790019  63.5718556 110.8496209  28.4637029  63.8376132
 111.1347719  27.3994621  62.7993647 119.8118899  35.8816919  55.9148537
 119.6764573  36.7268455  56.3433384 120.3528711  36.0836197  55.1514470
 116.2986238  21.9608499  72.5762892 115.9053184  21.4074697  73.2510536
 117.1152379  22.2719077  72.9669409 113.2648296  33.3992357  56.4876462
 113.7772817  34.1935607  56.6382026 113.9171009  32.7018647  56.4210063
 115.0743181  36.5158113  58.5699215 115.2509809  37.4376078  58.3820199
 115.8700014  36.2016533  58.9993595 119.2154199  23.3766378  70.1683148
 119.9563913  23.9773531  70.0887611 119.4472122  22.6344016  69.6101191
 114.3595537  28.5622745  68.4461378 114.2449052  27.6608002  68.7468477
 113.5040055  28.8086442  68.0946195 116.1974496  38.0336287  64.5709557
 116.7481921  37.9053350  63.7986551 115.3585972  38.3331176  64.2204450
 119.9941667  34.2987415  68.9153788 120.5270004  33.5375703  68.6853096
 119.4655748  34.0061067  69.6577943 111.2297213  31.7281011  57.2636032
 112.0672435  32.1378020  57.0469740 111.4075480  30.7880454  57.2336226
 120.7108756  24.2405793  58.0105103 119.8550352  23.8512643  57.8310742
 121.1235708  24.3197754  57.1504889 118.4850788  21.8590866  61.4162845
 119.3503785  21.6633674  61.0568734 118.5528297  21.6301218  62.3432202
 121.3594380  33.4273407  56.4272600 120.8315741  32.6926167  56.1145838
 120.8581883  34.2048084  56.1812569 116.0913108  24.0893074  58.7879212
 116.6656859  23.8668255  58.0552405 116.6784090  24.1581768  59.5407813
 116.4182695  26.1197535  52.8075097 115.5820007  26.4572221  53.1284372
 116.2787464  25.9846515  51.8702234 118.3935775  20.9634323  57.5154281
 117.7400188  20.6483340  56.8910896 118.3516249  20.3410063  58.2414104
 119.5046980  31.2453618  49.4307573 118.5974042  31.0142871  49.6298722
 120.0018012  30.4491237  49.6181555 120.6835214  31.3466213  53.9531563
 119.7746433  31.0625245  54.0504033 120.7130297  31.7665291  53.0934870
 111.2523384  29.0671727  57.9346766 111.0547784  28.4741087  57.2097832
 110.6970048  28.7623937  58.6522704 119.2320108  28.9594833  60.0541359
 119.2868717  28.0068670  59.9783835 118.4211310  29.1154272  60.5382657
 120.3811301  32.8874956  51.2919642 119.9430731  32.1710815  50.8325279
 121.1221742  33.1151071  50.7304733 117.1712467  27.5771893  57.8131738
 116.3580333  27.8766063  58.2196930 117.6671462  27.1827582  58.5306220
 119.3221045  37.5729650  59.7466002 119.2797224  37.7990496  58.8174534
 120.2383744  37.3393024  59.8951803 116.6626542  25.1490248  63.4292973
 117.3025922  25.0079008  62.7315936 115.8304073  24.8624762  63.0531575
 117.4386846  34.4492679  59.5427965 118.2327445  33.9542999  59.3410540
 116.7278539  33.9210542  59.1795671 113.7469610  28.5935761  55.6187718
 112.8167198  28.5320216  55.8357680 113.8427082  28.0711713  54.8224359
 113.6655159  25.1190573  58.2065959 113.9261976  26.0335907  58.0975120
 114.4872331  24.6515016  58.3562572 115.1380084  26.5328331  65.3764784
 115.8103137  26.3245693  64.7277433 114.3109871  26.3350417  64.9370016
 120.0158122  35.0221701  63.2225802 119.8769208  34.6540485  64.0951740
 119.2272718  35.5369340  63.0509760 120.6106274  40.1230797  54.5651339
 120.7858030  39.6518840  55.3796961 119.9239062  40.7496563  54.7932599
 121.5663337  34.4003304  60.6114640 121.2313170  34.3604073  61.5072290
 121.0667283  33.7348019  60.1385050 115.5407581  29.8070934  66.1367221
 115.4027379  29.0751172  66.7378760 116.4512505  29.7179834  65.8551409
 118.1689882  29.5190893  65.6250901 118.8789500  28.8784085  65.5837519
 118.1259190  29.7703788  66.5477081 116.8818816  26.5056111  67.4446540
 116.3456173  26.0546849  68.0968137 116.2935524  26.6402020  66.7017005
 115.1767359  43.2720160  61.3391199 115.4163958  43.9038684  62.0170217
 114.3336556  42.9208200  61.6256558 116.2921075  25.9644762  50.0073004
 115.4150541  25.8433563  49.6435250 116.7678828  25.1730840  49.7551892
 107.8123215  30.7521922  60.1014511 108.4994255  30.4383652  59.5135526
 107.6571344  31.6563287  59.8281762 112.6157937  25.6412118  64.5299535
 112.5316126  25.0337788  63.7949945 111.7940644  26.1321137  64.5309031
 119.6895221  39.0799282  63.7432703 119.6165393  39.8854254  64.2552007
 119.2472614  39.2791248  62.9180724 119.4785001  38.3171053  57.2535524
 118.6952523  38.8592733  57.3473749 120.1777746  38.8345032  57.6529766
 119.3716620  26.2683065  59.6241414 119.0014407  25.7154105  60.3122320
 119.8675712  25.6641198  59.0716414 117.2005818  36.7280560  66.7196432
 117.9015278  37.3617043  66.8725826 116.7300933  37.0695292  65.9592072
 112.7973536  36.2616915  63.6527535 113.3826973  35.5160603  63.7855439
 112.5998375  36.5720872  64.5364199 115.6512192  39.2968162  58.6689977
 114.9822567  39.7814290  58.1854017 115.5125061  39.5437383  59.5833356
 107.3891191  28.8322515  62.3731978 107.4275291  28.2986106  63.1669096
 106.8831484  28.3057721  61.7542955 119.7917460  41.3311906  65.2672636
 120.3435768  41.4943527  66.0321721 120.1323654  41.9216344  64.5952661
 114.7681953  23.6787056  65.8694520 114.8323280  24.5401887  65.4571918
 114.7049074  23.0661057  65.1366879 114.2434226  25.7510188  69.5167555
 114.8706265  25.3687266  70.1305079 113.3862145  25.5324390  69.8823247
 111.0199769  27.5586617  55.4485909 111.3153210  26.6497296  55.3952963
 110.1187804  27.5374357  55.1266912 114.5494016  25.6342614  61.4313458
 113.8280601  26.2478582  61.2920931 115.3387271  26.1700379  61.3530104
 117.3520329  22.9697040  67.7054110 117.8754731  23.2159337  68.4680419
 117.1332662  23.8017075  67.2857247 112.7487610  25.2400715  55.5725235
 112.4200316  24.3598094  55.3900341 113.1026981  25.1848384  56.4601624
 115.8629433  25.5273685  55.9400712 116.2025506  26.0559606  55.2179321
 116.3101554  25.8654091  56.7159279 118.5572874  23.9110736  65.3903780
 118.2169695  23.1118549  65.7924460 117.8511881  24.2112446  64.8180614
 119.2089346  20.9960048  63.8431103 120.0315415  20.5220526  63.7209994
 119.4527410  21.7750532  64.3429790 117.8497581  24.0248306  54.1394005
 118.5705943  24.4029559  53.6357722 117.2262885  24.7437183  54.2428983
 116.7327925  27.6879169  61.6523082 116.5872506  28.0019472  62.5447364
 116.2553128  28.3064069  61.0993981 118.5924308  24.6781717  61.7003972
 118.5785876  23.7822810  61.3636270 119.3096736  24.6852380  62.3342258
 120.4450438  25.1119057  63.7457099 120.1868216  26.0336127  63.7441429
 119.9135479  24.7149491  64.4357563 111.2073587  30.2284513  64.5910743
 110.6627055  31.0044321  64.7231018 112.0852937  30.5755318  64.4329865
 117.9961204  23.5596097  56.9691542 118.1177115  22.6312743  57.1682429
 117.7063246  23.5734783  56.0569857 120.8652394  21.2451007  60.1058262
 120.8874091  21.3090340  59.1510241 121.2820453  20.4055516  60.2998768
 111.9939609  29.3554409  67.4840900 111.2521345  29.5037045  68.0705530
 111.6732353  29.6162675  66.6207649 119.9383272  38.8970388  67.2821290
 120.2470398  38.6519534  68.1543990 120.7358754  39.1017026  66.7940160
 119.9603884  41.0508297  59.5126667 119.5208874  40.5584676  60.2059523
 120.7112001  40.5081265  59.2718742 112.4396223  37.2419838  59.5151295
 113.2654242  36.9423610  59.1349938 112.0890275  36.4727460  59.9641083
 117.4077756  36.5946306  61.5848968 116.7857765  35.9317011  61.2851196
 118.0782623  36.6207438  60.9022616 110.6404828  35.1606164  60.4740228
 109.8036736  34.7328339  60.2924230 110.6128473  35.3538608  61.4111019
 117.4802283  25.0728094  71.1781474 117.5290439  25.9490217  70.7959244
 118.0224797  24.5305487  70.6053118 116.9691263  35.1450230  55.0607429
 117.1179383  35.8285694  54.4074102 117.7757706  35.1255320  55.5756885
 119.7101572  25.8259467  67.9327833 118.8404881  26.1193033  67.6610421
 119.9461052  26.4099912  68.6535097 114.7243896  31.1715407  56.0668498
 114.4789938  30.2677737  56.2648708 114.8939810  31.1732558  55.1247976
 113.9939543  26.9043765  53.5654659 113.3008788  26.9788120  52.9094695
 113.7491295  26.1404108  54.0876176 120.4686668  37.6398360  52.5319176
 119.8960635  38.2588547  52.0789648 121.0419462  38.1897722  53.0659098
 119.0376384  26.9009149  49.8090114 118.1307839  26.6042262  49.8852828
 119.3152365  26.6038967  48.9424400 109.9554324  28.2215513  60.2589160
 109.6357109  27.3680821  59.9663534 109.4087752  28.4364091  61.0147128
 113.7334232  30.9377954  63.9758667 113.9520242  31.8695061  63.9946701
 114.1460006  30.5785928  64.7613471 120.6538450  21.4446039  55.9634355
 119.8439178  21.0993124  56.3389601 121.3422866  21.1353583  56.5521967
 118.6062097  26.5111159  73.3661416 118.5058824  27.4605516  73.2973507
 118.3883639  26.1829398  72.4937486 117.8075168  23.7596084  49.9502093
 118.6694332  24.0850983  50.2097911 117.9925513  22.9727580  49.4375159
 109.8242584  31.8418424  62.2282282 109.1306056  31.4272377  61.7152236
 110.5715575  31.8838961  61.6315701 118.4693367  29.9408298  72.1826477
 117.9860449  30.7408658  72.3890366 118.5554306  29.9516243  71.2293921
 111.7379327  31.7736678  60.1048297 111.7150015  31.8724365  59.1530180
 112.0479963  32.6201829  60.4265463 114.3966705  33.8312833  64.2194911
 115.3509958  33.7996775  64.1524843 114.1979228  33.3703457  65.0345137
 114.9866087  32.4013949  66.7865709 115.8058976  32.8958028  66.8100546
 115.2602894  31.4845917  66.7583276 112.7516933  39.3732452  61.2365109
 112.6171401  38.6132853  60.6703107 112.3348996  40.0973352  60.7693898
 115.9086059  40.2701769  61.4483552 115.7918443  41.2147202  61.3462242
 115.0878506  39.9675331  61.8369351 110.2401001  26.7352083  67.4857906
 110.8859865  26.2251037  67.9745131 110.0318152  27.4720764  68.0601331
 118.7604611  20.9992127  53.2381802 118.7483281  21.9433967  53.3950073
 119.6528033  20.8162273  52.9441263 116.9340573  40.9230031  64.6639480
 117.8367820  40.9553642  64.9805975 116.7077943  39.9930482  64.6785816
 118.6894175  39.6761018  61.3249559 117.7389806  39.6762879  61.2113931
 118.9926662  38.9293752  60.8085593 114.5798492  23.8819700  71.5832920
 115.4429954  23.5256505  71.7936245 114.0063903  23.5433595  72.2708324
 118.6516969  46.0813840  60.1014511 119.3388009  45.7675570  59.5135526
 118.4965098  46.9855204  59.8281762 118.2284946  44.1614433  62.3731978
 118.2669045  43.6278024  63.1669096 117.7225238  43.6349638  61.7542955
 121.4798582  50.4898082  60.4740228 120.6430490  50.0620257  60.2924230
 121.4522228  50.6830526  61.4111019 120.7948079  43.5507430  60.2589160
 120.4750863  42.6972738  59.9663534 120.2481507  43.7656008  61.0147128
 120.6636339  47.1710342  62.2282282 119.9699810  46.7564295  61.7152236
 121.4109330  47.2130878  61.6315701 117.5380531  17.5296889  43.9188303
 117.4604561  18.4804714  43.9976784 116.9342175  17.1842761  44.5763230
 115.1767361  20.2782283  48.0636505 115.4163959  20.9100807  48.7415524
 114.3336557  19.9270323  48.3501865 115.6512193  16.3030285  45.3935284
 114.9822568  16.7876413  44.9099324 115.5125063  16.5499505  46.3078663
 119.7917461  18.3374029  51.9917942 120.3435769  18.5005650  52.7567028
 120.1323655  18.9278466  51.3197967 112.7516935  16.3794575  47.9610416
 112.6171403  15.6194976  47.3948414 112.3348997  17.1035475  47.4939205
 115.9086061  17.2763892  48.1728858 115.7918445  18.2209324  48.0707549
 115.0878507  16.9737454  48.5614658 116.9340575  17.9292154  51.3884787
 117.8367821  17.9615764  51.7051282 116.7077945  16.9992605  51.4031123
 118.6516971  23.0875962  46.8259818 119.3388011  22.7737692  46.2380833
 118.4965099  23.9917327  46.5527069 118.2284947  21.1676556  49.0977285
 118.2669046  20.6340146  49.8914403 117.7225240  20.6411761  48.4788262
 121.4798583  27.4960205  47.1985535 120.6430492  27.0682379  47.0169536
 121.4522229  27.6892648  48.1356326 120.7948080  20.5569553  46.9834467
 120.4750864  19.7034861  46.6908841 120.2481508  20.7718131  47.7392434
 120.6636340  24.1772464  48.9527589 119.9699811  23.7626417  48.4397543
 121.4109331  24.2193001  48.3561007  24.8571262  62.9489006 118.7277723
  24.1832961  63.2520703 119.3362681  25.2437084  63.7518086 118.3783180
  28.8228003  60.5274489 120.0017546  29.5178908  61.1481182 120.2204861
  29.1651153  59.6769841 120.2769924  22.9142871  60.6336241 118.9092640
  22.3416839  61.2526428 118.4563112  23.4875665  61.1835603 119.4432562
  26.1340131  60.9173391 120.0401222  27.0670804  60.8518953 120.2434098
  26.0463344  61.7529658 119.5815755  28.7628148  60.2339261 117.0005170
  28.6841779  59.8999125 117.8940928  29.5837815  60.7261029 116.9996642
  26.3332100  57.5507257 116.6215148  27.0367950  57.7557259 117.2372804
  25.6094748  58.1184019 116.8864232  28.2418797  57.9889786 118.6713608
  29.0764401  57.5570985 118.4891083  28.0803140  57.8171800 119.5990503
  36.8703072  68.5059437 128.7668785  37.5081482  68.3866185 128.0632125
  36.7523915  69.4540281 128.8256737  29.5379594  70.3122342 124.6927201
  28.9744459  70.2212279 123.9243488  29.4231989  69.4922246 125.1729693
  35.1179153  73.9793309 120.0041665  34.4667133  74.5647390 119.6175679
  35.9123516  74.5099504 120.0636703  29.0434780  71.0682447 120.4028800
  29.8165656  70.5211434 120.2641676  29.3960179  71.9326696 120.6143261
  31.3801058  67.2275113 118.0347250  31.6326579  66.7056634 117.2730713
  30.4425617  67.0641258 118.1373933  36.4244341  66.2310891 125.8421993
  37.2107430  65.8130314 125.4912410  36.6883045  67.1356983 126.0103641
  36.5954418  71.6683741 120.5410650  35.9600251  71.7418368 121.2531554
  36.2651824  72.2577340 119.8629729  41.8252768  66.1686124 126.7454972
  42.5577940  65.5985341 126.9792801  41.0692123  65.7807725 127.1861477
  31.0997347  69.1303219 120.2371625  30.9833605  68.4548122 120.9052709
  31.2099606  68.6435593 119.4203778  33.4428888  68.5913366 123.9418314
  33.0787095  68.0643987 124.6531235  34.2996003  68.2011835 123.7684799
  33.0834374  63.6203265 118.9379662  33.2508777  64.4883502 119.3050134
  32.8931544  63.7830547 118.0140952  33.0623595  66.0760923 119.9226329
  32.9423221  66.5217974 120.7611810  32.3676184  66.4246241 119.3639867
  30.8230487  78.8464565 123.5716461  30.7454517  79.7972390 123.6504941
  30.2192131  78.5010437 124.2291387  38.7608662  66.5482396 120.7506663
  39.6726518  66.7809783 120.5754361  38.2518309  67.1319440 120.1881742
  37.3678244  71.5308215 128.1420245  36.7387106  71.6953929 127.4396313
  36.9803906  71.9449824 128.9131209  41.2467476  72.4662652 125.4964609
  40.5618514  72.8461554 124.9461642  41.3311325  73.0757979 126.2296556
  32.9206206  71.2682623 125.4070330  33.3844551  71.5470326 124.6174952
  32.6563004  70.3666067 125.2243421  31.8575092  67.3905775 122.2159895
  32.5599135  67.8426819 122.6833821  31.5255720  66.7489594 122.8439788
  39.6164235  72.9894567 130.2682309  40.4381679  72.5874754 129.9864991
  39.6126638  72.8862801 131.2198425  47.7070228  69.3333315 126.6167281
  46.9533937  68.7640713 126.4611285  47.8417770  69.2995980 127.5637916
  33.0968856  74.2046718 122.2922000  32.9614531  75.0498253 122.7206848
  33.6378669  74.4065995 121.5287934  26.5498254  71.7222156 122.8649925
  27.0622774  72.5165406 123.0155490  27.2020967  71.0248446 122.7983527
  28.3593138  74.8387912 124.9472679  28.5359767  75.7605877 124.7593662
  29.1549972  74.5246331 125.3767058  24.5147171  70.0510810 123.6409496
  25.3522393  70.4607818 123.4243204  24.6925438  69.1110252 123.6109690
  36.4111603  67.7185891 119.3293329  35.8958226  68.4890495 119.5681716
  36.1388911  67.0451027 119.9526390  33.9958714  62.5635591 124.3878567
  33.1400310  62.1742442 124.2084206  34.4085665  62.6427552 123.5278353
  41.3845877  70.4718245 121.2646502  40.6075320  70.1329405 120.8201664
  42.0637358  70.4770868 120.5901467  36.1997906  65.5912983 121.1553110
  35.8948041  65.9059132 122.0063253  37.1528348  65.6694403 121.1980443
  34.6444338  71.7503206 122.8046064  34.1165699  71.0155966 122.4919301
  34.1431840  72.5277882 122.5586032  39.6237184  69.9452227 127.9213110
  38.9660858  70.6351488 128.0093239  40.4277583  70.3348658 128.2647097
  38.4342643  68.2996599 125.9717052  38.9474524  68.9326591 126.4738762
  39.0843866  67.6997795 125.6060412  29.7032652  64.4427333 119.1848561
  28.8669965  64.7802020 119.5057836  29.5637422  64.3076313 118.2475698
  32.7896938  69.5683416 115.8081037  31.8824000  69.3372670 116.0072186
  33.2867970  68.7721036 115.9955019  35.6965017  78.2780923 118.7277723
  35.0226716  78.5812620 119.3362681  36.0830839  79.0810004 118.3783180
  35.6958521  67.1737470 123.3478073  36.4430340  67.6858868 123.0385195
  35.9650111  66.8521523 124.2082466  33.9685171  69.6696011 120.3305027
  33.0596391  69.3855044 120.4277497  33.9980255  70.0895090 119.4708334
  39.2004439  73.2802601 124.0996195  38.7466766  72.4393511 124.1561385
  38.5698405  73.9163999 124.4370975  38.1437358  64.2094587 125.3296862
  37.4060115  63.6971973 125.6607105  38.3964132  63.7694968 124.5180139
  37.6437378  75.1179097 125.0346013  37.9360352  75.6784154 124.3158378
  38.1535999  75.4107658 125.7899172  32.5170065  67.2824632 126.4314822
  32.5718675  66.3298468 126.3557299  31.7061267  67.4384071 126.9156121
  33.6661259  71.2104755 117.6693106  33.2280689  70.4940614 117.2098743
  34.4071700  71.4380870 117.1078197  30.4562425  65.9001692 124.1905201
  29.6430291  66.1995862 124.5970393  30.9521419  65.5057380 124.9079684
  32.6071003  75.8959448 126.1239466  32.5647182  76.1220295 125.1947998
  33.5233702  75.6622823 126.2725267  41.7834374  69.4861952 123.7269424
  41.6452272  69.6763548 122.7990613  41.4270593  70.2481335 124.1837475
  41.8103754  71.5538479 128.7380696  42.2440260  71.4613768 129.5863750
  42.5235334  71.5295979 128.1000712  30.7236804  72.7722477 125.9201429
  31.5177402  72.2772798 125.7184004  30.0128496  72.2440341 125.5569134
  27.0319567  66.9165559 121.9961181  26.1017156  66.8550015 122.2131144
  27.1277039  66.3941512 121.1997823  42.6719303  71.5962180 131.2713581
  42.8655193  72.5007990 131.5172856  42.5719921  71.1369599 132.1052166
  33.8956232  78.4460596 120.9424802  34.0707988  77.9748639 121.7570425
  33.2089020  79.0726362 121.1706063  34.8513295  72.7233102 126.9888104
  34.5163128  72.6833872 127.8845754  34.3517241  72.0577818 126.5158514
  37.7872487  70.0689136 117.2625163  37.1701657  69.3435965 117.1658216
  37.3188975  70.8298497 116.9192238  29.5771033  64.2874561 116.3846468
  28.7000499  64.1663362 116.0208714  30.0528786  63.4960639 116.1325356
  32.7634959  76.6400851 123.6308988  31.9802481  77.1822531 123.7247213
  33.4627704  77.1574831 124.0303229  43.9261366  68.1535846 127.9161485
  43.9151242  69.0360562 127.5455418  43.0578746  67.8007397 127.7216022
  37.1561389  71.2067168 123.8481617  36.2217668  71.3268630 123.6786321
  37.3338058  70.3039635 123.5841627  40.5433941  67.0484487 124.3831651
  41.0094393  67.8812479 124.3091954  40.9941441  66.5829469 125.0876909
  38.6110172  73.3928308 121.3817803  38.8870016  73.2784903 122.2911677
  37.7414671  72.9945793 121.3429976  35.2464236  77.6414659 125.0250617
  35.4286630  76.8236315 125.4878369  36.0697222  77.8582351 124.5875507
  35.5806401  76.5682844 122.2865665  36.1094168  76.0575299 121.6735827
  35.8434621  76.2525375 123.1511198  24.3049726  65.8816416 121.8259373
  24.6003168  64.9727094 121.7726427  23.4037762  65.8604155 121.5040376
  36.2135805  77.6023680 128.6309782  36.0886945  76.8013420 128.1220727
  36.8714896  78.0969873 128.1423752  38.2770714  75.4032700 130.2589332
  37.3301049  75.2838051 130.1867658  38.6253487  74.5155198 130.3415593
  35.2817147  75.1985416 126.4593684  35.1342109  74.2702124 126.6401254
  36.1070640  75.2205507 125.9750759  29.1479391  63.8503483 122.3174176
  29.4875464  64.3789405 121.5952784  29.5951512  64.1883890 123.0932743
  38.8851269  76.0213975 127.5458557  39.8097816  75.8156836 127.4083008
  38.7166572  75.7730376 128.4547898  31.1347538  62.3478105 120.5167469
  31.8555901  62.7259358 120.0131186  30.5112842  63.0666982 120.6202447
  35.2778661  63.0523254 121.4525801  35.4942276  63.9347892 121.1514629
  34.7972728  62.6609467 120.7231443  38.6746585  76.5399643 122.9020648
  38.8483463  75.9746065 122.1494501  39.1675476  77.3400537 122.7200138
  44.5285976  69.3036066 124.5210948  44.9717122  68.5543391 124.1230071
  43.6512486  69.2946202 124.1384680  39.6621757  75.8566407 120.0017546
  40.3572662  76.4773100 120.2204861  40.0044908  75.0061758 120.2769924
  41.5613181  73.3066113 121.5304877  42.0864505  73.6453385 120.8054197
  41.4735533  72.3713128 121.3468012  30.2541220  73.4680028 121.4380893
  30.4029341  74.1515493 120.7847565  31.0607664  73.4485118 121.9530348
  44.0718841  70.7741304 126.9133395  44.9065732  71.2131108 127.0770956
  44.2077970  70.2979957 126.0941641  28.0093853  69.4945206 122.4441961
  27.7639895  68.5907536 122.6422172  28.1789768  69.4962356 121.5021439
  27.2789501  65.2273563 119.9428123  26.5858746  65.3017918 119.2868159
  27.0341253  64.4633907 120.4649640  33.7536626  75.9628159 118.9092640
  33.1810593  76.5818346 118.4563112  34.3269420  76.5127520 119.4432562
  36.9733886  76.2465309 120.0401222  37.9064559  76.1810870 120.2434098
  36.8857099  77.0821576 119.5815755  39.6021902  75.5631179 117.0005170
  39.5235534  75.2291043 117.8940928  40.4231569  76.0552947 116.9996642
  42.3000094  68.4292918 130.2081488  42.2676414  67.4908919 130.3941172
  42.9100717  68.5076955 129.4747313  34.1383424  67.2988971 116.2508692
  35.0842529  67.1695180 116.3197111  33.7597669  66.5603633 116.7278121
  48.1176643  69.4908925 129.3487525  48.8480032  69.2294213 129.9095229
  47.5083589  68.7537647 129.3889593  46.1991941  67.6316788 129.9461976
  45.4725104  67.4972753 129.3378468  45.7839227  67.9393616 130.7518694
  32.3226342  65.2238948 116.1863578  31.4157797  64.9272061 116.2626291
  32.6002323  64.9268766 115.3197864  33.9388407  59.7675838 122.3407819
  33.1289136  59.4222923 122.7163065  34.6272824  59.4583381 122.9295431
  31.0925126  62.0825883 116.3275557  31.9544290  62.4080781 116.5871374
  31.2775470  61.2957379 115.8148623  39.2457763  60.9554409 123.4710780
  38.6656432  61.6139214 123.0888832  38.9793695  60.1331754 123.0598197
  38.0282641  63.1154500 122.5267128  37.1408496  63.4004151 122.3087323
  38.4436630  62.9548263 121.6794405  41.3797177  63.1401021 126.2421467
  42.1557567  63.6297473 126.5146084  40.6545311  63.5659075 126.6993337
  43.8169735  63.8528640 127.2995408  44.4114226  63.6124376 126.5888716
  43.8896319  63.1335771 127.9268944  37.1725854  72.8799175 116.6215148
  37.8761704  73.0849177 117.2372804  36.4488503  73.4475936 116.8864232
  38.0023664  68.6309036 122.7417418  37.9458866  69.0877587 121.9025051
  38.5552007  67.8699720 122.5640261  41.8128470  64.4198768 123.5667538
  41.5565405  64.0195403 124.3975746  41.1881338  65.1342562 123.4417677
  46.1240808  67.1594841 126.0738829  45.5640366  67.2288030 126.8470391
  45.5184312  66.9835826 125.3538325  39.0812552  73.3181704 118.6713608
  39.9158156  72.8862902 118.4891083  38.9196894  73.1463717 119.5990503
  38.7358444  69.8213817 120.0369948  38.6807248  69.6558088 119.0958392
  38.1104499  70.5289850 120.1932137  32.0454569  59.3221926 119.6155266
  32.0333239  60.2663766 119.7723537  32.9377991  59.1392071 119.3214727
  40.3773349  85.6414259 124.6927201  39.8138214  85.5504196 123.9243488
  40.2625744  84.8214164 125.1729693  45.9572907  89.3085227 120.0041665
  45.3060887  89.8939307 119.6175679  46.7517270  89.8391422 120.0636703
  39.8828535  86.3974364 120.4028800  40.6559411  85.8503351 120.2641676
  40.2353933  87.2618614 120.6143261  42.2194812  82.5567030 118.0347250
  42.4720333  82.0348552 117.2730713  41.2819371  82.3933176 118.1373933
  47.2638095  81.5602809 125.8421993  48.0501184  81.1422232 125.4912410
  47.5276799  82.4648901 126.0103641  47.4348173  86.9975659 120.5410650
  46.7994005  87.0710286 121.2531554  47.1045579  87.5869258 119.8629729
  41.9391101  84.4595136 120.2371625  41.8227359  83.7840040 120.9052709
  42.0493361  83.9727510 119.4203778  44.2822642  83.9205283 123.9418314
  43.9180849  83.3935904 124.6531235  45.1389758  83.5303752 123.7684799
  43.9228129  78.9495183 118.9379662  44.0902531  79.8175420 119.3050134
  43.7325298  79.1122465 118.0140952  40.1315944  83.8625959 126.6382197
  39.2066440  83.7302173 126.8459889  40.3800357  84.6420178 127.1352140
  43.9017350  81.4052841 119.9226329  43.7816975  81.8509891 120.7611810
  43.2069938  81.7538158 119.3639867  49.6002416  81.8774314 120.7506663
  50.5120272  82.1101701 120.5754361  49.0912063  82.4611358 120.1881742
  46.9438391  78.0532350 128.9996524  46.0822870  78.3513603 129.2913262
  46.9700825  78.2702749 128.0677557  43.7599960  86.5974540 125.4070330
  44.2238306  86.8762243 124.6174952  43.4956758  85.6957985 125.2243421
  42.6968846  82.7197693 122.2159895  43.3992890  83.1718736 122.6833821
  42.3649475  82.0781512 122.8439788  36.4394180  80.9781245 127.5177029
  35.6493234  81.2338774 127.0417139  36.9305428  81.7929583 127.6229069
  38.3908926  81.3425825 124.4760505  37.5940089  81.4544519 124.9944001
  38.1634518  81.6812477 123.6101396  43.9362611  89.5338635 122.2922000
  43.8008286  90.3790171 122.7206848  44.4772423  89.7357913 121.5287934
  37.3892008  87.0514073 122.8649925  37.9016529  87.8457324 123.0155490
  38.0414721  86.3540364 122.7983527  39.1986893  90.1679830 124.9472679
  39.3753521  91.0897794 124.7593662  39.9943727  89.8538249 125.3767058
  47.2855074  73.0569197 130.8220894  46.9419344  73.9470839 130.7460004
  47.6534037  72.8670855 129.9590479  35.3540925  85.3802728 123.6409496
  36.1916147  85.7899736 123.4243204  35.5319193  84.4402170 123.6109690
  47.2505357  83.0477808 119.3293329  46.7351981  83.8182413 119.5681716
  46.9782666  82.3742944 119.9526390  44.8352468  77.8927509 124.3878567
  43.9794065  77.5034359 124.2084206  45.2479420  77.9719470 123.5278353
  46.3651615  75.4273852 128.7870127  45.8616410  75.3903988 127.9737932
  46.6582222  76.3366595 128.8466784  42.6094501  75.5112582 127.7936309
  43.4747497  75.3155391 127.4342198  42.6772010  75.2822934 128.7205665
  52.2239631  85.8010163 121.2646502  51.4469074  85.4621322 120.8201664
  52.9031112  85.8062786 120.5901467  47.0391660  80.9204900 121.1553110
  46.7341796  81.2351050 122.0063253  47.9922102  80.9986320 121.1980443
  45.4838092  87.0795124 122.8046064  44.9559454  86.3447883 122.4919301
  44.9825595  87.8569800 122.5586032  40.2156820  77.7414790 125.1652676
  40.7900572  77.5189971 124.4325868  40.8027802  77.8103485 125.9181277
  40.5426407  79.7719251 119.1848561  39.7063719  80.1093938 119.5057836
  40.4031177  79.6368231 118.2475698  42.5179488  74.6156039 123.8927745
  41.8643900  74.3005056 123.2684360  42.4759962  73.9931779 124.6187568
  43.6290692  84.8975334 115.8081037  42.7217754  84.6664587 116.0072186
  44.1261724  84.1012953 115.9955019  46.5358771  93.6072841 118.7277723
  45.8620470  93.9104538 119.3362681  46.9224593  94.4101922 118.3783180
  45.7517228  81.1037972 128.2175393  44.8339789  81.3252919 128.0597081
  46.1677371  81.1784283 127.3587100  46.5352276  82.5029388 123.3478073
  47.2824095  83.0150785 123.0385195  46.8043865  82.1813441 124.2082466
  44.8078926  84.9987929 120.3305027  43.8990145  84.7146962 120.4277497
  44.8374010  85.4187007 119.4708334  48.9831113  79.5386504 125.3296862
  48.2453870  79.0263891 125.6607105  49.2357886  79.0986886 124.5180139
  49.0842740  72.3162756 125.9238631  49.3901617  71.4560120 125.6364546
  49.8095345  72.9080377 125.7237625  35.3767096  82.7193443 124.3120229
  35.1791496  82.1262804 123.5871296  34.8213760  82.4145653 125.0296168
  43.3563820  82.6116549 126.4314822  43.4112430  81.6590386 126.3557299
  42.5455022  82.7675989 126.9156121  44.5055014  86.5396673 117.6693106
  44.0674444  85.8232531 117.2098743  45.2465454  86.7672787 117.1078197
  41.2956180  81.2293609 124.1905201  40.4824045  81.5287780 124.5970393
  41.7915174  80.8349298 124.9079684  52.6228128  84.8153870 123.7269424
  52.4846027  85.0055466 122.7990613  52.2664347  85.5773252 124.1837475
  40.7870255  78.8011965 129.8066436  41.4269634  78.6600724 129.1089400
  39.9547785  78.5146478 129.4305038  41.5630558  88.1014395 125.9201429
  42.3571157  87.6064715 125.7184004  40.8522251  87.5732258 125.5569134
  37.8713322  82.2457477 121.9961181  36.9410910  82.1841932 122.2131144
  37.9670794  81.7233430 121.1997823  37.7898871  78.7712290 124.5839423
  38.0505688  79.6857623 124.4748584  38.6116043  78.3036732 124.7336036
  44.7349986  93.7752514 120.9424802  44.9101742  93.3040557 121.7570425
  44.0482774  94.4018280 121.1706063  48.6266241  85.3981054 117.2625163
  48.0095412  84.6727882 117.1658216  48.1582730  86.1590414 116.9192238
  40.4164787  79.6166478 116.3846468  39.5394253  79.4955279 116.0208714
  40.8922540  78.8252557 116.1325356  46.9125363  77.7787398 126.2743193
  47.4094063  77.0257361 125.9544264  46.1412345  77.8151715 125.7086403
  47.9955144  86.5359086 123.8481617  47.0611423  86.6560548 123.6786321
  48.1731812  85.6331552 123.5841627  43.4960332  79.9204781 126.0014878
  43.1258120  79.3675822 126.6895784  43.9919424  79.3162915 125.4489878
  51.3827695  82.3776405 124.3831651  51.8488148  83.2104396 124.3091954
  51.8335196  81.9121386 125.0876909  49.4503926  88.7220226 121.3817803
  49.7263770  88.6076821 122.2911677  48.5808425  88.3237711 121.3429976
  49.3544358  74.7456992 128.4222552  48.4407438  74.9761219 128.5904759
  49.7837460  74.8295436 129.2736585  46.4200156  91.8974762 122.2865665
  46.9487922  91.3867217 121.6735827  46.6828376  91.5817292 123.1511198
  38.8925666  77.3308772 132.2467984  38.9566992  78.1923603 131.8345382
  38.8292786  76.7182774 131.5140343  35.1443481  81.2108334 121.8259373
  35.4396922  80.3019012 121.7726427  34.2431517  81.1896073 121.5040376
  38.6737728  79.2864330 127.8086922  37.9524314  79.9000298 127.6694395
  39.4630984  79.8222095 127.7303568  36.8731323  78.8922431 121.9498698
  36.5444029  78.0119810 121.7673804  37.2270693  78.8370100 122.8375088
  39.9873146  79.1795401 122.3174176  40.3269218  79.7081322 121.5952784
  40.4345266  79.5175807 123.0932743  42.6816587  77.5632452 131.7677244
  42.3413407  76.7640265 132.1697924  41.9755593  77.8634163 131.1954077
  43.3333058  74.6481764 130.2204567  44.1559128  74.1742243 130.0983457
  43.5771122  75.4272248 130.7203253  41.9741293  77.6770023 120.5167469
  42.6949655  78.0551276 120.0131186  41.3506597  78.3958900 120.6202447
  46.1172416  78.3815172 121.4525801  46.3336030  79.2639810 121.1514629
  45.6366483  77.9901385 120.7231443  40.8571637  81.3400885 128.0296546
  40.7116218  81.6541188 128.9220827  40.3796841  81.9585785 127.4767444
  42.7168020  78.3303433 128.0777435  42.7029589  77.4344526 127.7409733
  43.4340448  78.3374097 128.7115721  44.5694151  78.7640773 130.1230563
  44.3111929  79.6857844 130.1214893  44.0379191  78.3671208 130.8131027
  42.1204916  77.2117813 123.3465005  42.2420827  76.2834459 123.5455893
  41.8306958  77.2256499 122.4343321  44.9896106  74.8972724 126.4831725
  45.0117803  74.9612057 125.5283705  45.4064165  74.0577232 126.6772231
  50.5015512  91.1858325 120.0017546  51.1966417  91.8065017 120.2204861
  50.8438662  90.3353676 120.2769924  52.4006935  88.6358030 121.5304877
  52.9258259  88.9745303 120.8054197  52.3129288  87.7005046 121.3468012
  41.0934975  88.7971946 121.4380893  41.2423095  89.4807410 120.7847565
  41.9001418  88.7777036 121.9530348  38.8487608  84.8237124 122.4441961
  38.6033650  83.9199454 122.6422172  39.0183522  84.8254274 121.5021439
  38.1183255  80.5565481 119.9428123  37.4252500  80.6309836 119.2868159
  37.8735007  79.7925825 120.4649640  46.7896912  72.1161082 127.3467614
  47.0698666  71.4484272 127.9728040  47.5747519  72.3090178 126.8342278
  44.5930380  91.2920076 118.9092640  44.0204348  91.9110263 118.4563112
  45.1663174  91.8419438 119.4432562  47.8127640  91.5757226 120.0401222
  48.7458313  91.5102788 120.2434098  47.7250853  92.4113493 119.5815755
  50.4415657  90.8923097 117.0005170  50.3629288  90.5582960 117.8940928
  51.2625324  91.3844865 116.9996642  44.9777179  82.6280889 116.2508692
  45.9236284  82.4987097 116.3197111  44.5991424  81.8895551 116.7278121
  50.9499063  74.2936895 126.2135584  50.7523885  73.9851983 127.0978916
  51.5598769  75.0198534 126.3433514  43.1620096  80.5530865 116.1863578
  42.2551551  80.2563978 116.2626291  43.4396077  80.2560684 115.3197864
  44.7782162  75.0967755 122.3407819  43.9682890  74.7514840 122.7163065
  45.4666579  74.7875299 122.9295431  46.7072710  74.1745802 123.9632116
  47.2603749  74.5941255 124.6222139  46.9442796  73.2481550 124.0055072
  41.9318881  77.4117801 116.3275557  42.7938045  77.7372699 116.5871374
  42.1169225  76.6249297 115.8148623  50.0851517  76.2846327 123.4710780
  49.5050186  76.9431131 123.0888832  49.8187450  75.4623672 123.0598197
  48.5355084  75.6851385 125.6732100  49.0354862  75.7967919 124.8646419
  49.1790691  75.3812438 126.3132909  48.8676395  78.4446418 122.5267128
  47.9802250  78.7296068 122.3087323  49.2830384  78.2840181 121.6794405
  52.2190931  78.4692939 126.2421467  52.9951321  78.9589391 126.5146084
  51.4939066  78.8950993 126.6993337  48.0119609  88.2091092 116.6215148
  48.7155459  88.4141095 117.2372804  47.2882257  88.7767854 116.8864232
  48.8417419  83.9600953 122.7417418  48.7852620  84.4169505 121.9025051
  49.3945761  83.1991638 122.5640261  52.6522225  79.7490685 123.5667538
  52.3959159  79.3487321 124.3975746  52.0275093  80.4634479 123.4417677
  49.9206306  88.6473621 118.6713608  50.7551910  88.2154820 118.4891083
  49.7590649  88.4755635 119.5990503  49.5752198  85.1505735 120.0369948
  49.5201002  84.9850006 119.0958392  48.9498254  85.8581768 120.1932137
  42.8848324  74.6513844 119.6155266  42.8726994  75.5955684 119.7723537
  43.7771746  74.4683989 119.3214727  46.7000443  71.2456620 123.8701203
  45.9332839  70.6915107 124.0157885  47.1111148  71.3178489 124.7315354
  51.3820161  95.1011169 119.1848561  50.5457474  95.4385855 119.5057836
  51.2424931  94.9660148 118.2475698  51.2558542  94.9458396 116.3846468
  50.3788008  94.8247197 116.0208714  51.7316295  94.1544474 116.1325356
  48.9577010  95.8857399 119.9428123  48.2646255  95.9601754 119.2868159
  48.7128762  95.1217742 120.4649640  54.0013851  95.8822783 116.1863578
  53.0945306  95.5855896 116.2626291  54.2789832  95.5852601 115.3197864
  52.7712635  92.7409718 116.3275557  53.6331799  93.0664617 116.5871374
  52.9562979  91.9541214 115.8148623  53.7242078  89.9805761 119.6155266
  53.7120748  90.9247601 119.7723537  54.6165500  89.7975907 119.3214727
  24.8571264  39.9551128 105.4523030  24.1832962  40.2582825 106.0607988
  25.2437085  40.7580209 105.1028487  28.8228004  37.5336612 106.7262853
  29.5178909  38.1543305 106.9450168  29.1651154  36.6831963 107.0015231
  22.9142873  37.6398364 105.6337947  22.3416840  38.2588551 105.1808418
  23.4875666  38.1897725 106.1677869  26.1340132  37.9235514 106.7646529
  27.0670806  37.8581075 106.9679404  26.0463345  38.7591781 106.3061062
  28.7628149  37.2401384 103.7250476  28.6841781  36.9061248 104.6186234
  29.5837816  37.7323152 103.7241949  26.3332101  34.5569379 103.3460455
  27.0367951  34.7619382 103.9618110  25.6094750  35.1246141 103.6109538
  28.2418798  34.9951909 105.3958915  29.0764402  34.5633107 105.2136390
  28.0803141  34.8233922 106.3235809  36.8703073  45.5121560 115.4914092
  37.5081483  45.3928307 114.7877432  36.7523916  46.4602404 115.5502044
  29.5379595  47.3184464 111.4172507  28.9744461  47.2274401 110.6488795
  29.4231990  46.4984369 111.8975000  35.1179154  50.9855432 106.7286972
  34.4667134  51.5709512 106.3420986  35.9123517  51.5161627 106.7882010
  29.0434781  48.0744569 107.1274106  29.8165657  47.5273556 106.9886982
  29.3960180  48.9388818 107.3388568  31.3801059  44.2337235 104.7592556
  31.6326580  43.7118757 103.9976019  30.4425618  44.0703381 104.8619240
  36.4244342  43.2373014 112.5667300  37.2107431  42.8192437 112.2157717
  36.6883046  44.1419106 112.7348948  36.5954419  48.6745864 107.2655956
  35.9600252  48.7480490 107.9776861  36.2651826  49.2639463 106.5875036
  41.8252769  43.1748247 113.4700278  42.5577941  42.6047464 113.7038108
  41.0692125  42.7869847 113.9106784  31.0997348  46.1365341 106.9616931
  30.9833606  45.4610245 107.6298016  31.2099608  45.6497715 106.1449084
  33.4428889  45.5975488 110.6663621  33.0787096  45.0706109 111.3776542
  34.2996005  45.2073957 110.4930106  33.0834376  40.6265388 105.6624969
  33.2508778  41.4945624 106.0295440  32.8931545  40.7892670 104.7386258
  33.0623597  43.0823046 106.6471636  32.9423222  43.5280096 107.4857116
  32.3676185  43.4308363 106.0885174  30.8230489  55.8526687 110.2961767
  30.7454518  56.8034512 110.3750248  30.2192132  55.5072560 110.9536693
  38.7608663  43.5544519 107.4751970  39.6726519  43.7871905 107.2999668
  38.2518310  44.1381563 106.9127049  37.3678245  48.5370337 114.8665551
  36.7387108  48.7016051 114.1641619  36.9803907  48.9511947 115.6376515
  41.2467477  49.4724775 112.2209915  40.5618515  49.8523676 111.6706949
  41.3311326  50.0820102 112.9541863  32.9206207  48.2744745 112.1315637
  33.3844553  48.5532448 111.3420259  32.6563005  47.3728190 111.9488727
  31.8575093  44.3967898 108.9405202  32.5599136  44.8488941 109.4079128
  31.5255722  43.7551716 109.5685095  39.6164237  49.9956689 116.9927616
  40.4381680  49.5936877 116.7110298  39.6126639  49.8924924 117.9443732
  47.7070230  46.3395438 113.3412588  46.9533938  45.7702836 113.1856592
  47.8417771  46.3058102 114.2883222  33.0968858  51.2108840 109.0167307
  32.9614532  52.0560376 109.4452155  33.6378670  51.4128118 108.2533241
  26.5498255  48.7284278 109.5895232  27.0622776  49.5227529 109.7400797
  27.2020968  48.0310569 109.5228833  28.3593140  51.8450035 111.6717985
  28.5359768  52.7667999 111.4838969  29.1549973  51.5308454 112.1012365
  29.4824455  53.3628208 117.6728327  30.0331880  53.2345272 116.9005321
  28.6435931  53.6623097 117.3223220  24.5147172  47.0572933 110.3654803
  25.3522394  47.4669941 110.1488510  24.6925440  46.1172375 110.3354996
  36.4111604  44.7248013 106.0538635  35.8958227  45.4952618 106.2927023
  36.1388912  44.0513149 106.6771697  33.9958715  39.5697714 111.1123874
  33.1400311  39.1804564 110.9329513  34.4085667  39.6489675 110.2523659
  41.3845878  47.4780368 107.9891809  40.6075321  47.1391527 107.5446971
  42.0637359  47.4832991 107.3146774  36.1997907  42.5975105 107.8798417
  35.8948043  42.9121254 108.7308560  37.1528349  42.6756525 107.9225750
  34.6444339  48.7565329 109.5291371  34.1165701  48.0218088 109.2164608
  34.1431842  49.5340005 109.2831339  39.6237185  46.9514349 114.6458417
  38.9660859  47.6413611 114.7338546  40.4277584  47.3410781 114.9892403
  38.4342644  45.3058722 112.6962359  38.9474526  45.9388714 113.1984068
  39.0843868  44.7059917 112.3305719  29.7032654  41.4489456 105.9093867
  28.8669966  41.7864142 106.2303142  29.5637423  41.3138436 104.9721004
  32.7896939  46.5745539 102.5326344  31.8824001  46.3434792 102.7317493
  33.2867971  45.7783158 102.7200325  35.6965018  55.2843046 105.4523030
  35.0226717  55.5874743 106.0607988  36.0830840  56.0872126 105.1028487
  35.6958522  44.1799593 110.0723379  36.4430341  44.6920990 109.7630502
  35.9650112  43.8583646 110.9327773  33.9685173  46.6758134 107.0550334
  33.0596392  46.3917167 107.1522803  33.9980256  47.0957212 106.1953641
  39.2004440  50.2864723 110.8241501  38.7466767  49.4455633 110.8806692
  38.5698407  50.9226122 111.1616281  38.1437360  41.2156709 112.0542169
  37.4060116  40.7034096 112.3852411  38.3964133  40.7757091 111.2425446
  37.6437379  52.1241220 111.7591319  37.9360354  52.6846277 111.0403685
  38.1536000  52.4169781 112.5144479  32.5170067  44.2886754 113.1560129
  32.5718676  43.3360591 113.0802606  31.7061269  44.4446193 113.6401428
  33.6661260  48.2166877 104.3938412  33.2280690  47.5002736 103.9344050
  34.4071701  48.4442992 103.8323504  30.4562427  42.9063814 110.9150508
  29.6430292  43.2057985 111.3215700  30.9521421  42.5119503 111.6324990
  32.6071004  52.9021571 112.8484773  32.5647183  53.1282417 111.9193305
  33.5233703  52.6684946 112.9970574  41.7834375  46.4924074 110.4514731
  41.6452274  46.6825670 109.5235920  41.4270594  47.2543457 110.9082782
  41.8103755  48.5600601 115.4626002  42.2440261  48.4675891 116.3109056
  42.5235335  48.5358102 114.8246018  30.7236805  49.7784600 112.6446735
  31.5177404  49.2834920 112.4429310  30.0128498  49.2502463 112.2814441
  35.5431650  52.1602696 116.9959103  35.5968672  52.7293632 117.7636819
  34.6746431  52.3304581 116.6313140  27.0319569  43.9227682 108.7206488
  26.1017157  43.8612137 108.9376450  27.1277041  43.4003635 107.9243129
  42.6719304  48.6024302 117.9958888  42.8655194  49.5070113 118.2418163
  42.5719922  48.1431721 118.8297473  33.3008081  50.3513622 116.3244572
  33.1619167  49.9832406 117.1970511  32.5122677  50.8661261 116.1528530
  33.8956233  55.4522719 107.6670109  34.0707989  54.9810762 108.4815732
  33.2089021  56.0788485 107.8951370  34.8513296  49.7295225 113.7133410
  34.5163129  49.6895995 114.6091060  34.3517242  49.0639941 113.2403820
  37.7872488  47.0751259 103.9870470  37.1701659  46.3498087 103.8903523
  37.3188976  47.8360619 103.6437544  28.4617318  58.6012081 114.4409969
  28.7013917  59.2330605 115.1188988  27.6186515  58.2500121 114.7275328
  29.5771034  41.2936683 103.1091774  28.7000500  41.1725484 102.7454021
  30.0528787  40.5022762 102.8570663  32.9745180  54.4091204 116.8451473
  32.9015352  55.2146175 117.3570778  32.5322573  54.6083170 116.0199495
  32.7634960  53.6462974 110.3554295  31.9802482  54.1884654 110.4492519
  33.4627705  54.1636953 110.7548536  43.9261367  45.1597969 114.6406792
  43.9151244  46.0422684 114.2700725  43.0578747  44.8069520 114.4461329
  35.4343864  54.3078038 119.0009632  36.1471836  54.9425503 118.9285533
  34.9433892  54.4041904 118.1849634  37.1561391  48.2129290 110.5726923
  36.2217669  48.3330753 110.4031628  37.3338059  47.3101757 110.3086933
  40.5433942  44.0546610 111.1076958  41.0094394  44.8874601 111.0337260
  40.9941443  43.5891591 111.8122216  38.6110173  50.3990431 108.1063110
  38.8870017  50.2847026 109.0156984  37.7414672  50.0007916 108.0675283
  35.2464237  54.6476782 111.7495923  35.4286632  53.8298438 112.2123676
  36.0697223  54.8644474 111.3120813  35.5806403  53.5744967 109.0110972
  36.1094169  53.0637422 108.3981134  35.8434622  53.2587497 109.8756505
  28.9362151  54.6260084 111.7708748  28.2672526  55.1106211 111.2872788
  28.7975020  54.8729304 112.6852126  33.0767419  56.6603827 118.3691406
  33.6285727  56.8235449 119.1340491  33.4173613  57.2508265 117.6971431
  24.3049728  42.8878539 108.5504680  24.6003169  41.9789217 108.4971734
  23.4037764  42.8666278 108.2285682  36.2135807  54.6085803 115.3555088
  36.0886946  53.8075543 114.8466034  36.8714898  55.1031996 114.8669058
  38.2770715  52.4094823 116.9834638  37.3301050  52.2900174 116.9112965
  38.6253488  51.5217321 117.0660900  35.2817148  52.2047539 113.1838991
  35.1342111  51.2764246 113.3646561  36.1070642  52.2267630 112.6996066
  29.1479392  40.8565606 109.0419483  29.4875465  41.3851527 108.3198091
  29.5951513  41.1946012 109.8178049  38.8851270  53.0276098 114.2703863
  39.8097818  52.8218959 114.1328314  38.7166573  52.7792499 115.1793205
  31.1347540  39.3540228 107.2412775  31.8555902  39.7321480 106.7376492
  30.5112844  40.0729104 107.3447753  35.2778663  40.0585377 108.1771108
  35.4942277  40.9410015 107.8759936  34.7972730  39.6671590 107.4476750
  38.6746586  53.5461765 109.6265955  38.8483464  52.9808188 108.8739807
  39.1675477  54.3462660 109.4445445  44.5285977  46.3098188 111.2456254
  44.9717123  45.5605513 110.8475378  43.6512488  46.3008324 110.8629986
  39.6621759  52.8628530 106.7262853  40.3572663  53.4835222 106.9450168
  40.0044909  52.0123881 107.0015231  41.5613182  50.3128235 108.2550184
  42.0864506  50.6515508 107.5299504  41.4735534  49.3775250 108.0713318
  33.2453843  56.3800218 112.6145437  32.8058833  55.8876597 113.3078294
  33.9961960  55.8373186 112.3737512  25.7246182  52.5711759 112.6170065
  26.5504202  52.2715531 112.2368709  25.3740234  51.8019382 113.0659854
  30.6927715  51.9238227 114.6867739  30.0707724  51.2608933 114.3869967
  31.3632582  51.9499359 114.0041386  30.2541222  50.4742151 108.1626199
  30.4029342  51.1577615 107.5092872  31.0607665  50.4547241 108.6775655
  44.0718842  47.7803426 113.6378702  44.9065734  48.2193230 113.8016262
  44.2077971  47.3042080 112.8186948  28.0093855  46.5007328 109.1687268
  27.7639897  45.5969658 109.3667478  28.1789769  46.5024479 108.2266746
  27.2789502  42.2335686 106.6673430  26.5858747  42.3080041 106.0113466
  27.0341254  41.4696030 107.1894946  33.7536627  52.9690281 105.6337947
  33.1810594  53.5880468 105.1808418  34.3269421  53.5189643 106.1677869
  36.9733887  53.2527431 106.7646529  37.9064560  53.1872993 106.9679404
  36.8857100  54.0883698 106.3061062  42.3000095  45.4355041 116.9326795
  42.2676415  44.4971042 117.1186479  42.9100718  45.5139078 116.1992620
  34.1383426  44.3051094 102.9753999  35.0842530  44.1757302 103.0442417
  33.7597671  43.5665756 103.4523427  48.1176645  46.4971048 116.0732832
  48.8480033  46.2356336 116.6340535  47.5083590  45.7599770 116.1134900
  46.1991942  44.6378910 116.6707283  45.4725105  44.5034875 116.0623775
  45.7839229  44.9455739 117.4764001  32.3226343  42.2301070 102.9108884
  31.4157798  41.9334183 102.9871598  32.6002324  41.9330888 102.0443171
  33.9388409  36.7737960 109.0653126  33.1289137  36.4285045 109.4408372
  34.6272826  36.4645504 109.6540737  31.0925127  39.0888006 103.0520864
  31.9544291  39.4142904 103.3116681  31.2775472  38.3019502 102.5393929
  39.2457764  37.9616532 110.1956087  38.6656433  38.6201336 109.8134139
  38.9793697  37.1393877 109.7843504  38.0282642  40.1216622 109.2512435
  37.1408497  40.4066273 109.0332630  38.4436631  39.9610386 108.4039712
  41.3797178  40.1463143 112.9666774  42.1557568  40.6359596 113.2391391
  40.6545312  40.5721198 113.4238644  43.8169737  40.8590763 114.0240715
  44.4114228  40.6186499 113.3134023  43.8896320  40.1397893 114.6514251
  26.0366892  54.7024374 114.3383879  25.9021360  53.9424774 113.7721878
  25.6198955  55.4265273 113.8712668  37.1725855  49.8861297 103.3460455
  37.8761706  50.0911300 103.9618110  36.4488504  50.4538059 103.6109538
  38.0023666  45.6371158 109.4662725  37.9458867  46.0939710 108.6270357
  38.5552008  44.8761843 109.2885568  41.8128472  41.4260890 110.2912844
  41.5565406  41.0257526 111.1221052  41.1881340  42.1404684 110.1662984
  46.1240809  44.1656964 112.7984136  45.5640367  44.2350153 113.5715698
  45.5184313  43.9897948 112.0783632  29.1936018  55.5993691 114.5502322
  29.0768402  56.5439123 114.4481012  28.3728465  55.2967252 114.9388121
  39.0812553  50.3243826 105.3958915  39.9158157  49.8925025 105.2136390
  38.9196896  50.1525840 106.3235809  38.7358445  46.8275940 106.7615254
  38.6807249  46.6620211 105.8203698  38.1104500  47.5351973 106.9177444
  32.0454570  36.3284049 106.3400573  32.0333240  37.2725889 106.4968843
  32.9377992  36.1454194 106.0460034  30.2190532  56.2521953 117.7658251
  31.1217779  56.2845563 118.0824746  29.9927902  55.3222403 117.7804586
  31.9744134  55.0052939 114.4268329  31.0239765  55.0054801 114.3132701
  32.2776621  54.2585674 113.9104364  47.7096828  60.8413477 115.4914092
  48.3475238  60.7220225 114.7877432  47.5917671  61.7894321 115.5502044
  44.5186534  60.7940906 115.4275616  44.1805046  60.6781970 114.5396151
  45.3876302  60.3932071 115.4076622  45.0006317  61.9475757 121.3861822
  44.9894958  61.5528556 120.5142325  45.1626957  61.2141830 121.9795593
  37.9237782  64.1427574 114.2556728  38.7159074  63.8018398 113.8403027
  38.1634432  64.2522549 115.1758881  41.7213578  64.7312869 120.3341006
  41.4303444  65.6358500 120.2187672  42.3570563  64.7729397 121.0485075
  42.6469785  62.1089718 116.9242365  43.2433357  61.8845740 116.2099328
  42.7044757  61.3674463 117.5267813  47.2638096  58.5664931 112.5667300
  48.0501186  58.1484354 112.2157717  47.5276801  59.4711023 112.7348948
  52.6646524  58.5040165 113.4700278  53.3971695  57.9339381 113.7038108
  51.9085879  58.1161765 113.9106784  44.2822643  60.9267406 110.6663621
  43.9180850  60.3998027 111.3776542  45.1389759  60.5365875 110.4930106
  50.1871944  52.2161739 117.9294887  49.8555269  53.0857150 117.7056102
  49.5917557  51.8998023 118.6088917  46.6803463  64.4174285 117.3290799
  46.3804187  65.3199323 117.2206607  46.3354523  64.1506468 118.1811952
  40.1315945  60.8688081 113.3627504  39.2066441  60.7364296 113.5705196
  40.3800358  61.6482301 113.8597446  50.0800607  56.9356825 115.0088237
  49.1717485  56.8672233 114.7146998  50.0288203  57.4128770 115.8370062
  37.4924756  60.5121355 114.1971293  37.6217137  60.7655834 115.1110705
  36.8122207  61.1049063 113.8775948  44.1541473  58.3546470 122.9523134
  43.3774807  58.9140391 122.9425999  44.7932036  58.8403253 123.4738004
  51.9462254  55.1373263 116.7866111  51.3036634  55.4305796 116.1405905
  51.4417182  55.0226184 117.5919307  49.6002417  58.8836436 107.4751970
  50.5120273  59.1163823 107.2999668  49.0912064  59.4673481 106.9127049
  42.4087845  61.1631924 122.5141101  43.1502530  61.7016968 122.2375925
  41.7024831  61.7898212 122.6712653  47.8843185  63.3061064 121.1113263
  48.2926541  62.8643475 120.3667895  47.1620446  62.7313692 121.3647455
  44.2374255  58.2433671 118.4846820  45.0835450  58.6673085 118.6281469
  44.1772893  57.5867295 119.1785383  52.0861231  64.8016693 112.2209915
  51.4012270  65.1815594 111.6706949  52.1705081  65.4112019 112.9541863
  47.3873700  55.9038039 120.1427993  47.1434632  56.6580100 119.6062269
  47.6633631  56.2823387 120.9775240  49.3412163  62.4476652 118.8205259
  49.5529058  63.0908412 118.1439640  49.2941911  61.6138968 118.3527189
  46.9438392  55.0594472 115.7241831  46.0822871  55.3575726 116.0158568
  46.9700827  55.2764871 114.7922864  40.6524043  63.1508144 115.0695400
  41.2225400  63.5795413 114.4312884  41.2432154  62.8690729 115.7679585
  42.6968848  59.7259815 108.9405202  43.3992891  60.1780859 109.4079128
  42.3649476  59.0843634 109.5685095  41.1449209  58.3171572 123.3156411
  40.5147870  58.9987853 123.5491808  41.0385297  58.2054654 122.3709549
  36.4394181  57.9843368 114.2422335  35.6493235  58.2400896 113.7662446
  36.9305429  58.7991706 114.3474376  50.4557991  65.3248607 116.9927616
  51.2775435  64.9228794 116.7110298  50.4520394  65.2216841 117.9443732
  38.3908927  58.3487947 111.2005812  37.5940090  58.4606641 111.7189308
  38.1634519  58.6874599 110.3346702  44.2214594  64.8732650 119.1488327
  44.2859027  65.3353058 119.9846498  43.5125518  64.2430015 119.2770636
  34.7231884  58.2373858 116.6737326  34.9739923  59.1220868 116.9394902
  35.2591433  58.0578460 115.9012418  58.5463984  61.6687356 113.3412588
  57.7927692  61.0994754 113.1856592  58.6811525  61.6350020 114.2883222
  37.3892010  64.0576196 109.5895232  37.9016530  64.8519446 109.7400797
  38.0414722  63.3602486 109.5228833  43.3397913  54.0350217 123.2701919
  44.0807626  54.6357370 123.1906381  43.5715836  53.2927855 122.7119961
  38.4839251  59.2206584 121.5480148  38.3692766  58.3191841 121.8487247
  37.6283769  59.4670281 121.1964965  45.5631089  67.1624324 123.1467649
  45.1194943  66.3760703 122.8288553  46.2248302  67.3503475 122.4811540
  40.3218210  68.6920126 117.6728327  40.8725635  68.5637189 116.9005321
  39.4829686  68.9915015 117.3223220  47.6612327  67.4427124 121.1749050
  47.6430802  68.2636005 120.6829319  48.5832247  67.3181200 121.3999191
  44.1185381  64.9571254 122.0172559  44.6513718  64.1959542 121.7871867
  43.5899462  64.6644906 122.7596713  47.2855076  50.0631320 117.5466200
  46.9419345  50.9532961 117.4705311  47.6534038  49.8732977 116.6835785
  35.3540926  62.3864850 110.3654803  36.1916148  62.7961859 110.1488510
  35.5319194  61.4464292 110.3354996  44.8352469  54.8989632 111.1123874
  43.9794066  54.5096482 110.9329513  45.2479421  54.9781592 110.2523659
  46.3651616  52.4335975 115.5115434  45.8616412  52.3966110 114.6983239
  46.6582223  53.3428718 115.5712090  42.6094502  52.5174705 114.5181615
  43.4747499  52.3217513 114.1587505  42.6772011  52.2885056 115.4450972
  52.2239633  62.8072286 107.9891809  51.4469075  62.4683445 107.5446971
  52.9031114  62.8124909 107.3146774  47.0391662  57.9267023 107.8798417
  46.7341797  58.2413172 108.7308560  47.9922104  58.0048443 107.9225750
  50.4630939  62.2806267 114.6458417  49.8054614  62.9705528 114.7338546
  51.2671339  62.6702699 114.9892403  40.2156821  54.7476913 111.8897982
  40.7900573  54.5252094 111.1571175  40.8027803  54.8165607 112.6426583
  49.2736398  60.6350639 112.6962359  49.7868280  61.2680631 113.1984068
  49.9237622  60.0351835 112.3305719  42.5179489  51.6218161 110.6173052
  41.8643901  51.3067179 109.9929666  42.4759963  50.9993902 111.3432875
  45.7517229  58.1100095 114.9420699  44.8339791  58.3315042 114.7842387
  46.1677373  58.1846406 114.0832407  46.5352277  59.5091511 110.0723379
  47.2824096  60.0212908 109.7630502  46.8043866  59.1875563 110.9327773
  48.9831114  56.5448627 112.0542169  48.2453871  56.0326013 112.3852411
  49.2357888  56.1049009 111.2425446  49.0842741  49.3224879 112.6483938
  49.3901618  48.4622242 112.3609853  49.8095346  49.9142499 112.4482932
  35.3767097  59.7255566 111.0365536  35.1791497  59.1324926 110.3116603
  34.8213761  59.4207776 111.7541475  43.3563821  59.6178672 113.1560129
  43.4112431  58.6652508 113.0802606  42.5455023  59.7738111 113.6401428
  41.2956181  58.2355732 110.9150508  40.4824047  58.5349902 111.3215700
  41.7915175  57.8411421 111.6324990  46.8930393  58.6997556 119.7465402
  47.2479780  58.9269029 120.6059868  47.5402524  59.0315933 119.1242657
  52.6228130  61.8215992 110.4514731  52.4846028  62.0117588 109.5235920
  52.2664348  62.5835375 110.9082782  40.7870256  55.8074087 116.5311743
  41.4269635  55.6662846 115.8334706  39.9547786  55.5208601 116.1550345
  52.6497509  63.8892519 115.4626002  53.0834016  63.7967808 116.3109056
  53.3629090  63.8650020 114.8246018  46.3825404  67.4894613 116.9959103
  46.4362426  68.0585550 117.7636819  45.5140186  67.6596498 116.6313140
  37.8713323  59.2519599 108.7206488  36.9410911  59.1904055 108.9376450
  37.9670795  58.7295552 107.9243129  37.7898872  55.7774412 111.3084730
  38.0505690  56.6919746 111.1993890  38.6116045  55.3098855 111.4581343
  39.2623798  57.1912169 118.4783554  39.9346851  56.9829532 117.8296203
  38.4353584  56.9934255 118.0388787  53.5113059  63.9316220 117.9958888
  53.7048949  64.8362030 118.2418163  53.4113677  63.4723639 118.8297473
  45.1649370  53.8174110 120.4949215  44.5177285  54.5164060 120.4013692
  45.9350385  54.2510254 120.8625463  48.5728167  64.0822963 123.5699768
  48.4213674  63.8533514 122.6529852  48.5632847  65.0393564 123.5831113
  45.3413504  61.6554875 118.5546035  46.2705564  61.8066035 118.3815002
  44.9204534  61.7438896 117.6994681  39.6651295  60.4654772 119.2385991
  39.5271093  59.7335011 119.8397530  40.5756218  60.3763673 118.9570179
  42.2933595  60.1774732 118.7269671  43.0033214  59.5367924 118.6856289
  42.2502904  60.4287627 119.6495852  50.2820374  67.1142085 121.6476250
  50.2232920  66.4301305 120.9806833  50.6839893  67.8561075 121.1956876
  41.0062529  57.1639950 120.5465311  40.4699886  56.7130688 121.1986907
  40.4179238  57.2985858 119.8035775  39.3011073  73.9303999 114.4409969
  39.5407671  74.5622523 115.1188988  38.4580269  73.5792039 114.7275328
  50.2837781  65.0781669 119.8790230  49.3964560  64.7407591 120.0016629
  50.8536332  64.3464700 120.1158995  31.9366929  61.4105761 113.2033281
  32.6237968  61.0967491 112.6154297  31.7815057  62.3147125 112.9300533
  36.7401651  56.2995957 117.6318305  36.6559839  55.6921627 116.8968715
  35.9184357  56.7904976 117.6327801  43.8138935  69.7383121 116.8451473
  43.7409106  70.5438093 117.3570778  43.3716328  69.9375087 116.0199495
  46.9125365  54.7849521 112.9988500  47.4094064  54.0319483 112.6789570
  46.1412346  54.8213838 112.4331709  54.7655122  60.4889886 114.6406792
  54.7544998  61.3714602 114.2700725  53.8972501  60.1361437 114.4461329
  46.2737618  69.6369955 119.0009632  46.9865591  70.2717420 118.9285533
  45.7827647  69.7333821 118.1849634  43.4960333  56.9266904 112.7260185
  43.1258121  56.3737944 113.4141090  43.9919426  56.3225037 112.1735185
  51.3827697  59.3838527 111.1076958  51.8488149  60.2166519 111.0337260
  51.8335197  58.9183509 111.8122216  41.3249532  67.3864399 119.8215203
  42.0258991  68.0200882 119.9744597  40.8544647  67.7279130 119.0610842
  49.3544359  51.7519114 115.1467859  48.4407439  51.9823341 115.3150066
  49.7837461  51.8357558 115.9981891  49.1250818  59.9409006 117.6467753
  48.4722268  60.1884914 116.9920206  49.5031198  59.1273145 117.3130230
  45.1738391  60.6828817 124.1333790  44.4979028  60.5822947 124.8036165
  45.9966025  60.5268031 124.5969787  36.9217250  66.9200754 116.7546305
  37.5070687  66.1744442 116.8874210  36.7242088  67.2304711 117.6382969
  31.5134905  59.4906354 115.4750748  31.5519004  58.9569945 116.2687867
  31.0075197  58.9641560 114.8561726  43.9161174  71.9895745 118.3691406
  44.4679482  72.1527366 119.1340491  44.2567367  72.5800183 117.6971431
  38.8925667  54.3370895 118.9713291  38.9566993  55.1985726 118.5590688
  38.8292787  53.7244896 118.2385649  48.7672048  66.8157002 124.2240060
  49.3111952  67.4286961 123.7295015  48.1858893  67.3736581 124.7407073
  35.1443482  58.2170456 108.5504680  35.4396923  57.3081135 108.4971734
  34.2431518  58.1958196 108.2285682  47.0529561  69.9377720 115.3555088
  46.9280700  69.1367460 114.8466034  47.7108652  70.4323914 114.8669058
  38.6737729  56.2926453 114.5332228  37.9524315  56.9062421 114.3939702
  39.4630985  56.8284218 114.4548874  49.1164469  67.7386740 116.9834638
  48.1694805  67.6192092 116.9112965  49.4647242  66.8509239 117.0660900
  41.4764043  53.6280879 120.8072880  41.9998445  53.8743176 121.5699190
  41.2576376  54.4600914 120.3876018  36.8731324  55.8984554 108.6744005
  36.5444030  55.0181933 108.4919111  37.2270695  55.8432223 109.5620394
  39.9873147  56.1857524 109.0419483  40.3269219  56.7143445 108.3198091
  40.4345267  56.5237930 109.8178049  49.7245025  68.3568015 114.2703863
  50.6491572  68.1510877 114.1328314  49.5560328  68.1084417 115.1793205
  42.6816588  54.5694574 118.4922551  42.3413408  53.7702388 118.8943231
  41.9755594  54.8696285 117.9199384  43.3333060  51.6543887 116.9449874
  44.1559129  51.1804365 116.8228764  43.5771123  52.4334371 117.4448560
  41.9741294  54.6832145 107.2412775  42.6949657  55.0613398 106.7376492
  41.3506598  55.4021022 107.3447753  46.1172417  55.3877294 108.1771108
  46.3336031  56.2701932 107.8759936  45.6366484  54.9963508 107.4476750
  40.8571638  58.3463008 114.7541852  40.7116219  58.6603311 115.6466134
  40.3796842  58.9647908 114.2012751  42.7168021  55.3365556 114.8022742
  42.7029590  54.4406649 114.4655040  43.4340449  55.3436219 115.4361028
  44.5694152  55.7702896 116.8475869  44.3111930  56.6919966 116.8460200
  44.0379192  55.3733330 117.5376333  35.3317301  60.8868352 117.6929514
  34.7870769  61.6628160 117.8249788  36.2096650  61.2339156 117.5348635
  42.1204917  54.2179936 110.0710312  42.2420828  53.2896582 110.2701200
  41.8306960  54.2318622 109.1588627  44.9896108  51.9034846 113.2077032
  45.0117804  51.9674179 112.2529011  45.4064167  51.0639355 113.4017538
  55.3679732  61.6390106 111.2456254  55.8110878  60.8897431 110.8475378
  54.4906242  61.6300242 110.8629986  36.1183322  60.0138248 120.5859670
  35.3765058  60.1620884 121.1724301  35.7976067  60.2746514 119.7226420
  52.4006936  65.6420153 108.2550184  52.9258260  65.9807426 107.5299504
  52.3129289  64.7067168 108.0713318  44.0626985  69.5554226 120.3840060
  44.3714111  69.3103373 121.2562760  44.8602467  69.7600865 119.8958931
  34.7648541  65.8190003 113.5758999  33.9280449  65.3912178 113.3943000
  34.7372187  66.0122447 114.5129790  52.0900842  66.2753056 123.5601382
  51.2996386  66.2577195 123.0205881  51.8534197  66.8141350 124.3150418
  52.2098717  63.1245523 120.8734110  52.2596722  62.9595530 121.8149633
  52.1012641  62.2572782 120.4831991  49.5002480  59.1076451 122.1893417
  50.4012343  58.9682916 121.8977415  49.5750454  59.2730906 123.1291594
  43.8345285  56.4843306 121.0346603  42.9648595  56.7776872 120.7629192
  44.0704766  57.0683751 121.7553867  53.7116914  65.5442464 121.1176132
  53.4201723  65.9072445 121.9539593  53.0989046  64.8309473 120.9389464
  54.9112597  63.1095344 113.6378702  55.7459488  63.5485148 113.8016262
  55.0471725  62.6333997 112.8186948  51.9604103  60.6675079 119.5856190
  52.4358224  60.8602725 118.7775041  51.0369668  60.7234265 119.3399573
  46.5384319  52.7022923 118.5512024  47.0566263  53.4383949 118.2258512
  46.1839452  53.0086916 119.3858783  38.1183257  57.5627604 106.6673430
  37.4252502  57.6371959 106.0113466  37.8735009  56.7987947 107.1894946
  46.7896913  49.1223205 114.0712920  47.0698667  48.4546394 114.6973347
  47.5747520  49.3152301 113.5587584  50.6605772  57.5440839 117.8184495
  51.6123194  57.6438937 117.8396719  50.4909222  56.7519108 118.3282580
  48.6820151  54.6296422 118.0043896  48.0870083  54.9101435 117.3090385
  48.3969848  55.1190323 118.7760637  50.4415658  67.8985219 103.7250476
  50.3629290  67.5645083 104.6186234  51.2625325  68.3906987 103.7241949
  53.1393849  60.7646959 116.9326795  53.1070169  59.8262959 117.1186479
  53.7494473  60.8430995 116.1992620  53.2888338  57.5558002 116.9785078
  52.7727386  56.7716459 116.7915007  54.1728286  57.2276719 117.1431598
  50.9499065  51.2999018 112.9380891  50.7523886  50.9914106 113.8224223
  51.5598770  52.0260657 113.0678821  58.9570399  61.8262966 116.0732832
  59.6873788  61.5648254 116.6340535  58.3477345  61.0891688 116.1134900
  57.0385696  59.9670828 116.6707283  56.3118860  59.8326793 116.0623775
  56.6232983  60.2747657 117.4764001  44.8615873  63.6860758 124.4354656
  45.7818882  63.8639357 124.6294703  44.8265456  62.7416803 124.2834355
  34.0798038  58.8799352 113.3607931  33.7600822  58.0264660 113.0682305
  33.5331466  59.0947930 114.1165898  37.8577945  61.5961793 117.0777437
  38.0763955  62.5278900 117.0965471  38.2703719  61.2369767 117.8632241
  44.7782163  52.1029878 109.0653126  43.9682891  51.7576963 109.4408372
  45.4666580  51.7937422 109.6540737  46.7072711  51.1807925 110.6877422
  47.2603750  51.6003378 111.3467445  46.9442798  50.2543673 110.7300378
  33.9486298  62.5002263 115.3301052  33.2549769  62.0856216 114.8171007
  34.6959289  62.5422800 114.7334471  50.0851518  53.2908450 110.1956087
  49.5050187  53.9493254 109.8134139  49.8187451  52.4685794 109.7843504
  48.5355085  52.6913507 112.3977407  49.0354863  52.8030042 111.5891726
  49.1790693  52.3874560 113.0378215  42.5937081  60.5992137 125.2845248
  42.1104162  61.3992497 125.4909137  42.6798020  60.6100082 124.3312692
  35.8623040  62.4320517 113.2067067  35.8393728  62.5308204 112.2548950
  36.1723677  63.2785668 113.5284233  38.5210418  64.4896672 117.3213682
  39.4753672  64.4580614 117.2543613  38.3222942  64.0287296 118.1363908
  39.1109800  63.0597788 119.8884479  39.9302689  63.5541867 119.9119317
  39.3846608  62.1429756 119.8602047  48.8676396  55.4508540 109.2512435
  47.9802251  55.7358191 109.0332630  49.2830386  55.2902304 108.4039712
  52.2190933  55.4755061 112.9666774  52.9951323  55.9651514 113.2391391
  51.4939067  55.9013115 113.4238644  54.6563491  56.1882680 114.0240715
  55.2507982  55.9478416 113.3134023  54.7290075  55.4689811 114.6514251
  36.8760647  70.0316291 114.3383879  36.7415115  69.2716692 113.7721878
  36.4592709  70.7557191 113.8712668  48.8417420  60.9663076 109.4662725
  48.7852622  61.4231628 108.6270357  49.3945763  60.2053761 109.2885568
  52.6522226  56.7552808 110.2912844  52.3959160  56.3549444 111.1221052
  52.0275094  57.4696602 110.1662984  56.9634564  59.4948881 112.7984136
  56.4034122  59.5642071 113.5715698  56.3578067  59.3189866 112.0783632
  49.9206307  65.6535744 105.3958915  50.7551911  65.2216943 105.2136390
  49.7590650  65.4817758 106.3235809  34.3644714  57.3935922 120.5876676
  35.0103578  56.8834876 121.0763902  34.1561866  58.1304603 121.1620102
  46.8898107  64.4616769 126.0868817  47.7589266  64.6357421 125.7255452
  46.4104858  65.2811186 125.9644546  42.8848325  51.6575966 106.3400573
  42.8726995  52.6017806 106.4968843  43.7771747  51.4746112 106.0460034
  41.0584287  71.5813870 117.7658251  41.9611534  71.6137480 118.0824746
  40.8321657  70.6514321 117.7804586  46.7000444  48.2518743 110.5946509
  45.9332840  47.6977230 110.7403192  47.1111149  48.3240612 111.4560661
  58.5490582  76.1705395 115.4914092  59.1868992  76.0512142 114.7877432
  58.4311425  77.1186239 115.5502044  55.3580289  76.1232823 115.4275616
  55.0198800  76.0073888 114.5396151  56.2270057  75.7223988 115.4076622
  51.2167104  77.9768300 111.4172507  50.6531970  77.8858237 110.6488795
  51.1019499  77.1568204 111.8975000  55.8400072  77.2767675 121.3861822
  55.8288712  76.8820473 120.5142325  56.0020711  76.5433748 121.9795593
  48.7631536  79.4719491 114.2556728  49.5552828  79.1310316 113.8403027
  49.0028186  79.5814466 115.1758881  56.7966663  81.6439267 106.7286972
  56.1454643  82.2293348 106.3420986  57.5911026  82.1745462 106.7882010
  50.7222290  78.7328405 107.1274106  51.4953166  78.1857392 106.9886982
  51.0747689  79.5972654 107.3388568  52.5607333  80.0604787 120.3341006
  52.2697199  80.9650418 120.2187672  53.1964317  80.1021314 121.0485075
  53.4863540  77.4381635 116.9242365  54.0827112  77.2137658 116.2099328
  53.5438511  76.6966381 117.5267813  53.0588568  74.8921071 104.7592556
  53.3114089  74.3702592 103.9976019  52.1213127  74.7287216 104.8619240
  58.1031851  73.8956849 112.5667300  58.8894940  73.4776272 112.2157717
  58.3670555  74.8002941 112.7348948  58.2741928  79.3329699 107.2655956
  57.6387761  79.4064326 107.9776861  57.9439335  79.9223298 106.5875036
  63.5040278  73.8332082 113.4700278  64.2365450  73.2631299 113.7038108
  62.7479634  73.4453683 113.9106784  52.7784857  76.7949177 106.9616931
  52.6621115  76.1194080 107.6298016  52.8887117  76.3081551 106.1449084
  55.1216398  76.2559324 110.6663621  54.7574605  75.7289945 111.3776542
  55.9783514  75.8657793 110.4930106  61.0265698  67.5453656 117.9294887
  60.6949023  68.4149067 117.7056102  60.4311312  67.2289940 118.6088917
  54.7621885  71.2849223 105.6624969  54.9296287  72.1529460 106.0295440
  54.5719054  71.4476505 104.7386258  57.5197218  79.7466202 117.3290799
  57.2197941  80.6491241 117.2206607  57.1748277  79.4798385 118.1811952
  50.9709699  76.1979999 113.3627504  50.0460196  76.0656213 113.5705196
  51.2194113  76.9774218 113.8597446  60.9194362  72.2648742 115.0088237
  60.0111239  72.1964151 114.7146998  60.8681957  72.7420687 115.8370062
  54.7411106  73.7406881 106.6471636  54.6210731  74.1863932 107.4857116
  54.0463694  74.0892199 106.0885174  48.3318510  75.8413273 114.1971293
  48.4610892  76.0947752 115.1110705  47.6515962  76.4340981 113.8775948
  52.5017998  86.5110523 110.2961767  52.4242027  87.4618348 110.3750248
  51.8979641  86.1656395 110.9536693  54.9935227  73.6838388 122.9523134
  54.2168562  74.2432308 122.9425999  55.6325791  74.1695171 123.4738004
  62.7856008  70.4665181 116.7866111  62.1430388  70.7597714 116.1405905
  62.2810937  70.3518101 117.5919307  60.4396172  74.2128354 107.4751970
  61.3514028  74.4455741 107.2999668  59.9305819  74.7965398 106.9127049
  53.2481600  76.4923841 122.5141101  53.9896284  77.0308885 122.2375925
  52.5418585  77.1190130 122.6712653  58.7236939  78.6352982 121.1113263
  59.1320295  78.1935392 120.3667895  58.0014201  78.0605609 121.3647455
  55.0768009  73.5725589 118.4846820  55.9229205  73.9965002 118.6281469
  55.0166647  72.9159213 119.1785383  59.0465754  79.1954173 114.8665551
  58.4174617  79.3599887 114.1641619  58.6591416  79.6095782 115.6376515
  62.9254986  80.1308610 112.2209915  62.2406024  80.5107512 111.6706949
  63.0098835  80.7403937 112.9541863  58.2267455  71.2329957 120.1427993
  57.9828387  71.9872018 119.6062269  58.5027385  71.6115305 120.9775240
  60.1805918  77.7768569 118.8205259  60.3922813  78.4200329 118.1439640
  60.1335666  76.9430886 118.3527189  57.7832147  70.3886390 115.7241831
  56.9216626  70.6867644 116.0158568  57.8094581  70.6056789 114.7922864
  54.5993716  78.9328581 112.1315637  55.0632061  79.2116284 111.3420259
  54.3350514  78.0312025 111.9488727  51.4917797  78.4800062 115.0695400
  52.0619154  78.9087331 114.4312884  52.0825909  78.1982647 115.7679585
  53.5362602  75.0551733 108.9405202  54.2386645  75.5072777 109.4079128
  53.2043231  74.4135552 109.5685095  51.9842964  73.6463490 123.3156411
  51.3541624  74.3279770 123.5491808  51.8779051  73.5346571 122.3709549
  61.2951746  80.6540525 116.9927616  62.1169189  80.2520712 116.7110298
  61.2914148  80.5508759 117.9443732  55.0608349  80.2024568 119.1488327
  55.1252781  80.6644975 119.9846498  54.3519273  79.5721933 119.2770636
  45.5625639  73.5665776 116.6737326  45.8133677  74.4512786 116.9394902
  46.0985187  73.3870378 115.9012418  69.3857739  76.9979273 113.3412588
  68.6321447  76.4286671 113.1856592  69.5205280  76.9641938 114.2883222
  54.7756367  81.8692676 109.0167307  54.6402041  82.7144211 109.4452155
  55.3166179  82.0711953 108.2533241  51.2623706  67.9484255 125.6781662
  50.8690652  67.3950454 126.3529306  52.0789847  68.2594834 126.0688180
  48.2285764  79.3868114 109.5895232  48.7410285  80.1811364 109.7400797
  48.8808477  78.6894404 109.5228833  50.0380649  82.5033870 111.6717985
  50.2147277  83.4251835 111.4838969  50.8337482  82.1892289 112.1012365
  54.1791667  69.3642135 123.2701919  54.9201381  69.9649288 123.1906381
  54.4109590  68.6219772 122.7119961  49.3233005  74.5498502 121.5480148
  49.2086520  73.6483759 121.8487247  48.4677523  74.7962199 121.1964965
  56.4024843  82.4916242 123.1467649  55.9588697  81.7052621 122.8288553
  57.0642057  82.6795393 122.4811540  51.1611964  84.0212044 117.6728327
  51.7119389  83.8929107 116.9005321  50.3223440  84.3206933 117.3223220
  58.5006081  82.7719042 121.1749050  58.4824556  83.5927923 120.6829319
  59.4226001  82.6473117 121.3999191  54.9579135  80.2863172 122.0172559
  55.4907472  79.5251460 121.7871867  54.4293216  79.9936823 122.7596713
  58.1248830  65.3923237 117.5466200  57.7813100  66.2824879 117.4705311
  58.4927793  65.2024895 116.6835785  58.0899113  75.3831849 106.0538635
  57.5745736  76.1536453 106.2927023  57.8176421  74.7096985 106.6771697
  55.6746224  70.2281549 111.1123874  54.8187820  69.8388400 110.9329513
  56.0873176  70.3073510 110.2523659  57.2045371  67.7627893 115.5115434
  56.7010166  67.7258028 114.6983239  57.4975977  68.6720635 115.5712090
  53.4488256  67.8466622 114.5181615  54.3141253  67.6509431 114.1587505
  53.5165765  67.6176974 115.4450972  63.0633387  78.1364203 107.9891809
  62.2862830  77.7975363 107.5446971  63.7424868  78.1416826 107.3146774
  57.8785416  73.2558941 107.8798417  57.5735552  73.5705090 108.7308560
  58.8315858  73.3340361 107.9225750  56.3231848  79.4149164 109.5291371
  55.7953210  78.6801924 109.2164608  55.8219351  80.1923840 109.2831339
  61.3024694  77.6098184 114.6458417  60.6448368  78.2997446 114.7338546
  62.1065093  77.9994616 114.9892403  51.0550576  70.0768830 111.8897982
  51.6294327  69.8544012 111.1571175  51.6421558  70.1457525 112.6426583
  60.1130153  75.9642557 112.6962359  60.6262035  76.5972549 113.1984068
  60.7631377  75.3643753 112.3305719  51.3820163  72.1073291 105.9093867
  50.5457475  72.4447978 106.2303142  51.2424932  71.9722271 104.9721004
  53.3573243  66.9510079 110.6173052  52.7037656  66.6359096 109.9929666
  53.3153717  66.3285820 111.3432875  54.4684448  77.2329374 102.5326344
  53.5611510  77.0018628 102.7317493  54.9655480  76.4366994 102.7200325
  57.3752527  85.9426881 105.4523030  56.7014226  86.2458578 106.0607988
  57.7618349  86.7455962 105.1028487  56.5910984  73.4392013 114.9420699
  55.6733545  73.6606960 114.7842387  57.0071127  73.5138323 114.0832407
  57.3746031  74.8383428 110.0723379  58.1217850  75.3504826 109.7630502
  57.6437621  74.5167481 110.9327773  55.6472682  77.3341969 107.0550334
  54.7383901  77.0501002 107.1522803  55.6767765  77.7541048 106.1953641
  60.8791949  80.9448559 110.8241501  60.4254276  80.1039469 110.8806692
  60.2485916  81.5809957 111.1616281  59.8224869  71.8740545 112.0542169
  59.0847625  71.3617931 112.3852411  60.0751642  71.4340926 111.2425446
  59.3224888  82.7825055 111.7591319  59.6147863  83.3430112 111.0403685
  59.8323509  83.0753616 112.5144479  59.9236496  64.6516797 112.6483938
  60.2295373  63.7914160 112.3609853  60.6489101  65.2434417 112.4482932
  54.1957576  74.9470590 113.1560129  54.2506185  73.9944426 113.0802606
  53.3848778  75.1030029 113.6401428  55.3448769  78.8750713 104.3938412
  54.9068199  78.1586572 103.9344050  56.0859210  79.1026828 103.8323504
  52.1349936  73.5647649 110.9150508  51.3217801  73.8641820 111.3215700
  52.6308930  73.1703338 111.6324990  54.2858513  83.5605406 112.8484773
  54.2434692  83.7866253 111.9193305  55.2021212  83.3268781 112.9970574
  57.7324147  74.0289474 119.7465402  58.0873535  74.2560947 120.6059868
  58.3796278  74.3607851 119.1242657  63.4621884  77.1507910 110.4514731
  63.3239783  77.3409506 109.5235920  63.1058103  77.9127293 110.9082782
  51.6264010  71.1366005 116.5311743  52.2663390  70.9954764 115.8334706
  50.7941541  70.8500518 116.1550345  63.4891264  79.2184437 115.4626002
  63.9227770  79.1259726 116.3109056  64.2022844  79.1941937 114.8246018
  52.4024314  80.4368435 112.6446735  53.1964913  79.9418756 112.4429310
  51.6916007  79.9086299 112.2814441  57.2219159  82.8186531 116.9959103
  57.2756181  83.3877467 117.7636819  56.3533940  82.9888416 116.6313140
  50.1017552  72.5204087 118.4783554  50.7740605  72.3121449 117.8296203
  49.2747339  72.3226173 118.0388787  64.3506813  79.2608137 117.9958888
  64.5442703  80.1653948 118.2418163  64.2507431  78.8015557 118.8297473
  56.0043124  69.1466028 120.4949215  55.3571039  69.8455978 120.4013692
  56.7744139  69.5802172 120.8625463  59.4121922  79.4114880 123.5699768
  59.2607428  79.1825432 122.6529852  59.4026601  80.3685482 123.5831113
  56.1807258  76.9846793 118.5546035  57.1099318  77.1357953 118.3815002
  55.7598288  77.0730814 117.6994681  54.9795590  81.0097457 116.3244572
  54.8406676  80.6416242 117.1970511  54.1910186  81.5245097 116.1528530
  55.5743742  86.1106554 107.6670109  55.7495498  85.6394597 108.4815732
  54.8876530  86.7372320 107.8951370  56.5300805  80.3879060 113.7133410
  56.1950638  80.3479830 114.6091060  56.0304751  79.7223776 113.2403820
  50.5045049  75.7946690 119.2385991  50.3664847  75.0626929 119.8397530
  51.4149973  75.7055590 118.9570179  59.4659997  77.7335094 103.9870470
  58.8489168  77.0081923 103.8903523  58.9976485  78.4944455 103.6437544
  53.1327350  75.5066649 118.7269671  53.8426968  74.8659842 118.6856289
  53.0896658  75.7579544 119.6495852  61.1214129  82.4434003 121.6476250
  61.0626675  81.7593223 120.9806833  61.5233647  83.1852993 121.1956876
  51.8456284  72.4931867 120.5465311  51.3093641  72.0422606 121.1986907
  51.2572992  72.6277776 119.8035775  50.1404827  89.2595917 114.4409969
  50.3801426  89.8914441 115.1188988  49.2974024  88.9083957 114.7275328
  51.2558543  71.9520519 103.1091774  50.3788009  71.8309320 102.7454021
  51.7316296  71.1606597 102.8570663  61.1231536  80.4073587 119.8790230
  60.2358315  80.0699509 120.0016629  61.6930087  79.6756618 120.1158995
  42.7760683  76.7397678 113.2033281  43.4631723  76.4259408 112.6154297
  42.6208812  77.6439043 112.9300533  47.5795405  71.6287875 117.6318305
  47.4953594  71.0213545 116.8968715  46.7578112  72.1196893 117.6327801
  54.6532689  85.0675039 116.8451473  54.5802861  85.8730011 117.3570778
  54.2110082  85.2667005 116.0199495  54.4422469  84.3046809 110.3554295
  53.6589991  84.8468489 110.4492519  55.1415214  84.8220789 110.7548536
  57.7519119  70.1141439 112.9988500  58.2487819  69.3611401 112.6789570
  56.9806101  70.1505755 112.4331709  65.6048876  75.8181804 114.6406792
  65.5938753  76.7006520 114.2700725  64.7366256  75.4653355 114.4461329
  57.1131373  84.9661873 119.0009632  57.8259345  85.6009338 118.9285533
  56.6221401  85.0625739 118.1849634  58.8348900  78.8713126 110.5726923
  57.9005178  78.9914588 110.4031628  59.0125568  77.9685593 110.3086933
  54.3354088  72.2558822 112.7260185  53.9651875  71.7029862 113.4141090
  54.8313180  71.6516955 112.1735185  62.2221451  74.7130445 111.1076958
  62.6881903  75.5458437 111.0337260  62.6728952  74.2475427 111.8122216
  52.1643286  82.7156317 119.8215203  52.8652746  83.3492800 119.9744597
  51.6938401  83.0571048 119.0610842  60.2897682  81.0574266 108.1063110
  60.5657526  80.9430861 109.0156984  59.4202181  80.6591751 108.0675283
  60.1938114  67.0811032 115.1467859  59.2801194  67.3115259 115.3150066
  60.6231215  67.1649476 115.9981891  59.9644572  75.2700924 117.6467753
  59.3116023  75.5176831 116.9920206  60.3424952  74.4565062 117.3130230
  56.9251746  85.3060617 111.7495923  57.1074141  84.4882273 112.2123676
  57.7484732  85.5228309 111.3120813  57.2593912  84.2328802 109.0110972
  57.7881678  83.7221257 108.3981134  57.5222131  83.9171333 109.8756505
  56.0132145  76.0120735 124.1333790  55.3372782  75.9114864 124.8036165
  56.8359779  75.8559949 124.5969787  47.7611004  82.2492672 116.7546305
  48.3464441  81.5036360 116.8874210  47.5635843  82.5596628 117.6382969
  50.6149660  85.2843919 111.7708748  49.9460035  85.7690047 111.2872788
  50.4762529  85.5313139 112.6852126  42.3528659  74.8198272 115.4750748
  42.3912759  74.2861863 116.2687867  41.8468952  74.2933477 114.8561726
  54.7554928  87.3187663 118.3691406  55.3073236  87.4819284 119.1340491
  55.0961122  87.9092100 117.6971431  49.7319421  69.6662812 118.9713291
  49.7960748  70.5277643 118.5590688  49.6686542  69.0536814 118.2385649
  49.2071694  71.7385945 122.6186325  49.8343733  71.3563022 123.2323849
  48.3499613  71.5200147 122.9842018  57.8923315  85.2669638 115.3555088
  57.7674455  84.4659378 114.8466034  58.5502407  85.7615831 114.8669058
  49.5131484  71.6218371 114.5332228  48.7918069  72.2354338 114.3939702
  50.3024739  72.1576135 114.4548874  59.9558224  83.0678658 116.9834638
  59.0088559  82.9484009 116.9112965  60.3040997  82.1801156 117.0660900
  52.3157797  68.9572797 120.8072880  52.8392199  69.2035094 121.5699190
  52.0970131  69.7892832 120.3876018  56.9604657  82.8631374 113.1838991
  56.8129620  81.9348082 113.3646561  57.7858151  82.8851465 112.6996066
  60.5638779  83.6859933 114.2703863  61.4885326  83.4802794 114.1328314
  60.3954082  83.4376334 115.1793205  53.5210342  69.8986492 118.4922551
  53.1807163  69.0994305 118.8943231  52.8149349  70.1988203 117.9199384
  54.1726814  66.9835805 116.9449874  54.9952883  66.5096283 116.8228764
  54.4164878  67.7626288 117.4448560  52.8135049  70.0124063 107.2412775
  53.5343411  70.3905316 106.7376492  52.1900353  70.7312940 107.3447753
  56.9566171  70.7169212 108.1771108  57.1729786  71.5993850 107.8759936
  56.4760239  70.3255425 107.4476750  51.6965393  73.6754925 114.7541852
  51.5509974  73.9895228 115.6466134  51.2190597  74.2939826 114.2012751
  53.5561776  70.6657473 114.8022742  53.5423345  69.7698567 114.4655040
  54.2734204  70.6728137 115.4361028  55.4087906  71.0994813 116.8475869
  55.1505684  72.0211884 116.8460200  54.8772947  70.7025248 117.5376333
  60.3534095  84.2045601 109.6265955  60.5270973  83.6392023 108.8739807
  60.8462986  85.0046495 109.4445445  46.1711055  76.2160270 117.6929514
  45.6264523  76.9920078 117.8249788  47.0490405  76.5631074 117.5348635
  52.9598672  69.5471853 110.0710312  53.0814583  68.6188500 110.2701200
  52.6700714  69.5610539 109.1588627  55.8289862  67.2326764 113.2077032
  55.8511559  67.2966097 112.2529011  56.2457921  66.3931273 113.4017538
  66.2073486  76.9682023 111.2456254  66.6504632  76.2189349 110.8475378
  65.3299997  76.9592160 110.8629986  61.3409268  83.5212365 106.7262853
  62.0360172  84.1419058 106.9450168  61.6832418  82.6707716 107.0015231
  46.9577077  75.3430166 120.5859670  46.2158813  75.4912801 121.1724301
  46.6369821  75.6038432 119.7226420  63.2400691  80.9712070 108.2550184
  63.7652015  81.3099343 107.5299504  63.1523043  80.0359086 108.0713318
  54.9020740  84.8846144 120.3840060  55.2107866  84.6395291 121.2562760
  55.6996222  85.0892783 119.8958931  54.9241352  87.0384054 112.6145437
  54.4846342  86.5460432 113.3078294  55.6749469  86.4957021 112.3737512
  47.4033691  83.2295595 112.6170065  48.2291710  82.9299366 112.2368709
  47.0527743  82.4603217 113.0659854  52.3715224  82.5822063 114.6867739
  51.7495233  81.9192768 114.3869967  53.0420091  82.6083195 114.0041386
  45.6042296  81.1481921 113.5758999  44.7674204  80.7204095 113.3943000
  45.5765941  81.3414364 114.5129790  52.4439751  71.0603851 124.2800245
  52.4927907  71.9365974 123.8978014  52.9862265  70.5181244 123.7071888
  63.0492472  78.4537440 120.8734110  63.0990477  78.2887448 121.8149633
  62.9406395  77.5864700 120.4831991  51.9328731  81.1325986 108.1626199
  52.0816851  81.8161451 107.5092872  52.7395174  81.1131076 108.6775655
  60.3396234  74.4368369 122.1893417  61.2406097  74.2974833 121.8977415
  60.4144209  74.6022823 123.1291594  54.6739040  71.8135223 121.0346603
  53.8042349  72.1068789 120.7629192  54.9098520  72.3975668 121.7553867
  64.5510669  80.8734382 121.1176132  64.2595477  81.2364363 121.9539593
  63.9382800  80.1601390 120.9389464  65.7506351  78.4387262 113.6378702
  66.5853242  78.8777066 113.8016262  65.8865480  77.9625915 112.8186948
  62.7997857  75.9966997 119.5856190  63.2751979  76.1894643 118.7775041
  61.8763422  76.0526182 119.3399573  49.6881364  77.1591164 109.1687268
  49.4427406  76.2553494 109.3667478  49.8577278  77.1608314 108.2266746
  57.3778074  68.0314840 118.5512024  57.8960017  68.7675867 118.2258512
  57.0233206  68.3378833 119.3858783  57.6290668  64.4515123 114.0712920
  57.9092421  63.7838312 114.6973347  58.4141275  64.6444218 113.5587584
  55.4324136  83.6274117 105.6337947  54.8598103  84.2464304 105.1808418
  56.0056930  84.1773478 106.1677869  61.4999526  72.8732757 117.8184495
  62.4516949  72.9730854 117.8396719  61.3302976  72.0811025 118.3282580
  59.5213905  69.9588340 118.0043896  58.9263838  70.2393353 117.3090385
  59.2363602  70.4482241 118.7760637  58.6521396  83.9111267 106.7646529
  59.5852069  83.8456828 106.9679404  58.5644609  84.7467534 106.3061062
  61.2809413  83.2277137 103.7250476  61.2023044  82.8937001 104.6186234
  62.1019079  83.7198905 103.7241949  63.9787604  76.0938876 116.9326795
  63.9463924  75.1554877 117.1186479  64.5888227  76.1722913 116.1992620
  55.8170935  74.9634929 102.9753999  56.7630039  74.8341137 103.0442417
  55.4385180  74.2249591 103.4523427  64.1282092  72.8849920 116.9785078
  63.6121141  72.1008376 116.7915007  65.0122041  72.5568636 117.1431598
  61.7892819  66.6290935 112.9380891  61.5917640  66.3206024 113.8224223
  62.3992525  67.3552574 113.0678821  69.7964154  77.1554883 116.0732832
  70.5267542  76.8940171 116.6340535  69.1871099  76.4183605 116.1134900
  67.8779451  75.2962746 116.6707283  67.1512614  75.1618711 116.0623775
  67.4626738  75.6039574 117.4764001  55.7009627  79.0152676 124.4354656
  56.6212637  79.1931275 124.6294703  55.6659210  78.0708721 124.2834355
  54.0013852  72.8884906 102.9108884  53.0945307  72.5918018 102.9871598
  54.2789833  72.5914724 102.0443171  48.6971700  76.9253710 117.0777437
  48.9157710  77.8570818 117.0965471  49.1097474  76.5661685 117.8632241
  55.6175918  67.4321795 109.0653126  54.8076646  67.0868880 109.4408372
  56.3060334  67.1229339 109.6540737  57.5466466  66.5099842 110.6877422
  58.0997504  66.9295296 111.3467445  57.7836552  65.5835590 110.7300378
  53.5699565  72.4986916 126.4680186  53.4696292  73.4481273 126.3992277
  53.3521107  72.1705155 125.5956256  52.7712636  69.7471841 103.0520864
  53.6331800  70.0726739 103.3116681  52.9562981  68.9603337 102.5393929
  44.7880052  77.8294181 115.3301052  44.0943524  77.4148133 114.8171007
  45.5353043  77.8714717 114.7334471  60.9245273  68.6200367 110.1956087
  60.3443942  69.2785171 109.8134139  60.6581206  67.7977712 109.7843504
  59.3748839  68.0205425 112.3977407  59.8748618  68.1321960 111.5891726
  60.0184447  67.7166478 113.0378215  53.4330835  75.9284055 125.2845248
  52.9497917  76.7284415 125.4909137  53.5191774  75.9392000 124.3312692
  46.7016795  77.7612434 113.2067067  46.6787483  77.8600122 112.2548950
  47.0117431  78.6077585 113.5284233  49.3604173  79.8188589 117.3213682
  50.3147426  79.7872532 117.2543613  49.1616696  79.3579213 118.1363908
  49.9503555  78.3889706 119.8884479  50.7696444  78.8833784 119.9119317
  50.2240362  77.4721674 119.8602047  59.7070151  70.7800458 109.2512435
  58.8196006  71.0650108 109.0332630  60.1224140  70.6194221 108.4039712
  63.0584687  70.8046979 112.9666774  63.8345077  71.2943431 113.2391391
  62.3332821  71.2305033 113.4238644  65.4957246  71.5174598 114.0240715
  66.0901737  71.2770334 113.3134023  65.5683829  70.7981729 114.6514251
  47.7154401  85.3608209 114.3383879  47.5808869  84.6008610 113.7721878
  47.2986464  86.0849109 113.8712668  58.8513364  80.5445132 103.3460455
  59.5549215  80.7495135 103.9618110  58.1276013  81.1121894 103.6109538
  59.6811175  76.2954994 109.4662725  59.6246376  76.7523545 108.6270357
  60.2339517  75.5345678 109.2885568  63.4915981  72.0844726 110.2912844
  63.2352915  71.6841361 111.1221052  62.8668849  72.7988520 110.1662984
  67.8028318  74.8240799 112.7984136  67.2427876  74.8933988 113.5715698
  67.1971822  74.6481783 112.0783632  50.8723527  86.2577526 114.5502322
  50.7555911  87.2022958 114.4481012  50.0515974  85.9551088 114.9388121
  60.7600062  80.9827662 105.3958915  61.5945666  80.5508860 105.2136390
  60.5984405  80.8109675 106.3235809  60.4145954  77.4859775 106.7615254
  60.3594758  77.3204046 105.8203698  59.7892009  78.1935808 106.9177444
  45.2038469  72.7227839 120.5876676  45.8497333  72.2126793 121.0763902
  44.9955620  73.4596521 121.1620102  53.7242079  66.9867884 106.3400573
  53.7120749  67.9309724 106.4968843  54.6165501  66.8038029 106.0460034
  51.8978041  86.9105788 117.7658251  52.8005288  86.9429398 118.0824746
  51.6715411  85.9806239 117.7804586  53.6531643  85.6636774 114.4268329
  52.7027274  85.6638636 114.3132701  53.9564130  84.9169509 113.9104364
  57.5394199  63.5810661 110.5946509  56.7726595  63.0269147 110.7403192
  57.9504904  63.6532529 111.4560661  49.5435960  69.8695456 124.6851691
  50.4067422  69.5132261 124.8955015  48.9701371  69.5309351 125.3727095
  62.0560859  93.3060217 111.4172507  61.4925724  93.2150154 110.6488795
  61.9413254  92.4860122 111.8975000  59.6025291  94.8011409 114.2556728
  60.3946583  94.4602234 113.8403027  59.8421941  94.9106384 115.1758881
  67.6360418  96.9731185 106.7286972  66.9848397  97.5585265 106.3420986
  68.4304780  97.5037380 106.7882010  61.5616045  94.0620322 107.1274106
  62.3346921  93.5149309 106.9886982  61.9141444  94.9264572 107.3388568
  63.8982323  90.2212988 104.7592556  64.1507843  89.6994510 103.9976019
  62.9606882  90.0579134 104.8619240  68.9425605  89.2248767 112.5667300
  69.7288695  88.8068190 112.2157717  69.2064310  90.1294859 112.7348948
  69.1135683  94.6621617 107.2655956  68.4781516  94.7356243 107.9776861
  68.7833089  95.2515216 106.5875036  63.6178611  92.1241094 106.9616931
  63.5014869  91.4485998 107.6298016  63.7280871  91.6373468 106.1449084
  65.9610152  91.5851241 110.6663621  65.5968359  91.0581862 111.3776542
  66.8177268  91.1949710 110.4930106  65.6015639  86.6141141 105.6624969
  65.7690042  87.4821377 106.0295440  65.4112808  86.7768423 104.7386258
  61.8103454  91.5271917 113.3627504  60.8853950  91.3948131 113.5705196
  62.0587867  92.3066136 113.8597446  65.5804860  89.0698799 106.6471636
  65.4604485  89.5155849 107.4857116  64.8857448  89.4184116 106.0885174
  59.1712265  91.1705190 114.1971293  59.3004646  91.4239669 115.1110705
  58.4909716  91.7632898 113.8775948  71.2789926  89.5420272 107.4751970
  72.1907782  89.7747658 107.2999668  70.7699573  90.1257316 106.9127049
  68.6225901  85.7178308 115.7241831  67.7610380  86.0159561 116.0158568
  68.6488336  85.9348707 114.7922864  65.4387470  94.2620498 112.1315637
  65.9025816  94.5408201 111.3420259  65.1744269  93.3603943 111.9488727
  64.3756357  90.3843651 108.9405202  65.0780400  90.8364694 109.4079128
  64.0436985  89.7427470 109.5685095  58.1181690  88.6427203 114.2422335
  57.3280744  88.8984732 113.7662446  58.6092938  89.4575541 114.3474376
  60.0696436  89.0071783 111.2005812  59.2727599  89.1190477 111.7189308
  59.8422028  89.3458435 110.3346702  56.4019393  88.8957694 116.6737326
  56.6527432  89.7804704 116.9394902  56.9378942  88.7162295 115.9012418
  65.6150121  97.1984593 109.0167307  65.4795796  98.0436129 109.4452155
  66.1559934  97.4003871 108.2533241  59.0679519  94.7160031 109.5895232
  59.5804039  95.5103282 109.7400797  59.7202231  94.0186322 109.5228833
  60.8774403  97.8325788 111.6717985  61.0541032  98.7543752 111.4838969
  61.6731237  97.5184207 112.1012365  68.9642585  80.7215155 117.5466200
  68.6206854  81.6116797 117.4705311  69.3321547  80.5316813 116.6835785
  57.0328435  93.0448686 110.3654803  57.8703657  93.4545694 110.1488510
  57.2106703  92.1048128 110.3354996  68.9292867  90.7123766 106.0538635
  68.4139491  91.4828371 106.2927023  68.6570176  90.0388902 106.6771697
  66.5139978  85.5573467 111.1123874  65.6581575  85.1680317 110.9329513
  66.9266930  85.6365428 110.2523659  68.0439125  83.0919810 115.5115434
  67.5403921  83.0549945 114.6983239  68.3369732  84.0012553 115.5712090
  64.2882011  83.1758540 114.5181615  65.1535008  82.9801349 114.1587505
  64.3559520  82.9468892 115.4450972  73.9027142  93.4656121 107.9891809
  73.1256584  93.1267280 107.5446971  74.5818623  93.4708744 107.3146774
  68.7179171  88.5850858 107.8798417  68.4129306  88.8997008 108.7308560
  69.6709613  88.6632278 107.9225750  67.1625602  94.7441082 109.5291371
  66.6346964  94.0093841 109.2164608  66.6613105  95.5215758 109.2831339
  61.8944330  85.4060748 111.8897982  62.4688082  85.1835929 111.1571175
  62.4815312  85.4749442 112.6426583  62.2213917  87.4365209 105.9093867
  61.3851229  87.7739896 106.2303142  62.0818687  87.3014189 104.9721004
  64.1966998  82.2801997 110.6173052  63.5431410  81.9651014 109.9929666
  64.1547472  81.6577737 111.3432875  65.3078203  92.5621292 102.5326344
  64.4005264  92.3310545 102.7317493  65.8049235  91.7658911 102.7200325
  68.2146281 101.2718799 105.4523030  67.5407980 101.5750496 106.0607988
  68.6012103 102.0747879 105.1028487  67.4304738  88.7683930 114.9420699
  66.5127299  88.9898877 114.7842387  67.8464882  88.8430241 114.0832407
  68.2139786  90.1675346 110.0723379  68.9611605  90.6796743 109.7630502
  68.4831375  89.8459399 110.9327773  66.4866436  92.6633887 107.0550334
  65.5777655  92.3792920 107.1522803  66.5161520  93.0832965 106.1953641
  70.6618623  87.2032462 112.0542169  69.9241380  86.6909849 112.3852411
  70.9145397  86.7632844 111.2425446  70.7630250  79.9808714 112.6483938
  71.0689127  79.1206078 112.3609853  71.4882855  80.5726335 112.4482932
  57.0554606  90.3839401 111.0365536  56.8579006  89.7908762 110.3116603
  56.5001270  90.0791611 111.7541475  65.0351330  90.2762507 113.1560129
  65.0899940  89.3236344 113.0802606  64.2242532  90.4321946 113.6401428
  66.1842524  94.2042630 104.3938412  65.7461954  93.4878489 103.9344050
  66.9252965  94.4318745 103.8323504  62.9743690  88.8939567 110.9150508
  62.1611556  89.1933738 111.3215700  63.4702684  88.4995256 111.6324990
  74.3015639  92.4799828 110.4514731  74.1633537  92.6701423 109.5235920
  73.9451857  93.2419210 110.9082782  62.4657765  86.4657923 116.5311743
  63.1057144  86.3246682 115.8334706  61.6335295  86.1792436 116.1550345
  63.2418069  95.7660353 112.6446735  64.0358667  95.2710673 112.4429310
  62.5309761  95.2378216 112.2814441  59.5500832  89.9103435 108.7206488
  58.6198420  89.8487890 108.9376450  59.6458304  89.3879388 107.9243129
  59.4686381  86.4358248 111.3084730  59.7293198  87.3503581 111.1993890
  60.2903554  85.9682690 111.4581343  60.9411307  87.8496005 118.4783554
  61.6134360  87.6413367 117.8296203  60.1141093  87.6518091 118.0388787
  66.4137497 101.4398472 107.6670109  66.5889252 100.9686515 108.4815732
  65.7270285 102.0664238 107.8951370  70.3053751  93.0627012 103.9870470
  69.6882922  92.3373840 103.8903523  69.8370240  93.8236372 103.6437544
  62.0952297  87.2812436 103.1091774  61.2181764  87.1601237 102.7454021
  62.5710050  86.4898515 102.8570663  53.6154438  92.0689596 113.2033281
  54.3025477  91.7551326 112.6154297  53.4602566  92.9730961 112.9300533
  58.4189160  86.9579793 117.6318305  58.3347348  86.3505462 116.8968715
  57.5971866  87.4488811 117.6327801  68.5912874  85.4433356 112.9988500
  69.0881573  84.6903319 112.6789570  67.8199855  85.4797673 112.4331709
  69.6742654  94.2005043 110.5726923  68.7398933  94.3206506 110.4031628
  69.8519323  93.2977510 110.3086933  65.1747842  87.5850739 112.7260185
  64.8045630  87.0321780 113.4141090  65.6706935  86.9808873 112.1735185
  73.0615206  90.0422363 111.1076958  73.5275658  90.8750354 111.0337260
  73.5122706  89.5767344 111.8122216  71.1291437  96.3866184 108.1063110
  71.4051281  96.2722779 109.0156984  70.2595935  95.9883669 108.0675283
  71.0331868  82.4102950 115.1467859  70.1194948  82.6407177 115.3150066
  71.4624970  82.4941394 115.9981891  68.0987666  99.5620720 109.0110972
  68.6275433  99.0513175 108.3981134  68.3615886  99.2463250 109.8756505
  53.1922414  90.1490190 115.4750748  53.2306513  89.6153780 116.2687867
  52.6862706  89.6225395 114.8561726  60.5713176  84.9954730 118.9713291
  60.6354502  85.8569561 118.5590688  60.5080296  84.3828732 118.2385649
  56.8230991  88.8754292 108.5504680  57.1184432  87.9664970 108.4971734
  55.9219027  88.8542031 108.2285682  60.3525238  86.9510288 114.5332228
  59.6311824  87.5646256 114.3939702  61.1418494  87.4868053 114.4548874
  58.5518833  86.5568389 108.6744005  58.2231539  85.6765768 108.4919111
  58.9058203  86.5016058 109.5620394  61.6660656  86.8441359 109.0419483
  62.0056728  87.3727280 108.3198091  62.1132776  87.1821765 109.8178049
  64.3604097  85.2278410 118.4922551  64.0200917  84.4286223 118.8943231
  63.6543103  85.5280121 117.9199384  65.0120569  82.3127722 116.9449874
  65.8346638  81.8388200 116.8228764  65.2558632  83.0918206 117.4448560
  63.6528803  85.3415981 107.2412775  64.3737166  85.7197233 106.7376492
  63.0294107  86.0604858 107.3447753  67.7959926  86.0461130 108.1771108
  68.0123540  86.9285768 107.8759936  67.3153993  85.6547343 107.4476750
  62.5359147  89.0046843 114.7541852  62.3903728  89.3187146 115.6466134
  62.0584351  89.6231743 114.2012751  64.3955530  85.9949391 114.8022742
  64.3817099  85.0990484 114.4655040  65.1127958  86.0020055 115.4361028
  66.2481661  86.4286731 116.8475869  65.9899439  87.3503802 116.8460200
  65.7166701  86.0317166 117.5376333  57.0104810  91.5452187 117.6929514
  56.4658278  92.3211995 117.8249788  57.8884159  91.8922992 117.5348635
  63.7992426  84.8763771 110.0710312  63.9208337  83.9480417 110.2701200
  63.5094469  84.8902457 109.1588627  66.6683617  82.5618682 113.2077032
  66.6905313  82.6258015 112.2529011  67.0851676  81.7223190 113.4017538
  72.1803022  98.8504283 106.7262853  72.8753927  99.4710975 106.9450168
  72.5226172  97.9999634 107.0015231  74.0794445  96.3003988 108.2550184
  74.6045769  96.6391261 107.5299504  73.9916798  95.3651003 108.0713318
  58.2427445  98.5587512 112.6170065  59.0685465  98.2591284 112.2368709
  57.8921497  97.7895135 113.0659854  56.4436050  96.4773839 113.5758999
  55.6067958  96.0496013 113.3943000  56.4159696  96.6706282 114.5129790
  62.7722485  96.4617904 108.1626199  62.9210606  97.1453368 107.5092872
  63.5788929  96.4422994 108.6775655  60.5275118  92.4883081 109.1687268
  60.2821160  91.5845411 109.3667478  60.6971033  92.4900232 108.2266746
  59.7970766  88.2211439 106.6673430  59.1040011  88.2955794 106.0113466
  59.5522518  87.4571783 107.1894946  68.4684422  79.7807040 114.0712920
  68.7486176  79.1130229 114.6973347  69.2535029  79.9736136 113.5587584
  66.2717891  98.9566034 105.6337947  65.6991858  99.5756221 105.1808418
  66.8450684  99.5065396 106.1677869  69.4915150  99.2403184 106.7646529
  70.4245824  99.1748746 106.9679404  69.4038363 100.0759451 106.3061062
  72.1203167  98.5569055 103.7250476  72.0416799  98.2228918 104.6186234
  72.9412834  99.0490823 103.7241949  66.6564689  90.2926847 102.9753999
  67.6023794  90.1633055 103.0442417  66.2778934  89.5541509 103.4523427
  72.6286574  81.9582853 112.9380891  72.4311395  81.6497941 113.8224223
  73.2386279  82.6844492 113.0678821  64.8407606  88.2176823 102.9108884
  63.9339062  87.9209936 102.9871598  65.1183587  87.9206642 102.0443171
  55.7585547  89.5383187 113.3607931  55.4388331  88.6848495 113.0682305
  55.2118975  89.7531765 114.1165898  66.4569672  82.7613713 109.0653126
  65.6470400  82.4160798 109.4408372  67.1454089  82.4521257 109.6540737
  68.3860220  81.8391760 110.6877422  68.9391259  82.2587213 111.3467445
  68.6230307  80.9127508 110.7300378  63.6106391  85.0763759 103.0520864
  64.4725555  85.4018657 103.3116681  63.7956735  84.2895255 102.5393929
  55.6273807  93.1586098 115.3301052  54.9337278  92.7440051 114.8171007
  56.3746798  93.2006635 114.7334471  71.7639027  83.9492285 110.1956087
  71.1837696  84.6077089 109.8134139  71.4974960  83.1269630 109.7843504
  70.2142594  83.3497343 112.3977407  70.7142372  83.4613877 111.5891726
  70.8578202  83.0458396 113.0378215  57.5410549  93.0904352 113.2067067
  57.5181237  93.1892039 112.2548950  57.8511186  93.9369503 113.5284233
  70.5463905  86.1092376 109.2512435  69.6589760  86.3942026 109.0332630
  70.9617895  85.9486139 108.4039712  73.8978442  86.1338896 112.9666774
  74.6738832  86.6235349 113.2391391  73.1726576  86.5596951 113.4238644
  69.6907119  95.8737050 103.3460455  70.3942969  96.0787053 103.9618110
  68.9669768  96.4413812 103.6109538  70.5204929  91.6246911 109.4662725
  70.4640131  92.0815463 108.6270357  71.0733272  90.8637596 109.2885568
  74.3309735  87.4136643 110.2912844  74.0746669  87.0133279 111.1221052
  73.7062603  88.1280437 110.1662984  71.5993816  96.3119579 105.3958915
  72.4339420  95.8800778 105.2136390  71.4378159  96.1401593 106.3235809
  71.2539708  92.8151693 106.7615254  71.1988512  92.6495964 105.8203698
  70.6285764  93.5227726 106.9177444  56.0432223  88.0519757 120.5876676
  56.6891087  87.5418711 121.0763902  55.8349375  88.7888439 121.1620102
  64.5635834  82.3159802 106.3400573  64.5514504  83.2601642 106.4968843
  65.4559256  82.1329947 106.0460034  68.3787953  78.9102578 110.5946509
  67.6120349  78.3561065 110.7403192  68.7898658  78.9824447 111.4560661
  73.0607672 102.7657127 105.9093867  72.2244984 103.1031813 106.2303142
  72.9212441 102.6306106 104.9721004  72.9346052 102.6104354 103.1091774
  72.0575518 102.4893155 102.7454021  73.4103805 101.8190432 102.8570663
  70.6364520 103.5503357 106.6673430  69.9433765 103.6247712 106.0113466
  70.3916272 102.7863700 107.1894946  75.6801361 103.5468741 102.9108884
  74.7732816 103.2501854 102.9871598  75.9577342 103.2498559 102.0443171
  74.4500145 100.4055676 103.0520864  75.3119309 100.7310575 103.3116681
  74.6350490  99.6187172 102.5393929  75.4029588  97.6451719 106.3400573
  75.3908258  98.5893559 106.4968843  76.2953010  97.4621865 106.0460034
  24.8571265  16.9613251  92.1768336  24.1832964  17.2644948  92.7853294
  25.2437087  17.7642331  91.8273794  28.8228006  14.5398735  93.4508160
  29.5178910  15.1605427  93.6695474  29.1651156  13.6894086  93.7260538
  22.9142874  14.6460486  92.3583253  22.3416841  15.2650673  91.9053725
  23.4875668  15.1959848  92.8923175  26.1340134  14.9297636  93.4891836
  27.0670807  14.8643198  93.6924711  26.0463347  15.7653903  93.0306368
  28.7628150  14.2463507  90.4495783  28.6841782  13.9123370  91.3431541
  29.5837817  14.7385275  90.4487255  26.3332102  11.5631502  90.0705761
  27.0367952  11.7681505  90.6863417  25.6094751  12.1308264  90.3354845
  28.2418800  12.0014031  92.1204221  29.0764404  11.5695230  91.9381696
  28.0803143  11.8296045  93.0481116  36.8703075  22.5183682 102.2159398
  37.5081485  22.3990430 101.5122738  36.7523918  23.4664526 102.2747350
  29.5379597  24.3246587  98.1417814  28.9744462  24.2336524  97.3734102
  29.4231992  23.5046491  98.6220306  35.1179155  27.9917555  93.4532279
  34.4667135  28.5771635  93.0666293  35.9123518  28.5223750  93.5127316
  29.0434783  25.0806692  93.8519413  29.8165659  24.5335679  93.7132289
  29.3960181  25.9450941  94.0633875  31.3801060  21.2399358  91.4837863
  31.6326581  20.7180879  90.7221326  30.4425619  21.0765503  91.5864547
  36.4244343  20.2435136  99.2912606  37.2107432  19.8254559  98.9403023
  36.6883048  21.1481228  99.4594255  36.5954421  25.6807987  93.9901263
  35.9600254  25.7542613  94.7022168  36.2651827  26.2701585  93.3120342
  41.8252770  20.1810369 100.1945585  42.5577942  19.6109586 100.4283414
  41.0692126  19.7931970 100.6352090  31.0997349  23.1427464  93.6862238
  30.9833607  22.4672367  94.3543322  31.2099609  22.6559838  92.8694391
  33.4428890  22.6037611  97.3908927  33.0787097  22.0768232  98.1021849
  34.2996006  22.2136080  97.2175413  33.0834377  17.6327511  92.3870276
  33.2508779  18.5007747  92.7540747  32.8931546  17.7954792  91.4631565
  33.0623598  20.0885168  93.3716943  32.9423223  20.5342219  94.2102423
  32.3676186  20.4370486  92.8130481  30.8230490  32.8588810  97.0207074
  30.7454520  33.8096635  97.0995554  30.2192134  32.5134682  97.6782000
  38.7608664  20.5606641  94.1997277  39.6726520  20.7934028  94.0244974
  38.2518311  21.1443686  93.6372355  37.3678246  25.5432460 101.5910858
  36.7387109  25.7078174 100.8886926  36.9803908  25.9574069 102.3621822
  41.2467478  26.4786898  98.9455222  40.5618516  26.8585799  98.3952255
  41.3311328  27.0882224  99.6787170  32.9206208  25.2806868  98.8560943
  33.3844554  25.5594571  98.0665566  32.6563006  24.3790312  98.6734034
  31.8575094  21.4030020  95.6650508  32.5599138  21.8551064  96.1324435
  31.5255723  20.7613839  96.2930401  39.6164238  27.0018812 103.7172923
  40.4381682  26.5998999 103.4355604  39.6126641  26.8987046 104.6689038
  47.7070231  23.3457561 100.0657894  46.9533939  22.7764959  99.9101899
  47.8417772  23.3120225 101.0128529  33.0968859  28.2170963  95.7412614
  32.9614534  29.0622499  96.1697461  33.6378671  28.4190240  94.9778547
  26.5498256  25.7346401  96.3140539  27.0622777  26.5289651  96.4646103
  27.2020969  25.0372691  96.2474140  28.3593141  28.8512157  98.3963292
  28.5359769  29.7730122  98.2084276  29.1549975  28.5370576  98.8257672
  29.4824456  30.3690331 104.3973634  30.0331882  30.2407394 103.6250628
  28.6435932  30.6685220 104.0468527  24.5147173  24.0635055  97.0900109
  25.3522395  24.4732064  96.8733817  24.6925441  23.1234497  97.0600303
  36.4111605  21.7310136  92.7783942  35.8958229  22.5014740  93.0172330
  36.1388914  21.0575272  93.4017004  33.9958716  16.5759837  97.8369180
  33.1400313  16.1866687  97.6574819  34.4085668  16.6551797  96.9768966
  41.3845879  24.4842490  94.7137116  40.6075322  24.1453650  94.2692278
  42.0637360  24.4895114  94.0392081  36.1997908  19.6037228  94.6043723
  35.8948044  19.9183377  95.4553866  37.1528350  19.6818648  94.6471056
  34.6444340  25.7627451  96.2536677  34.1165702  25.0280211  95.9409915
  34.1431843  26.5402128  96.0076646  39.6237186  23.9576472 101.3703724
  38.9660861  24.6475733 101.4583852  40.4277585  24.3472904 101.7137710
  38.4342645  22.3120844  99.4207665  38.9474527  22.9450836  99.9229375
  39.0843869  21.7122040  99.0551025  29.7032655  18.4551579  92.6339174
  28.8669967  18.7926265  92.9548449  29.5637425  18.3200558  91.6966311
  32.7896940  23.5807661  89.2571650  31.8824002  23.3496915  89.4562799
  33.2867972  22.7845281  89.4445632  35.6965019  32.2905169  92.1768336
  35.0226718  32.5936865  92.7853294  36.0830841  33.0934249  91.8273794
  35.6958524  21.1861716  96.7968686  36.4430343  21.6983113  96.4875808
  35.9650113  20.8645768  97.6573080  33.9685174  23.6820256  93.7795640
  33.0596393  23.3979289  93.8768110  33.9980258  24.1019335  92.9198947
  39.2004441  27.2926846  97.5486808  38.7466768  26.4517756  97.6051998
  38.5698408  27.9288244  97.8861588  38.1437361  18.2218832  98.7787475
  37.4060118  17.7096218  99.1097718  38.3964134  17.7819214  97.9670752
  37.6437380  29.1303343  98.4836626  37.9360355  29.6908400  97.7648992
  38.1536001  29.4231904  99.2389785  32.5170068  21.2948877  99.8805436
  32.5718678  20.3422713  99.8047912  31.7061270  21.4508316 100.3646734
  33.6661262  25.2229000  91.1183719  33.2280692  24.5064859  90.6589356
  34.4071703  25.4505115  90.5568810  30.4562428  19.9125937  97.6395815
  29.6430293  20.2120107  98.0461007  30.9521422  19.5181625  98.3570297
  32.6071006  29.9083694  99.5730079  32.5647184  30.1344540  98.6438611
  33.5233705  29.6747068  99.7215880  41.7834376  23.4986197  97.1760038
  41.6452275  23.6887793  96.2481227  41.4270595  24.2605580  97.6328089
  41.8103756  25.5662724 102.1871309  42.2440263  25.4738013 103.0354363
  42.5235337  25.5420225 101.5491325  30.7236806  26.7846723  99.3692042
  31.5177405  26.2897043  99.1674617  30.0128499  26.2564586  99.0059748
  35.5431651  29.1664818 103.7204410  35.5968673  29.7355755 104.4882126
  34.6746432  29.3366703 103.3558447  27.0319570  20.9289804  95.4451795
  26.1017158  20.8674260  95.6621757  27.1277042  20.4065757  94.6488436
  42.6719306  25.6086425 104.7204194  42.8655196  26.5132235 104.9663469
  42.5719924  25.1493844 105.5542779  33.3008082  27.3575745 103.0489879
  33.1619168  26.9894529 103.9215817  32.5122679  27.8723384 102.8773837
  33.8956234  32.4584841  94.3915416  34.0707990  31.9872884  95.2061038
  33.2089022  33.0850607  94.6196676  34.8513298  26.7357347 100.4378717
  34.5163130  26.6958117 101.3336367  34.3517243  26.0702063  99.9649127
  37.7872489  24.0813382  90.7115777  37.1701660  23.3560210  90.6148829
  37.3188978  24.8422742  90.3682851  28.4617320  35.6074204 101.1655276
  28.7013918  36.2392728 101.8434294  27.6186516  35.2562244 101.4520635
  29.5771035  18.2998806  89.8337081  28.7000501  18.1787607  89.4699327
  30.0528788  17.5084884  89.5815969  32.9745182  31.4153326 103.5696780
  32.9015353  32.2208298 104.0816084  32.5322575  31.6145292 102.7444801
  32.7634961  30.6525096  97.0799601  31.9802483  31.1946777  97.1737826
  33.4627706  31.1699076  97.4793843  43.9261369  22.1660091 101.3652098
  43.9151245  23.0484807 100.9946031  43.0578748  21.8131642 101.1706635
  35.4343865  31.3140160 105.7254938  36.1471837  31.9487625 105.6530840
  34.9433894  31.4104026 104.9094940  37.1561392  25.2191413  97.2972230
  36.2217671  25.3392875  97.1276934  37.3338060  24.3163880  97.0332240
  40.5433943  21.0608732  97.8322264  41.0094396  21.8936724  97.7582567
  40.9941444  20.5953714  98.5367523  38.6110174  27.4052554  94.8308416
  38.8870018  27.2909148  95.7402290  37.7414673  27.0070038  94.7920589
  35.2464238  31.6538904  98.4741230  35.4286633  30.8360560  98.9368982
  36.0697224  31.8706597  98.0366120  35.5806404  30.5807090  95.7356278
  36.1094170  30.0699544  95.1226441  35.8434624  30.2649620  96.6001811
  28.9362152  31.6322206  98.4954054  28.2672527  32.1168334  98.0118094
  28.7975022  31.8791427  99.4097433  33.0767421  33.6665950 105.0936713
  33.6285729  33.8297571 105.8585798  33.4173614  34.2570388 104.4216738
  24.3049729  19.8940661  95.2749986  24.6003170  18.9851340  95.2217040
  23.4037765  19.8728401  94.9530989  36.2135808  31.6147925 102.0800395
  36.0886947  30.8137665 101.5711340  36.8714899  32.1094119 101.5914365
  38.2770716  29.4156945 103.7079945  37.3301052  29.2962297 103.6358272
  38.6253489  28.5279443 103.7906206  35.2817149  29.2109662  99.9084297
  35.1342112  28.2826369 100.0891867  36.1070643  29.2329752  99.4241372
  29.1479394  17.8627729  95.7664789  29.4875466  18.3913650  95.0443398
  29.5951514  18.2008135  96.5423356  38.8851271  30.0338220 100.9949170
  39.8097819  29.8281082 100.8573621  38.7166575  29.7854621 101.9038511
  31.1347541  16.3602350  93.9658082  31.8555903  16.7383603  93.4621799
  30.5112845  17.0791227  94.0693060  35.2778664  17.0647499  94.9016414
  35.4942278  17.9472137  94.6005243  34.7972731  16.6733713  94.1722056
  38.6746588  30.5523888  96.3511261  38.8483465  29.9870310  95.5985114
  39.1675479  31.3524783  96.1690751  44.5285979  23.3160311  97.9701561
  44.9717125  22.5667636  97.5720684  43.6512489  23.3070447  97.5875293
  39.6621760  29.8690652  93.4508160  40.3572665  30.4897345  93.6695474
  40.0044910  29.0186003  93.7260538  41.5613183  27.3190358  94.9795490
  42.0864507  27.6577630  94.2544810  41.4735536  26.3837373  94.7958625
  33.2453844  33.3862341  99.3390744  32.8058834  32.8938720 100.0323600
  33.9961961  32.8435309  99.0982819  25.7246183  29.5773882  99.3415372
  26.5504203  29.2777654  98.9614015  25.3740235  28.8081504  99.7905160
  30.6927716  28.9300350 101.4113045  30.0707725  28.2671055 101.1115273
  31.3632583  28.9561482 100.7286693  30.2541223  27.4804273  94.8871506
  30.4029343  28.1639738  94.2338179  31.0607666  27.4609363  95.4020962
  44.0718843  24.7865549 100.3624009  44.9065735  25.2255353 100.5261569
  44.2077972  24.3104202  99.5432254  28.0093856  23.5069451  95.8932575
  27.7639898  22.6031781  96.0912785  28.1789770  23.5086602  94.9512053
  27.2789503  19.2397809  93.3918736  26.5858748  19.3142164  92.7358772
  27.0341255  18.4758152  93.9140253  33.7536628  29.9752404  92.3583253
  33.1810596  30.5942591  91.9053725  34.3269422  30.5251766  92.8923175
  36.9733888  30.2589554  93.4891836  37.9064561  30.1935116  93.6924711
  36.8857101  31.0945821  93.0306368  39.6021905  29.5755424  90.4495783
  39.5235536  29.2415288  91.3431541  40.4231572  30.0677192  90.4487255
  42.3000096  22.4417164 103.6572102  42.2676416  21.5033164 103.8431786
  42.9100720  22.5201200 102.9237927  34.1383427  21.3113217  89.6999306
  35.0842532  21.1819425  89.7687724  33.7597672  20.5727879  90.1768734
  48.1176646  23.5033170 102.7978138  48.8480034  23.2418459 103.3585842
  47.5083591  22.7661892 102.8380206  46.1991943  21.6441033 103.3952590
  45.4725107  21.5096998 102.7869081  45.7839230  21.9517862 104.2009308
  32.3226344  19.2363193  89.6354191  31.4157799  18.9396306  89.7116905
  32.6002325  18.9393011  88.7688477  33.9388410  13.7800083  95.7898432
  33.1289138  13.4347168  96.1653678  34.6272827  13.4707626  96.3786044
  31.0925129  16.0950128  89.7766170  31.9544293  16.4205027  90.0361988
  31.2775473  15.3081624  89.2639236  39.2457765  14.9678655  96.9201393
  38.6656434  15.6263459  96.5379446  38.9793698  14.1455999  96.5088811
  38.0282643  17.1278745  95.9757741  37.1408498  17.4128396  95.7577936
  38.4436632  16.9672508  95.1285018  41.3797179  17.1525266  99.6912081
  42.1557569  17.6421718  99.9636697  40.6545314  17.5783320 100.1483950
  43.8169738  17.8652885 100.7486021  44.4114229  17.6248621 100.0379330
  43.8896322  17.1460016 101.3759558  26.0366894  31.7086496 101.0629186
  25.9021362  30.9486897 100.4967184  25.6198956  32.4327396 100.5957975
  37.1725857  26.8923420  90.0705761  37.8761707  27.0973422  90.6863417
  36.4488505  27.4600182  90.3354845  38.0023667  22.6433281  96.1908032
  37.9458868  23.1001832  95.3515664  38.5552009  21.8823966  96.0130874
  41.8128473  18.4323013  97.0158151  41.5565407  18.0319649  97.8466359
  41.1881341  19.1466807  96.8908290  46.1240811  21.1719086  99.5229442
  45.5640369  21.2412275 100.2961005  45.5184314  20.9960071  98.8028939
  29.1936020  32.6055813 101.2747629  29.0768404  33.5501246 101.1726319
  28.3728466  32.3029375 101.6633428  39.0812554  27.3305949  92.1204221
  39.9158158  26.8987147  91.9381696  38.9196897  27.1587963  93.0481116
  38.7358446  23.8338062  93.4860561  38.6807250  23.6682334  92.5449005
  38.1104502  24.5414095  93.6422750  32.0454572  13.3346171  93.0645879
  32.0333242  14.2788011  93.2214150  32.9377994  13.1516317  92.7705340
  30.2190534  33.2584075 104.4903557  31.1217780  33.2907685 104.8070052
  29.9927904  32.3284526 104.5049893  31.9744136  32.0115062 101.1513636
  31.0239767  32.0116923 101.0378008  32.2776622  31.2647796 100.6349670
  47.7096829  37.8475600 102.2159398  48.3475239  37.7282347 101.5122738
  47.5917672  38.7956444 102.2747350  44.5186535  37.8003028 102.1520923
  44.1805047  37.6844093 101.2641458  45.3876304  37.3994193 102.1321929
  40.3773351  39.6538505  98.1417814  39.8138216  39.5628442  97.3734102
  40.2625746  38.8338409  98.6220306  45.0006318  38.9537880 108.1107128
  44.9894959  38.5590678 107.2387632  45.1626958  38.2203953 108.7040900
  37.9237783  41.1489696 100.9802034  38.7159075  40.8080521 100.5648334
  38.1634433  41.2584671 101.9004188  45.9572910  43.3209472  93.4532279
  45.3060890  43.9063553  93.0666293  46.7517273  43.8515667  93.5127316
  39.8828537  40.4098609  93.8519413  40.6559413  39.8627597  93.7132289
  40.2353936  41.2742859  94.0633875  41.7213580  41.7374992 107.0586312
  41.4303446  42.6420623 106.9432979  42.3570564  41.7791519 107.7730382
  42.6469786  39.1151840 103.6487672  43.2433359  38.8907863 102.9344635
  42.7044758  38.3736586 104.2513120  42.2194815  36.5691276  91.4837863
  42.4720336  36.0472797  90.7221326  41.2819374  36.4057421  91.5864547
  47.2638098  35.5727054  99.2912606  48.0501187  35.1546477  98.9403023
  47.5276802  36.4773146  99.4594255  47.4348175  41.0099904  93.9901263
  46.7994008  41.0834531  94.7022168  47.1045581  41.5993503  93.3120342
  52.6646525  35.5102287 100.1945585  53.3971697  34.9401504 100.4283414
  51.9085881  35.1223888 100.6352090  41.9391104  38.4719382  93.6862238
  41.8227362  37.7964285  94.3543322  42.0493363  37.9851755  92.8694391
  44.2822645  37.9329529  97.3908927  43.9180852  37.4060150  98.1021849
  45.1389760  37.5427998  97.2175413  50.1871945  29.2223861 104.6540193
  49.8555270  30.0919272 104.4301408  49.5917559  28.9060145 105.3334224
  43.9228132  32.9619428  92.3870276  44.0902534  33.8299665  92.7540747
  43.7325301  33.1246710  91.4631565  46.6803465  41.4236407 104.0536106
  46.3804188  42.3261446 103.9451913  46.3354524  41.1568590 104.9057259
  40.1315946  37.8750204 100.0872811  39.2066443  37.7426418 100.2950502
  40.3800359  38.6544423 100.5842753  50.0800608  33.9418947 101.7333543
  49.1717486  33.8734356 101.4392304  50.0288204  34.4190892 102.5615369
  43.9017352  35.4177086  93.3716943  43.7816978  35.8634137  94.2102423
  43.2069941  35.7662403  92.8130481  37.4924757  37.5183478 100.9216600
  37.6217138  37.7717957 101.8356011  36.8122209  38.1111186 100.6021255
  44.1541474  35.3608593 109.6768441  43.3774808  35.9202513 109.6671305
  44.7932037  35.8465376 110.1983311  51.9462255  32.1435386 103.5111417
  51.3036635  32.4367919 102.8651212  51.4417183  32.0288306 104.3164614
  49.6002419  35.8898559  94.1997277  50.5120275  36.1225946  94.0244974
  49.0912066  36.4735603  93.6372355  42.4087847  38.1694046 109.2386408
  43.1502531  38.7079090 108.9621231  41.7024832  38.7960335 109.3957959
  47.8843186  40.3123187 107.8358569  48.2926542  39.8705597 107.0913202
  47.1620448  39.7375814 108.0892762  44.2374256  35.2495794 105.2092126
  45.0835451  35.6735207 105.3526775  44.1772894  34.5929418 105.9030689
  48.2072001  40.8724377 101.5910858  47.5780863  41.0370092 100.8886926
  47.8197663  41.2865987 102.3621822  52.0861233  41.8078815  98.9455222
  51.4012271  42.1877717  98.3952255  52.1705082  42.4174142  99.6787170
  47.3873702  32.9100162 106.8673300  47.1434633  33.6642222 106.3307575
  47.6633632  33.2885510 107.7020547  49.3412164  39.4538774 105.5450565
  49.5529060  40.0970534 104.8684946  49.2941913  38.6201091 105.0772495
  46.9438393  32.0656595 102.4487137  46.0822872  32.3637849 102.7403875
  46.9700828  32.2826994 101.5168170  43.7599963  40.6098786  98.8560943
  44.2238308  40.8886489  98.0665566  43.4956761  39.7082230  98.6734034
  40.6524044  40.1570267 101.7940706  41.2225401  40.5857535 101.1558191
  41.2432156  39.8752852 102.4924892  42.6968849  36.7321938  95.6650508
  43.3992892  37.1842982  96.1324435  42.3649477  36.0905757  96.2930401
  41.1449210  35.3233695 110.0401718  40.5147871  36.0049975 110.2737115
  41.0385298  35.2116776 109.0954856  36.4394183  34.9905491 100.9667642
  35.6493237  35.2463019 100.4907752  36.9305430  35.8053828 101.0719682
  50.4557992  42.3310730 103.7172923  51.2775436  41.9290917 103.4355604
  50.4520395  42.2278964 104.6689038  38.3908928  35.3550070  97.9251119
  37.5940091  35.4668764  98.4434614  38.1634520  35.6936722  97.0592009
  44.2214596  41.8794773 105.8733633  44.2859028  42.3415180 106.7091805
  43.5125520  41.2492138 106.0015943  34.7231886  35.2435981 103.3982633
  34.9739924  36.1282991 103.6640209  35.2591434  35.0640583 102.6257724
  58.5463985  38.6749478 100.0657894  57.7927694  38.1056876  99.9101899
  58.6811527  38.6412143 101.0128529  43.9362613  43.5462881  95.7412614
  43.8008288  44.3914416  96.1697461  44.4772426  43.7482158  94.9778547
  37.3892011  41.0638319  96.3140539  37.9016531  41.8581569  96.4646103
  38.0414724  40.3664609  96.2474140  39.1986895  44.1804075  98.3963292
  39.3753524  45.1022040  98.2084276  39.9943729  43.8662494  98.8257672
  43.3397914  31.0412339 109.9947225  44.0807627  31.6419493 109.9151688
  43.5715837  30.2989977 109.4365268  38.4839252  36.2268707 108.2725455
  38.3692767  35.3253964 108.5732554  37.6283770  36.4732403 107.9210272
  45.5631090  44.1686447 109.8712956  45.1194944  43.3822826 109.5533860
  46.2248303  44.3565598 109.2056846  40.3218211  45.6982249 104.3973634
  40.8725636  45.5699312 103.6250628  39.4829687  45.9977138 104.0468527
  47.6612328  44.4489247 107.8994357  47.6430803  45.2698128 107.4074626
  48.5832248  44.3243322 108.1244498  44.1185382  41.9633376 108.7417865
  44.6513719  41.2021665 108.5117173  43.5899463  41.6707028 109.4842020
  47.2855077  27.0693442 104.2711507  46.9419346  27.9595084 104.1950618
  47.6534040  26.8795100 103.4081092  35.3540928  39.3926973  97.0900109
  36.1916150  39.8023981  96.8733817  35.5319195  38.4526415  97.0600303
  47.2505360  37.0602053  92.7783942  46.7351983  37.8306658  93.0172330
  46.9782668  36.3867190  93.4017004  44.8352471  31.9051754  97.8369180
  43.9794067  31.5158605  97.6574819  45.2479422  31.9843715  96.9768966
  46.3651617  29.4398098 102.2360740  45.8616413  29.4028233 101.4228546
  46.6582224  30.3490840 102.2957397  42.6094503  29.5236827 101.2426922
  43.4747500  29.3279636 100.8832811  42.6772012  29.2947179 102.1696279
  52.2239634  39.8134408  94.7137116  51.4469077  39.4745568  94.2692278
  52.9031115  39.8187031  94.0392081  47.0391663  34.9329146  94.6043723
  46.7341798  35.2475295  95.4553866  47.9922105  35.0110565  94.6471056
  45.4838095  41.0919369  96.2536677  44.9559456  40.3572128  95.9409915
  44.9825597  41.8694045  96.0076646  50.4630941  39.2868389 101.3703724
  49.8054615  39.9767651 101.4583852  51.2671340  39.6764821 101.7137710
  40.2156822  31.7539035  98.6143289  40.7900574  31.5314217  97.8816482
  40.8027805  31.8227730  99.3671890  49.2736400  37.6412762  99.4207665
  49.7868281  38.2742754  99.9229375  49.9237623  37.0413958  99.0551025
  40.5426409  33.7843496  92.6339174  39.7063722  34.1218183  92.9548449
  40.4031179  33.6492476  91.6966311  42.5179490  28.6280284  97.3418358
  41.8643902  28.3129301  96.7174973  42.4759964  28.0056025  98.0678181
  43.6290695  38.9099579  89.2571650  42.7217757  38.6788833  89.4562799
  44.1261727  38.1137198  89.4445632  45.7517230  35.1162218 101.6666006
  44.8339792  35.3377165 101.5087694  46.1677374  35.1908528 100.8077713
  46.5352278  36.5153633  96.7968686  47.2824097  37.0275031  96.4875808
  46.8043868  36.1937686  97.6573080  44.8078928  39.0112174  93.7795640
  43.8990148  38.7271207  93.8768110  44.8374012  39.4311253  92.9198947
  50.0398196  42.6218764  97.5486808  49.5860523  41.7809673  97.6051998
  49.4092162  43.2580162  97.8861588  48.9831115  33.5510750  98.7787475
  48.2453872  33.0388136  99.1097718  49.2357889  33.1111131  97.9670752
  48.4831135  44.4595260  98.4836626  48.7754109  45.0200317  97.7648992
  48.9929756  44.7523821  99.2389785  49.0842743  26.3287002  99.3729245
  49.3901619  25.4684365  99.0855160  49.8095347  26.9204622  99.1728239
  35.3767099  36.7317688  97.7610843  35.1791499  36.1387049  97.0361909
  34.8213763  36.4269898  98.4786781  43.3563822  36.6240795  99.8805436
  43.4112432  35.6714631  99.8047912  42.5455024  36.7800234 100.3646734
  44.5055016  40.5520918  91.1183719  44.0674446  39.8356777  90.6589356
  45.2465457  40.7797033  90.5568810  41.2956182  35.2417854  97.6395815
  40.4824048  35.5412025  98.0461007  41.7915176  34.8473543  98.3570297
  43.4464760  45.2375611  99.5730079  43.4040939  45.4636458  98.6438611
  44.3627459  45.0038986  99.7215880  46.8930394  35.7059679 106.4710709
  47.2479782  35.9331152 107.3305174  47.5402525  36.0378056 105.8487964
  52.6228131  38.8278115  97.1760038  52.4846030  39.0179711  96.2481227
  52.2664350  39.5897498  97.6328089  40.7870257  32.8136210 103.2557050
  41.4269636  32.6724969 102.5580013  39.9547788  32.5270723 102.8795652
  52.6497511  40.8954642 102.1871309  53.0834017  40.8029931 103.0354363
  53.3629091  40.8712142 101.5491325  41.5630561  42.1138640  99.3692042
  42.3571159  41.6188960  99.1674617  40.8522253  41.5856503  99.0059748
  46.3825405  44.4956736 103.7204410  46.4362428  45.0647672 104.4882126
  45.5140187  44.6658621 103.3558447  37.8713324  36.2581722  95.4451795
  36.9410913  36.1966178  95.6621757  37.9670796  35.7357675  94.6488436
  37.7898873  32.7836535  98.0330036  38.0505691  33.6981868  97.9239197
  38.6116046  32.3160977  98.1826649  39.2623799  34.1974292 105.2028861
  39.9346852  33.9891654 104.5541510  38.4353585  33.9996378 104.7634093
  53.5113060  40.9378342 104.7204194  53.7048950  41.8424153 104.9663469
  53.4113678  40.4785761 105.5542779  45.1649371  30.8236233 107.2194522
  44.5177286  31.5226183 107.1258998  45.9350386  31.2572377 107.5870770
  48.5728169  41.0885085 110.2945075  48.4213675  40.8595637 109.3775159
  48.5632848  42.0455687 110.3076420  45.3413505  38.6616998 105.2791341
  46.2705565  38.8128158 105.1060309  44.9204535  38.7501019 104.4239988
  44.1401837  42.6867662 103.0489879  44.0012923  42.3186447 103.9215817
  43.3516433  43.2015302 102.8773837  45.6907052  42.0649265 100.4378717
  45.3556885  42.0250035 101.3336367  45.1910998  41.3993981  99.9649127
  39.6651296  37.4716895 105.9631298  39.5271094  36.7397134 106.5642837
  40.5756220  37.3825795 105.6815486  48.6266244  39.4105299  90.7115777
  48.0095414  38.6852128  90.6148829  48.1582732  40.1714660  90.3682851
  42.2933597  37.1836854 105.4514978  43.0033215  36.5430047 105.4101596
  42.2502905  37.4349749 106.3741158  50.2820375  44.1204208 108.3721557
  50.2232922  43.4363428 107.7052140  50.6839894  44.8623198 107.9202183
  41.0062531  34.1702072 107.2710617  40.4699888  33.7192811 107.9232214
  40.4179239  34.3047981 106.5281082  39.3011074  50.9366122 101.1655276
  39.5407672  51.5684646 101.8434294  38.4580271  50.5854162 101.4520635
  40.4164790  33.6290724  89.8337081  39.5394256  33.5079524  89.4699327
  40.8922543  32.8376802  89.5815969  50.2837783  42.0843792 106.6035537
  49.3964561  41.7469713 106.7261935  50.8536334  41.3526823 106.8404302
  31.9366930  38.4167883  99.9278588  32.6237970  38.1029613  99.3399603
  31.7815058  39.3209248  99.6545839  36.7401652  33.3058080 104.3563612
  36.6559841  32.6983750 103.6214022  35.9184358  33.7967098 104.3573108
  43.8138936  46.7445244 103.5696780  43.7409108  47.5500215 104.0816084
  43.3716329  46.9437210 102.7444801  46.9125366  31.7911643  99.7233807
  47.4094065  31.0381606  99.4034877  46.1412347  31.8275960  99.1577016
  54.7655123  37.4952009 101.3652098  54.7544999  38.3776724 100.9946031
  53.8972503  37.1423560 101.1706635  46.2737620  46.6432078 105.7254938
  46.9865592  47.2779543 105.6530840  45.7827648  46.7395944 104.9094940
  47.9955146  40.5483331  97.2972230  47.0611425  40.6684793  97.1276934
  48.1731815  39.6455797  97.0332240  43.4960335  33.9329026  99.4505491
  43.1258122  33.3800067 100.1386397  43.9919427  33.3287160  98.8980491
  51.3827698  36.3900650  97.8322264  51.8488150  37.2228642  97.7582567
  51.8335198  35.9245632  98.5367523  41.3249533  44.3926521 106.5460509
  42.0258993  45.0263004 106.6989903  40.8544648  44.7341253 105.7856149
  49.4503929  42.7344471  94.8308416  49.7263773  42.6201066  95.7402290
  48.5808428  42.3361956  94.7920589  49.3544361  28.7581237 101.8713166
  48.4407440  28.9885464 102.0395373  49.7837462  28.8419681 102.7227198
  49.1250819  36.9471129 104.3713060  48.4722269  37.1947036 103.7165512
  49.5031199  36.1335267 104.0375537  46.0857993  46.9830822  98.4741230
  46.2680387  46.1652478  98.9368982  46.9090979  47.1998514  98.0366120
  46.4200158  45.9099007  95.7356278  46.9487925  45.3991462  95.1226441
  46.6828378  45.5941537  96.6001811  45.1738392  37.6890940 110.8579097
  44.4979029  37.5885069 111.5281472  45.9966026  37.5330154 111.3215094
  36.9217251  43.9262877 103.4791612  37.5070688  43.1806564 103.6119516
  36.7242090  44.2366833 104.3628276  39.7755906  46.9614124  98.4954054
  39.1066282  47.4460252  98.0118094  39.6368776  47.2083344  99.4097433
  31.5134906  36.4968477 102.1996055  31.5519005  35.9632067 102.9933173
  31.0075199  35.9703682 101.5807032  43.9161175  48.9957867 105.0936713
  44.4679483  49.1589489 105.8585798  44.2567368  49.5862305 104.4216738
  38.8925668  31.3433017 105.6958597  38.9566995  32.2047848 105.2835995
  38.8292788  30.7307019 104.9630956  48.7672049  43.8219125 110.9485367
  49.3111953  44.4349083 110.4540322  48.1858894  44.3798703 111.4652380
  35.1443483  35.2232579  95.2749986  35.4396925  34.3143257  95.2217040
  34.2431519  35.2020318  94.9530989  47.0529562  46.9439843 102.0800395
  46.9280702  46.1429583 101.5711340  47.7108653  47.4386036 101.5914365
  38.6737730  33.2988575 101.2577535  37.9524316  33.9124543 101.1185008
  39.4630986  33.8346340 101.1794181  49.1164471  44.7448863 103.7079945
  48.1694806  44.6254214 103.6358272  49.4647244  43.8571361 103.7906206
  41.4764044  30.6343002 107.5318187  41.9998446  30.8805299 108.2944496
  41.2576377  31.4663037 107.1121324  36.8731325  32.9046677  95.3989312
  36.5444031  32.0244055  95.2164418  37.2270696  32.8494345  96.2865701
  46.1210904  44.5401579  99.9084297  45.9735866  43.6118287 100.0891867
  46.9464397  44.5621670  99.4241372  39.9873148  33.1919646  95.7664789
  40.3269221  33.7205568  95.0443398  40.4345269  33.5300052  96.5423356
  49.7245026  45.3630138 100.9949170  50.6491573  45.1572999 100.8573621
  49.5560329  45.1146539 101.9038511  42.6816589  31.5756697 105.2167857
  42.3413409  30.7764510 105.6188537  41.9755595  31.8758408 104.6444691
  43.3333061  28.6606009 103.6695180  44.1559130  28.1866488 103.5474071
  43.5771124  29.4396493 104.1693867  41.9741295  31.6894268  93.9658082
  42.6949658  32.0675521  93.4621799  41.3506600  32.4083145  94.0693060
  46.1172418  32.3939417  94.9016414  46.3336033  33.2764055  94.6005243
  45.6366485  32.0025630  94.1722056  40.8571640  35.3525130 101.4787159
  40.7116220  35.6665433 102.3711441  40.3796843  35.9710030 100.9258058
  42.7168023  32.3427678 101.5268049  42.7029591  31.4468771 101.1900347
  43.4340451  32.3498342 102.1606335  44.5694153  32.7765018 103.5721176
  44.3111931  33.6982089 103.5705506  44.0379194  32.3795453 104.2621640
  49.5140342  45.8815805  96.3511261  49.6877220  45.3162228  95.5985114
  50.0069233  46.6816700  96.1690751  35.3317302  37.8930475 104.4174820
  34.7870770  38.6690283 104.5495095  36.2096652  38.2401279 104.2593942
  42.1204918  31.2242058  96.7955619  42.2420830  30.2958705  96.9946506
  41.8306961  31.2380744  95.8833934  44.9896109  28.9096969  99.9322339
  45.0117806  28.9736302  98.9774318  45.4064168  28.0701477 100.1262845
  55.3679733  38.6452228  97.9701561  55.8110879  37.8959554  97.5720684
  54.4906243  38.6362365  97.5875293  50.5015514  45.1982570  93.4508160
  51.1966419  45.8189263  93.6695474  50.8438665  44.3477921  93.7260538
  36.1183324  37.0200371 107.3104977  35.3765060  37.1683006 107.8969607
  35.7976068  37.2808636 106.4471726  52.4006938  42.6482275  94.9795490
  52.9258262  42.9869548  94.2544810  52.3129290  41.7129291  94.7958625
  44.0626986  46.5616349 107.1085367  44.3714113  46.3165496 107.9808067
  44.8602468  46.7662988 106.6204237  44.0847598  48.7154259  99.3390744
  43.6452589  48.2230637 100.0323600  44.8355715  48.1727226  99.0982819
  36.5639937  44.9065800  99.3415372  37.3897957  44.6069571  98.9614015
  36.2133989  44.1373422  99.7905160  41.5321471  44.2592268 101.4113045
  40.9101480  43.5962973 101.1115273  42.2026337  44.2853400 100.7286693
  34.7648542  42.8252126 100.3004305  33.9280451  42.3974300 100.1188307
  34.7372188  43.0184569 101.2375096  52.0900844  43.2815179 110.2846688
  51.2996387  43.2639318 109.7451188  51.8534198  43.8203473 111.0395725
  52.2098719  40.1307645 107.5979417  52.2596724  39.9657653 108.5394940
  52.1012642  39.2634904 107.2077298  41.0934977  42.8096191  94.8871506
  41.2423098  43.4931655  94.2338179  41.9001421  42.7901281  95.4020962
  49.5002481  36.1138573 108.9138724  50.4012344  35.9745038 108.6222721
  49.5750456  36.2793028 109.8536901  43.8345286  33.4905428 107.7591910
  42.9648596  33.7838994 107.4874498  44.0704767  34.0745873 108.4799174
  53.7116916  42.5504587 107.8421438  53.4201724  42.9134567 108.6784899
  53.0989047  41.8371595 107.6634771  54.9112598  40.1157467 100.3624009
  55.7459489  40.5547271 100.5261569  55.0471727  39.6396120  99.5432254
  51.9604104  37.6737202 106.3101496  52.4358225  37.8664848 105.5020348
  51.0369669  37.7296387 106.0644880  38.8487610  38.8361369  95.8932575
  38.6033652  37.9323699  96.0912785  39.0183525  38.8378519  94.9512053
  46.5384320  29.7085045 105.2757330  47.0566264  30.4446072 104.9503819
  46.1839453  30.0149038 106.1104089  38.1183258  34.5689726  93.3918736
  37.4252503  34.6434081  92.7358772  37.8735010  33.8050070  93.9140253
  46.7896914  26.1285328 100.7958227  47.0698668  25.4608517 101.4218653
  47.5747521  26.3214423 100.2832891  50.6605773  34.5502962 104.5429802
  51.6123196  34.6501059 104.5642026  50.4909223  33.7581230 105.0527886
  48.6820152  31.6358545 104.7289203  48.0870084  31.9163558 104.0335692
  48.3969849  32.1252446 105.5005944  50.4415659  44.9047342  90.4495783
  50.3629291  44.5707206  91.3431541  51.2625326  45.3969110  90.4487255
  53.1393851  37.7709081 103.6572102  53.1070171  36.8325082 103.8431786
  53.7494474  37.8493118 102.9237927  44.9777181  36.6405134  89.6999306
  45.9236286  36.5111342  89.7687724  44.5991426  35.9019796  90.1768734
  53.2888339  34.5620125 103.7030385  52.7727388  33.7778581 103.5160314
  54.1728288  34.2338841 103.8676904  50.9499066  28.3061140  99.6626198
  50.7523887  27.9976229 100.5469530  51.5598772  29.0322779  99.7924127
  58.9570400  38.8325088 102.7978138  59.6873789  38.5710376 103.3585842
  58.3477346  38.0953810 102.8380206  57.0385698  36.9732951 103.3952590
  56.3118861  36.8388916 102.7869081  56.6232984  37.2809779 104.2009308
  44.8615874  40.6922880 111.1599963  45.7818883  40.8701479 111.3540009
  44.8265457  39.7478926 111.0079662  43.1620099  34.5655111  89.6354191
  42.2551554  34.2688223  89.7116905  43.4396080  34.2684929  88.7688477
  34.0798039  35.8861474 100.0853237  33.7600823  35.0326782  99.7927611
  33.5331467  36.1010052 100.8411205  37.8577947  38.6023915 103.8022744
  38.0763956  39.5341023 103.8210778  38.2703720  38.2431889 104.5877548
  44.7782164  29.1092000  95.7898432  43.9682893  28.7639085  96.1653678
  45.4666581  28.7999544  96.3786044  46.7072713  28.1870047  97.4122729
  47.2603751  28.6065501  98.0712752  46.9442799  27.2605795  97.4545685
  41.9318883  31.4242046  89.7766170  42.7938047  31.7496944  90.0361988
  42.1169227  30.6373542  89.2639236  33.9486299  39.5064386 102.0546359
  33.2549770  39.0918338 101.5416313  34.6959290  39.5484922 101.4579778
  50.0851520  30.2970572  96.9201393  49.5050189  30.9555376  96.5379446
  49.8187452  29.4747917  96.5088811  48.5355086  29.6975630  99.1222713
  49.0354864  29.8092165  98.3137032  49.1790694  29.3936683  99.7623522
  42.5937082  37.6054260 112.0090554  42.1104164  38.4054620 112.2154443
  42.6798021  37.6162205 111.0557998  35.8623041  39.4382639  99.9312374
  35.8393730  39.5370327  98.9794257  36.1723678  40.2847790 100.2529540
  38.5210419  41.4958794 104.0458988  39.4753673  41.4642737 103.9788920
  38.3222943  41.0349418 104.8609214  39.1109802  40.0659910 106.6129786
  39.9302690  40.5603989 106.6364623  39.3846609  39.1491879 106.5847353
  48.8676398  32.4570663  95.9757741  47.9802253  32.7420313  95.7577936
  49.2830387  32.2964426  95.1285018  52.2190934  32.4817184  99.6912081
  52.9951324  32.9713636  99.9636697  51.4939068  32.9075238 100.1483950
  54.6563492  33.1944803 100.7486021  55.2507983  32.9540539 100.0379330
  54.7290076  32.4751934 101.3759558  36.8760648  47.0378414 101.0629186
  36.7415116  46.2778815 100.4967184  36.4592710  47.7619314 100.5957975
  48.0119611  42.2215337  90.0705761  48.7155461  42.4265340  90.6863417
  47.2882260  42.7892099  90.3354845  48.8417421  37.9725199  96.1908032
  48.7852623  38.4293750  95.3515664  49.3945764  37.2115883  96.0130874
  52.6522227  33.7614931  97.0158151  52.3959162  33.3611566  97.8466359
  52.0275095  34.4758724  96.8908290  56.9634565  36.5011004  99.5229442
  56.4034123  36.5704193 100.2961005  56.3578069  36.3251988  98.8028939
  40.0329774  47.9347731 101.2747629  39.9162158  48.8793163 101.1726319
  39.2122220  47.6321292 101.6633428  49.9206309  42.6597867  92.1204221
  50.7551913  42.2279065  91.9381696  49.7590652  42.4879880  93.0481116
  49.5752201  39.1629980  93.4860561  49.5201005  38.9974251  92.5449005
  48.9498256  39.8706013  93.6422750  34.3644716  34.3998044 107.3121983
  35.0103579  33.8896998 107.8009208  34.1561867  35.1366726 107.8865408
  46.8898108  41.4678892 112.8114124  47.7589268  41.6419544 112.4500758
  46.4104859  42.2873309 112.6889853  42.8848326  28.6638089  93.0645879
  42.8726996  29.6079929  93.2214150  43.7771748  28.4808234  92.7705340
  41.0584288  48.5875993 104.4903557  41.9611535  48.6199603 104.8070052
  40.8321658  47.6576444 104.5049893  42.8137890  47.3406979 101.1513636
  41.8633521  47.3408841 101.0378008  43.1170376  46.5939714 100.6349670
  46.7000446  25.2580866  97.3191816  45.9332841  24.7039352  97.4648498
  47.1111151  25.3302734  98.1805968  58.5490584  53.1767518 102.2159398
  59.1868994  53.0574265 101.5122738  58.4311427  54.1248362 102.2747350
  55.3580290  53.1294946 102.1520923  55.0198801  53.0136011 101.2641458
  56.2270058  52.7286111 102.1321929  55.8400073  54.2829798 108.1107128
  55.8288714  53.8882596 107.2387632  56.0020712  53.5495870 108.7040900
  56.7966664  58.6501390  93.4532279  56.1454644  59.2355470  93.0666293
  57.5911027  59.1807585  93.5127316  52.5607334  57.0666909 107.0586312
  52.2697200  57.9712540 106.9432979  53.1964318  57.1083437 107.7730382
  53.4863541  54.4443758 103.6487672  54.0827113  54.2199780 102.9344635
  53.5438512  53.7028503 104.2513120  53.0588569  51.8983193  91.4837863
  53.3114090  51.3764714  90.7221326  52.1213128  51.7349339  91.5864547
  58.1031852  50.9018972  99.2912606  58.8894941  50.4838395  98.9403023
  58.3670556  51.8065064  99.4594255  58.2741930  56.3391822  93.9901263
  57.6387762  56.4126448  94.7022168  57.9439336  56.9285421  93.3120342
  63.5040279  50.8394205 100.1945585  64.2365451  50.2693422 100.4283414
  62.7479635  50.4515805 100.6352090  52.7784858  53.8011299  93.6862238
  52.6621116  53.1256203  94.3543322  52.8887118  53.3143673  92.8694391
  55.1216399  53.2621446  97.3908927  54.7574606  52.7352067  98.1021849
  55.9783515  52.8719915  97.2175413  61.0265700  44.5515779 104.6540193
  60.6949024  45.4211190 104.4301408  60.4311313  44.2352063 105.3334224
  54.7621886  48.2911346  92.3870276  54.9296288  49.1591582  92.7540747
  54.5719055  48.4538628  91.4631565  57.5197219  56.7528325 104.0536106
  57.2197942  57.6553364 103.9451913  57.1748279  56.4860508 104.9057259
  50.9709701  53.2042122 100.0872811  50.0460197  53.0718336 100.2950502
  51.2194114  53.9836341 100.5842753  60.9194363  49.2710865 101.7333543
  60.0111240  49.2026273 101.4392304  60.8681959  49.7482810 102.5615369
  54.7411107  50.7469003  93.3716943  54.6210732  51.1926054  94.2102423
  54.0463695  51.0954321  92.8130481  52.5017999  63.5172645  97.0207074
  52.4242029  64.4680470  97.0995554  51.8979643  63.1718518  97.6782000
  54.9935229  50.6900511 109.6768441  54.2168563  51.2494431 109.6671305
  55.6325792  51.1757294 110.1983311  62.7856009  47.4727303 103.5111417
  62.1430390  47.7659837 102.8651212  62.2810938  47.3580224 104.3164614
  60.4396173  51.2190477  94.1997277  61.3514029  51.4517863  94.0244974
  59.9305820  51.8027521  93.6372355  53.2481601  53.4985964 109.2386408
  53.9896285  54.0371008 108.9621231  52.5418587  54.1252253 109.3957959
  58.7236941  55.6415104 107.8358569  59.1320297  55.1997515 107.0913202
  58.0014202  55.0667732 108.0892762  55.0768011  50.5787711 105.2092126
  55.9229206  51.0027125 105.3526775  55.0166648  49.9221336 105.9030689
  59.0465755  56.2016295 101.5910858  58.4174618  56.3662009 100.8886926
  58.6591417  56.6157905 102.3621822  62.9254987  57.1370733  98.9455222
  62.2406025  57.5169634  98.3952255  63.0098837  57.7466060  99.6787170
  58.2267456  48.2392080 106.8673300  57.9828388  48.9934140 106.3307575
  58.5027387  48.6177427 107.7020547  60.1805919  54.7830692 105.5450565
  60.3922814  55.4262452 104.8684946  60.1335667  53.9493009 105.0772495
  57.7832148  47.3948513 102.4487137  56.9216627  47.6929766 102.7403875
  57.8094582  47.6118912 101.5168170  54.5993717  55.9390703  98.8560943
  55.0632063  56.2178406  98.0665566  54.3350515  55.0374148  98.6734034
  51.4917798  55.4862185 101.7940706  52.0619155  55.9149453 101.1558191
  52.0825910  55.2044769 102.4924892  53.5362603  52.0613856  95.6650508
  54.2386647  52.5134899  96.1324435  53.2043232  51.4197674  96.2930401
  51.9842965  50.6525612 110.0401718  51.3541625  51.3341893 110.2737115
  51.8779053  50.5408694 109.0954856  61.2951747  57.6602647 103.7172923
  62.1169191  57.2582835 103.4355604  61.2914150  57.5570882 104.6689038
  55.0608350  57.2086691 105.8733633  55.1252783  57.6707098 106.7091805
  54.3519274  56.5784056 106.0015943  69.3857740  54.0041396 100.0657894
  68.6321448  53.4348794  99.9101899  69.5205281  53.9704060 101.0128529
  54.7756368  58.8754798  95.7412614  54.6402043  59.7206334  96.1697461
  55.3166180  59.0774076  94.9778547  51.2623708  44.9546378 112.4026969
  50.8690653  44.4012577 113.0774613  52.0789848  45.2656957 112.7933486
  54.1791669  46.3704257 109.9947225  54.9201382  46.9711410 109.9151688
  54.4109591  45.6281895 109.4365268  49.3233007  51.5560624 108.2725455
  49.2086522  50.6545882 108.5732554  48.4677524  51.8024321 107.9210272
  56.4024844  59.4978365 109.8712956  55.9588698  58.7114743 109.5533860
  57.0642058  59.6857515 109.2056846  58.5006082  59.7781165 107.8994357
  58.4824558  60.5990046 107.4074626  59.4226002  59.6535240 108.1244498
  54.9579136  57.2925294 108.7417865  55.4907473  56.5313582 108.5117173
  54.4293218  56.9998946 109.4842020  58.1248831  42.3985360 104.2711507
  57.7813101  43.2887002 104.1950618  58.4927794  42.2087018 103.4081092
  58.0899114  52.3893971  92.7783942  57.5745738  53.1598576  93.0172330
  57.8176423  51.7159107  93.4017004  55.6746225  47.2343672  97.8369180
  54.8187822  46.8450522  97.6574819  56.0873177  47.3135633  96.9768966
  57.2045372  44.7690015 102.2360740  56.7010167  44.7320150 101.4228546
  57.4975979  45.6782758 102.2957397  53.4488258  44.8528745 101.2426922
  54.3141255  44.6571554 100.8832811  53.5165767  44.6239097 102.1696279
  63.0633388  55.1426326  94.7137116  62.2862831  54.8037485  94.2692278
  63.7424869  55.1478949  94.0392081  57.8785417  50.2621063  94.6043723
  57.5735553  50.5767212  95.4553866  58.8315859  50.3402483  94.6471056
  56.3231849  56.4211287  96.2536677  55.7953211  55.6864046  95.9409915
  55.8219352  57.1985963  96.0076646  61.3024695  54.6160307 101.3703724
  60.6448370  55.3059568 101.4583852  62.1065094  55.0056739 101.7137710
  51.0550577  47.0830953  98.6143289  51.6294329  46.8606134  97.8816482
  51.6421559  47.1519647  99.3671890  60.1130154  52.9704680  99.4207665
  60.6262036  53.6034672  99.9229375  60.7631378  52.3705875  99.0551025
  51.3820164  49.1135414  92.6339174  50.5457476  49.4510100  92.9548449
  51.2424934  48.9784394  91.6966311  53.3573245  43.9572202  97.3418358
  52.7037657  43.6421219  96.7174973  53.3153719  43.3347942  98.0678181
  54.4684449  54.2391497  89.2571650  53.5611511  54.0080750  89.4562799
  54.9655481  53.4429116  89.4445632  57.3752528  62.9489004  92.1768336
  56.7014227  63.2520701  92.7853294  57.7618350  63.7518084  91.8273794
  56.5910985  50.4454135 101.6666006  55.6733546  50.6669082 101.5087694
  57.0071129  50.5200446 100.8077713  57.3746033  51.8445551  96.7968686
  58.1217852  52.3566948  96.4875808  57.6437622  51.5229604  97.6573080
  55.6472683  54.3404092  93.7795640  54.7383902  54.0563125  93.8768110
  55.6767767  54.7603170  92.9198947  60.8791950  57.9510681  97.5486808
  60.4254277  57.1101591  97.6051998  60.2485917  58.5872080  97.8861588
  59.8224870  48.8802667  98.7787475  59.0847627  48.3680053  99.1097718
  60.0751643  48.4403049  97.9670752  59.3224889  59.7887178  98.4836626
  59.6147864  60.3492235  97.7648992  59.8323510  60.0815739  99.2389785
  59.9236497  41.6578919  99.3729245  60.2295374  40.7976283  99.0855160
  60.6489102  42.2496539  99.1728239  54.1957577  51.9532712  99.8805436
  54.2506187  51.0006549  99.8047912  53.3848779  52.1092151 100.3646734
  55.3448771  55.8812835  91.1183719  54.9068201  55.1648694  90.6589356
  56.0859211  56.1088950  90.5568810  52.1349937  50.5709772  97.6395815
  51.3217802  50.8703943  98.0461007  52.6308931  50.1765461  98.3570297
  54.2858515  60.5667529  99.5730079  54.2434693  60.7928375  98.6438611
  55.2021214  60.3330904  99.7215880  57.7324148  51.0351597 106.4710709
  58.0873536  51.2623070 107.3305174  58.3796280  51.3669973 105.8487964
  63.4621885  54.1570032  97.1760038  63.3239784  54.3471628  96.2481227
  63.1058104  54.9189415  97.6328089  51.6264012  48.1428128 103.2557050
  52.2663391  48.0016887 102.5580013  50.7941542  47.8562641 102.8795652
  63.4891265  56.2246559 102.1871309  63.9227772  56.1321849 103.0354363
  64.2022846  56.2004060 101.5491325  52.4024315  57.4430558  99.3692042
  53.1964914  56.9480878  99.1674617  51.6916008  56.9148421  99.0059748
  57.2219160  59.8248654 103.7204410  57.2756182  60.3939590 104.4882126
  56.3533941  59.9950539 103.3558447  48.6292628  48.1128453  98.0330036
  48.8899445  49.0273786  97.9239197  49.4509800  47.6452895  98.1826649
  50.1017553  49.5266210 105.2028861  50.7740607  49.3183572 104.5541510
  49.2747340  49.3288296 104.7634093  64.3506815  56.2670260 104.7204194
  64.5442705  57.1716071 104.9663469  64.2507433  55.8077679 105.5542779
  56.0043125  46.1528151 107.2194522  55.3571040  46.8518100 107.1258998
  56.7744141  46.5864295 107.5870770  59.4121923  56.4177003 110.2945075
  59.2607430  56.1887555 109.3775159  59.4026603  57.3747604 110.3076420
  56.1807260  53.9908916 105.2791341  57.1099320  54.1420075 105.1060309
  55.7598290  54.0792936 104.4239988  54.9795591  58.0159580 103.0489879
  54.8406677  57.6478364 103.9215817  54.1910188  58.5307219 102.8773837
  55.5743743  63.1168676  94.3915416  55.7495499  62.6456720  95.2061038
  54.8876531  63.7434443  94.6196676  56.5300807  57.3941183 100.4378717
  56.1950639  57.3541953 101.3336367  56.0304752  56.7285899  99.9649127
  50.5045051  52.8008813 105.9631298  50.3664848  52.0689052 106.5642837
  51.4149974  52.7117713 105.6815486  59.4659998  54.7397217  90.7115777
  58.8489169  54.0144045  90.6148829  58.9976487  55.5006577  90.3682851
  53.1327351  52.5128772 105.4514978  53.8426970  51.8721964 105.4101596
  53.0896659  52.7641667 106.3741158  61.1214130  59.4496125 108.3721557
  61.0626676  58.7655346 107.7052140  61.5233648  60.1915115 107.9202183
  51.8456285  49.4993990 107.2710617  51.3093642  49.0484728 107.9232214
  51.2572994  49.6339899 106.5281082  50.1404829  66.2658039 101.1655276
  50.3801427  66.8976563 101.8434294  49.2974025  65.9146079 101.4520635
  51.2558544  48.9582641  89.8337081  50.3788010  48.8371442  89.4699327
  51.7316297  48.1668720  89.5815969  61.1231537  57.4135709 106.6035537
  60.2358316  57.0761631 106.7261935  61.6930088  56.6818741 106.8404302
  47.5795406  48.6349998 104.3563612  47.4953595  48.0275667 103.6214022
  46.7578113  49.1259016 104.3573108  54.6532691  62.0737162 103.5696780
  54.5802862  62.8792133 104.0816084  54.2110084  62.2729127 102.7444801
  54.4422470  61.3108932  97.0799601  53.6589992  61.8530612  97.1737826
  55.1415215  61.8282911  97.4793843  57.7519120  47.1203561  99.7233807
  58.2487820  46.3673523  99.4034877  56.9806102  47.1567878  99.1577016
  65.6048878  52.8243927 101.3652098  65.5938754  53.7068642 100.9946031
  64.7366257  52.4715478 101.1706635  57.1131374  61.9723996 105.7254938
  57.8259346  62.6071461 105.6530840  56.6221403  62.0687862 104.9094940
  58.8348901  55.8775248  97.2972230  57.9005180  55.9976711  97.1276934
  59.0125569  54.9747715  97.0332240  54.3354089  49.2620944  99.4505491
  53.9651877  48.7091985 100.1386397  54.8313181  48.6579078  98.8980491
  62.2221452  51.7192568  97.8322264  62.6881905  52.5520559  97.7582567
  62.6728953  51.2537549  98.5367523  60.2897683  58.0636389  94.8308416
  60.5657527  57.9492984  95.7402290  59.4202182  57.6653874  94.7920589
  60.1938115  44.0873155 101.8713166  59.2801195  44.3177381 102.0395373
  60.6231217  44.1711599 102.7227198  59.9644574  52.2763047 104.3713060
  59.3116024  52.5238954 103.7165512  60.3424953  51.4627185 104.0375537
  56.9251747  62.3122740  98.4741230  57.1074142  61.4944396  98.9368982
  57.7484733  62.5290432  98.0366120  57.2593913  61.2390925  95.7356278
  57.7881679  60.7283380  95.1226441  57.5222133  60.9233455  96.6001811
  56.0132147  53.0182858 110.8579097  55.3372784  52.9176987 111.5281472
  56.8359780  52.8622071 111.3215094  54.7554929  64.3249785 105.0936713
  55.3073238  64.4881407 105.8585798  55.0961123  64.9154223 104.4216738
  49.7319423  46.6724935 105.6958597  49.7960749  47.5339766 105.2835995
  49.6686543  46.0598937 104.9630956  49.2071695  48.7448067 109.3431632
  49.8343734  48.3625145 109.9569156  48.3499614  48.5262269 109.7087324
  59.6065804  59.1511043 110.9485367  60.1505708  59.7641001 110.4540322
  59.0252649  59.7090621 111.4652380  57.8923317  62.2731761 102.0800395
  57.7674456  61.4721500 101.5711340  58.5502408  62.7677954 101.5914365
  49.5131485  48.6280493 101.2577535  48.7918071  49.2416461 101.1185008
  50.3024741  49.1638258 101.1794181  59.9558225  60.0740781 103.7079945
  59.0088561  59.9546132 103.6358272  60.3040998  59.1863279 103.7906206
  52.3157799  45.9634920 107.5318187  52.8392200  46.2097216 108.2944496
  52.0970132  46.7954954 107.1121324  47.7125080  48.2338594  95.3989312
  47.3837786  47.3535973  95.2164418  48.0664450  48.1786263  96.2865701
  56.9604658  59.8693497  99.9084297  56.8129621  58.9410204 100.0891867
  57.7858152  59.8913588  99.4241372  50.8266903  48.5211564  95.7664789
  51.1662975  49.0497485  95.0443398  51.2739023  48.8591970  96.5423356
  60.5638780  60.6922056 100.9949170  61.4885328  60.4864917 100.8573621
  60.3954084  60.4438457 101.9038511  53.5210344  46.9048615 105.2167857
  53.1807164  46.1056428 105.6188537  52.8149350  47.2050326 104.6444691
  54.1726815  43.9897927 103.6695180  54.9952885  43.5158405 103.5474071
  54.4164879  44.7688411 104.1693867  52.8135050  47.0186186  93.9658082
  53.5343412  47.3967438  93.4621799  52.1900354  47.7375062  94.0693060
  56.9566173  47.7231335  94.9016414  57.1729787  48.6055972  94.6005243
  56.4760240  47.3317548  94.1722056  51.6965394  50.6817048 101.4787159
  51.5509975  50.9957351 102.3711441  51.2190598  51.3001948 100.9258058
  53.5561777  47.6719596 101.5268049  53.5423346  46.7760689 101.1900347
  54.2734205  47.6790260 102.1606335  55.4087908  48.1056936 103.5721176
  55.1505686  49.0274007 103.5705506  54.8772948  47.7087371 104.2621640
  60.3534096  61.2107723  96.3511261  60.5270974  60.6454146  95.5985114
  60.8462988  62.0108618  96.1690751  52.9598673  46.5533976  96.7955619
  53.0814584  45.6250622  96.9946506  52.6700715  46.5672662  95.8833934
  55.8289863  44.2388887  99.9322339  55.8511560  44.3028220  98.9774318
  56.2457922  43.3993395 100.1262845  66.2073488  53.9744146  97.9701561
  66.6504634  53.2251471  97.5720684  65.3299998  53.9654282  97.5875293
  61.3409269  60.5274488  93.4508160  62.0360174  61.1481180  93.6695474
  61.6832419  59.6769839  93.7260538  46.9577078  52.3492288 107.3104977
  46.2158814  52.4974924 107.8969607  46.6369822  52.6100554 106.4471726
  63.2400692  57.9774193  94.9795490  63.7652016  58.3161466  94.2544810
  63.1523045  57.0421208  94.7958625  54.9020741  61.8908267 107.1085367
  55.2107867  61.6457413 107.9808067  55.6996223  62.0954905 106.6204237
  54.9241353  64.0446176  99.3390744  54.4846343  63.5522555 100.0323600
  55.6749470  63.5019144  99.0982819  52.4439752  48.0665973 111.0045551
  52.4927908  48.9428096 110.6223321  52.9862267  47.5243367 110.4317195
  62.9294598  58.6107097 110.2846688  62.1390142  58.5931236 109.7451188
  62.6927953  59.1495390 111.0395725  63.0492473  55.4599563 107.5979417
  63.0990478  55.2949571 108.5394940  62.9406397  54.5926822 107.2077298
  51.9328732  58.1388109  94.8871506  52.0816852  58.8223573  94.2338179
  52.7395175  58.1193199  95.4020962  60.3396236  51.4430491 108.9138724
  61.2406098  51.3036956 108.6222721  60.4144210  51.6084946 109.8536901
  54.6739041  48.8197346 107.7591910  53.8042350  49.1130912 107.4874498
  54.9098521  49.4037791 108.4799174  64.5510670  57.8796505 107.8421438
  64.2595478  58.2426485 108.6784899  63.9382801  57.1663513 107.6634771
  65.7506352  55.4449384 100.3624009  66.5853244  55.8839188 100.5261569
  65.8865481  54.9688038  99.5432254  62.7997858  53.0029119 106.3101496
  63.2751980  53.1956766 105.5020348  61.8763424  53.0588305 106.0644880
  57.3778075  45.0376963 105.2757330  57.8960019  45.7737990 104.9503819
  57.0233208  45.3440956 106.1104089  48.9577012  49.8981644  93.3918736
  48.2646257  49.9725999  92.7358772  48.7128764  49.1341988  93.9140253
  57.6290669  41.4577245 100.7958227  57.9092423  40.7900434 101.4218653
  58.4141276  41.6506341 100.2832891  55.4324137  60.6336239  92.3583253
  54.8598105  61.2526426  91.9053725  56.0056931  61.1835601  92.8923175
  61.4999527  49.8794879 104.5429802  62.4516950  49.9792977 104.5642026
  61.3302978  49.0873148 105.0527886  59.5213907  46.9650463 104.7289203
  58.9263839  47.2455475 104.0335692  59.2363603  47.4544363 105.5005944
  58.6521397  60.9173389  93.4891836  59.5852070  60.8518951  93.6924711
  58.5644610  61.7529656  93.0306368  61.2809414  60.2339260  90.4495783
  61.2023045  59.8999123  91.3431541  62.1019081  60.7261028  90.4487255
  63.9787605  53.1000999 103.6572102  63.9463925  52.1617000 103.8431786
  64.5888229  53.1785036 102.9237927  55.8170936  51.9697052  89.6999306
  56.7630041  51.8403260  89.7687724  55.4385181  51.2311714  90.1768734
  64.1282094  49.8912042 103.7030385  63.6121142  49.1070499 103.5160314
  65.0122042  49.5630759 103.8676904  61.7892820  43.6353058  99.6626198
  61.5917642  43.3268146 100.5469530  62.3992526  44.3614697  99.7924127
  69.7964155  54.1617006 102.7978138  70.5267543  53.9002294 103.3585842
  69.1871100  53.4245728 102.8380206  67.8779452  52.3024868 103.3952590
  67.1512616  52.1680833 102.7869081  67.4626739  52.6101697 104.2009308
  55.7009628  56.0214798 111.1599963  56.6212638  56.1993397 111.3540009
  55.6659212  55.0770843 111.0079662  54.0013853  49.8947028  89.6354191
  53.0945308  49.5980141  89.7116905  54.2789834  49.5976846  88.7688477
  55.6175919  44.4383918  95.7898432  54.8076647  44.0931003  96.1653678
  56.3060336  44.1291462  96.3786044  57.5466467  43.5161965  97.4122729
  58.0997506  43.9357418  98.0712752  57.7836553  42.5897713  97.4545685
  53.5699566  49.5049039 113.1925493  53.4696293  50.4543395 113.1237584
  53.3521108  49.1767277 112.3201563  52.7712638  46.7533964  89.7766170
  53.6331802  47.0788862  90.0361988  52.9562982  45.9665459  89.2639236
  60.9245274  45.6262490  96.9201393  60.3443943  46.2847294  96.5379446
  60.6581207  44.8039835  96.5088811  59.3748841  45.0267548  99.1222713
  59.8748619  45.1384082  98.3137032  60.0184448  44.7228601  99.7623522
  53.4330836  52.9346177 112.0090554  52.9497918  53.7346537 112.2154443
  53.5191775  52.9454122 111.0557998  49.3604174  56.8250712 104.0458988
  50.3147427  56.7934654 103.9788920  49.1616697  56.3641336 104.8609214
  49.9503556  55.3951828 106.6129786  50.7696445  55.8895907 106.6364623
  50.2240364  54.4783796 106.5847353  59.7070152  47.7862580  95.9757741
  58.8196007  48.0712231  95.7577936  60.1224141  47.6256344  95.1285018
  63.0584688  47.8109101  99.6912081  63.8345078  48.3005554  99.9636697
  62.3332823  48.2367156 100.1483950  65.4957247  48.5236721 100.7486021
  66.0901738  48.2832457 100.0379330  65.5683831  47.8043851 101.3759558
  58.8513366  57.5507255  90.0705761  59.5549216  57.7557258  90.6863417
  58.1276014  58.1184017  90.3354845  59.6811176  53.3017116  96.1908032
  59.6246377  53.7585668  95.3515664  60.2339518  52.5407801  96.0130874
  63.4915982  49.0906848  97.0158151  63.2352916  48.6903484  97.8466359
  62.8668850  49.8050642  96.8908290  67.8028320  51.8302921  99.5229442
  67.2427878  51.8996111 100.2961005  67.1971823  51.6543906  98.8028939
  60.7600063  57.9889784  92.1204221  61.5945667  57.5570983  91.9381696
  60.5984406  57.8171798  93.0481116  60.4145955  54.4921898  93.4860561
  60.3594759  54.3266169  92.5449005  59.7892011  55.1997931  93.6422750
  45.2038470  49.7289962 107.3121983  45.8497334  49.2188916 107.8009208
  44.9955621  50.4658644 107.8865408  57.7291862  56.7970809 112.8114124
  58.5983022  56.9711462 112.4500758  57.2498614  57.6165226 112.6889853
  53.7242081  43.9930007  93.0645879  53.7120751  44.9371847  93.2214150
  54.6165503  43.8100152  92.7705340  57.5394200  40.5872783  97.3191816
  56.7726596  40.0331270  97.4648498  57.9504905  40.6594652  98.1805968
  49.5435961  46.8757579 111.4096997  50.4067423  46.5194384 111.6200322
  48.9701372  46.5371474 112.0972401  69.3884338  68.5059435 102.2159398
  70.0262748  68.3866183 101.5122738  69.2705181  69.4540279 102.2747350
  66.1974044  68.4586864 102.1520923  65.8592556  68.3427928 101.2641458
  67.0663813  68.0578029 102.1321929  62.0560860  70.3122340  98.1417814
  61.4925725  70.2212277  97.3734102  61.9413255  69.4922244  98.6220306
  66.6793827  69.6121715 108.1107128  66.6682468  69.2174514 107.2387632
  66.8414467  68.8787788 108.7040900  59.6025292  71.8073532 100.9802034
  60.3946584  71.4664356 100.5648334  59.8421942  71.9168507 101.9004188
  67.6360419  73.9793308  93.4532279  66.9848399  74.5647388  93.0666293
  68.4304782  74.5099503  93.5127316  61.5616046  71.0682445  93.8519413
  62.3346922  70.5211432  93.7132289  61.9141445  71.9326694  94.0633875
  63.4001089  72.3958827 107.0586312  63.1090955  73.3004458 106.9432979
  64.0358073  72.4375355 107.7730382  64.3257295  69.7735676 103.6487672
  64.9220868  69.5491698 102.9344635  64.3832267  69.0320421 104.2513120
  63.8982324  67.2275111  91.4837863  64.1507845  66.7056632  90.7221326
  62.9606883  67.0641256  91.5864547  68.9425607  66.2310889  99.2912606
  69.7288696  65.8130312  98.9403023  69.2064311  67.1356981  99.4594255
  69.1135684  71.6683740  93.9901263  68.4781517  71.7418366  94.7022168
  68.7833090  72.2577338  93.3120342  74.3434034  66.1686122 100.1945585
  75.0759206  65.5985339 100.4283414  73.5873389  65.7807723 100.6352090
  63.6178613  69.1303217  93.6862238  63.5014871  68.4548120  94.3543322
  63.7280872  68.6435591  92.8694391  65.9610154  68.5913364  97.3908927
  65.5968361  68.0643985  98.1021849  66.8177269  68.2011833  97.2175413
  71.8659454  59.8807697 104.6540193  71.5342779  60.7503108 104.4301408
  71.2705068  59.5643981 105.3334224  65.6015640  63.6203264  92.3870276
  65.7690043  64.4883500  92.7540747  65.4112810  63.7830545  91.4631565
  68.3590974  72.0820243 104.0536106  68.0591697  72.9845281 103.9451913
  68.0142033  71.8152426 104.9057259  61.8103455  68.5334039 100.0872811
  60.8853952  68.4010254 100.2950502  62.0587868  69.3128259 100.5842753
  71.7588117  64.6002783 101.7333543  70.8504995  64.5318191 101.4392304
  71.7075713  65.0774728 102.5615369  65.5804861  66.0760921  93.3716943
  65.4604487  66.5217972  94.2102423  64.8857450  66.4246239  92.8130481
  59.1712266  68.1767313 100.9216600  59.3004647  68.4301792 101.8356011
  58.4909717  68.7695021 100.6021255  63.3411753  78.8464563  97.0207074
  63.2635783  79.7972388  97.0995554  62.7373397  78.5010435  97.6782000
  65.8328983  66.0192428 109.6768441  65.0562317  66.5786348 109.6671305
  66.4719546  66.5049211 110.1983311  73.6249764  62.8019221 103.5111417
  72.9824144  63.0951754 102.8651212  73.1204692  62.6872141 104.3164614
  71.2789928  66.5482394  94.1997277  72.1907784  66.7809781  94.0244974
  70.7699575  67.1319439  93.6372355  64.0875356  68.8277882 109.2386408
  64.8290040  69.3662926 108.9621231  63.3812341  69.4544170 109.3957959
  69.5630695  70.9707022 107.8358569  69.9714051  70.5289433 107.0913202
  68.8407957  70.3959650 108.0892762  65.9161765  65.9079629 105.2092126
  66.7622960  66.3319042 105.3526775  65.8560403  65.2513253 105.9030689
  69.8859510  71.5308213 101.5910858  69.2568372  71.6953927 100.8886926
  69.4985172  71.9449822 102.3621822  73.7648742  72.4662651  98.9455222
  73.0799780  72.8461552  98.3952255  73.8492591  73.0757977  99.6787170
  69.0661211  63.5683997 106.8673300  68.8222142  64.3226058 106.3307575
  69.3421141  63.9469345 107.7020547  71.0199673  70.1122610 105.5450565
  71.2316569  70.7554370 104.8684946  70.9729422  69.2784926 105.0772495
  68.6225902  62.7240430 102.4487137  67.7610381  63.0221684 102.7403875
  68.6488337  62.9410829 101.5168170  65.4387472  71.2682621  98.8560943
  65.9025817  71.5470324  98.0665566  65.1744270  70.3666065  98.6734034
  62.3311553  70.8154102 101.7940706  62.9012910  71.2441371 101.1558191
  62.9219665  70.5336687 102.4924892  64.3756358  67.3905773  95.6650508
  65.0780401  67.8426817  96.1324435  64.0436986  66.7489592  96.2930401
  62.8236719  65.9817530 110.0401718  62.1935380  66.6633811 110.2737115
  62.7172807  65.8700611 109.0954856  58.1181692  65.6489326 100.9667642
  57.3280746  65.9046854 100.4907752  58.6092939  66.4637664 101.0719682
  72.1345501  72.9894565 103.7172923  72.9562945  72.5874752 103.4355604
  72.1307904  72.8862799 104.6689038  60.0696437  66.0133905  97.9251119
  59.2727600  66.1252599  98.4434614  59.8422029  66.3520557  97.0592009
  65.9002105  72.5378608 105.8733633  65.9646537  72.9999016 106.7091805
  65.1913029  71.9075973 106.0015943  56.4019395  65.9019816 103.3982633
  56.6527433  66.7866826 103.6640209  56.9378943  65.7224418 102.6257724
  80.2251494  69.3333314 100.0657894  79.4715203  68.7640712  99.9101899
  80.3599036  69.2995978 101.0128529  65.6150122  74.2046716  95.7412614
  65.4795797  75.0498252  96.1697461  66.1559935  74.4065994  94.9778547
  62.1017462  60.2838296 112.4026969  61.7084408  59.7304494 113.0774613
  62.9183602  60.5948874 112.7933486  59.0679520  71.7222154  96.3140539
  59.5804040  72.5165404  96.4646103  59.7202233  71.0248444  96.2474140
  60.8774404  74.8387910  98.3963292  61.0541033  75.7605875  98.2084276
  61.6731238  74.5246329  98.8257672  65.0185423  61.6996175 109.9947225
  65.7595136  62.3003328 109.9151688  65.2503346  60.9573813 109.4365268
  60.1626761  66.8852542 108.2725455  60.0480276  65.9837799 108.5732554
  59.3071279  67.1316239 107.9210272  67.2418599  74.8270282 109.8712956
  66.7982453  74.0406661 109.5533860  67.9035812  75.0149433 109.2056846
  62.0005720  76.3566084 104.3973634  62.5513145  76.2283147 103.6250628
  61.1617196  76.6560973 104.0468527  69.3399837  75.1073082 107.8994357
  69.3218312  75.9281963 107.4074626  70.2619757  74.9827158 108.1244498
  65.7972891  72.6217212 108.7417865  66.3301228  71.8605500 108.5117173
  65.2686972  72.3290864 109.4842020  68.9642586  57.7277278 104.2711507
  68.6206855  58.6178919 104.1950618  69.3321549  57.5378935 103.4081092
  57.0328437  70.0510808  97.0900109  57.8703659  70.4607817  96.8733817
  57.2106704  69.1110250  97.0600303  68.9292869  67.7185889  92.7783942
  68.4139492  68.4890493  93.0172330  68.6570177  67.0451025  93.4017004
  66.5139980  62.5635590  97.8369180  65.6581576  62.1742440  97.6574819
  66.9266931  62.6427550  96.9768966  68.0439126  60.0981933 102.2360740
  67.5403922  60.0612068 101.4228546  68.3369733  61.0074676 102.2957397
  64.2882012  60.1820663 101.2426922  65.1535009  59.9863471 100.8832811
  64.3559521  59.9531014 102.1696279  73.9027143  70.4718244  94.7137116
  73.1256586  70.1329403  94.2692278  74.5818624  70.4770867  94.0392081
  68.7179172  65.5912981  94.6043723  68.4129307  65.9059130  95.4553866
  69.6709614  65.6694401  94.6471056  67.1625604  71.7503204  96.2536677
  66.6346965  71.0155964  95.9409915  66.6613106  72.5277881  96.0076646
  72.1418450  69.9452225 101.3703724  71.4842124  70.6351486 101.4583852
  72.9458849  70.3348657 101.7137710  61.8944331  62.4122871  98.6143289
  62.4688083  62.1898052  97.8816482  62.4815314  62.4811565  99.3671890
  70.9523909  68.2996597  99.4207665  71.4655790  68.9326589  99.9229375
  71.6025132  67.6997793  99.0551025  62.2213918  64.4427332  92.6339174
  61.3851231  64.7802018  92.9548449  62.0818688  64.3076311  91.6966311
  64.1966999  59.2864119  97.3418358  63.5431411  58.9713137  96.7174973
  64.1547473  58.6639860  98.0678181  65.3078204  69.5683415  89.2571650
  64.4005266  69.3372668  89.4562799  65.8049236  68.7721034  89.4445632
  68.2146283  78.2780922  92.1768336  67.5407982  78.5812618  92.7853294
  68.6012105  79.0810002  91.8273794  67.4304739  65.7746053 101.6666006
  66.5127301  65.9961000 101.5087694  67.8464883  65.8492363 100.8077713
  68.2139787  67.1737469  96.7968686  68.9611606  67.6858866  96.4875808
  68.4831377  66.8521521  97.6573080  66.4866437  69.6696009  93.7795640
  65.5777657  69.3855042  93.8768110  66.5161521  70.0895088  92.9198947
  71.7185705  73.2802599  97.5486808  71.2648032  72.4393509  97.6051998
  71.0879671  73.9163997  97.8861588  70.6618624  64.2094585  98.7787475
  69.9241381  63.6971971  99.1097718  70.9145398  63.7694967  97.9670752
  70.1618644  75.1179096  98.4836626  70.4541618  75.6784153  97.7648992
  70.6717265  75.4107657  99.2389785  70.7630252  56.9870837  99.3729245
  71.0689128  56.1268200  99.0855160  71.4882856  57.5788457  99.1728239
  57.0554608  67.3901524  97.7610843  56.8579008  66.7970884  97.0361909
  56.5001272  67.0853734  98.4786781  65.0351331  67.2824630  99.8805436
  65.0899941  66.3298466  99.8047912  64.2242533  67.4384069 100.3646734
  66.1842525  71.2104753  91.1183719  65.7461955  70.4940612  90.6589356
  66.9252966  71.4380868  90.5568810  62.9743691  65.9001690  97.6395815
  62.1611557  66.1995860  98.0461007  63.4702685  65.5057379  98.3570297
  65.1252269  75.8959447  99.5730079  65.0828448  76.1220293  98.6438611
  66.0414968  75.6622821  99.7215880  68.5717903  66.3643514 106.4710709
  68.9267291  66.5914987 107.3305174  69.2190034  66.6961891 105.8487964
  74.3015640  69.4861950  97.1760038  74.1633538  69.6763546  96.2481227
  73.9451859  70.2481333  97.6328089  62.4657766  63.4720045 103.2557050
  63.1057145  63.3308804 102.5580013  61.6335297  63.1854559 102.8795652
  74.3285019  71.5538477 102.1871309  74.7621526  71.4613766 103.0354363
  75.0416600  71.5295978 101.5491325  63.2418070  72.7722476  99.3692042
  64.0358668  72.2772796  99.1674617  62.5309762  72.2440339  99.0059748
  68.0612914  75.1540571 103.7204410  68.1149937  75.7231508 104.4882126
  67.1927696  75.3242456 103.3558447  59.5500833  66.9165557  95.4451795
  58.6198421  66.8550013  95.6621757  59.6458305  66.3941510  94.6488436
  59.4686382  63.4420370  98.0330036  59.7293200  64.3565704  97.9239197
  60.2903555  62.9744813  98.1826649  60.9411308  64.8558127 105.2028861
  61.6134361  64.6475490 104.5541510  60.1141094  64.6580213 104.7634093
  75.1900569  71.5962178 104.7204194  75.3836459  72.5007988 104.9663469
  75.0901187  71.1369597 105.5542779  66.8436880  61.4820068 107.2194522
  66.1964795  62.1810018 107.1258998  67.6137895  61.9156212 107.5870770
  70.2515678  71.7468921 110.2945075  70.1001184  71.5179472 109.3775159
  70.2420357  72.7039522 110.3076420  67.0201014  69.3200833 105.2791341
  67.9493074  69.4711993 105.1060309  66.5992044  69.4084854 104.4239988
  65.8189346  73.3451498 103.0489879  65.6800432  72.9770282 103.9215817
  65.0303942  73.8599137 102.8773837  66.4137498  78.4460594  94.3915416
  66.5889254  77.9748637  95.2061038  65.7270286  79.0726360  94.6196676
  67.3694561  72.7233100 100.4378717  67.0344394  72.6833870 101.3336367
  66.8698507  72.0577816  99.9649127  61.3438805  68.1300730 105.9631298
  61.2058603  67.3980969 106.5642837  62.2543729  68.0409631 105.6815486
  70.3053753  70.0689135  90.7115777  69.6882923  69.3435963  90.6148829
  69.8370241  70.8298495  90.3682851  63.9721106  67.8420690 105.4514978
  64.6820724  67.2013882 105.4101596  63.9290414  68.0933585 106.3741158
  71.9607884  74.7788043 108.3721557  71.9020431  74.0947263 107.7052140
  72.3627403  75.5207033 107.9202183  62.6850040  64.8285908 107.2710617
  62.1487397  64.3776646 107.9232214  62.0966748  64.9631816 106.5281082
  60.9798583  81.5949957 101.1655276  61.2195181  82.2268481 101.8434294
  60.1367780  81.2437997 101.4520635  62.0952299  64.2874559  89.8337081
  61.2181765  64.1663360  89.4699327  62.5710052  63.4960637  89.5815969
  71.9625292  72.7427627 106.6035537  71.0752070  72.4053549 106.7261935
  72.5323843  72.0110658 106.8404302  53.6154439  69.0751719  99.9278588
  54.3025479  68.7613449  99.3399603  53.4602567  69.9793083  99.6545839
  58.4189161  63.9641915 104.3563612  58.3347350  63.3567585 103.6214022
  57.5971867  64.4550934 104.3573108  65.4926445  77.4029079 103.5696780
  65.4196617  78.2084051 104.0816084  65.0503838  77.6021045 102.7444801
  65.2816225  76.6400849  97.0799601  64.4983747  77.1822530  97.1737826
  65.9808970  77.1574829  97.4793843  68.5912875  62.4495479  99.7233807
  69.0881574  61.6965441  99.4034877  67.8199856  62.4859795  99.1577016
  76.4442632  68.1535844 101.3652098  76.4332508  69.0360560 100.9946031
  75.5760012  67.8007395 101.1706635  67.9525129  77.3015913 105.7254938
  68.6653101  77.9363378 105.6530840  67.4615157  77.3979779 104.9094940
  69.6742655  71.2067166  97.2972230  68.7398934  71.3268629  97.1276934
  69.8519324  70.3039633  97.0332240  65.1747844  64.5912862  99.4505491
  64.8045631  64.0383902 100.1386397  65.6706936  63.9870995  98.8980491
  73.0615207  67.0484485  97.8322264  73.5275659  67.8812477  97.7582567
  73.5122707  66.5829467  98.5367523  63.0037042  75.0510357 106.5460509
  63.7046502  75.6846840 106.6989903  62.5332157  75.3925088 105.7856149
  71.1291438  73.3928307  94.8308416  71.4051282  73.2784901  95.7402290
  70.2595937  72.9945791  94.7920589  71.0331870  59.4165072 101.8713166
  70.1194949  59.6469299 102.0395373  71.4624971  59.5003516 102.7227198
  70.8038328  67.6054964 104.3713060  70.1509778  67.8530872 103.7165512
  71.1818708  66.7919102 104.0375537  67.7645502  77.6414657  98.4741230
  67.9467896  76.8236313  98.9368982  68.5878488  77.8582350  98.0366120
  68.0987667  76.5682843  95.7356278  68.6275434  76.0575297  95.1226441
  68.3615887  76.2525373  96.6001811  66.8525901  68.3474775 110.8579097
  66.1766538  68.2468905 111.5281472  67.6753535  68.1913989 111.3215094
  58.6004760  74.5846712 103.4791612  59.1858197  73.8390400 103.6119516
  58.4029599  74.8950669 104.3628276  61.4543415  77.6197959  98.4954054
  60.7853791  78.1044087  98.0118094  61.3156285  77.8667180  99.4097433
  53.1922415  67.1552312 102.1996055  53.2306514  66.6215903 102.9933173
  52.6862708  66.6287518 101.5807032  65.5948684  79.6541703 105.0936713
  66.1466992  79.8173324 105.8585798  65.9354877  80.2446141 104.4216738
  60.5713177  62.0016853 105.6958597  60.6354504  62.8631684 105.2835995
  60.5080297  61.3890854 104.9630956  60.0465450  64.0739985 109.3431632
  60.6737489  63.6917062 109.9569156  59.1893369  63.8554187 109.7087324
  70.4459558  74.4802960 110.9485367  70.9899462  75.0932919 110.4540322
  69.8646403  75.0382539 111.4652380  56.8230992  65.8816414  95.2749986
  57.1184434  64.9727093  95.2217040  55.9219028  65.8604154  94.9530989
  68.7317071  77.6023678 102.0800395  68.6068211  76.8013418 101.5711340
  69.3896162  78.0969872 101.5914365  60.3525239  63.9572411 101.2577535
  59.6311825  64.5708379 101.1185008  61.1418495  64.4930176 101.1794181
  70.7951980  75.4032698 103.7079945  69.8482315  75.2838050 103.6358272
  71.1434753  74.5155196 103.7906206  63.1551553  61.2926837 107.5318187
  63.6785955  61.5389134 108.2944496  62.9363886  62.1246872 107.1121324
  58.5518834  63.5630512  95.3989312  58.2231540  62.6827891  95.2164418
  58.9058205  63.5078181  96.2865701  67.7998413  75.1985415  99.9084297
  67.6523375  74.2702122 100.0891867  68.6251906  75.2205505  99.4241372
  61.6660657  63.8503482  95.7664789  62.0056730  64.3789403  95.0443398
  62.1132778  64.1883888  96.5423356  71.4032535  76.0213973 100.9949170
  72.3279082  75.8156835 100.8573621  71.2347838  75.7730375 101.9038511
  64.3604098  62.2340532 105.2167857  64.0200918  61.4348345 105.6188537
  63.6543104  62.5342243 104.6444691  65.0120570  59.3189845 103.6695180
  65.8346639  58.8450323 103.5474071  65.2558633  60.0980329 104.1693867
  63.6528804  62.3478103  93.9658082  64.3737167  62.7259356  93.4621799
  63.0294108  63.0666980  94.0693060  67.7959927  63.0523252  94.9016414
  68.0123542  63.9347890  94.6005243  67.3153994  62.6609466  94.1722056
  62.5359149  66.0108966 101.4787159  62.3903729  66.3249269 102.3711441
  62.0584352  66.6293866 100.9258058  64.3955532  63.0011513 101.5268049
  64.3817100  62.1052607 101.1900347  65.1127960  63.0082177 102.1606335
  66.2481662  63.4348854 103.5721176  65.9899440  64.3565924 103.5705506
  65.7166703  63.0379288 104.2621640  71.1927851  76.5399641  96.3511261
  71.3664729  75.9746063  95.5985114  71.6856742  77.3400536  96.1690751
  57.0104811  68.5514310 104.4174820  56.4658279  69.3274118 104.5495095
  57.8884161  68.8985114 104.2593942  63.7992427  61.8825894  96.7955619
  63.9208339  60.9542540  96.9946506  63.5094470  61.8964580  95.8833934
  66.6683618  59.5680804  99.9322339  66.6905315  59.6320137  98.9774318
  67.0851677  58.7285313 100.1262845  77.0467242  69.3036064  97.9701561
  77.4898388  68.5543389  97.5720684  76.1693752  69.2946200  97.5875293
  72.1803023  75.8566405  93.4508160  72.8753928  76.4773098  93.6695474
  72.5226174  75.0061756  93.7260538  57.7970833  67.6784206 107.3104977
  57.0552569  67.8266842 107.8969607  57.4763577  67.9392472 106.4471726
  74.0794447  73.3066111  94.9795490  74.6045771  73.6453384  94.2544810
  73.9916799  72.3713126  94.7958625  65.7414495  77.2200184 107.1085367
  66.0501622  76.9749331 107.9808067  66.5389977  77.4246823 106.6204237
  65.7635107  79.3738094  99.3390744  65.3240098  78.8814473 100.0323600
  66.5143224  78.8311062  99.0982819  58.2427446  75.5649635  99.3415372
  59.0685466  75.2653407  98.9614015  57.8921498  74.7957257  99.7905160
  63.2108979  74.9176103 101.4113045  62.5888989  74.2546808 101.1115273
  63.8813846  74.9437235 100.7286693  56.4436051  73.4835961 100.3004305
  55.6067960  73.0558136 100.1188307  56.4159697  73.6768405 101.2375096
  63.2833507  63.3957891 111.0045551  63.3321662  64.2720014 110.6223321
  63.8256021  62.8535284 110.4317195  73.7688353  73.9399014 110.2846688
  72.9783896  73.9223153 109.7451188  73.5321707  74.4787308 111.0395725
  73.8886228  70.7891481 107.5979417  73.9384233  70.6241488 108.5394940
  73.7800151  69.9218740 107.2077298  62.7722486  73.4680026  94.8871506
  62.9210607  74.1515491  94.2338179  63.5788930  73.4485117  95.4020962
  71.1789990  66.7722409 108.9138724  72.0799853  66.6328874 108.6222721
  71.2537965  66.9376864 109.8536901  65.5132795  64.1489264 107.7591910
  64.6436105  64.4422830 107.4874498  65.7492276  64.7329709 108.4799174
  75.3904425  73.2088422 107.8421438  75.0989233  73.5718403 108.6784899
  74.7776556  72.4955431 107.6634771  76.5900107  70.7741302 100.3624009
  77.4246998  71.2131106 100.5261569  76.7259236  70.2979955  99.5432254
  73.6391613  68.3321037 106.3101496  74.1145734  68.5248683 105.5020348
  72.7157178  68.3880223 106.0644880  60.5275119  69.4945204  95.8932575
  60.2821161  68.5907534  96.0912785  60.6971034  69.4962355  94.9512053
  68.2171829  60.3668880 105.2757330  68.7353773  61.1029907 104.9503819
  67.8626962  60.6732874 106.1104089  59.7970767  65.2273562  93.3918736
  59.1040012  65.3017917  92.7358772  59.5522519  64.4633905  93.9140253
  68.4684423  56.7869163 100.7958227  68.7486177  56.1192352 101.4218653
  69.2535030  56.9798259 100.2832891  66.2717892  75.9628157  92.3583253
  65.6991859  76.5818344  91.9053725  66.8450686  76.5127519  92.8923175
  72.3393282  65.2086797 104.5429802  73.2910705  65.3084895 104.5642026
  72.1696732  64.4165066 105.0527886  70.3607661  62.2942380 104.7289203
  69.7657593  62.5747393 104.0335692  70.0757358  62.7836281 105.5005944
  69.4915152  76.2465307  93.4891836  70.4245825  76.1810869  93.6924711
  69.4038365  77.0821574  93.0306368  72.1203168  75.5631177  90.4495783
  72.0416800  75.2291041  91.3431541  72.9412835  76.0552945  90.4487255
  74.8181360  68.4292917 103.6572102  74.7857680  67.4908917 103.8431786
  75.4281983  68.5076953 102.9237927  66.6564690  67.2988970  89.6999306
  67.6023795  67.1695178  89.7687724  66.2778935  66.5603632  90.1768734
  74.9675848  65.2203960 103.7030385  74.4514897  64.4362417 103.5160314
  75.8515797  64.8922677 103.8676904  72.6286575  58.9644976  99.6626198
  72.4311396  58.6560064 100.5469530  73.2386281  59.6906615  99.7924127
  80.6357909  69.4908924 102.7978138  81.3661298  69.2294212 103.3585842
  80.0264855  68.7537645 102.8380206  78.7173207  67.6316786 103.3952590
  77.9906370  67.4972751 102.7869081  78.3020493  67.9393615 104.2009308
  66.5403383  71.3506716 111.1599963  67.4606392  71.5285315 111.3540009
  66.5052966  70.4062761 111.0079662  64.8407608  65.2238946  89.6354191
  63.9339063  64.9272059  89.7116905  65.1183589  64.9268764  88.7688477
  55.7585548  66.5445309 100.0853237  55.4388332  65.6910618  99.7927611
  55.2118976  66.7593888 100.8411205  59.5365456  69.2607750 103.8022744
  59.7551465  70.1924858 103.8210778  59.9491229  68.9015725 104.5877548
  66.4569673  59.7675836  95.7898432  65.6470402  59.4222921  96.1653678
  67.1454090  59.4583379  96.3786044  68.3860222  58.8453883  97.4122729
  68.9391260  59.2649336  98.0712752  68.6230308  57.9189631  97.4545685
  64.4093321  64.8340956 113.1925493  64.3090048  65.7835313 113.1237584
  64.1914863  64.5059195 112.3201563  63.6106392  62.0825881  89.7766170
  64.4725556  62.4080780  90.0361988  63.7956736  61.2957377  89.2639236
  55.6273808  70.1648221 102.0546359  54.9337279  69.7502174 101.5416313
  56.3746799  70.2068757 101.4579778  71.7639029  60.9554408  96.9201393
  71.1837698  61.6139212  96.5379446  71.4974961  60.1331752  96.5088811
  70.2142595  60.3559465  99.1222713  70.7142373  60.4676000  98.3137032
  70.8578203  60.0520518  99.7623522  64.2724591  68.2638095 112.0090554
  63.7891673  69.0638455 112.2154443  64.3585530  68.2746040 111.0557998
  57.5410550  70.0966475  99.9312374  57.5181239  70.1954162  98.9794257
  57.8511187  70.9431626 100.2529540  60.1997928  72.1542630 104.0458988
  61.1541182  72.1226572 103.9788920  60.0010452  71.6933253 104.8609214
  60.7897310  70.7243746 106.6129786  61.6090199  71.2187824 106.6364623
  61.0634118  69.8075714 106.5847353  70.5463907  63.1154498  95.9757741
  69.6589762  63.4004149  95.7577936  70.9617896  62.9548261  95.1285018
  73.8978443  63.1401019  99.6912081  74.6738833  63.6297472  99.9636697
  73.1726577  63.5659073 100.1483950  76.3351001  63.8528638 100.7486021
  76.9295492  63.6124374 100.0379330  76.4077585  63.1335769 101.3759558
  58.5548157  77.6962249 101.0629186  58.4202625  76.9362650 100.4967184
  58.1380219  78.4203149 100.5957975  69.6907120  72.8799173  90.0705761
  70.3942970  73.0849175  90.6863417  68.9669769  73.4475935  90.3354845
  70.5204930  68.6309034  96.1908032  70.4640132  69.0877585  95.3515664
  71.0733273  67.8699719  96.0130874  74.3309736  64.4198766  97.0158151
  74.0746671  64.0195402  97.8466359  73.7062604  65.1342560  96.8908290
  78.6422074  67.1594839  99.5229442  78.0821632  67.2288028 100.2961005
  78.0365578  66.9835824  98.8028939  61.7117283  78.5931566 101.2747629
  61.5949667  79.5376999 101.1726319  60.8909729  78.2905128 101.6633428
  71.5993818  73.3181702  92.1204221  72.4339421  72.8862900  91.9381696
  71.4378160  73.1463716  93.0481116  71.2539710  69.8213815  93.4860561
  71.1988514  69.6558087  92.5449005  70.6285765  70.5289848  93.6422750
  56.0432225  65.0581880 107.3121983  56.6891088  64.5480834 107.8009208
  55.8349376  65.7950561 107.8865408  68.5685617  72.1262727 112.8114124
  69.4376777  72.3003379 112.4500758  68.0892368  72.9457144 112.6889853
  64.5635835  59.3221924  93.0645879  64.5514505  60.2663764  93.2214150
  65.4559257  59.1392070  92.7705340  62.7371797  79.2459828 104.4903557
  63.6399044  79.2783438 104.8070052  62.5109167  78.3160279 104.5049893
  64.4925399  77.9990815 101.1513636  63.5421030  77.9992676 101.0378008
  64.7957885  77.2523549 100.6349670  68.3787955  55.9164701  97.3191816
  67.6120350  55.3623188  97.4648498  68.7898660  55.9886570  98.1805968
  60.3829716  62.2049497 111.4096997  61.2461177  61.8486302 111.6200322
  59.8095126  61.8663392 112.0972401  80.2278093  83.8351353 102.2159398
  80.8656503  83.7158100 101.5122738  80.1098936  84.7832197 102.2747350
  77.0367799  83.7878781 102.1520923  76.6986310  83.6719846 101.2641458
  77.9057567  83.3869946 102.1321929  72.8954615  85.6414258  98.1417814
  72.3319480  85.5504195  97.3734102  72.7807010  84.8214162  98.6220306
  77.5187582  84.9413633 108.1107128  77.5076223  84.5466431 107.2387632
  77.6808221  84.2079706 108.7040900  70.4419047  87.1365449 100.9802034
  71.2340338  86.7956274 100.5648334  70.6815697  87.2460424 101.9004188
  78.4754173  89.3085225  93.4532279  77.8242153  89.8939306  93.0666293
  79.2698536  89.8391420  93.5127316  72.4009800  86.3974362  93.8519413
  73.1740676  85.8503350  93.7132289  72.7535199  87.2618612  94.0633875
  74.2394843  87.7250745 107.0586312  73.9484709  88.6296376 106.9432979
  74.8751827  87.7667272 107.7730382  75.1651050  85.1027593 103.6487672
  75.7614622  84.8783616 102.9344635  75.2226021  84.3612339 104.2513120
  74.7376078  82.5567029  91.4837863  74.9901599  82.0348550  90.7221326
  73.8000637  82.3933174  91.5864547  79.7819361  81.5602807  99.2912606
  80.5682450  81.1422230  98.9403023  80.0458065  82.4648899  99.4594255
  79.9529438  86.9975657  93.9901263  79.3175271  87.0710284  94.7022168
  79.6226845  87.5869256  93.3120342  85.1827788  81.4978040 100.1945585
  85.9152960  80.9277257 100.4283414  84.4267144  81.1099641 100.6352090
  74.4572367  84.4595135  93.6862238  74.3408625  83.7840038  94.3543322
  74.5674627  83.9727508  92.8694391  76.8003908  83.9205282  97.3908927
  76.4362115  83.3935903  98.1021849  77.6571024  83.5303751  97.2175413
  82.7053209  75.2099614 104.6540193  82.3736533  76.0795025 104.4301408
  82.1098822  74.8935898 105.3334224  76.4409395  78.9495181  92.3870276
  76.6083797  79.8175418  92.7540747  76.2506564  79.1122463  91.4631565
  79.1984728  87.4112160 104.0536106  78.8985451  88.3137199 103.9451913
  78.8535788  87.1444343 104.9057259  72.6497210  83.8625957 100.0872811
  71.7247706  83.7302171 100.2950502  72.8981623  84.6420176 100.5842753
  82.5981872  79.9294700 101.7333543  81.6898749  79.8610109 101.4392304
  82.5469468  80.4066645 102.5615369  76.4198616  81.4052839  93.3716943
  76.2998241  81.8509890  94.2102423  75.7251204  81.7538157  92.8130481
  70.0106021  83.5059231 100.9216600  70.1398402  83.7593710 101.8356011
  69.3303472  84.0986939 100.6021255  74.1805508  94.1756481  97.0207074
  74.1029538  95.1264306  97.0995554  73.5767152  93.8302353  97.6782000
  76.6722738  81.3484346 109.6768441  75.8956072  81.9078266 109.6671305
  77.3113301  81.8341129 110.1983311  84.4643518  78.1311139 103.5111417
  83.8217899  78.4243672 102.8651212  83.9598447  78.0164059 104.3164614
  82.1183682  81.8774312  94.1997277  83.0301538  82.1101699  94.0244974
  81.6093329  82.4611356  93.6372355  74.9269110  84.1569799 109.2386408
  75.6683794  84.6954843 108.9621231  74.2206095  84.7836088 109.3957959
  80.4024450  86.2998940 107.8358569  80.8107806  85.8581350 107.0913202
  79.6801711  85.7251567 108.0892762  76.7555520  81.2371547 105.2092126
  77.6016715  81.6610960 105.3526775  76.6954157  80.5805171 105.9030689
  80.7253264  86.8600130 101.5910858  80.0962127  87.0245845 100.8886926
  80.3378926  87.2741740 102.3621822  84.6042496  87.7954568  98.9455222
  83.9193534  88.1753470  98.3952255  84.6886346  88.4049895  99.6787170
  79.9054965  78.8975915 106.8673300  79.6615897  79.6517975 106.3307575
  80.1814896  79.2761263 107.7020547  81.8593428  85.4414527 105.5450565
  82.0710323  86.0846287 104.8684946  81.8123176  84.6076844 105.0772495
  79.4619657  78.0532348 102.4487137  78.6004136  78.3513602 102.7403875
  79.4882091  78.2702747 101.5168170  76.2781226  86.5974539  98.8560943
  76.7419572  86.8762242  98.0665566  76.0138024  85.6957983  98.6734034
  73.1705307  86.1446020 101.7940706  73.7406664  86.5733288 101.1558191
  73.7613419  85.8628605 102.4924892  75.2150112  82.7197691  95.6650508
  75.9174156  83.1718735  96.1324435  74.8830741  82.0781510  96.2930401
  73.6630474  81.3109448 110.0401718  73.0329134  81.9925728 110.2737115
  73.5566562  81.1992529 109.0954856  68.9575446  80.9781244 100.9667642
  68.1674500  81.2338772 100.4907752  69.4486694  81.7929581 101.0719682
  82.9739256  88.3186483 103.7172923  83.7956699  87.9166670 103.4355604
  82.9701659  88.2154717 104.6689038  70.9090192  81.3425823  97.9251119
  70.1121355  81.4544517  98.4434614  70.6815784  81.6812475  97.0592009
  76.7395859  87.8670526 105.8733633  76.8040292  88.3290933 106.7091805
  76.0306783  87.2367891 106.0015943  67.2413149  81.2311734 103.3982633
  67.4921188  82.1158744 103.6640209  67.7772698  81.0516336 102.6257724
  91.0645249  84.6625231 100.0657894  90.3108957  84.0932629  99.9101899
  91.1992790  84.6287896 101.0128529  76.4543877  89.5338634  95.7412614
  76.3189552  90.3790169  96.1697461  76.9953689  89.7357911  94.9778547
  72.9411217  75.6130213 112.4026969  72.5478162  75.0596412 113.0774613
  73.7577357  75.9240792 112.7933486  69.9073274  87.0514072  96.3140539
  70.4197795  87.8457322  96.4646103  70.5595987  86.3540362  96.2474140
  71.7168159  90.1679828  98.3963292  71.8934787  91.0897793  98.2084276
  72.5124992  89.8538247  98.8257672  75.8579177  77.0288092 109.9947225
  76.5988891  77.6295246 109.9151688  76.0897100  76.2865730 109.4365268
  71.0020516  82.2144460 108.2725455  70.8874031  81.3129717 108.5732554
  70.1465033  82.4608157 107.9210272  78.0812353  90.1562200 109.8712956
  77.6376207  89.3698579 109.5533860  78.7429567  90.3441351 109.2056846
  72.8399474  91.6858002 104.3973634  73.3906900  91.5575065 103.6250628
  72.0010950  91.9852891 104.0468527  80.1793591  90.4365000 107.8994357
  80.1612067  91.2573881 107.4074626  81.1013511  90.3119075 108.1244498
  76.6366645  87.9509129 108.7417865  77.1694982  87.1897418 108.5117173
  76.1080727  87.6582781 109.4842020  79.8036340  73.0569195 104.2711507
  79.4600610  73.9470837 104.1950618  80.1715303  72.8670853 103.4081092
  67.8722191  85.3802726  97.0900109  68.7097413  85.7899734  96.8733817
  68.0500459  84.4402168  97.0600303  79.7686623  83.0477807  92.7783942
  79.2533247  83.8182411  93.0172330  79.4963932  82.3742943  93.4017004
  77.3533734  77.8927507  97.8369180  76.4975331  77.5034358  97.6574819
  77.7660686  77.9719468  96.9768966  78.8832881  75.4273851 102.2360740
  78.3797676  75.3903986 101.4228546  79.1763488  76.3366593 102.2957397
  75.1275767  75.5112580 101.2426922  75.9928763  75.3155389 100.8832811
  75.1953276  75.2822932 102.1696279  84.7420897  85.8010161  94.7137116
  83.9650340  85.4621321  94.2692278  85.4212378  85.8062784  94.0392081
  79.5572926  80.9204899  94.6043723  79.2523062  81.2351048  95.4553866
  80.5103368  80.9986319  94.6471056  78.0019358  87.0795122  96.2536677
  77.4740720  86.3447882  95.9409915  77.5006861  87.8569798  96.0076646
  82.9812204  85.2744142 101.3703724  82.3235879  85.9643404 101.4583852
  83.7852603  85.6640574 101.7137710  72.7338086  77.7414788  98.6143289
  73.3081838  77.5189970  97.8816482  73.3209068  77.8103483  99.3671890
  81.7917663  83.6288515  99.4207665  82.3049545  84.2618507  99.9229375
  82.4418887  83.0289711  99.0551025  73.0607673  79.7719249  92.6339174
  72.2244985  80.1093936  92.9548449  72.9212443  79.6368229  91.6966311
  75.0360753  74.6156037  97.3418358  74.3825166  74.3005054  96.7174973
  74.9941228  73.9931778  98.0678181  76.1471958  84.8975332  89.2571650
  75.2399020  84.6664586  89.4562799  76.6442990  84.1012951  89.4445632
  79.0540037  93.6072839  92.1768336  78.3801736  93.9104536  92.7853294
  79.4405859  94.4101920  91.8273794  78.2698494  81.1037971 101.6666006
  77.3521055  81.3252918 101.5087694  78.6858637  81.1784281 100.8077713
  79.0533542  82.5029386  96.7968686  79.8005361  83.0150784  96.4875808
  79.3225131  82.1813439  97.6573080  77.3260192  84.9987927  93.7795640
  76.4171411  84.7146960  93.8768110  77.3555276  85.4187006  92.9198947
  82.5579459  88.6094517  97.5486808  82.1041786  87.7685426  97.6051998
  81.9273426  89.2455915  97.8861588  81.5012379  79.5386503  98.7787475
  80.7635136  79.0263889  99.1097718  81.7539152  79.0986884  97.9670752
  81.0012398  90.4471013  98.4836626  81.2935373  91.0076070  97.7648992
  81.5111019  90.7399574  99.2389785  81.6024006  72.3162755  99.3729245
  81.9082883  71.4560118  99.0855160  82.3276611  72.9080375  99.1728239
  67.8948362  82.7193441  97.7610843  67.6972762  82.1262802  97.0361909
  67.3395026  82.4145651  98.4786781  75.8745086  82.6116548  99.8805436
  75.9293696  81.6590384  99.8047912  75.0636288  82.7675987 100.3646734
  77.0236280  86.5396671  91.1183719  76.5855710  85.8232530  90.6589356
  77.7646720  86.7672786  90.5568810  73.8137446  81.2293607  97.6395815
  73.0005311  81.5287778  98.0461007  74.3096440  80.8349296  98.3570297
  75.9646024  91.2251364  99.5730079  75.9222202  91.4512211  98.6438611
  76.8808723  90.9914739  99.7215880  79.4111657  81.6935432 106.4710709
  79.7661045  81.9206905 107.3305174  80.0583789  82.0253809 105.8487964
  85.1409394  84.8153868  97.1760038  85.0027293  85.0055464  96.2481227
  84.7845613  85.5773251  97.6328089  73.3051521  78.8011963 103.2557050
  73.9450900  78.6600722 102.5580013  72.4729051  78.5146476 102.8795652
  85.1678774  86.8830395 102.1871309  85.6015281  86.7905684 103.0354363
  85.8810355  86.8587895 101.5491325  74.0811824  88.1014393  99.3692042
  74.8752423  87.6064714  99.1674617  73.3703517  87.5732256  99.0059748
  78.9006669  90.4832489 103.7204410  78.9543691  91.0523425 104.4882126
  78.0321450  90.6534374 103.3558447  70.3894588  82.2457475  95.4451795
  69.4592176  82.1841931  95.6621757  70.4852060  81.7233428  94.6488436
  70.3080137  78.7712288  98.0330036  70.5686954  79.6857621  97.9239197
  71.1297309  78.3036730  98.1826649  71.7805062  80.1850045 105.2028861
  72.4528116  79.9767407 104.5541510  70.9534849  79.9872131 104.7634093
  86.0294324  86.9254095 104.7204194  86.2230214  87.8299906 104.9663469
  85.9294942  86.4661515 105.5542779  77.6830634  76.8111986 107.2194522
  77.0358549  77.5101936 107.1258998  78.4531650  77.2448130 107.5870770
  81.0909432  87.0760838 110.2945075  80.9394939  86.8471390 109.3775159
  81.0814112  88.0331440 110.3076420  77.8594769  84.6492751 105.2791341
  78.7886829  84.8003911 105.1060309  77.4385799  84.7376772 104.4239988
  76.6583100  88.6743415 103.0489879  76.5194186  88.3062200 103.9215817
  75.8697697  89.1891055 102.8773837  77.2531252  93.7752512  94.3915416
  77.4283008  93.3040555  95.2061038  76.5664040  94.4018278  94.6196676
  78.2088316  88.0525018 100.4378717  77.8738148  88.0125788 101.3336367
  77.7092261  87.3869734  99.9649127  72.1832560  83.4592648 105.9631298
  72.0452357  82.7272887 106.5642837  73.0937483  83.3701548 105.6815486
  81.1447507  85.3981052  90.7115777  80.5276678  84.6727881  90.6148829
  80.6763996  86.1590413  90.3682851  74.8114860  83.1712607 105.4514978
  75.5214479  82.5305800 105.4101596  74.7684168  83.4225502 106.3741158
  82.8001639  90.1079961 108.3721557  82.7414185  89.4239181 107.7052140
  83.2021157  90.8498951 107.9202183  73.5243794  80.1577825 107.2710617
  72.9881151  79.7068564 107.9232214  72.9360503  80.2923734 106.5281082
  71.8192338  96.9241875 101.1655276  72.0588936  97.5560399 101.8434294
  70.9761534  96.5729915 101.4520635  72.9346053  79.6166477  89.8337081
  72.0575519  79.4955277  89.4699327  73.4103806  78.8252555  89.5815969
  82.8019046  88.0719545 106.6035537  81.9145825  87.7345466 106.7261935
  83.3717597  87.3402576 106.8404302  64.4548193  84.4043636  99.9278588
  65.1419233  84.0905366  99.3399603  64.2996322  85.3085001  99.6545839
  69.2582915  79.2933833 104.3563612  69.1741104  78.6859503 103.6214022
  68.4365622  79.7842851 104.3573108  76.3320200  92.7320997 103.5696780
  76.2590371  93.5375969 104.0816084  75.8897593  92.9312963 102.7444801
  76.1209979  91.9692767  97.0799601  75.3377501  92.5114447  97.1737826
  76.8202724  92.4866747  97.4793843  79.4306629  77.7787397  99.7233807
  79.9275329  77.0257359  99.4034877  78.6593611  77.8151713  99.1577016
  87.2836387  83.4827762 101.3652098  87.2726263  84.3652477 100.9946031
  86.4153766  83.1299313 101.1706635  78.7918883  92.6307831 105.7254938
  79.5046855  93.2655296 105.6530840  78.3008912  92.7271697 104.9094940
  80.5136410  86.5359084  97.2972230  79.5792689  86.6560546  97.1276934
  80.6913078  85.6331551  97.0332240  76.0141598  79.9204780  99.4505491
  75.6439386  79.3675820 100.1386397  76.5100690  79.3162913  98.8980491
  83.9008961  82.3776403  97.8322264  84.3669414  83.2104395  97.7582567
  84.3516462  81.9121385  98.5367523  73.8430797  90.3802275 106.5460509
  74.5440256  91.0138757 106.6989903  73.3725912  90.7217006 105.7856149
  81.9685192  88.7220224  94.8308416  82.2445036  88.6076819  95.7402290
  81.0989691  88.3237709  94.7920589  81.8725624  74.7456990 101.8713166
  80.9588704  74.9761217 102.0395373  82.3018726  74.8295434 102.7227198
  81.6432083  82.9346882 104.3713060  80.9903533  83.1822789 103.7165512
  82.0212462  82.1211020 104.0375537  78.6039256  92.9706575  98.4741230
  78.7861651  92.1528231  98.9368982  79.4272242  93.1874267  98.0366120
  78.9381422  91.8974760  95.7356278  79.4669188  91.3867215  95.1226441
  79.2009642  91.5817290  96.6001811  77.6919656  83.6766693 110.8579097
  77.0160293  83.5760822 111.5281472  78.5147289  83.5205907 111.3215094
  69.4398515  89.9138630 103.4791612  70.0251951  89.1682317 103.6119516
  69.2423353  90.2242586 104.3628276  72.2937170  92.9489877  98.4954054
  71.6247545  93.4336005  98.0118094  72.1550040  93.1959097  99.4097433
  64.0316169  82.4844230 102.1996055  64.0700269  81.9507820 102.9933173
  63.5256462  81.9579435 101.5807032  76.4342438  94.9833620 105.0936713
  76.9860746  95.1465242 105.8585798  76.7748632  95.5738058 104.4216738
  71.4106932  77.3308770 105.6958597  71.4748258  78.1923601 105.2835995
  71.3474052  76.7182772 104.9630956  70.8859204  79.4031903 109.3431632
  71.5131243  79.0208980 109.9569156  70.0287123  79.1846105 109.7087324
  67.6624747  81.2108332  95.2749986  67.9578188  80.3019010  95.2217040
  66.7612783  81.1896071  94.9530989  79.5710826  92.9315596 102.0800395
  79.4461965  92.1305336 101.5711340  80.2289917  93.4261789 101.5914365
  71.1918994  79.2864329 101.2577535  70.4705580  79.9000296 101.1185008
  71.9812250  79.8222093 101.1794181  81.6345734  90.7324616 103.7079945
  80.6876070  90.6129967 103.6358272  81.9828507  89.8447114 103.7906206
  73.9945307  76.6218755 107.5318187  74.5179709  76.8681052 108.2944496
  73.7757641  77.4538790 107.1121324  69.3912589  78.8922430  95.3989312
  69.0625295  78.0119809  95.2164418  69.7451959  78.8370098  96.2865701
  78.6392167  90.5277332  99.9084297  78.4917130  89.5994040 100.0891867
  79.4645661  90.5497423  99.4241372  72.5054412  79.1795399  95.7664789
  72.8450484  79.7081321  95.0443398  72.9526532  79.5175806  96.5423356
  82.2426289  91.3505891 100.9949170  83.1672837  91.1448752 100.8573621
  82.0741593  91.1022292 101.9038511  75.1997853  77.5632450 105.2167857
  74.8594673  76.7640263 105.6188537  74.4936859  77.8634161 104.6444691
  75.8514324  74.6481763 103.6695180  76.6740394  74.1742241 103.5474071
  76.0952388  75.4272246 104.1693867  74.4922559  77.6770021  93.9658082
  75.2130921  78.0551274  93.4621799  73.8687863  78.3958898  94.0693060
  78.6353682  78.3815170  94.9016414  78.8517296  79.2639808  94.6005243
  78.1547749  77.9901383  94.1722056  73.3752903  81.3400883 101.4787159
  73.2297484  81.6541186 102.3711441  72.8978107  81.9585784 100.9258058
  75.2349286  78.3303431 101.5268049  75.2210855  77.4344524 101.1900347
  75.9521714  78.3374095 102.1606335  77.0875417  78.7640771 103.5721176
  76.8293195  79.6857842 103.5705506  76.5560457  78.3671206 104.2621640
  82.0321605  91.8691558  96.3511261  82.2058483  91.3037981  95.5985114
  82.5250497  92.6692453  96.1690751  67.8498565  83.8806228 104.4174820
  67.3052033  84.6566036 104.5495095  68.7277915  84.2277032 104.2593942
  74.6386182  77.2117811  96.7955619  74.7602093  76.2834458  96.9946506
  74.3488224  77.2256497  95.8833934  77.5077372  74.8972722  99.9322339
  77.5299069  74.9612055  98.9774318  77.9245431  74.0577231 100.1262845
  87.8860997  84.6327981  97.9701561  88.3292143  83.8835307  97.5720684
  87.0087507  84.6238118  97.5875293  83.0196778  91.1858323  93.4508160
  83.7147683  91.8065016  93.6695474  83.3619928  90.3353674  93.7260538
  68.6364587  83.0076124 107.3104977  67.8946323  83.1558759 107.8969607
  68.3157331  83.2684389 106.4471726  84.9188201  88.6358028  94.9795490
  85.4439525  88.9745301  94.2544810  84.8310554  87.7005044  94.7958625
  76.5808250  92.5492102 107.1085367  76.8895376  92.3041249 107.9808067
  77.3783732  92.7538741 106.6204237  76.6028862  94.7030012  99.3390744
  76.1633852  94.2106390 100.0323600  77.3536979  94.1602979  99.0982819
  69.0821201  90.8941553  99.3415372  69.9079221  90.5945324  98.9614015
  68.7315253  90.1249175  99.7905160  74.0502734  90.2468021 101.4113045
  73.4282743  89.5838726 101.1115273  74.7207601  90.2729153 100.7286693
  67.2829806  88.8127879 100.3004305  66.4461714  88.3850053 100.1188307
  67.2553451  89.0060322 101.2375096  74.1227261  78.7249809 111.0045551
  74.1715417  79.6011932 110.6223321  74.6649776  78.1827202 110.4317195
  84.7279982  86.1183398 107.5979417  84.7777987  85.9533406 108.5394940
  84.6193906  85.2510657 107.2077298  73.6116241  88.7971944  94.8871506
  73.7604361  89.4807409  94.2338179  74.4182684  88.7777034  95.4020962
  82.0183745  82.1014326 108.9138724  82.9193607  81.9620791 108.6222721
  82.0931719  82.2668781 109.8536901  76.3526550  79.4781181 107.7591910
  75.4829859  79.7714747 107.4874498  76.5886030  80.0621626 108.4799174
  86.2298179  88.5380340 107.8421438  85.9382987  88.9010321 108.6784899
  85.6170310  87.8247348 107.6634771  87.4293861  86.1033220 100.3624009
  88.2640753  86.5423024 100.5261569  87.5652990  85.6271873  99.5432254
  84.4785367  83.6612955 106.3101496  84.9539489  83.8540601 105.5020348
  83.5550933  83.7172140 106.0644880  71.3668874  84.8237122  95.8932575
  71.1214916  83.9199452  96.0912785  71.5364788  84.8254272  94.9512053
  79.0565584  75.6960798 105.2757330  79.5747528  76.4321825 104.9503819
  78.7020717  76.0024791 106.1104089  70.6364521  80.5565479  93.3918736
  69.9433766  80.6309834  92.7358772  70.3916273  79.7925823  93.9140253
  79.3078178  72.1161081 100.7958227  79.5879932  71.4484270 101.4218653
  80.0928785  72.3090176 100.2832891  77.1111646  91.2920075  92.3583253
  76.5385613  91.9110262  91.9053725  77.6844440  91.8419436  92.8923175
  83.1787036  80.5378715 104.5429802  84.1304459  80.6376812 104.5642026
  83.0090487  79.7456983 105.0527886  81.2001416  77.6234298 104.7289203
  80.6051348  77.9039311 104.0335692  80.9151112  78.1128199 105.5005944
  80.3308906  91.5757225  93.4891836  81.2639579  91.5102786  93.6924711
  80.2432119  92.4113492  93.0306368  82.9596923  90.8923095  90.4495783
  82.8810554  90.5582959  91.3431541  83.7806590  91.3844863  90.4487255
  85.6575114  83.7584834 103.6572102  85.6251434  82.8200835 103.8431786
  86.2675738  83.8368871 102.9237927  77.4958445  82.6280887  89.6999306
  78.4417550  82.4987095  89.7687724  77.1172690  81.8895549  90.1768734
  85.8069603  80.5495878 103.7030385  85.2908651  79.7654334 103.5160314
  86.6909551  80.2214594 103.8676904  83.4680329  74.2936893  99.6626198
  83.2705151  73.9851982 100.5469530  84.0780035  75.0198532  99.7924127
  91.4751664  84.8200841 102.7978138  92.2055052  84.5586129 103.3585842
  90.8658609  84.0829563 102.8380206  89.5566961  82.9608704 103.3952590
  88.8300125  82.8264669 102.7869081  89.1414248  83.2685532 104.2009308
  77.3797137  86.6798633 111.1599963  78.3000147  86.8577232 111.3540009
  77.3446720  85.7354679 111.0079662  75.6801362  80.5530864  89.6354191
  74.7732817  80.2563976  89.7116905  75.9577343  80.2560682  88.7688477
  66.5979302  81.8737227 100.0853237  66.2782087  81.0202535  99.7927611
  66.0512731  82.0885805 100.8411205  70.3759210  84.5899668 103.8022744
  70.5945220  85.5216776 103.8210778  70.7884984  84.2307643 104.5877548
  77.2963428  75.0967753  95.7898432  76.4864156  74.7514838  96.1653678
  77.9847845  74.7875297  96.3786044  79.2253976  74.1745800  97.4122729
  79.7785015  74.5941254  98.0712752  79.4624062  73.2481548  97.4545685
  75.2487075  80.1632874 113.1925493  75.1483802  81.1127231 113.1237584
  75.0308617  79.8351113 112.3201563  74.4500147  77.4117799  89.7766170
  75.3119311  77.7372697  90.0361988  74.6350491  76.6249295  89.2639236
  66.4667562  85.4940139 102.0546359  65.7731034  85.0794091 101.5416313
  67.2140553  85.5360675 101.4579778  82.6032783  76.2846325  96.9201393
  82.0231452  76.9431129  96.5379446  82.3368716  75.4623670  96.5088811
  81.0536350  75.6851383  99.1222713  81.5536128  75.7967918  98.3137032
  81.6971957  75.3812436  99.7623522  75.1118345  83.5930013 112.0090554
  74.6285427  84.3930373 112.2154443  75.1979284  83.6037958 111.0557998
  68.3804305  85.4258392  99.9312374  68.3574993  85.5246080  98.9794257
  68.6904941  86.2723543 100.2529540  71.0391683  87.4834547 104.0458988
  71.9934936  87.4518490 103.9788920  70.8404206  87.0225171 104.8609214
  71.6291065  86.0535663 106.6129786  72.4483954  86.5479742 106.6364623
  71.9027873  85.1367632 106.5847353  81.3857661  78.4446416  95.9757741
  80.4983516  78.7296066  95.7577936  81.8011650  78.2840179  95.1285018
  84.7372197  78.4692937  99.6912081  85.5132587  78.9589389  99.9636697
  84.0120331  78.8950991 100.1483950  87.1744756  79.1820556 100.7486021
  87.7689247  78.9416292 100.0379330  87.2471340  78.4627687 101.3759558
  69.3941912  93.0254167 101.0629186  69.2596380  92.2654568 100.4967184
  68.9773974  93.7495067 100.5957975  80.5300875  88.2091090  90.0705761
  81.2336725  88.4141093  90.6863417  79.8063523  88.7767852  90.3354845
  81.3598685  83.9600952  96.1908032  81.3033886  84.4169503  95.3515664
  81.9127027  83.1991636  96.0130874  85.1703491  79.7490684  97.0158151
  84.9140425  79.3487319  97.8466359  84.5456359  80.4634478  96.8908290
  89.4815829  82.4886757  99.5229442  88.9215387  82.5579946 100.2961005
  88.8759332  82.3127741  98.8028939  72.5511038  93.9223484 101.2747629
  72.4343422  94.8668916 101.1726319  71.7303484  93.6197045 101.6633428
  82.4387572  88.6473620  92.1204221  83.2733176  88.2154818  91.9381696
  82.2771915  88.4755633  93.0481116  82.0933464  85.1505733  93.4860561
  82.0382268  84.9850004  92.5449005  81.4679520  85.8581766  93.6422750
  66.8825979  80.3873797 107.3121983  67.5284843  79.8772751 107.8009208
  66.6743130  81.1242479 107.8865408  75.4029590  74.6513842  93.0645879
  75.3908260  75.5955682  93.2214150  76.2953012  74.4683987  92.7705340
  73.5765552  94.5751746 104.4903557  74.4792798  94.6075356 104.8070052
  73.3502922  93.6452197 104.5049893  75.3319154  93.3282732 101.1513636
  74.3814785  93.3284594 101.0378008  75.6351640  92.5815467 100.6349670
  79.2181709  71.2456619  97.3191816  78.4514105  70.6915105  97.4648498
  79.6292414  71.3178487  98.1805968  71.2223470  77.5341414 111.4096997
  72.0854932  77.1778219 111.6200322  70.6488881  77.1955309 112.0972401
  83.7348369 100.9706175  98.1417814  83.1713234 100.8796112  97.3734102
  83.6200764 100.1506080  98.6220306  81.2812801 102.4657367 100.9802034
  82.0734093 102.1248192 100.5648334  81.5209451 102.5752342 101.9004188
  89.3147928 104.6377143  93.4532279  88.6635908 105.2231223  93.0666293
  90.1092291 105.1683338  93.5127316  83.2403555 101.7266280  93.8519413
  84.0134431 101.1795267  93.7132289  83.5928954 102.5910529  94.0633875
  85.5769833  97.8858946  91.4837863  85.8295353  97.3640468  90.7221326
  84.6394392  97.7225092  91.5864547  90.6213116  96.8894725  99.2912606
  91.4076205  96.4714148  98.9403023  90.8851820  97.7940817  99.4594255
  90.7923193 102.3267575  93.9901263  90.1569026 102.4002201  94.7022168
  90.4620599 102.9161174  93.3120342  85.2966122  99.7887052  93.6862238
  85.1802380  99.1131956  94.3543322  85.4068381  99.3019426  92.8694391
  87.6397662  99.2497199  97.3908927  87.2755870  98.7227820  98.1021849
  88.4964778  98.8595668  97.2175413  87.2803149  94.2787099  92.3870276
  87.4477552  95.1467335  92.7540747  87.0900319  94.4414381  91.4631565
  83.4890964  99.1917875 100.0872811  82.5641461  99.0594089 100.2950502
  83.7375377  99.9712094 100.5842753  87.2592370  96.7344757  93.3716943
  87.1391996  97.1801807  94.2102423  86.5644959  97.0830074  92.8130481
  80.8499775  98.8351148 100.9216600  80.9792156  99.0885627 101.8356011
  80.1697226  99.4278856 100.6021255  92.9577436  97.2066230  94.1997277
  93.8695293  97.4393616  94.0244974  92.4487084  97.7903274  93.6372355
  90.3013411  93.3824266 102.4487137  89.4397890  93.6805519 102.7403875
  90.3275846  93.5994665 101.5168170  87.1174981 101.9266456  98.8560943
  87.5813326 102.2054159  98.0665566  86.8531779 101.0249901  98.6734034
  86.0543867  98.0489609  95.6650508  86.7567910  98.5010652  96.1324435
  85.7224495  97.4073427  96.2930401  79.7969201  96.3073161 100.9667642
  79.0068255  96.5630690 100.4907752  80.2880448  97.1221499 101.0719682
  81.7483946  96.6717741  97.9251119  80.9515109  96.7836435  98.4434614
  81.5209538  97.0104393  97.0592009  78.0806904  96.5603652 103.3982633
  78.3314942  97.4450662 103.6640209  78.6166452  96.3808253 102.6257724
  87.2937631 104.8630551  95.7412614  87.1583306 105.7082087  96.1697461
  87.8347444 105.0649829  94.9778547  80.7467029 102.3805989  96.3140539
  81.2591549 103.1749240  96.4646103  81.3989742 101.6832280  96.2474140
  82.5561913 105.4971746  98.3963292  82.7328542 106.4189710  98.2084276
  83.3518747 105.1830165  98.8257672  90.6430095  88.3861113 104.2711507
  90.2994364  89.2762755 104.1950618  91.0109058  88.1962771 103.4081092
  78.7115946 100.7094644  97.0900109  79.5491168 101.1191652  96.8733817
  78.8894213  99.7694086  97.0600303  90.6080378  98.3769724  92.7783942
  90.0927001  99.1474329  93.0172330  90.3357686  97.7034860  93.4017004
  88.1927489  93.2219425  97.8369180  87.3369085  92.8326275  97.6574819
  88.6054440  93.3011386  96.9768966  89.7226635  90.7565768 102.2360740
  89.2191431  90.7195903 101.4228546  90.0157242  91.6658511 102.2957397
  85.9669521  90.8404498 101.2426922  86.8322518  90.6447307 100.8832811
  86.0347030  90.6114850 102.1696279  95.5814652 101.1302079  94.7137116
  94.8044095 100.7913238  94.2692278  96.2606133 101.1354702  94.0392081
  90.3966681  96.2496816  94.6043723  90.0916816  96.5642965  95.4553866
  91.3497123  96.3278236  94.6471056  88.8413113 102.4087040  96.2536677
  88.3134474 101.6739799  95.9409915  88.3400615 103.1861716  96.0076646
  83.5731840  93.0706706  98.6143289  84.1475592  92.8481887  97.8816482
  84.1602823  93.1395400  99.3671890  83.9001427  95.1011167  92.6339174
  83.0638740  95.4385853  92.9548449  83.7606197  94.9660147  91.6966311
  85.8754508  89.9447955  97.3418358  85.2218920  89.6296972  96.7174973
  85.8334982  89.3223695  98.0678181  86.9865713 100.2267250  89.2571650
  86.0792775  99.9956503  89.4562799  87.4836745  99.4304869  89.4445632
  89.8933792 108.9364757  92.1768336  89.2195490 109.2396454  92.7853294
  90.2799614 109.7393837  91.8273794  89.1092248  96.4329888 101.6666006
  88.1914810  96.6544835 101.5087694  89.5252392  96.5076199 100.8077713
  89.8927296  97.8321304  96.7968686  90.6399115  98.3442701  96.4875808
  90.1618886  97.5105357  97.6573080  88.1653946 100.3279845  93.7795640
  87.2565166 100.0438878  93.8768110  88.1949030 100.7478923  92.9198947
  92.3406133  94.8678420  98.7787475  91.6028890  94.3555806  99.1097718
  92.5932907  94.4278802  97.9670752  92.4417761  87.6454672  99.3729245
  92.7476637  86.7852036  99.0855160  93.1670365  88.2372292  99.1728239
  78.7342117  98.0485359  97.7610843  78.5366516  97.4554720  97.0361909
  78.1788781  97.7437569  98.4786781  86.7138840  97.9408465  99.8805436
  86.7687450  96.9882302  99.8047912  85.9030042  98.0967904 100.3646734
  87.8630034 101.8688588  91.1183719  87.4249464 101.1524447  90.6589356
  88.6040475 102.0964703  90.5568810  84.6531200  96.5585525  97.6395815
  83.8399066  96.8579696  98.0461007  85.1490194  96.1641214  98.3570297
  95.9803149 100.1445785  97.1760038  95.8421047 100.3347381  96.2481227
  95.6239368 100.9065168  97.6328089  84.1445275  94.1303881 103.2557050
  84.7844654  93.9892640 102.5580013  83.3122806  93.8438394 102.8795652
  84.9205579 103.4306311  99.3692042  85.7146177 102.9356631  99.1674617
  84.2097271 102.9024174  99.0059748  81.2288342  97.5749393  95.4451795
  80.2985930  97.5133848  95.6621757  81.3245814  97.0525346  94.6488436
  81.1473891  94.1004206  98.0330036  81.4080709  95.0149539  97.9239197
  81.9691064  93.6328648  98.1826649  82.6198817  95.5141963 105.2028861
  83.2921870  95.3059325 104.5541510  81.7928603  95.3164049 104.7634093
  88.0925007 109.1044429  94.3915416  88.2676763 108.6332473  95.2061038
  87.4057795 109.7310196  94.6196676  91.9841262 100.7272970  90.7115777
  91.3670432 100.0019798  90.6148829  91.5157750 101.4882330  90.3682851
  83.7739808  94.9458394  89.8337081  82.8969274  94.8247195  89.4699327
  84.2497561  94.1544473  89.5815969  75.2941948  99.7335554  99.9278588
  75.9812988  99.4197284  99.3399603  75.1390076 100.6376919  99.6545839
  80.0976670  94.6225751 104.3563612  80.0134859  94.0151420 103.6214022
  79.2759376  95.1134769 104.3573108  90.2700384  93.1079314  99.7233807
  90.7669083  92.3549277  99.4034877  89.4987365  93.1443631  99.1577016
  91.3530164 101.8651001  97.2972230  90.4186443 101.9852464  97.1276934
  91.5306833 100.9623468  97.0332240  86.8535353  95.2496697  99.4505491
  86.4833140  94.6967738 100.1386397  87.3494445  94.6454831  98.8980491
  94.7402716  97.7068321  97.8322264  95.2063168  98.5396312  97.7582567
  95.1910216  97.2413302  98.5367523  92.8078947 104.0512142  94.8308416
  93.0838791 103.9368737  95.7402290  91.9383446 103.6529627  94.7920589
  92.7119379  90.0748908 101.8713166  91.7982458  90.3053135 102.0395373
  93.1412480  90.1587352 102.7227198  89.7775176 107.2266678  95.7356278
  90.3062943 106.7159133  95.1226441  90.0403396 106.9109208  96.6001811
  74.8709924  97.8136147 102.1996055  74.9094023  97.2799738 102.9933173
  74.3650217  97.2871353 101.5807032  82.2500686  92.6600688 105.6958597
  82.3142013  93.5215519 105.2835995  82.1867806  92.0474690 104.9630956
  78.5018501  96.5400250  95.2749986  78.7971943  95.6310928  95.2217040
  77.6006537  96.5187989  94.9530989  82.0312748  94.6156246 101.2577535
  81.3099334  95.2292214 101.1185008  82.8206004  95.1514011 101.1794181
  80.2306343  94.2214347  95.3989312  79.9019049  93.3411726  95.2164418
  80.5845714  94.1662016  96.2865701  83.3448166  94.5087317  95.7664789
  83.6844239  95.0373238  95.0443398  83.7920287  94.8467723  96.5423356
  86.0391607  92.8924368 105.2167857  85.6988427  92.0932181 105.6188537
  85.3330613  93.1926079 104.6444691  86.6908079  89.9773680 103.6695180
  87.5134148  89.5034158 103.5474071  86.9346142  90.7564164 104.1693867
  85.3316313  93.0061939  93.9658082  86.0524676  93.3843191  93.4621799
  84.7081617  93.7250815  94.0693060  89.4747436  93.7107088  94.9016414
  89.6911051  94.5931726  94.6005243  88.9941503  93.3193301  94.1722056
  84.2146658  96.6692801 101.4787159  84.0691238  96.9833104 102.3711441
  83.7371861  97.2877701 100.9258058  86.0743040  93.6595349 101.5268049
  86.0604609  92.7636442 101.1900347  86.7915469  93.6666013 102.1606335
  87.9269171  94.0932689 103.5721176  87.6686949  95.0149760 103.5705506
  87.3954212  93.6963124 104.2621640  78.6892320  99.2098145 104.4174820
  78.1445788  99.9857953 104.5495095  79.5671670  99.5568950 104.2593942
  85.4779936  92.5409729  96.7955619  85.5995848  91.6126375  96.9946506
  85.1881979  92.5548415  95.8833934  88.3471127  90.2264640  99.9322339
  88.3692824  90.2903973  98.9774318  88.7639186  89.3869148 100.1262845
  93.8590532 106.5150241  93.4508160  94.5541437 107.1356933  93.6695474
  94.2013683 105.6645592  93.7260538  95.7581956 103.9649946  94.9795490
  96.2833280 104.3037219  94.2544810  95.6704308 103.0296961  94.7958625
  79.9214955 106.2233470  99.3415372  80.7472975 105.9237242  98.9614015
  79.5709007 105.4541093  99.7905160  78.1223560 104.1419797 100.3004305
  77.2855469 103.7141971 100.1188307  78.0947206 104.3352240 101.2375096
  84.4509995 104.1263862  94.8871506  84.5998116 104.8099326  94.2338179
  85.2576439 104.1068952  95.4020962  82.2062628 100.1529039  95.8932575
  81.9608670  99.2491369  96.0912785  82.3758543 100.1546190  94.9512053
  81.4758276  95.8857397  93.3918736  80.7827521  95.9601752  92.7358772
  81.2310028  95.1217741  93.9140253  90.1471932  87.4452998 100.7958227
  90.4273686  86.7776187 101.4218653  90.9322539  87.6382094 100.2832891
  87.9505401 106.6211992  92.3583253  87.3779368 107.2402179  91.9053725
  88.5238195 107.1711354  92.8923175  91.1702661 106.9049142  93.4891836
  92.1033334 106.8394704  93.6924711  91.0825874 107.7405409  93.0306368
  93.7990677 106.2215013  90.4495783  93.7204309 105.8874876  91.3431541
  94.6200344 106.7136781  90.4487255  88.3352199  97.9572805  89.6999306
  89.2811304  97.8279013  89.7687724  87.9566444  97.2187467  90.1768734
  94.3074084  89.6228811  99.6626198  94.1098905  89.3143899 100.5469530
  94.9173790  90.3490450  99.7924127  86.5195117  95.8822781  89.6354191
  85.6126572  95.5855894  89.7116905  86.7971098  95.5852599  88.7688477
  77.4373057  97.2029145 100.0853237  77.1175841  96.3494453  99.7927611
  76.8906485  97.4177723 100.8411205  88.1357182  90.4259671  95.7898432
  87.3257911  90.0806756  96.1653678  88.8241599  90.1167215  96.3786044
  90.0647731  89.5037718  97.4122729  90.6178769  89.9233171  98.0712752
  90.3017817  88.5773466  97.4545685  85.2893901  92.7409717  89.7766170
  86.1513065  93.0664615  90.0361988  85.4744245  91.9541213  89.2639236
  77.3061317 100.8232056 102.0546359  76.6124788 100.4086009 101.5416313
  78.0534308 100.8652593 101.4579778  93.4426538  91.6138243  96.9201393
  92.8625207  92.2723047  96.5379446  93.1762470  90.7915588  96.5088811
  91.8930104  91.0143301  99.1222713  92.3929882  91.1259835  98.3137032
  92.5365712  90.7104354  99.7623522  79.2198059 100.7550310  99.9312374
  79.1968748 100.8537997  98.9794257  79.5298696 101.6015461 100.2529540
  92.2251416  93.7738333  95.9757741  91.3377271  94.0587984  95.7577936
  92.6405405  93.6132097  95.1285018  95.5765952  93.7984854  99.6912081
  96.3526342  94.2881307  99.9636697  94.8514086  94.2242909 100.1483950
  91.3694629 103.5383008  90.0705761  92.0730479 103.7433011  90.6863417
  90.6457278 104.1059770  90.3354845  92.1992439  99.2892869  96.1908032
  92.1427641  99.7461421  95.3515664  92.7520782  98.5283554  96.0130874
  96.0097245  95.0782601  97.0158151  95.7534180  94.6779237  97.8466359
  95.3850113  95.7926395  96.8908290  93.2781327 103.9765537  92.1204221
  94.1126930 103.5446736  91.9381696  93.1165669 103.8047551  93.0481116
  92.9327219 100.4797651  93.4860561  92.8776023 100.3141922  92.5449005
  92.3073274 101.1873684  93.6422750  77.7219734  95.7165715 107.3121983
  78.3678597  95.2064669 107.8009208  77.5136885  96.4534397 107.8865408
  86.2423344  89.9805760  93.0645879  86.2302014  90.9247600  93.2214150
  87.1346766  89.7975905  92.7705340  90.0575464  86.5748536  97.3191816
  89.2907859  86.0207023  97.4648498  90.4686169  86.6470405  98.1805968
  94.7395182 110.4303085  92.6339174  93.9032494 110.7677771  92.9548449
  94.5999952 110.2952064  91.6966311  94.6133562 110.2750312  89.8337081
  93.7363028 110.1539113  89.4699327  95.0891315 109.4836390  89.5815969
  92.3152030 111.2149315  93.3918736  91.6221275 111.2893670  92.7358772
  92.0703782 110.4509658  93.9140253  97.3588871 111.2114699  89.6354191
  96.4520326 110.9147812  89.7116905  97.6364852 110.9144517  88.7688477
  96.1287656 108.0701634  89.7766170  96.9906820 108.3956533  90.0361988
  96.3138000 107.2833130  89.2639236  97.0817099 105.3097677  93.0645879
  97.0695769 106.2539517  93.2214150  97.9740521 105.1267823  92.7705340
  36.8703076  -0.4754195  88.9404705  37.5081486  -0.5947448  88.2368045
  36.7523919   0.4726649  88.9992657  29.5379598   1.3308709  84.8663120
  28.9744463   1.2398646  84.0979408  29.4231993   0.5108614  85.3465613
  35.1179157   4.9979677  80.1777585  34.4667136   5.5833758  79.7911599
  35.9123519   5.5285872  80.2372623  29.0434784   2.0868814  80.5764720
  29.8165660   1.5397801  80.4377596  29.3960183   2.9513064  80.7879181
  31.3801062  -1.7538520  78.2083170  31.6326582  -2.2756998  77.4466633
  30.4425621  -1.9172374  78.3109853  36.4244344  -2.7502741  86.0157913
  37.2107434  -3.1683318  85.6648330  36.6883049  -1.8456649  86.1839561
  36.5954422   2.6870109  80.7146570  35.9600255   2.7604736  81.4267474
  36.2651828   3.2763708  80.0365649  41.8252772  -2.8127508  86.9190891
  42.5577944  -3.3828291  87.1528721  41.0692127  -3.2005908  87.3597397
  31.0997350   0.1489586  80.4107545  30.9833608  -0.5265510  81.0788629
  31.2099610  -0.3378040  79.5939698  33.4428891  -0.3900266  84.1154234
  33.0787099  -0.9169646  84.8267155  34.2996007  -0.7801797  83.9420719
  33.0623599  -2.9052709  80.0962249  32.9423224  -2.4595659  80.9347729
  32.3676188  -2.5567392  79.5375787  30.8230491   9.8650932  83.7452380
  30.7454521  10.8158758  83.8240861  30.2192135   9.5196805  84.4027307
  38.7608665  -2.4331236  80.9242583  39.6726521  -2.2003849  80.7490281
  38.2518312  -1.8494192  80.3617662  37.3678248   2.5494582  88.3156165
  36.7387110   2.7140296  87.6132233  36.9803910   2.9636192  89.0867129
  41.2467480   3.4849020  85.6700528  40.5618518   3.8647922  85.1197562
  41.3311329   4.0944347  86.4032476  32.9206209   2.2868990  85.5806250
  33.3844555   2.5656693  84.7910872  32.6563008   1.3852435  85.3979340
  31.8575096  -1.5907857  82.3895815  32.5599139  -1.1386814  82.8569741
  31.5255724  -2.2324038  83.0175708  39.6164239   4.0080935  90.4418229
  40.4381683   3.6061122  90.1600911  39.6126642   3.9049169  91.3934345
  47.7070232   0.3519683  86.7903201  46.9533941  -0.2172919  86.6347205
  47.8417773   0.3182348  87.7373836  33.0968860   5.2233085  82.4657920
  32.9614535   6.0684621  82.8942768  33.6378673   5.4252363  81.7023854
  26.5498258   2.7408523  83.0385845  27.0622778   3.5351774  83.1891410
  27.2020970   2.0434814  82.9719447  28.3593142   5.8574280  85.1208598
  28.5359771   6.7792244  84.9329582  29.1549976   5.5432699  85.5502978
  29.4824458   7.3752454  91.1218941  30.0331883   7.2469517  90.3495935
  28.6435934   7.6747343  90.7713834  36.4111606  -1.2627742  79.5029249
  35.8958230  -0.4923137  79.7417636  36.1388915  -1.9362605  80.1262310
  41.3845881   1.4904613  81.4382422  40.6075323   1.1515773  80.9937584
  42.0637362   1.4957236  80.7637387  36.1997910  -3.3900649  81.3289030
  35.8948045  -3.0754500  82.1799173  37.1528352  -3.3119230  81.3716363
  34.6444341   2.7689574  82.9781984  34.1165703   2.0342333  82.6655221
  34.1431844   3.5464250  82.7321952  39.6237187   0.9638594  88.0949030
  38.9660862   1.6537856  88.1829159  40.4277587   1.3535026  88.4383017
  38.4342646  -0.6817033  86.1452972  38.9474528  -0.0487041  86.6474682
  39.0843870  -1.2815837  85.7796332  32.7896942   0.5869784  75.9816957
  31.8824003   0.3559038  76.1808106  33.2867974  -0.2092597  76.1690938
  35.6965021   9.2967291  78.9013643  35.0226719   9.5998988  79.5098601
  36.0830843  10.0996372  78.5519100  35.6958525  -1.8076162  83.5213993
  36.4430344  -1.2954765  83.2121115  35.9650114  -2.1292109  84.3818386
  33.9685175   0.6882379  80.5040947  33.0596394   0.4041412  80.6013417
  33.9980259   1.1081458  79.6444254  39.2004443   4.2988968  84.2732115
  38.7466770   3.4579878  84.3297305  38.5698409   4.9350367  84.6106895
  38.1437362  -4.7719046  85.5032782  37.4060119  -5.2841659  85.8343025
  38.3964136  -5.2118664  84.6916059  37.6437382   6.1365465  85.2081933
  37.9360356   6.6970522  84.4894298  38.1536002   6.4294026  85.9635092
  32.5170069  -1.6989000  86.6050742  32.5718679  -2.6515164  86.5293219
  31.7061271  -1.5429561  87.0892041  33.6661263   2.2291123  77.8429026
  33.2280693   1.5126982  77.3834663  34.4071704   2.4567237  77.2814117
  32.6071007   6.9145816  86.2975386  32.5647186   7.1406663  85.3683918
  33.5233706   6.6809191  86.4461187  41.7834378   0.5048320  83.9005344
  41.6452276   0.6949916  82.9726533  41.4270596   1.2667702  84.3573395
  41.8103757   2.5724847  88.9116616  42.2440264   2.4800136  89.7599670
  42.5235338   2.5482347  88.2736632  30.7236808   3.7908845  86.0937349
  31.5177406   3.2959165  85.8919924  30.0128500   3.2626708  85.7305054
  35.5431652   6.1726941  90.4449716  35.5968674   6.7417877  91.2127432
  34.6746434   6.3428826  90.0803753  42.6719307   2.6148547  91.4449501
  42.8655197   3.5194358  91.6908776  42.5719925   2.1555966  92.2788086
  33.3008084   4.3637867  89.7735186  33.1619169   3.9956652  90.6461124
  32.5122680   4.8785507  89.6019144  33.8956236   9.4646964  81.1160722
  34.0707991   8.9935007  81.9306345  33.2089024  10.0912730  81.3441983
  34.8513299   3.7419470  87.1624024  34.5163131   3.7020240  88.0581673
  34.3517245   3.0764186  86.6894434  37.7872491   1.0875504  77.4361083
  37.1701661   0.3622332  77.3394136  37.3188979   1.8484865  77.0928157
  28.4617321  12.6136326  87.8900582  28.7013919  13.2454851  88.5679601
  27.6186517  12.2624366  88.1765942  32.9745183   8.4215449  90.2942086
  32.9015354   9.2270420  90.8061391  32.5322576   8.6207415  89.4690108
  32.7634962   7.6587219  83.8044908  31.9802484   8.2008899  83.8983132
  33.4627708   8.1761199  84.2039149  43.9261370  -0.8277786  88.0897405
  43.9151246   0.0546929  87.7191338  43.0578749  -1.1806235  87.8951942
  35.4343866   8.3202283  92.4500245  36.1471839   8.9549748  92.3776147
  34.9433895   8.4166149  91.6340247  37.1561393   2.2253536  84.0217537
  36.2217672   2.3454998  83.8522241  37.3338062   1.3226002  83.7577547
  40.5433945  -1.9329145  84.5567571  41.0094397  -1.1001154  84.4827874
  40.9941445  -2.3984164  85.2612829  38.6110176   4.4114676  81.5553723
  38.8870020   4.2971271  82.4647597  37.7414674   4.0132161  81.5165896
  35.2464240   8.6601027  85.1986537  35.4286634   7.8422683  85.6614289
  36.0697226   8.8768719  84.7611427  35.5806405   7.5869212  82.4601585
  36.1094172   7.0761667  81.8471747  35.8434625   7.2711742  83.3247118
  28.9362153   8.6384329  85.2199361  28.2672528   9.1230456  84.7363401
  28.7975023   8.8853549  86.1342740  33.0767422  10.6728072  91.8182019
  33.6285730  10.8359694  92.5831105  33.4173615  11.2632510  91.1462044
  36.2135809   8.6210048  88.8045702  36.0886948   7.8199788  88.2956647
  36.8714900   9.1156241  88.3159671  38.2770717   6.4219068  90.4325252
  37.3301053   6.3024419  90.3603578  38.6253491   5.5341566  90.5151513
  35.2817151   6.2171784  86.6329604  35.1342113   5.2888492  86.8137174
  36.1070644   6.2391875  86.1486679  38.8851273   7.0400343  87.7194477
  39.8097820   6.8343204  87.5818928  38.7166576   6.7916744  88.6283818
  38.6746589   7.5586010  83.0756568  38.8483466   6.9932433  82.3230420
  39.1675480   8.3586905  82.8936058  44.5285980   0.3222433  84.6946868
  44.9717126  -0.4270241  84.2965991  43.6512490   0.3132570  84.3120600
  39.6621761   6.8752775  80.1753466  40.3572666   7.4959467  80.3940781
  40.0044911   6.0248126  80.4505844  41.5613184   4.3252480  81.7040797
  42.0864508   4.6639753  80.9790117  41.4735537   3.3899496  81.5203932
  33.2453845  10.3924464  86.0636050  32.8058835   9.9000842  86.7568907
  33.9961962   9.8497431  85.8228125  25.7246184   6.5836004  86.0660678
  26.5504204   6.2839776  85.6859322  25.3740236   5.8143627  86.5150467
  30.6927717   5.9362473  88.1358352  30.0707727   5.2733178  87.8360580
  31.3632584   5.9623605  87.4532000  30.2541224   4.4866396  81.6116812
  30.4029345   5.1701860  80.9583485  31.0607668   4.4671486  82.1266268
  44.0718845   1.7927672  87.0869315  44.9065736   2.2317476  87.2506876
  44.2077973   1.3166325  86.2677561  28.0093857   0.5131574  82.6177881
  27.7639899  -0.3906096  82.8158092  28.1789772   0.5148724  81.6757359
  33.7536630   6.9814526  79.0828560  33.1810597   7.6004714  78.6299032
  34.3269423   7.5313888  79.6168482  36.9733889   7.2651677  80.2137142
  37.9064563   7.1997238  80.4170018  36.8857102   8.1007943  79.7551675
  39.6021906   6.5817547  77.1741090  39.5235538   6.2477411  78.0676848
  40.4231573   7.0739315  77.1732562  42.3000097  -0.5520714  90.3817408
  42.2676417  -1.4904713  90.5677092  42.9100721  -0.4736677  89.6483233
  34.1383428  -1.6824661  76.4244612  35.0842533  -1.8118453  76.4933030
  33.7597673  -2.4209999  76.9014041  48.1176647   0.5095293  89.5223445
  48.8480036   0.2480581  90.0831148  47.5083593  -0.2275985  89.5625513
  46.1991944  -1.3496844  90.1197896  45.4725108  -1.4840879  89.5114388
  45.7839231  -1.0420016  90.9254614  39.2457766  -8.0259223  83.6446700
  38.6656436  -7.3674419  83.2624752  38.9793699  -8.8481878  83.2334117
  38.0282644  -5.8659132  82.7003048  37.1408500  -5.5809482  82.4823243
  38.4436634  -6.0265369  81.8530325  41.3797181  -5.8412611  86.4157387
  42.1557571  -5.3516159  86.6882004  40.6545315  -5.4154557  86.8729257
  43.8169739  -5.1284992  87.4731328  44.4114230  -5.3689256  86.7624636
  43.8896323  -5.8477862  88.1004864  26.0366895   8.7148619  87.7874493
  25.9021363   7.9549020  87.2212491  25.6198957   9.4389519  87.3203282
  37.1725858   3.8985542  76.7951068  37.8761708   4.1035545  77.4108724
  36.4488507   4.4662304  77.0600152  38.0023668  -0.3504596  82.9153338
  37.9458870   0.1063955  82.0760971  38.5552011  -1.1113912  82.7376181
  41.8128474  -4.5614865  83.7403458  41.5565408  -4.9618229  84.5711665
  41.1881342  -3.8471071  83.6153597  46.1240812  -1.8218791  86.2474749
  45.5640370  -1.7525602  87.0206311  45.5184315  -1.9977807  85.5274245
  29.1936021   9.6117936  87.9992935  29.0768405  10.5563368  87.8971626
  28.3728467   9.3091497  88.3878735  39.0812555   4.3368072  78.8449528
  39.9158159   3.9049270  78.6627003  38.9196898   4.1650085  79.7726423
  38.7358448   0.8400185  80.2105867  38.6807251   0.6744456  79.2694312
  38.1104503   1.5476218  80.3668057  30.2190535  10.2646198  91.2148864
  31.1217782  10.2969808  91.5315359  29.9927905   9.3346649  91.2295200
  31.9744137   9.0177184  87.8758942  31.0239768   9.0179046  87.7623315
  32.2776623   8.2709919  87.3594977  47.7096830  14.8537723  88.9404705
  48.3475240  14.7344470  88.2368045  47.5917673  15.8018567  88.9992657
  44.5186537  14.8065151  88.8766230  44.1805048  14.6906215  87.9886764
  45.3876305  14.4056316  88.8567236  40.3773352  16.6600627  84.8663120
  39.8138218  16.5690564  84.0979408  40.2625747  15.8400532  85.3465613
  45.0006320  15.9600002  94.8352435  44.9894960  15.5652801  93.9632939
  45.1626959  15.2266075  95.4286207  37.9237784  18.1551819  87.7047341
  38.7159076  17.8142643  87.2893640  38.1634435  18.2646794  88.6249494
  45.9572911  20.3271595  80.1777585  45.3060891  20.9125675  79.7911599
  46.7517274  20.8577790  80.2372623  39.8828538  17.4160732  80.5764720
  40.6559414  16.8689719  80.4377596  40.2353937  18.2804981  80.7879181
  41.7213581  18.7437114  93.7831619  41.4303447  19.6482745  93.6678285
  42.3570565  18.7853642  94.4975689  42.6469788  16.1213963  90.3732979
  43.2433360  15.8969985  89.6589942  42.7044759  15.3798708  90.9758427
  42.2194816  13.5753398  78.2083170  42.4720337  13.0534919  77.4466633
  41.2819375  13.4119544  78.3109853  47.2638099  12.5789176  86.0157913
  48.0501188  12.1608600  85.6648330  47.5276803  13.4835269  86.1839561
  47.4348176  18.0162027  80.7146570  46.7994009  18.0896653  81.4267474
  47.1045583  18.6055626  80.0365649  52.6646526  12.5164410  86.9190891
  53.3971698  11.9463627  87.1528721  51.9085882  12.1286010  87.3597397
  41.9391105  15.4781504  80.4107545  41.8227363  14.8026407  81.0788629
  42.0493365  14.9913878  79.5939698  44.2822646  14.9391651  84.1154234
  43.9180853  14.4122272  84.8267155  45.1389762  14.5490120  83.9420719
  50.1871946   6.2285984  91.3785500  49.8555271   7.0981395  91.1546715
  49.5917560   5.9122268  92.0579530  43.9228133   9.9681551  79.1115582
  44.0902535  10.8361787  79.4786053  43.7325302  10.1308833  78.1876872
  46.6803466  18.4298530  90.7781413  46.3804189  19.3323569  90.6697220
  46.3354525  18.1630713  91.6302566  40.1315947  14.8812327  86.8118117
  39.2066444  14.7488541  87.0195809  40.3800361  15.6606546  87.3088060
  50.0800610  10.9481070  88.4578850  49.1717487  10.8796478  88.1637611
  50.0288206  11.4253015  89.2860676  43.9017354  12.4239208  80.0962249
  43.7816979  12.8696259  80.9347729  43.2069942  12.7724526  79.5375787
  37.4924758  14.5245600  87.6461906  37.6217140  14.7780079  88.5601318
  36.8122210  15.1173308  87.3266561  41.6624246  25.1942850  83.7452380
  41.5848275  26.1450675  83.8240861  41.0585889  24.8488723  84.4027307
  44.1541476  12.3670716  96.4013747  43.3774810  12.9264636  96.3916612
  44.7932039  12.8527499  96.9228617  51.9462256   9.1497508  90.2356724
  51.3036636   9.4430042  89.5896519  51.4417185   9.0350429  91.0409921
  49.6002420  12.8960682  80.9242583  50.5120276  13.1288068  80.7490281
  49.0912067  13.4797726  80.3617662  42.4087848  15.1756169  95.9631714
  43.1502532  15.7141213  95.6866538  41.7024833  15.8022458  96.1203266
  47.8843187  17.3185309  94.5603876  48.2926543  16.8767720  93.8158508
  47.1620449  16.7437937  94.8138069  44.2374258  12.2557916  91.9337433
  45.0835453  12.6797330  92.0772082  44.1772895  11.5991540  92.6275996
  48.2072002  17.8786500  88.3156165  47.5780865  18.0432214  87.6132233
  47.8197664  18.2928110  89.0867129  52.0861234  18.8140938  85.6700528
  51.4012272  19.1939839  85.1197562  52.1705083  19.4236265  86.4032476
  47.3873703   9.9162285  93.5918606  47.1434635  10.6704345  93.0552882
  47.6633633  10.2947632  94.4265853  49.3412166  16.4600897  92.2695872
  49.5529061  17.1032657  91.5930253  49.2941914  15.6263213  91.8017802
  46.9438395   9.0718718  89.1732444  46.0822874   9.3699971  89.4649182
  46.9700829   9.2889116  88.2413477  43.7599964  17.6160908  85.5806250
  44.2238310  17.8948611  84.7910872  43.4956762  16.7144353  85.3979340
  40.6524045  17.1632390  88.5186013  41.2225402  17.5919658  87.8803498
  41.2432157  16.8814974  89.2170199  42.6968850  13.7384060  82.3895815
  43.3992893  14.1905104  82.8569741  42.3649479  13.0967879  83.0175708
  41.1449212  12.3295817  96.7647024  40.5147872  13.0112098  96.9982421
  41.0385299  12.2178899  95.8200163  36.4394184  11.9967613  87.6912949
  35.6493238  12.2525142  87.2153059  36.9305431  12.8115951  87.7964989
  50.4557994  19.3372852  90.4418229  51.2775437  18.9353040  90.1600911
  50.4520396  19.2341086  91.3934345  38.3908929  12.3612192  84.6496425
  37.5940093  12.4730887  85.1679921  38.1634522  12.6998845  83.7837316
  44.2214597  18.8856896  92.5978940  44.2859030  19.3477303  93.4337112
  43.5125521  18.2554261  92.7261250  34.7231887  12.2498104  90.1227939
  34.9739925  13.1345114  90.3885515  35.2591435  12.0702705  89.3503031
  58.5463987  15.6811601  86.7903201  57.7927695  15.1118999  86.6347205
  58.6811528  15.6474265  87.7373836  43.9362615  20.5525003  82.4657920
  43.8008289  21.3976539  82.8942768  44.4772427  20.7544281  81.7023854
  37.3892012  18.0700441  83.0385845  37.9016533  18.8643691  83.1891410
  38.0414725  17.3726732  82.9719447  39.1986897  21.1866197  85.1208598
  39.3753525  22.1084162  84.9329582  39.9943730  20.8724617  85.5502978
  43.3397915   8.0474462  96.7192532  44.0807629   8.6481615  96.6396994
  43.5715838   7.3052100  96.1610575  38.4839253  13.2330829  94.9970762
  38.3692768  12.3316087  95.2977861  37.6283771  13.4794526  94.6455578
  45.5631091  21.1748570  96.5958262  45.1194945  20.3884948  96.2779167
  46.2248305  21.3627720  95.9302153  40.3218212  22.7044371  91.1218941
  40.8725637  22.5761435  90.3495935  39.4829688  23.0039260  90.7713834
  47.6612329  21.4551370  94.6239664  47.6430804  22.2760251  94.1319933
  48.5832249  21.3305445  94.8489805  44.1185383  18.9695499  95.4663172
  44.6513720  18.2083787  95.2362480  43.5899464  18.6769151  96.2087326
  47.2855078   4.0755565  90.9956814  46.9419348   4.9657207  90.9195924
  47.6534041   3.8857223  90.1326399  35.3540929  16.3989095  83.8145416
  36.1916151  16.8086104  83.5979124  35.5319197  15.4588538  83.7845610
  47.2505361  14.0664176  79.5029249  46.7351984  14.8368781  79.7417636
  46.9782669  13.3929312  80.1262310  44.8352472   8.9113877  84.5614487
  43.9794068   8.5220727  84.3820126  45.2479424   8.9905838  83.7014273
  46.3651619   6.4460220  88.9606047  45.8616414   6.4090355  88.1473852
  46.6582225   7.3552963  89.0202704  42.6094504   6.5298950  87.9672229
  43.4747501   6.3341759  87.6078118  42.6772013   6.3009302  88.8941585
  52.2239635  16.8196531  81.4382422  51.4469078  16.4807690  80.9937584
  52.9031116  16.8249154  80.7637387  47.0391664  11.9391268  81.3289030
  46.7341800  12.2537417  82.1799173  47.9922106  12.0172688  81.3716363
  45.4838096  18.0981492  82.9781984  44.9559458  17.3634251  82.6655221
  44.9825599  18.8756168  82.7321952  50.4630942  16.2930512  88.0949030
  49.8054616  16.9829773  88.1829159  51.2671341  16.6826944  88.4383017
  40.2156824   8.7601158  85.3388595  40.7900575   8.5376339  84.6061788
  40.8027806   8.8289852  86.0917197  49.2736401  14.6474885  86.1452972
  49.7868283  15.2804877  86.6474682  49.9237625  14.0476080  85.7796332
  40.5426411  10.7905619  79.3584481  39.7063723  11.1280305  79.6793755
  40.4031180  10.6554599  78.4211618  42.5179491   5.6342407  84.0663665
  41.8643904   5.3191424  83.4420280  42.4759965   5.0118147  84.7923488
  43.6290696  15.9161702  75.9816957  42.7217758  15.6850955  76.1808106
  44.1261728  15.1199321  76.1690938  46.5358775  24.6259209  78.9013643
  45.8620474  24.9290906  79.5098601  46.9224597  25.4288289  78.5519100
  45.7517232  12.1224340  88.3911312  44.8339793  12.3439287  88.2333001
  46.1677375  12.1970651  87.5323020  46.5352279  13.5215756  83.5213993
  47.2824098  14.0337153  83.2121115  46.8043869  13.1999809  84.3818386
  44.8078930  16.0174297  80.5040947  43.8990149  15.7333329  80.6013417
  44.8374013  16.4373375  79.6444254  50.0398197  19.6280886  84.2732115
  49.5860524  18.7871796  84.3297305  49.4092164  20.2642285  84.6106895
  48.9831117  10.5572872  85.5032782  48.2453873  10.0450258  85.8343025
  49.2357890  10.1173254  84.6916059  48.4831136  21.4657383  85.2081933
  48.7754111  22.0262440  84.4894298  48.9929757  21.7585944  85.9635092
  49.0842744   3.3349124  86.0974551  49.3901621   2.4746488  85.8100466
  49.8095349   3.9266744  85.8973545  35.3767100  13.7379811  84.4856149
  35.1791500  13.1449171  83.7607216  34.8213764  13.4332021  85.2032088
  43.3563824  13.6302917  86.6050742  43.4112433  12.6776754  86.5293219
  42.5455026  13.7862356  87.0892041  44.5055017  17.5583040  77.8429026
  44.0674447  16.8418899  77.3834663  45.2465458  17.7859155  77.2814117
  41.2956184  12.2479977  84.3641121  40.4824049  12.5474148  84.7706313
  41.7915178  11.8535666  85.0815603  43.4464761  22.2437734  86.2975386
  43.4040940  22.4698580  85.3683918  44.3627460  22.0101109  86.4461187
  46.8930395  12.7121801  93.1956015  47.2479783  12.9393275  94.0550481
  47.5402526  13.0440178  92.5733270  52.6228132  15.8340237  83.9005344
  52.4846031  16.0241833  82.9726533  52.2664351  16.5959620  84.3573395
  40.7870258   9.8198333  89.9802356  41.4269638   9.6787092  89.2825320
  39.9547789   9.5332846  89.6040958  52.6497512  17.9016764  88.9116616
  53.0834018  17.8092053  89.7599670  53.3629092  17.8774265  88.2736632
  41.5630562  19.1200763  86.0937349  42.3571161  18.6251083  85.8919924
  40.8522255  18.5918626  85.7305054  46.3825407  21.5018858  90.4449716
  46.4362429  22.0709795  91.2127432  45.5140188  21.6720743  90.0803753
  37.8713326  13.2643845  82.1697101  36.9410914  13.2028300  82.3867063
  37.9670798  12.7419797  81.3733743  37.7898875   9.7898657  84.7575343
  38.0505692  10.7043991  84.6484503  38.6116047   9.3223100  84.9071956
  39.2623800  11.2036415  91.9274168  39.9346853  10.9953777  91.2786816
  38.4353587  11.0058501  91.4879400  53.5113061  17.9440465  91.4449501
  53.7048951  18.8486276  91.6908776  53.4113679  17.4847884  92.2788086
  45.1649372   7.8298356  93.9439828  44.5177287   8.5288305  93.8504305
  45.9350387   8.2634500  94.3116077  48.5728170  18.0947208  97.0190382
  48.4213676  17.8657759  96.1020465  48.5632849  19.0517809  97.0321727
  45.3413506  15.6679120  92.0036648  46.2705566  15.8190280  91.8305615
  44.9204536  15.7563141  91.1485295  44.1401838  19.6929785  89.7735186
  44.0012924  19.3248569  90.6461124  43.3516434  20.2077424  89.6019144
  44.7349990  24.7938881  81.1160722  44.9101746  24.3226925  81.9306345
  44.0482778  25.4204648  81.3441983  45.6907053  19.0711388  87.1624024
  45.3556886  19.0312158  88.0581673  45.1910999  18.4056104  86.6894434
  39.6651297  14.4779018  92.6876605  39.5271095  13.7459256  93.2888144
  40.5756221  14.3887918  92.4060792  48.6266245  16.4167422  77.4361083
  48.0095416  15.6914250  77.3394136  48.1582733  17.1776782  77.0928157
  42.2933598  14.1898977  92.1760284  43.0033217  13.5492169  92.1346903
  42.2502906  14.4411872  93.0986465  50.2820377  21.1266330  95.0966864
  50.2232923  20.4425550  94.4297447  50.6839895  21.8685320  94.6447490
  41.0062532  11.1764195  93.9955924  40.4699889  10.7254933  94.6477520
  40.4179240  11.3110104  93.2526388  39.3011075  27.9428244  87.8900582
  39.5407674  28.5746768  88.5679601  38.4580272  27.5916284  88.1765942
  40.4164791  10.6352846  76.5582387  39.5394257  10.5141647  76.1944634
  40.8922544   9.8438925  76.3061276  50.2837784  19.0905914  93.3280843
  49.3964563  18.7531836  93.4507242  50.8536335  18.3588945  93.5649609
  31.9366931  15.4230006  86.6523895  32.6237971  15.1091736  86.0644910
  31.7815060  16.3271371  86.3791146  36.7401653  10.3120203  91.0808918
  36.6559842   9.7045872  90.3459328  35.9184360  10.8029221  91.0818415
  43.8138937  23.7507367  90.2942086  43.7409109  24.5562338  90.8061391
  43.3716330  23.9499332  89.4690108  43.6028717  22.9879137  83.8044908
  42.8196239  23.5300817  83.8983132  44.3021462  23.5053116  84.2039149
  46.9125367   8.7973766  86.4479113  47.4094067   8.0443728  86.1280184
  46.1412349   8.8338083  85.8822323  54.7655124  14.5014132  88.0897405
  54.7545001  15.3838847  87.7191338  53.8972504  14.1485682  87.8951942
  46.2737621  23.6494201  92.4500245  46.9865593  24.2841665  92.3776147
  45.7827649  23.7458067  91.6340247  47.9955148  17.5545453  84.0217537
  47.0611426  17.6746916  83.8522241  48.1731816  16.6517920  83.7577547
  43.4960336  10.9391149  86.1750798  43.1258123  10.3862189  86.8631704
  43.9919428  10.3349283  85.6225798  51.3827699  13.3962773  84.5567571
  51.8488151  14.2290764  84.4827874  51.8335200  12.9307754  85.2612829
  41.3249534  21.3988644  93.2705816  42.0258994  22.0325127  93.4235210
  40.8544649  21.7403376  92.5101455  49.4503930  19.7406594  81.5553723
  49.7263774  19.6263188  82.4647597  48.5808429  19.3424079  81.5165896
  49.3544362   5.7643360  88.5958472  48.4407442   5.9947586  88.7640679
  49.7837463   5.8481804  89.4472505  49.1250820  13.9533252  91.0958366
  48.4722271  14.2009159  90.4410819  49.5031200  13.1397390  90.7620844
  46.0857994  23.9892945  85.1986537  46.2680389  23.1714601  85.6614289
  46.9090980  24.2060637  84.7611427  46.4200160  22.9161130  82.4601585
  46.9487926  22.4053584  81.8471747  46.6828379  22.6003660  83.3247118
  45.1738393  14.6953063  97.5824403  44.4979030  14.5947192  98.2526779
  45.9966027  14.5392276  98.0460401  36.9217252  20.9324999  90.2036919
  37.5070689  20.1868687  90.3364823  36.7242091  21.2428956  91.0873582
  39.7755908  23.9676247  85.2199361  39.1066283  24.4522374  84.7363401
  39.6368777  24.2145467  86.1342740  31.5134907  13.5030599  88.9241362
  31.5519007  12.9694190  89.7178480  31.0075200  12.9765805  88.3052339
  43.9161176  26.0019990  91.8182019  44.4679484  26.1651612  92.5831105
  44.2567370  26.5924428  91.1462044  38.8925669   8.3495140  92.4203904
  38.9566996   9.2109971  92.0081302  38.8292790   7.7369141  91.6876263
  48.7672051  20.8281248  97.6730674  49.3111955  21.4411206  97.1785629
  48.1858895  21.3860826  98.1897687  35.1443485  12.2294702  81.9995293
  35.4396926  11.3205380  81.9462347  34.2431521  12.2082441  81.6776295
  47.0529564  23.9501966  88.8045702  46.9280703  23.1491705  88.2956647
  47.7108655  24.4448159  88.3159671  38.6737732  10.3050698  87.9822842
  37.9524318  10.9186666  87.8430315  39.4630988  10.8408463  87.9039488
  49.1164472  21.7510986  90.4325252  48.1694807  21.6316337  90.3603578
  49.4647245  20.8633484  90.5151513  41.4764045   7.6405125  94.2563493
  41.9998447   7.8867421  95.0189803  41.2576379   8.4725159  93.8366631
  36.8731326   9.9108799  82.1234618  36.5444032   9.0306178  81.9409724
  37.2270697   9.8556468  83.0111008  46.1210905  21.5463702  86.6329604
  45.9735868  20.6180409  86.8137174  46.9464399  21.5683793  86.1486679
  39.9873149  10.1981769  82.4910096  40.3269222  10.7267690  81.7688704
  40.4345270  10.5362175  83.2668663  49.7245027  22.3692261  87.7194477
  50.6491575  22.1635122  87.5818928  49.5560330  22.1208662  88.6283818
  42.6816590   8.5818820  91.9413164  42.3413411   7.7826633  92.3433844
  41.9755597   8.8820531  91.3689997  43.3333062   5.6668132  90.3940487
  44.1559131   5.1928610  90.2719377  43.5771126   6.4458616  90.8939173
  41.9741297   8.6956391  80.6903389  42.6949659   9.0737643  80.1867106
  41.3506601   9.4145267  80.7938367  46.1172420   9.4001540  81.6261721
  46.3336034  10.2826177  81.3250549  45.6366487   9.0087753  80.8967363
  40.8571641  12.3587253  88.2032466  40.7116222  12.6727556  89.0956747
  40.3796845  12.9772153  87.6503364  42.7168024   9.3489801  88.2513355
  42.7029593   8.4530894  87.9145653  43.4340452   9.3560464  88.8851641
  44.5694154   9.7827141  90.2966483  44.3111932  10.7044212  90.2950813
  44.0379195   9.3857575  90.9866947  49.5140343  22.8877928  83.0756568
  49.6877221  22.3224351  82.3230420  50.0069234  23.6878823  82.8936058
  35.3317303  14.8992597  91.1420127  34.7870771  15.6752405  91.2740401
  36.2096653  15.2463402  90.9839248  42.1204920   8.2304181  83.5200925
  42.2420831   7.3020827  83.7191813  41.8306962   8.2442867  82.6079241
  44.9896110   5.9159091  86.6567645  45.0117807   5.9798425  85.7019625
  45.4064169   5.0763600  86.8508151  55.3679734  15.6514351  84.6946868
  55.8110880  14.9021676  84.2965991  54.4906245  15.6424487  84.3120600
  50.5015516  22.2044692  80.1753466  51.1966420  22.8251385  80.3940781
  50.8438666  21.3540044  80.4505844  36.1183325  14.0262493  94.0350284
  35.3765061  14.1745129  94.6214914  35.7976069  14.2870759  93.1717033
  52.4006939  19.6544398  81.7040797  52.9258263  19.9931671  80.9790117
  52.3129291  18.7191413  81.5203932  44.0626988  23.5678472  93.8330674
  44.3714114  23.3227618  94.7053373  44.8602470  23.7725110  93.3449544
  44.0847600  25.7216381  86.0636050  43.6452590  25.2292760  86.7568907
  44.8355717  25.1789349  85.8228125  36.5639939  21.9127922  86.0660678
  37.3897959  21.6131694  85.6859322  36.2133991  21.1435545  86.5150467
  41.5321472  21.2654390  88.1358352  40.9101481  20.6025095  87.8360580
  42.2026339  21.2915522  87.4532000  34.7648544  19.8314249  87.0249612
  33.9280452  19.4036423  86.8433613  34.7372189  20.0246692  87.9620403
  52.0900845  20.2877302  97.0091995  51.2996389  20.2701440  96.4696494
  51.8534200  20.8265595  97.7641032  52.2098720  17.1369768  94.3224724
  52.2596725  16.9719775  95.2640246  52.1012643  16.2697027  93.9322604
  41.0934979  19.8158314  81.6116812  41.2423099  20.4993778  80.9583485
  41.9001422  19.7963404  82.1266268  49.5002482  13.1200696  95.6384030
  50.4012345  12.9807161  95.3468028  49.5750457  13.2855151  96.5782208
  43.8345288  10.4967551  94.4837217  42.9648597  10.7901117  94.2119805
  44.0704768  11.0807996  95.2044480  53.7116917  19.5566710  94.5666745
  53.4201725  19.9196690  95.4030206  53.0989048  18.8433718  94.3880077
  54.9112599  17.1219589  87.0869315  55.7459491  17.5609393  87.2506876
  55.0471728  16.6458243  86.2677561  51.9604105  14.6799324  93.0346803
  52.4358227  14.8726970  92.2265654  51.0369670  14.7358510  92.7890187
  38.8487612  15.8423491  82.6177881  38.6033654  14.9385821  82.8158092
  39.0183526  15.8440642  81.6757359  46.5384322   6.7147168  92.0002637
  47.0566265   7.4508195  91.6749126  46.1839454   7.0211161  92.8349396
  38.1183259  11.5751849  80.1164043  37.4252504  11.6496204  79.4604079
  37.8735011  10.8112193  80.6385560  46.7896916   3.1347450  87.5203534
  47.0698669   2.4670639  88.1463960  47.5747523   3.3276546  87.0078197
  44.5930384  22.3106444  79.0828560  44.0204351  22.9296631  78.6299032
  45.1663178  22.8605806  79.6168482  50.6605774  11.5565084  91.2675109
  51.6123197  11.6563182  91.2887333  50.4909224  10.7643353  91.7773193
  48.6820154   8.6420667  91.4534510  48.0870086   8.9225680  90.7580998
  48.3969850   9.1314568  92.2251251  47.8127644  22.5943594  80.2137142
  48.7458317  22.5289156  80.4170018  47.7250857  23.4299861  79.7551675
  50.4415661  21.9109465  77.1741090  50.3629292  21.5769328  78.0676848
  51.2625327  22.4031233  77.1732562  53.1393852  14.7771204  90.3817408
  53.1070172  13.8387205  90.5677092  53.7494475  14.8555241  89.6483233
  44.9777183  13.6467257  76.4244612  45.9236287  13.5173465  76.4933030
  44.5991428  12.9081919  76.9014041  53.2888340  11.5682247  90.4275692
  52.7727389  10.7840704  90.2405620  54.1728289  11.2400964  90.5922211
  50.9499067   5.3123263  86.3871504  50.7523888   5.0038351  87.2714836
  51.5598773   6.0384902  86.5169434  58.9570402  15.8387211  89.5223445
  59.6873790  15.5772499  90.0831148  58.3477347  15.1015933  89.5625513
  57.0385699  13.9795073  90.1197896  56.3118862  13.8451038  89.5114388
  56.6232986  14.2871902  90.9254614  44.8615875  17.6985003  97.8845269
  45.7818885  17.8763602  98.0785316  44.8265458  16.7541048  97.7324969
  43.1620100  11.5717233  76.3599498  42.2551555  11.2750346  76.4362211
  43.4396081  11.2747051  75.4933784  34.0798040  12.8923597  86.8098544
  33.7600825  12.0388905  86.5172918  33.5331468  13.1072175  87.5656511
  37.8577948  15.6086038  90.5268051  38.0763958  16.5403145  90.5456084
  38.2703722  15.2494012  91.3122854  44.7782166   6.1154123  82.5143739
  43.9682894   5.7701208  82.8898985  45.4666583   5.8061667  83.1031350
  46.7072714   5.1932170  84.1368036  47.2603752   5.6127623  84.7958059
  46.9442800   4.2667918  84.1790992  41.9318884   8.4304169  76.5011477
  42.7938048   8.7559067  76.7607294  42.1169229   7.6435664  75.9884543
  33.9486300  16.5126508  88.7791666  33.2549772  16.0980461  88.2661620
  34.6959291  16.5547045  88.1825085  50.0851521   7.3032695  83.6446700
  49.5050190   7.9617499  83.2624752  49.8187454   6.4810040  83.2334117
  48.5355087   6.7037753  85.8468020  49.0354866   6.8154287  85.0382339
  49.1790695   6.3998806  86.4868829  42.5937083  14.6116382  98.7335861
  42.1104165  15.4116742  98.9399750  42.6798022  14.6224327  97.7803305
  35.8623043  16.4444762  86.6557680  35.8393731  16.5432449  85.7039564
  36.1723679  17.2909913  86.9774847  38.5210421  18.5020917  90.7704295
  39.4753674  18.4704859  90.7034226  38.3222944  18.0411541  91.5854521
  39.1109803  17.0722033  93.3375093  39.9302692  17.5666112  93.3609930
  39.3846610  16.1554001  93.3092660  48.8676399   9.4632785  82.7003048
  47.9802254   9.7482436  82.4823243  49.2830388   9.3026549  81.8530325
  52.2190935   9.4879306  86.4157387  52.9951325   9.9775759  86.6882004
  51.4939069   9.9137361  86.8729257  54.6563494  10.2006926  87.4731328
  55.2507985   9.9602662  86.7624636  54.7290077   9.4814056  88.1004864
  36.8760649  24.0440536  87.7874493  36.7415117  23.2840937  87.2212491
  36.4592712  24.7681436  87.3203282  48.0119612  19.2277460  76.7951068
  48.7155463  19.4327463  77.4108724  47.2882261  19.7954222  77.0600152
  48.8417423  14.9787321  82.9153338  48.7852624  15.4355873  82.0760971
  49.3945765  14.2178006  82.7376181  52.6522229  10.7677053  83.7403458
  52.3959163  10.3673689  84.5711665  52.0275097  11.4820847  83.6153597
  56.9634566  13.5073126  86.2474749  56.4034124  13.5766316  87.0206311
  56.3578070  13.3314111  85.5274245  40.0329775  24.9409854  87.9992935
  39.9162159  25.8855286  87.8971626  39.2122222  24.6383415  88.3878735
  49.9206310  19.6659989  78.8449528  50.7551914  19.2341188  78.6627003
  49.7590653  19.4942003  79.7726423  49.5752202  16.1692103  80.2105867
  49.5201006  16.0036374  79.2694312  48.9498257  16.8768135  80.3668057
  34.3644717  11.4060167  94.0367290  35.0103581  10.8959121  94.5254515
  34.1561868  12.1428849  94.6110715  46.8898109  18.4741014  99.5359430
  47.7589269  18.6481667  99.1746065  46.4104861  19.2935431  99.4135160
  42.8848327   5.6700212  79.7891186  42.8726997   6.6142051  79.9459457
  43.7771749   5.4870357  79.4950647  41.0584289  25.5938115  91.2148864
  41.9611536  25.6261726  91.5315359  40.8321659  24.6638566  91.2295200
  42.8137891  24.3469102  87.8758942  41.8633522  24.3470964  87.7623315
  43.1170378  23.6001837  87.3594977  46.7000447   2.2642988  84.0437123
  45.9332843   1.7101475  84.1893805  47.1111152   2.3364857  84.9051274
  58.5490585  30.1829640  88.9404705  59.1868995  30.0636388  88.2368045
  58.4311428  31.1310484  88.9992657  55.3580291  30.1357068  88.8766230
  55.0198803  30.0198133  87.9886764  56.2270059  29.7348234  88.8567236
  51.2167107  31.9892545  84.8663120  50.6531972  31.8982482  84.0979408
  51.1019502  31.1692449  85.3465613  55.8400074  31.2891920  94.8352435
  55.8288715  30.8944718  93.9632939  56.0020714  30.5557993  95.4286207
  48.7631539  33.4843736  87.7047341  49.5552831  33.1434561  87.2893640
  49.0028189  33.5938711  88.6249494  56.7966666  35.6563513  80.1777585
  56.1454645  36.2417593  79.7911599  57.5911028  36.1869707  80.2372623
  50.7222293  32.7452650  80.5764720  51.4953169  32.1981637  80.4377596
  51.0747692  33.6096899  80.7879181  52.5607335  34.0729032  93.7831619
  52.2697201  34.9774663  93.6678285  53.1964320  34.1145560  94.4975689
  53.4863542  31.4505880  90.3732979  54.0827114  31.2261903  89.6589942
  53.5438514  30.7090626  90.9758427  53.0588571  28.9045316  78.2083170
  53.3114091  28.3826837  77.4466633  52.1213130  28.7411461  78.3109853
  58.1031853  27.9081094  86.0157913  58.8894943  27.4900517  85.6648330
  58.3670558  28.8127186  86.1839561  58.2741931  33.3453944  80.7146570
  57.6387764  33.4188571  81.4267474  57.9439337  33.9347543  80.0365649
  63.5040281  27.8456327  86.9190891  64.2365452  27.2755544  87.1528721
  62.7479636  27.4577928  87.3597397  52.7784859  30.8073422  80.4107545
  52.6621117  30.1318325  81.0788629  52.8887119  30.3205796  79.5939698
  55.1216400  30.2683569  84.1154234  54.7574607  29.7414190  84.8267155
  55.9783516  29.8782038  83.9420719  61.0265701  21.5577901  91.3785500
  60.6949026  22.4273312  91.1546715  60.4311314  21.2414185  92.0579530
  54.7621887  25.2973469  79.1115582  54.9296290  26.1653705  79.4786053
  54.5719056  25.4600750  78.1876872  57.5197220  33.7590447  90.7781413
  57.2197944  34.6615486  90.6697220  57.1748280  33.4922631  91.6302566
  50.9709702  30.2104244  86.8118117  50.0460198  30.0780458  87.0195809
  51.2194115  30.9898464  87.3088060  60.9194364  26.2772988  88.4578850
  60.0111242  26.2088396  88.1637611  60.8681960  26.7544933  89.2860676
  54.7411108  27.7531126  80.0962249  54.6210733  28.1988177  80.9347729
  54.0463697  28.1016444  79.5375787  48.3318513  29.8537518  87.6461906
  48.4610894  30.1071997  88.5601318  47.6515964  30.4465226  87.3266561
  52.5018000  40.5234768  83.7452380  52.4242030  41.4742593  83.8240861
  51.8979644  40.1780640  84.4027307  54.9935230  27.6962633  96.4013747
  54.2168564  28.2556553  96.3916612  55.6325793  28.1819416  96.9228617
  62.7856011  24.4789426  90.2356724  62.1430391  24.7721959  89.5896519
  62.2810939  24.3642346  91.0409921  60.4396174  28.2252599  80.9242583
  61.3514030  28.4579986  80.7490281  59.9305821  28.8089643  80.3617662
  53.2481602  30.5048087  95.9631714  53.9896287  31.0433131  95.6866538
  52.5418588  31.1314375  96.1203266  58.7236942  32.6477227  94.5603876
  59.1320298  32.2059638  93.8158508  58.0014203  32.0729855  94.8138069
  55.0768012  27.5849834  91.9337433  55.9229207  28.0089247  92.0772082
  55.0166650  26.9283458  92.6275996  59.0465757  33.2078418  88.3156165
  58.4174619  33.3724132  87.6132233  58.6591419  33.6220027  89.0867129
  62.9254988  34.1432856  85.6700528  62.2406027  34.5231757  85.1197562
  63.0098838  34.7528182  86.4032476  58.2267457  25.2454202  93.5918606
  57.9828389  25.9996263  93.0552882  58.5027388  25.6239550  94.4265853
  60.1805920  31.7892815  92.2695872  60.3922815  32.4324574  91.5930253
  60.1335668  30.9555131  91.8017802  57.7832149  24.4010635  89.1732444
  56.9216628  24.6991889  89.4649182  57.8094584  24.6181034  88.2413477
  54.5993718  32.9452826  85.5806250  55.0632064  33.2240529  84.7910872
  54.3350517  32.0436270  85.3979340  51.4917800  32.4924307  88.5186013
  52.0619157  32.9211576  87.8803498  52.0825911  32.2106892  89.2170199
  53.5362605  29.0675978  82.3895815  54.2386648  29.5197022  82.8569741
  53.2043233  28.4259797  83.0175708  51.9842966  27.6587735  96.7647024
  51.3541627  28.3404016  96.9982421  51.8779054  27.5470816  95.8200163
  47.2787938  27.3259531  87.6912949  46.4886992  27.5817059  87.2153059
  47.7699186  28.1407869  87.7964989  61.2951748  34.6664770  90.4418229
  62.1169192  34.2644957  90.1600911  61.2914151  34.5633004  91.3934345
  49.2302684  27.6904110  84.6496425  48.4333847  27.8022804  85.1679921
  49.0028276  28.0290762  83.7837316  55.0608351  34.2148813  92.5978940
  55.1252784  34.6769221  93.4337112  54.3519275  33.5846178  92.7261250
  45.5625641  27.5790021  90.1227939  45.8133680  28.4637031  90.3885515
  46.0985190  27.3994623  89.3503031  69.3857741  31.0103518  86.7903201
  68.6321449  30.4410917  86.6347205  69.5205282  30.9766183  87.7373836
  54.7756369  35.8816921  82.4657920  54.6402044  36.7268457  82.8942768
  55.3166182  36.0836198  81.7023854  51.2623709  21.9608501  99.1272275
  50.8690654  21.4074699  99.8019920  52.0789849  22.2719079  99.5178793
  48.2285767  33.3992359  83.0385845  48.7410287  34.1935609  83.1891410
  48.8808479  32.7018649  82.9719447  50.0380651  36.5158115  85.1208598
  50.2147280  37.4376080  84.9329582  50.8337485  36.2016534  85.5502978
  54.1791670  23.3766380  96.7192532  54.9201383  23.9773533  96.6396994
  54.4109593  22.6344018  96.1610575  49.3233008  28.5622747  94.9970762
  49.2086523  27.6608004  95.2977861  48.4677526  28.8086444  94.6455578
  56.4024846  36.5040487  96.5958262  55.9588700  35.7176866  96.2779167
  57.0642059  36.6919638  95.9302153  51.1611967  38.0336289  91.1218941
  51.7119392  37.9053352  90.3495935  50.3223443  38.3331178  90.7713834
  58.5006084  36.7843287  94.6239664  58.4824559  37.6052168  94.1319933
  59.4226004  36.6597362  94.8489805  54.9579138  34.2987417  95.4663172
  55.4907475  33.5375705  95.2362480  54.4293219  34.0061069  96.2087326
  58.1248833  19.4047483  90.9956814  57.7813102  20.2949124  90.9195924
  58.4927795  19.2149140  90.1326399  46.1934683  31.7281013  83.8145416
  47.0309905  32.1378021  83.5979124  46.3712951  30.7880455  83.7845610
  58.0899115  29.3956094  79.5029249  57.5745739  30.1660698  79.7417636
  57.8176424  28.7221230  80.1262310  55.6746226  24.2405795  84.5614487
  54.8187823  23.8512645  84.3820126  56.0873178  24.3197755  83.7014273
  57.2045373  21.7752138  88.9606047  56.7010169  21.7382273  88.1473852
  57.4975980  22.6844881  89.0202704  53.4488259  21.8590868  87.9672229
  54.3141256  21.6633676  87.6078118  53.5165768  21.6301219  88.8941585
  63.0633390  32.1488448  81.4382422  62.2862832  31.8099608  80.9937584
  63.7424871  32.1541072  80.7637387  57.8785419  27.2683186  81.3289030
  57.5735554  27.5829335  82.1799173  58.8315861  27.3464606  81.3716363
  56.3231850  33.4273409  82.9781984  55.7953212  32.6926169  82.6655221
  55.8219353  34.2048086  82.7321952  61.3024696  31.6222430  88.0949030
  60.6448371  32.3121691  88.1829159  62.1065096  32.0118862  88.4383017
  51.0550578  24.0893075  85.3388595  51.6294330  23.8668257  84.6061788
  51.6421561  24.1581770  86.0917197  60.1130155  29.9766802  86.1452972
  60.6262037  30.6096794  86.6474682  60.7631379  29.3767998  85.7796332
  51.3820165  26.1197536  79.3584481  50.5457477  26.4572223  79.6793755
  51.2424935  25.9846516  78.4211618  53.3573246  20.9634324  84.0663665
  52.7037658  20.6483342  83.4420280  53.3153720  20.3410065  84.7923488
  54.4684451  31.2453619  75.9816957  53.5611512  31.0142873  76.1808106
  54.9655483  30.4491239  76.1690938  57.3752530  39.9551127  78.9013643
  56.7014228  40.2582823  79.5098601  57.7618351  40.7580207  78.5519100
  56.5910986  27.4516258  88.3911312  55.6733548  27.6731205  88.2333001
  57.0071130  27.5262568  87.5323020  57.3746034  28.8507674  83.5213993
  58.1217853  29.3629071  83.2121115  57.6437623  28.5291726  84.3818386
  55.6472684  31.3466214  80.5040947  54.7383903  31.0625247  80.6013417
  55.6767768  31.7665293  79.6444254  60.8791951  34.9572804  84.2732115
  60.4254279  34.1163714  84.3297305  60.2485918  35.5934202  84.6106895
  59.8224871  25.8864790  85.5032782  59.0847628  25.3742176  85.8343025
  60.0751645  25.4465171  84.6916059  59.3224891  36.7949301  85.2081933
  59.6147865  37.3554358  84.4894298  59.8323511  37.0877862  85.9635092
  59.9236498  18.6641042  86.0974551  60.2295375  17.8038405  85.8100466
  60.6489103  19.2558662  85.8973545  46.2160854  29.0671728  84.4856149
  46.0185254  28.4741089  83.7607216  45.6607518  28.7623939  85.2032088
  54.1957578  28.9594835  86.6050742  54.2506188  28.0068671  86.5293219
  53.3848780  29.1154274  87.0892041  55.3448772  32.8874958  77.8429026
  54.9068202  32.1710817  77.3834663  56.0859213  33.1151073  77.2814117
  52.1349938  27.5771895  84.3641121  51.3217804  27.8766065  84.7706313
  52.6308932  27.1827583  85.0815603  54.2858516  37.5729652  86.2975386
  54.2434695  37.7990498  85.3683918  55.2021215  37.3393026  86.4461187
  57.7324150  28.0413719  93.1956015  58.0873537  28.2685192  94.0550481
  58.3796281  28.3732096  92.5733270  63.4621887  31.1632155  83.9005344
  63.3239785  31.3533751  82.9726533  63.1058105  31.9251538  84.3573395
  51.6264013  25.1490250  89.9802356  52.2663392  25.0079009  89.2825320
  50.7941543  24.8624764  89.6040958  63.4891266  33.2308682  88.9116616
  63.9227773  33.1383971  89.7599670  64.2022847  33.2066182  88.2736632
  52.4024317  34.4492681  86.0937349  53.1964915  33.9543001  85.8919924
  51.6916009  33.9210544  85.7305054  57.2219161  36.8310776  90.4449716
  57.2756183  37.4001712  91.2127432  56.3533943  37.0012661  90.0803753
  48.7107080  28.5935762  82.1697101  47.7804668  28.5320218  82.3867063
  48.8064552  28.0711715  81.3733743  48.6292629  25.1190575  84.7575343
  48.8899447  26.0335908  84.6484503  49.4509802  24.6515018  84.9071956
  50.1017555  26.5328332  91.9274168  50.7740608  26.3245694  91.2786816
  49.2747341  26.3350418  91.4879400  64.3506816  33.2732383  91.4449501
  64.5442706  34.1778193  91.6908776  64.2507434  32.8139802  92.2788086
  56.0043127  23.1590273  93.9439828  55.3571042  23.8580223  93.8504305
  56.7744142  23.5926417  94.3116077  59.4121924  33.4239125  97.0190382
  59.2607431  33.1949677  96.1020465  59.4026604  34.3809727  97.0321727
  56.1807261  30.9971038  92.0036648  57.1099321  31.1482198  91.8305615
  55.7598291  31.0855059  91.1485295  54.9795593  35.0221703  89.7735186
  54.8406678  34.6540487  90.6461124  54.1910189  35.5369342  89.6019144
  55.5743745  40.1230799  81.1160722  55.7495500  39.6518842  81.9306345
  54.8876533  40.7496565  81.3441983  56.5300808  34.4003305  87.1624024
  56.1950640  34.3604075  88.0581673  56.0304754  33.7348021  86.6894434
  50.5045052  29.8070935  92.6876605  50.3664850  29.0751174  93.2888144
  51.4149975  29.7179835  92.4060792  59.4659999  31.7459340  77.4361083
  58.8489170  31.0206168  77.3394136  58.9976488  32.5068700  77.0928157
  53.1327352  29.5190895  92.1760284  53.8426971  28.8784087  92.1346903
  53.0896661  29.7703789  93.0986465  61.1214131  36.4558248  95.0966864
  61.0626677  35.7717468  94.4297447  61.5233650  37.1977238  94.6447490
  51.8456286  26.5056113  93.9955924  51.3093643  26.0546851  94.6477520
  51.2572995  26.6402021  93.2526388  50.1404830  43.2720162  87.8900582
  50.3801428  43.9038686  88.5679601  49.2974026  42.9208202  88.1765942
  51.2558545  25.9644764  76.5582387  50.3788012  25.8433565  76.1944634
  51.7316298  25.1730842  76.3061276  61.1231538  34.4197832  93.3280843
  60.2358317  34.0823754  93.4507242  61.6930089  33.6880863  93.5649609
  42.7760686  30.7521924  86.6523895  43.4631725  30.4383654  86.0644910
  42.6208814  31.6563288  86.3791146  47.5795408  25.6412120  91.0808918
  47.4953596  25.0337790  90.3459328  46.7578114  26.1321139  91.0818415
  54.6532692  39.0799284  90.2942086  54.5802863  39.8854256  90.8061391
  54.2110085  39.2791250  89.4690108  54.4422471  38.3171054  83.8044908
  53.6589993  38.8592734  83.8983132  55.1415217  38.8345034  84.2039149
  57.7519122  24.1265684  86.4479113  58.2487821  23.3735646  86.1280184
  56.9806103  24.1630000  85.8822323  65.6048879  29.8306049  88.0897405
  65.5938755  30.7130765  87.7191338  64.7366258  29.4777600  87.8951942
  57.1131375  38.9786118  92.4500245  57.8259348  39.6133583  92.3776147
  56.6221404  39.0749984  91.6340247  58.8348902  32.8837371  84.0217537
  57.9005181  33.0038833  83.8522241  59.0125571  31.9809838  83.7577547
  54.3354090  26.2683067  86.1750798  53.9651878  25.7154107  86.8631704
  54.8313183  25.6641200  85.6225798  62.2221454  28.7254690  84.5567571
  62.6881906  29.5582682  84.4827874  62.6728954  28.2599672  85.2612829
  52.1643289  36.7280562  93.2705816  52.8652748  37.3617045  93.4235210
  51.6938404  37.0695293  92.5101455  60.2897685  35.0698512  81.5553723
  60.5657529  34.9555106  82.4647597  59.4202183  34.6715996  81.5165896
  60.1938116  21.0935277  88.5958472  59.2801196  21.3239504  88.7640679
  60.6231218  21.1773721  89.4472505  59.9644575  29.2825169  91.0958366
  59.3116025  29.5301077  90.4410819  60.3424955  28.4689307  90.7620844
  56.9251749  39.3184862  85.1986537  57.1074143  38.5006518  85.6614289
  57.7484735  39.5352555  84.7611427  57.2593914  38.2453048  82.4601585
  57.7881681  37.7345502  81.8471747  57.5222134  37.9295578  83.3247118
  56.0132148  30.0244980  97.5824403  55.3372785  29.9239110  98.2526779
  56.8359782  29.8684194  98.0460401  47.7611007  36.2616917  90.2036919
  48.3464444  35.5160605  90.3364823  47.5635845  36.5720874  91.0873582
  50.6149662  39.2968164  85.2199361  49.9460037  39.7814292  84.7363401
  50.4762532  39.5437385  86.1342740  42.3528662  28.8322517  88.9241362
  42.3912761  28.2986108  89.7178480  41.8468954  28.3057723  88.3052339
  54.7554931  41.3311908  91.8182019  55.3073239  41.4943529  92.5831105
  55.0961124  41.9216346  91.1462044  49.7319424  23.6787058  92.4203904
  49.7960750  24.5401888  92.0081302  49.6686544  23.0661059  91.6876263
  49.2071696  25.7510190  96.0676938  49.8343735  25.3687267  96.6814463
  48.3499615  25.5324392  96.4332631  59.6065805  36.1573165  97.6730674
  60.1505709  36.7703124  97.1785629  59.0252650  36.7152744  98.1897687
  45.9837239  27.5586619  81.9995293  46.2790680  26.6497298  81.9462347
  45.0825275  27.5374359  81.6776295  57.8923318  39.2793883  88.8045702
  57.7674457  38.4783623  88.2956647  58.5502409  39.7740077  88.3159671
  49.5131486  25.6342616  87.9822842  48.7918072  26.2478583  87.8430315
  50.3024742  26.1700381  87.9039488  59.9558226  37.0802903  90.4325252
  59.0088562  36.9608255  90.3603578  60.3041000  36.1925401  90.5151513
  52.3157800  22.9697042  94.2563493  52.8392202  23.2159339  95.0189803
  52.0970133  23.8017077  93.8366631  47.7125081  25.2400717  82.1234618
  47.3837787  24.3598096  81.9409724  48.0664452  25.1848386  83.0111008
  56.9604660  36.8755620  86.6329604  56.8129622  35.9472327  86.8137174
  57.7858153  36.8975710  86.1486679  50.8266904  25.5273687  82.4910096
  51.1662976  26.0559608  81.7688704  51.2739024  25.8654093  83.2668663
  60.5638782  37.6984178  87.7194477  61.4885329  37.4927040  87.5818928
  60.3954085  37.4500579  88.6283818  53.5210345  23.9110737  91.9413164
  53.1807165  23.1118550  92.3433844  52.8149351  24.2112448  91.3689997
  54.1726817  20.9960050  90.3940487  54.9952886  20.5220528  90.2719377
  54.4164880  21.7750534  90.8939173  52.8135051  24.0248308  80.6903389
  53.5343414  24.4029561  80.1867106  52.1900355  24.7437185  80.7938367
  56.9566174  24.7293457  81.6261721  57.1729788  25.6118095  81.3250549
  56.4760241  24.3379671  80.8967363  51.6965395  27.6879170  88.2032466
  51.5509976  28.0019473  89.0956747  51.2190599  28.3064071  87.6503364
  53.5561778  24.6781718  88.2513355  53.5423347  23.7822812  87.9145653
  54.2734206  24.6852382  88.8851641  55.4087909  25.1119059  90.2966483
  55.1505687  26.0336129  90.2950813  54.8772949  24.7149493  90.9866947
  60.3534098  38.2169846  83.0756568  60.5270975  37.6516268  82.3230420
  60.8462989  39.0170741  82.8936058  46.1711058  30.2284515  91.1420127
  45.6264526  31.0044323  91.2740401  47.0490407  30.5755319  90.9839248
  52.9598674  23.5596099  83.5200925  53.0814585  22.6312745  83.7191813
  52.6700717  23.5734785  82.6079241  55.8289865  21.2451009  86.6567645
  55.8511561  21.3090342  85.7019625  56.2457924  20.4055518  86.8508151
  66.2073489  30.9806269  84.6946868  66.6504635  30.2313594  84.2965991
  65.3299999  30.9716405  84.3120600  61.3409270  37.5336610  80.1753466
  62.0360175  38.1543303  80.3940781  61.6832420  36.6831961  80.4505844
  46.9577079  29.3554411  94.0350284  46.2158815  29.5037046  94.6214914
  46.6369824  29.6162677  93.1717033  63.2400693  34.9836316  81.7040797
  63.7652017  35.3223588  80.9790117  63.1523046  34.0483331  81.5203932
  54.9020742  38.8970389  93.8330674  55.2107868  38.6519536  94.7053373
  55.6996224  39.1017028  93.3449544  54.9241354  41.0508299  86.0636050
  54.4846344  40.5584678  86.7568907  55.6749471  40.5081267  85.8228125
  47.4033693  37.2419840  86.0660678  48.2291713  36.9423612  85.6859322
  47.0527745  36.4727462  86.5150467  52.3715226  36.5946308  88.1358352
  51.7495236  35.9317013  87.8360580  53.0420093  36.6207440  87.4532000
  45.6042298  35.1606166  87.0249612  44.7674206  34.7328341  86.8433613
  45.5765944  35.3538610  87.9620403  52.4439754  25.0728096  97.7290858
  52.4927909  25.9490219  97.3468628  52.9862268  24.5305489  97.1562501
  62.9294599  35.6169219  97.0091995  62.1390143  35.5993358  96.4696494
  62.6927954  36.1557513  97.7641032  63.0492474  32.4661686  94.3224724
  63.0990479  32.3011693  95.2640246  62.9406398  31.5988945  93.9322604
  51.9328733  35.1450231  81.6116812  52.0816854  35.8285696  80.9583485
  52.7395177  35.1255321  82.1266268  60.3396237  28.4492614  95.6384030
  61.2406100  28.3099079  95.3468028  60.4144211  28.6147069  96.5782208
  54.6739042  25.8259468  94.4837217  53.8042352  26.1193035  94.2119805
  54.9098523  26.4099913  95.2044480  64.5510671  34.8858627  94.5666745
  64.2595480  35.2488608  95.4030206  63.9382803  34.1725635  94.3880077
  65.7506354  32.4511507  87.0869315  66.5853245  32.8901311  87.2506876
  65.8865482  31.9750160  86.2677561  62.7997860  30.0091242  93.0346803
  63.2751981  30.2018888  92.2265654  61.8763425  30.0650428  92.7890187
  49.6881366  31.1715409  82.6177881  49.4427408  30.2677739  82.8158092
  49.8577281  31.1732559  81.6757359  57.3778076  22.0439085  92.0002637
  57.8960020  22.7800112  91.6749126  57.0233209  22.3503079  92.8349396
  48.9577014  26.9043767  80.1164043  48.2646259  26.9788122  79.4604079
  48.7128766  26.1404110  80.6385560  57.6290670  18.4639368  87.5203534
  57.9092424  17.7962557  88.1463960  58.4141277  18.6568464  87.0078197
  55.4324139  37.6398362  79.0828560  54.8598106  38.2588549  78.6299032
  56.0056932  38.1897724  79.6168482  61.4999529  26.8857002  91.2675109
  62.4516951  26.9855100  91.2887333  61.3302979  26.0935270  91.7773193
  59.5213908  23.9712585  91.4534510  58.9263840  24.2517598  90.7580998
  59.2363605  24.4606486  92.2251251  58.6521398  37.9235512  80.2137142
  59.5852072  37.8581074  80.4170018  58.5644611  38.7591779  79.7551675
  61.2809415  37.2401382  77.1741090  61.2023047  36.9061246  78.0676848
  62.1019082  37.7323150  77.1732562  63.9787606  30.1063122  90.3817408
  63.9463926  29.1679122  90.5677092  64.5888230  30.1847158  89.6483233
  55.8170937  28.9759175  76.4244612  56.7630042  28.8465383  76.4933030
  55.4385182  28.2373836  76.9014041  64.1282095  26.8974165  90.4275692
  63.6121143  26.1132622  90.2405620  65.0122043  26.5692882  90.5922211
  61.7892822  20.6415181  86.3871504  61.5917643  20.3330269  87.2714836
  62.3992527  21.3676820  86.5169434  69.7964156  31.1679128  89.5223445
  70.5267545  30.9064417  90.0831148  69.1871102  30.4307850  89.5625513
  67.8779453  29.3086991  90.1197896  67.1512617  29.1742956  89.5114388
  67.4626740  29.6163820  90.9254614  55.7009630  33.0276921  97.8845269
  56.6212639  33.2055520  98.0785316  55.6659213  32.0832966  97.7324969
  54.0013854  26.9009151  76.3599498  53.0945310  26.6042264  76.4362211
  54.2789835  26.6038969  75.4933784  44.9191795  28.2215514  86.8098544
  44.5994579  27.3680823  86.5172918  44.3725223  28.4364093  87.5656511
  48.6971702  30.9377955  90.5268051  48.9157712  31.8695063  90.5456084
  49.1097476  30.5785930  91.3122854  55.6175920  21.4446041  82.5143739
  54.8076648  21.0993126  82.8898985  56.3060337  21.1353584  83.1031350
  57.5466468  20.5224087  84.1368036  58.0997507  20.9419541  84.7958059
  57.7836555  19.5959836  84.1790992  53.5699568  26.5111161  99.9170799
  53.4696294  27.4605518  99.8482891  53.3521110  26.1829400  99.0446870
  52.7712639  23.7596086  76.5011477  53.6331803  24.0850984  76.7607294
  52.9562983  22.9727582  75.9884543  44.7880055  31.8418426  88.7791666
  44.0943526  31.4272379  88.2661620  45.5353046  31.8838962  88.1825085
  60.9245275  22.6324613  83.6446700  60.3443944  23.2909417  83.2624752
  60.6581208  21.8101957  83.2334117  59.3748842  22.0329670  85.8468020
  59.8748620  22.1446205  85.0382339  60.0184450  21.7290723  86.4868829
  53.4330838  29.9408300  98.7335861  52.9497919  30.7408660  98.9399750
  53.5191777  29.9516245  97.7803305  46.7016797  31.7736680  86.6557680
  46.6787485  31.8724367  85.7039564  47.0117434  32.6201830  86.9774847
  49.3604175  33.8312835  90.7704295  50.3147429  33.7996777  90.7034226
  49.1616699  33.3703458  91.5854521  49.9503557  32.4013951  93.3375093
  50.7696446  32.8958029  93.3609930  50.2240365  31.4845919  93.3092660
  59.7070153  24.7924703  82.7003048  58.8196008  25.0774354  82.4823243
  60.1224143  24.6318466  81.8530325  63.0584690  24.8171224  86.4157387
  63.8345080  25.3067676  86.6882004  62.3332824  25.2429278  86.8729257
  65.4957248  25.5298843  87.4731328  66.0901739  25.2894579  86.7624636
  65.5683832  24.8105974  88.1004864  47.7154404  39.3732454  87.7874493
  47.5808872  38.6132855  87.2212491  47.2986466  40.0973354  87.3203282
  58.8513367  34.5569378  76.7951068  59.5549217  34.7619380  77.4108724
  58.1276016  35.1246140  77.0600152  59.6811177  30.3079239  82.9153338
  59.6246379  30.7647790  82.0760971  60.2339520  29.5469924  82.7376181
  63.4915983  26.0968971  83.7403458  63.2352917  25.6965606  84.5711665
  62.8668851  26.8112765  83.6153597  67.8028321  28.8365044  86.2474749
  67.2427879  28.9058233  87.0206311  67.1971824  28.6606029  85.5274245
  50.8723530  40.2701771  87.9992935  50.7555914  41.2147204  87.8971626
  50.0515976  39.9675333  88.3878735  60.7600064  34.9951907  78.8449528
  61.5945668  34.5633105  78.6627003  60.5984407  34.8233921  79.7726423
  60.4145957  31.4984020  80.2105867  60.3594760  31.3328292  79.2694312
  59.7892012  32.2060053  80.3668057  45.2038471  26.7352085  94.0367290
  45.8497335  26.2251039  94.5254515  44.9955623  27.4720766  94.6110715
  57.7291864  33.8032932  99.5359430  58.5983023  33.9773584  99.1746065
  57.2498615  34.6227349  99.4135160  53.7242082  20.9992129  79.7891186
  53.7120752  21.9433969  79.9459457  54.6165504  20.8162275  79.4950647
  51.8978044  40.9230033  91.2148864  52.8005291  40.9553643  91.5315359
  51.6715414  39.9930484  91.2295200  53.6531646  39.6761020  87.8758942
  52.7027277  39.6762881  87.7623315  53.9564132  38.9293754  87.3594977
  57.5394201  17.5934906  84.0437123  56.7726597  17.0393393  84.1893805
  57.9504906  17.6656775  84.9051274  49.5435962  23.8819702  98.1342304
  50.4067424  23.5256507  98.3445628  48.9701373  23.5433596  98.8217708
  69.3884339  45.5121558  88.9404705  70.0262749  45.3928305  88.2368045
  69.2705182  46.4602402  88.9992657  66.1974046  45.4648986  88.8766230
  65.8592557  45.3490051  87.9886764  67.0663814  45.0640151  88.8567236
  62.0560861  47.3184463  84.8663120  61.4925727  47.2274399  84.0979408
  61.9413256  46.4984367  85.3465613  66.6793829  46.6183838  94.8352435
  66.6682469  46.2236636  93.9632939  66.8414468  45.8849910  95.4286207
  59.6025293  48.8135654  87.7047341  60.3946585  48.4726479  87.2893640
  59.8421943  48.9230629  88.6249494  67.6360420  50.9855430  80.1777585
  66.9848400  51.5709511  79.7911599  68.4304783  51.5161625  80.2372623
  61.5616047  48.0744567  80.5764720  62.3346923  47.5273554  80.4377596
  61.9141446  48.9388817  80.7879181  63.4001090  49.4020950  93.7831619
  63.1090956  50.3066580  93.6678285  64.0358074  49.4437477  94.4975689
  64.3257297  46.7797798  90.3732979  64.9220869  46.5553821  89.6589942
  64.3832268  46.0382544  90.9758427  63.8982325  44.2337233  78.2083170
  64.1507846  43.7118755  77.4466633  62.9606884  44.0703379  78.3109853
  68.9425608  43.2373012  86.0157913  69.7288697  42.8192435  85.6648330
  69.2064312  44.1419104  86.1839561  69.1135685  48.6745862  80.7146570
  68.4781518  48.7480489  81.4267474  68.7833092  49.2639461  80.0365649
  74.3434035  43.1748245  86.9190891  75.0759207  42.6047462  87.1528721
  73.5873391  42.7869846  87.3597397  63.6178614  46.1365339  80.4107545
  63.5014872  45.4610243  81.0788629  63.7280874  45.6497713  79.5939698
  65.9610155  45.5975487  84.1154234  65.5968362  45.0706108  84.8267155
  66.8177271  45.2073956  83.9420719  71.8659455  36.8869819  91.3785500
  71.5342780  37.7565230  91.1546715  71.2705069  36.5706103  92.0579530
  65.6015642  40.6265386  79.1115582  65.7690044  41.4945623  79.4786053
  65.4112811  40.7892668  78.1876872  68.3590975  49.0882365  90.7781413
  68.0591698  49.9907404  90.6697220  68.0142034  48.8214548  91.6302566
  61.8103456  45.5396162  86.8118117  60.8853953  45.4072376  87.0195809
  62.0587870  46.3190381  87.3088060  71.7588119  41.6064905  88.4578850
  70.8504996  41.5380314  88.1637611  71.7075715  42.0836850  89.2860676
  65.5804863  43.0823044  80.0962249  65.4604488  43.5280095  80.9347729
  64.8857451  43.4308361  79.5375787  59.1712267  45.1829436  87.6461906
  59.3004649  45.4363914  88.5601318  58.4909719  45.7757144  87.3266561
  63.3411755  55.8526686  83.7452380  63.2635784  56.8034511  83.8240861
  62.7373398  55.5072558  84.4027307  65.8328984  43.0254551  96.4013747
  65.0562319  43.5848471  96.3916612  66.4719548  43.5111334  96.9228617
  73.6249765  39.8081344  90.2356724  72.9824145  40.1013877  89.5896519
  73.1204694  39.6934264  91.0409921  71.2789929  43.5544517  80.9242583
  72.1907785  43.7871904  80.7490281  70.7699576  44.1381561  80.3617662
  64.0875357  45.8340004  95.9631714  64.8290041  46.3725048  95.6866538
  63.3812342  46.4606293  96.1203266  69.5630696  47.9769145  94.5603876
  69.9714052  47.5351555  93.8158508  68.8407958  47.4021772  94.8138069
  65.9161766  42.9141752  91.9337433  66.7622962  43.3381165  92.0772082
  65.8560404  42.2575376  92.6275996  69.8859511  48.5370335  88.3156165
  69.2568374  48.7016050  87.6132233  69.4985173  48.9511945  89.0867129
  73.7648743  49.4724773  85.6700528  73.0799781  49.8523675  85.1197562
  73.8492592  50.0820100  86.4032476  69.0661212  40.5746120  93.5918606
  68.8222144  41.3288180  93.0552882  69.3421142  40.9531467  94.4265853
  71.0199675  47.1184732  92.2695872  71.2316570  47.7616492  91.5930253
  70.9729423  46.2847049  91.8017802  68.6225904  39.7302553  89.1732444
  67.7610383  40.0283806  89.4649182  68.6488338  39.9472952  88.2413477
  65.4387473  48.2744743  85.5806250  65.9025818  48.5532446  84.7910872
  65.1744271  47.3728188  85.3979340  62.3311554  47.8216225  88.5186013
  62.9012911  48.2503493  87.8803498  62.9219666  47.5398810  89.2170199
  64.3756359  44.3967896  82.3895815  65.0780402  44.8488940  82.8569741
  64.0436988  43.7551715  83.0175708  62.8236721  42.9879652  96.7647024
  62.1935381  43.6695933  96.9982421  62.7172808  42.8762734  95.8200163
  58.1181693  42.6551448  87.6912949  57.3280747  42.9108977  87.2153059
  58.6092940  43.4699786  87.7964989  72.1345503  49.9956688  90.4418229
  72.9562946  49.5936875  90.1600911  72.1307905  49.8924922  91.3934345
  60.0696438  43.0196028  84.6496425  59.2727602  43.1314722  85.1679921
  59.8422031  43.3582680  83.7837316  65.9002106  49.5440731  92.5978940
  65.9646538  50.0061138  93.4337112  65.1913030  48.9138096  92.7261250
  56.4019396  42.9081939  90.1227939  56.6527434  43.7928949  90.3885515
  56.9378944  42.7286540  89.3503031  80.2251496  46.3395436  86.7903201
  79.4715204  45.7702834  86.6347205  80.3599037  46.3058101  87.7373836
  65.6150124  51.2108838  82.4657920  65.4795798  52.0560374  82.8942768
  66.1559936  51.4128116  81.7023854  62.1017463  37.2900418  99.1272275
  61.7084409  36.7366617  99.8019920  62.9183604  37.6010997  99.5178793
  59.0679521  48.7284276  83.0385845  59.5804042  49.5227527  83.1891410
  59.7202234  48.0310567  82.9719447  60.8774406  51.8450033  85.1208598
  61.0541034  52.7667997  84.9329582  61.6731239  51.5308452  85.5502978
  65.0185424  38.7058297  96.7192532  65.7595138  39.3065451  96.6396994
  65.2503347  37.9635935  96.1610575  60.1626762  43.8914665  94.9970762
  60.0480277  42.9899922  95.2977861  59.3071280  44.1378361  94.6455578
  67.2418600  51.8332405  96.5958262  66.7982454  51.0468784  96.2779167
  67.9035814  52.0211555  95.9302153  62.0005721  53.3628207  91.1218941
  62.5513146  53.2345270  90.3495935  61.1617197  53.6623096  90.7713834
  69.3399838  52.1135205  94.6239664  69.3218313  52.9344086  94.1319933
  70.2619758  51.9889280  94.8489805  65.7972892  49.6279334  95.4663172
  66.3301229  48.8667623  95.2362480  65.2686973  49.3352986  96.2087326
  68.9642587  34.7339400  90.9956814  68.6206857  35.6241042  90.9195924
  69.3321550  34.5441058  90.1326399  57.0328438  47.0572931  83.8145416
  57.8703660  47.4669939  83.5979124  57.2106706  46.1172373  83.7845610
  68.9292870  44.7248011  79.5029249  68.4139493  45.4952616  79.7417636
  68.6570178  44.0513148  80.1262310  66.5139981  39.5697712  84.5614487
  65.6581577  39.1804563  84.3820126  66.9266933  39.6489673  83.7014273
  68.0439128  37.1044055  88.9606047  67.5403923  37.0674191  88.1473852
  68.3369734  38.0136798  89.0202704  64.2882013  37.1882785  87.9672229
  65.1535010  36.9925594  87.6078118  64.3559522  36.9593137  88.8941585
  73.9027144  47.4780366  81.4382422  73.1256587  47.1391526  80.9937584
  74.5818625  47.4832989  80.7637387  68.7179173  42.5975104  81.3289030
  68.4129309  42.9121253  82.1799173  69.6709615  42.6756523  81.3716363
  67.1625605  48.7565327  82.9781984  66.6346967  48.0218086  82.6655221
  66.6613108  49.5340003  82.7321952  72.1418451  46.9514347  88.0949030
  71.4842125  47.6413609  88.1829159  72.9458850  47.3410779  88.4383017
  61.8944333  39.4184993  85.3388595  62.4688084  39.1960175  84.6061788
  62.4815315  39.4873688  86.0917197  70.9523910  45.3058720  86.1452972
  71.4655792  45.9388712  86.6474682  71.6025134  44.7059916  85.7796332
  62.2213920  41.4489454  79.3584481  61.3851232  41.7864141  79.6793755
  62.0818689  41.3138434  78.4211618  64.1967000  36.2926242  84.0663665
  63.5431413  35.9775259  83.4420280  64.1547474  35.6701983  84.7923488
  65.3078205  46.5745537  75.9816957  64.4005267  46.3434791  76.1808106
  65.8049237  45.7783156  76.1690938  68.2146284  55.2843044  78.9013643
  67.5407983  55.5874741  79.5098601  68.6012106  56.0872125  78.5519100
  67.4304741  42.7808176  88.3911312  66.5127302  43.0023123  88.2333001
  67.8464884  42.8554486  87.5323020  68.2139788  44.1799591  83.5213993
  68.9611607  44.6920988  83.2121115  68.4831378  43.8583644  84.3818386
  66.4866439  46.6758132  80.5040947  65.5777658  46.3917165  80.6013417
  66.5161522  47.0957211  79.6444254  71.7185706  50.2864721  84.2732115
  71.2648033  49.4455631  84.3297305  71.0879673  50.9226120  84.6106895
  70.6618626  41.2156708  85.5032782  69.9241382  40.7034094  85.8343025
  70.9145399  40.7757089  84.6916059  70.1618645  52.1241218  85.2081933
  70.4541620  52.6846275  84.4894298  70.6717266  52.4169779  85.9635092
  70.7630253  33.9932960  86.0974551  71.0689130  33.1330323  85.8100466
  71.4882858  34.5850580  85.8973545  57.0554609  44.3963646  84.4856149
  56.8579009  43.8033007  83.7607216  56.5001273  44.0915856  85.2032088
  65.0351333  44.2886753  86.6050742  65.0899942  43.3360589  86.5293219
  64.2242535  44.4446192  87.0892041  66.1842526  48.2166876  77.8429026
  65.7461956  47.5002735  77.3834663  66.9252967  48.4442990  77.2814117
  62.9743693  42.9063812  84.3641121  62.1611558  43.2057983  84.7706313
  63.4702687  42.5119501  85.0815603  65.1252270  52.9021569  86.2975386
  65.0828449  53.1282416  85.3683918  66.0414969  52.6684944  86.4461187
  68.5717904  43.3705637  93.1956015  68.9267292  43.5977110  94.0550481
  69.2190035  43.7024014  92.5733270  74.3015641  46.4924073  83.9005344
  74.1633540  46.6825669  82.9726533  73.9451860  47.2543456  84.3573395
  62.4657767  40.4782168  89.9802356  63.1057147  40.3370927  89.2825320
  61.6335298  40.1916681  89.6040958  74.3285021  48.5600600  88.9116616
  74.7621527  48.4675889  89.7599670  75.0416601  48.5358100  88.2736632
  63.2418071  49.7784598  86.0937349  64.0358670  49.2834918  85.8919924
  62.5309764  49.2502461  85.7305054  68.0612916  52.1602694  90.4449716
  68.1149938  52.7293630  91.2127432  67.1927697  52.3304579  90.0803753
  59.5500835  43.9227680  82.1697101  58.6198423  43.8612136  82.3867063
  59.6458307  43.4003633  81.3733743  59.4686384  40.4482493  84.7575343
  59.7293201  41.3627826  84.6484503  60.2903556  39.9806935  84.9071956
  60.9411309  41.8620250  91.9274168  61.6134362  41.6537612  91.2786816
  60.1141096  41.6642336  91.4879400  75.1900570  48.6024300  91.4449501
  75.3836460  49.5070111  91.6908776  75.0901188  48.1431719  92.2788086
  66.8436881  38.4882191  93.9439828  66.1964796  39.1872141  93.8504305
  67.6137896  38.9218335  94.3116077  70.2515679  48.7531043  97.0190382
  70.1001185  48.5241595  96.1020465  70.2420358  49.7101645  97.0321727
  67.0201015  46.3262956  92.0036648  67.9493075  46.4774115  91.8305615
  66.5992045  46.4146977  91.1485295  65.8189347  50.3513620  89.7735186
  65.6800433  49.9832405  90.6461124  65.0303943  50.8661260  89.6019144
  66.4137499  55.4522717  81.1160722  66.5889255  54.9810760  81.9306345
  65.7270287  56.0788483  81.3441983  67.3694562  49.7295223  87.1624024
  67.0344395  49.6895993  88.0581673  66.8698508  49.0639939  86.6894434
  61.3438806  45.1362853  92.6876605  61.2058604  44.4043092  93.2888144
  62.2543730  45.0471753  92.4060792  70.3053754  47.0751257  77.4361083
  69.6882925  46.3498085  77.3394136  69.8370242  47.8360618  77.0928157
  63.9721107  44.8482812  92.1760284  64.6820725  44.2076005  92.1346903
  63.9290415  45.0995707  93.0986465  71.9607886  51.7850166  95.0966864
  71.9020432  51.1009386  94.4297447  72.3627404  52.5269156  94.6447490
  62.6850041  41.8348030  93.9955924  62.1487398  41.3838769  94.6477520
  62.0966749  41.9693939  93.2526388  60.9798584  58.6012080  87.8900582
  61.2195183  59.2330604  88.5679601  60.1367781  58.2500120  88.1765942
  62.0952300  41.2936682  76.5582387  61.2181766  41.1725482  76.1944634
  62.5710053  40.5022760  76.3061276  71.9625293  49.7489750  93.3280843
  71.0752072  49.4115671  93.4507242  72.5323844  49.0172781  93.5649609
  53.6154440  46.0813841  86.6523895  54.3025480  45.7675571  86.0644910
  53.4602569  46.9855206  86.3791146  58.4189162  40.9704038  91.0808918
  58.3347351  40.3629707  90.3459328  57.5971869  41.4613056  91.0818415
  65.4926446  54.4091202  90.2942086  65.4196618  55.2146173  90.8061391
  65.0503839  54.6083168  89.4690108  65.2816226  53.6462972  83.8044908
  64.4983748  54.1884652  83.8983132  65.9808971  54.1636952  84.2039149
  68.5912876  39.4557601  86.4479113  69.0881576  38.7027564  86.1280184
  67.8199858  39.4921918  85.8822323  76.4442633  45.1597967  88.0897405
  76.4332510  46.0422682  87.7191338  75.5760013  44.8069518  87.8951942
  67.9525130  54.3078036  92.4500245  68.6653102  54.9425501  92.3776147
  67.4615158  54.4041902  91.6340247  69.6742657  48.2129289  84.0217537
  68.7398935  48.3330751  83.8522241  69.8519325  47.3101755  83.7577547
  65.1747845  41.5974984  86.1750798  64.8045632  41.0446025  86.8631704
  65.6706937  40.9933118  85.6225798  73.0615208  44.0546608  84.5567571
  73.5275660  44.8874600  84.4827874  73.5122709  43.5891590  85.2612829
  63.0037043  52.0572479  93.2705816  63.7046503  52.6908962  93.4235210
  62.5332158  52.3987211  92.5101455  71.1291439  50.3990429  81.5553723
  71.4051283  50.2847024  82.4647597  70.2595938  50.0007914  81.5165896
  71.0331871  36.4227195  88.5958472  70.1194951  36.6531422  88.7640679
  71.4624972  36.5065639  89.4472505  70.8038329  44.6117087  91.0958366
  70.1509780  44.8592994  90.4410819  71.1818709  43.7981225  90.7620844
  67.7645503  54.6476780  85.1986537  67.9467898  53.8298436  85.6614289
  68.5878489  54.8644472  84.7611427  68.0987669  53.5744965  82.4601585
  68.6275435  53.0637420  81.8471747  68.3615888  53.2587495  83.3247118
  66.8525902  45.3536898  97.5824403  66.1766539  45.2531027  98.2526779
  67.6753536  45.1976112  98.0460401  58.6004761  51.5908834  90.2036919
  59.1858198  50.8452522  90.3364823  58.4029600  51.9012791  91.0873582
  61.4543417  54.6260082  85.2199361  60.7853792  55.1106210  84.7363401
  61.3156286  54.8729302  86.1342740  53.1922416  44.1614435  88.9241362
  53.2306516  43.6278025  89.7178480  52.6862709  43.6349640  88.3052339
  65.5948685  56.6603825  91.8182019  66.1466993  56.8235447  92.5831105
  65.9354879  57.2508263  91.1462044  60.5713178  39.0078975  92.4203904
  60.6354505  39.8693806  92.0081302  60.5080299  38.3952977  91.6876263
  60.0465451  41.0802108  96.0676938  60.6737490  40.6979185  96.6814463
  59.1893370  40.8616310  96.4332631  70.4459560  51.4865083  97.6730674
  70.9899464  52.0995041  97.1785629  69.8646404  52.0444661  98.1897687
  56.8230994  42.8878537  81.9995293  57.1184435  41.9789215  81.9462347
  55.9219029  42.8666276  81.6776295  68.7317072  54.6085801  88.8045702
  68.6068212  53.8075541  88.2956647  69.3896164  55.1031994  88.3159671
  60.3525241  40.9634533  87.9822842  59.6311826  41.5770501  87.8430315
  61.1418496  41.4992298  87.9039488  70.7951981  52.4094821  90.4325252
  69.8482316  52.2900172  90.3603578  71.1434754  51.5217319  90.5151513
  63.1551554  38.2988960  94.2563493  63.6785956  38.5451256  95.0189803
  62.9363888  39.1308995  93.8366631  58.5518835  40.5692635  82.1234618
  58.2231541  39.6890013  81.9409724  58.9058206  40.5140303  83.0111008
  67.7998414  52.2047537  86.6329604  67.6523377  51.2764245  86.8137174
  68.6251908  52.2267628  86.1486679  61.6660658  40.8565604  82.4910096
  62.0056731  41.3851526  81.7688704  62.1132779  41.1946010  83.2668663
  71.4032536  53.0276096  87.7194477  72.3279083  52.8218957  87.5818928
  71.2347839  52.7792497  88.6283818  64.3604099  39.2402655  91.9413164
  64.0200920  38.4410468  92.3433844  63.6543106  39.5404366  91.3689997
  65.0120571  36.3251967  90.3940487  65.8346640  35.8512446  90.2719377
  65.2558635  37.1042451  90.8939173  63.6528806  39.3540226  80.6903389
  64.3737168  39.7321479  80.1867106  63.0294110  40.0729103  80.7938367
  67.7959928  40.0585375  81.6261721  68.0123543  40.9410013  81.3250549
  67.3153996  39.6671588  80.8967363  62.5359150  43.0171088  88.2032466
  62.3903731  43.3311391  89.0956747  62.0584354  43.6355988  87.6503364
  64.3955533  40.0073636  88.2513355  64.3817102  39.1114729  87.9145653
  65.1127961  40.0144300  88.8851641  66.2481663  40.4410976  90.2966483
  65.9899441  41.3628047  90.2950813  65.7166704  40.0441411  90.9866947
  57.0104812  45.5576432  91.1420127  56.4658280  46.3336240  91.2740401
  57.8884162  45.9047237  90.9839248  63.7992429  38.8888016  83.5200925
  63.9208340  37.9604663  83.7191813  63.5094471  38.9026702  82.6079241
  66.6683619  36.5742927  86.6567645  66.6905316  36.6382260  85.7019625
  67.0851678  35.7347435  86.8508151  77.0467243  46.3098186  84.6946868
  77.4898389  45.5605512  84.2965991  76.1693754  46.3008323  84.3120600
  72.1803025  52.8628528  80.1753466  72.8753929  53.4835220  80.3940781
  72.5226175  52.0123879  80.4505844  57.7970834  44.6846329  94.0350284
  57.0552570  44.8328964  94.6214914  57.4763578  44.9454594  93.1717033
  74.0794448  50.3128233  81.7040797  74.6045772  50.6515506  80.9790117
  73.9916800  49.3775249  81.5203932  65.7414497  54.2262307  93.8330674
  66.0501623  53.9811454  94.7053373  66.5389979  54.4308945  93.3449544
  65.7635109  56.3800217  86.0636050  65.3240099  55.8876595  86.7568907
  66.5143226  55.8373184  85.8228125  58.2427448  52.5711757  86.0660678
  59.0685467  52.2715529  85.6859322  57.8921500  51.8019380  86.5150467
  63.2108981  51.9238226  88.1358352  62.5888990  51.2608931  87.8360580
  63.8813848  51.9499358  87.4532000  56.4436053  50.4898084  87.0249612
  55.6067961  50.0620258  86.8433613  56.4159698  50.6830527  87.9620403
  63.2833508  40.4020014  97.7290858  63.3321664  41.2782137  97.3468628
  63.8256022  39.8597407  97.1562501  73.7688354  50.9461137  97.0091995
  72.9783898  50.9285276  96.4696494  73.5321708  51.4849431  97.7641032
  73.8886229  47.7953603  94.3224724  73.9384234  47.6303611  95.2640246
  73.7800152  46.9280862  93.9322604  62.7722488  50.4742149  81.6116812
  62.9210608  51.1577613  80.9583485  63.5788931  50.4547239  82.1266268
  71.1789991  43.7784531  95.6384030  72.0799854  43.6390996  95.3468028
  71.2537966  43.9438986  96.5782208  65.5132797  41.1551386  94.4837217
  64.6436106  41.4484952  94.2119805  65.7492277  41.7391831  95.2044480
  75.3904426  50.2150545  94.5666745  75.0989234  50.5780525  95.4030206
  74.7776557  49.5017553  94.3880077  76.5900108  47.7803425  87.0869315
  77.4246999  48.2193229  87.2506876  76.7259237  47.3042078  86.2677561
  73.6391614  45.3383159  93.0346803  74.1145736  45.5310806  92.2265654
  72.7157179  45.3942345  92.7890187  60.5275121  46.5007327  82.6177881
  60.2821163  45.5969657  82.8158092  60.6971035  46.5024477  81.6757359
  68.2171831  37.3731003  92.0002637  68.7353774  38.1092030  91.6749126
  67.8626963  37.6794996  92.8349396  59.7970768  42.2335684  80.1164043
  59.1040013  42.3080039  79.4604079  59.5522520  41.4696028  80.6385560
  68.4684425  33.7931286  87.5203534  68.7486178  33.1254475  88.1463960
  69.2535032  33.9860381  87.0078197  66.2717893  52.9690279  79.0828560
  65.6991860  53.5880467  78.6299032  66.8450687  53.5189641  79.6168482
  72.3393283  42.2148920  91.2675109  73.2910706  42.3147017  91.2887333
  72.1696733  41.4227188  91.7773193  70.3607662  39.3004503  91.4534510
  69.7657595  39.5809516  90.7580998  70.0757359  39.7898404  92.2251251
  69.4915153  53.2527430  80.2137142  70.4245826  53.1872991  80.4170018
  69.4038366  54.0883696  79.7551675  72.1203170  52.5693300  77.1741090
  72.0416801  52.2353164  78.0676848  72.9412836  53.0615068  77.1732562
  74.8181361  45.4355039  90.3817408  74.7857681  44.4971040  90.5677092
  75.4281984  45.5139076  89.6483233  66.6564692  44.3051092  76.4244612
  67.6023796  44.1757300  76.4933030  66.2778937  43.5665754  76.9014041
  74.9675849  42.2266083  90.4275692  74.4514898  41.4424539  90.2405620
  75.8515798  41.8984799  90.5922211  72.6286576  35.9707098  86.3871504
  72.4311397  35.6622186  87.2714836  73.2386282  36.6968737  86.5169434
  80.6357911  46.4971046  89.5223445  81.3661299  46.2356334  90.0831148
  80.0264856  45.7599768  89.5625513  78.7173208  44.6378909  90.1197896
  77.9906371  44.5034874  89.5114388  78.3020495  44.9455737  90.9254614
  66.5403384  48.3568838  97.8845269  67.4606394  48.5347437  98.0785316
  66.5052967  47.4124884  97.7324969  64.8407609  42.2301069  76.3599498
  63.9339064  41.9334181  76.4362211  65.1183590  41.9330887  75.4933784
  55.7585549  43.5507432  86.8098544  55.4388334  42.6972740  86.5172918
  55.2118977  43.7656010  87.5656511  59.5365457  46.2669873  90.5268051
  59.7551467  47.1986981  90.5456084  59.9491231  45.9077847  91.3122854
  66.4569675  36.7737958  82.5143739  65.6470403  36.4285043  82.8898985
  67.1454091  36.4645502  83.1031350  68.3860223  35.8516005  84.1368036
  68.9391261  36.2711459  84.7958059  68.6230309  34.9251753  84.1790992
  64.4093322  41.8403079  99.9170799  64.3090049  42.7897436  99.8482891
  64.1914864  41.5121318  99.0446870  63.6106393  39.0888004  76.5011477
  64.4725557  39.4142902  76.7607294  63.7956738  38.3019500  75.9884543
  55.6273809  47.1710344  88.7791666  54.9337281  46.7564296  88.2661620
  56.3746800  47.2130880  88.1825085  71.7639030  37.9616530  83.6446700
  71.1837699  38.6201334  83.2624752  71.4974963  37.1393875  83.2334117
  70.2142596  37.3621588  85.8468020  70.7142375  37.4738123  85.0382339
  70.8578204  37.0582641  86.4868829  64.2724592  45.2700218  98.7335861
  63.7891674  46.0700578  98.9399750  64.3585531  45.2808163  97.7803305
  57.5410552  47.1028597  86.6557680  57.5181240  47.2016285  85.7039564
  57.8511188  47.9493748  86.9774847  60.1997930  49.1604752  90.7704295
  61.1541183  49.1288695  90.7034226  60.0010453  48.6995376  91.5854521
  60.7897312  47.7305868  93.3375093  61.6090201  48.2249947  93.3609930
  61.0634119  46.8137837  93.3092660  70.5463908  40.1216621  82.7003048
  69.6589763  40.4066271  82.4823243  70.9617897  39.9610384  81.8530325
  73.8978444  40.1463142  86.4157387  74.6738834  40.6359594  86.6882004
  73.1726578  40.5721196  86.8729257  76.3351003  40.8590761  87.4731328
  76.9295494  40.6186497  86.7624636  76.4077586  40.1397891  88.1004864
  58.5548158  54.7024372  87.7874493  58.4202626  53.9424773  87.2212491
  58.1380221  55.4265272  87.3203282  69.6907121  49.8861295  76.7951068
  70.3942972  50.0911298  77.4108724  68.9669770  50.4538057  77.0600152
  70.5204932  45.6371157  82.9153338  70.4640133  46.0939708  82.0760971
  71.0733274  44.8761841  82.7376181  74.3309738  41.4260888  83.7403458
  74.0746672  41.0257524  84.5711665  73.7062606  42.1404682  83.6153597
  78.6422075  44.1656962  86.2474749  78.0821633  44.2350151  87.0206311
  78.0365579  43.9897946  85.5274245  61.7117284  55.5993689  87.9992935
  61.5949668  56.5439121  87.8971626  60.8909731  55.2967250  88.3878735
  71.5993819  50.3243825  78.8449528  72.4339423  49.8925023  78.6627003
  71.4378162  50.1525838  79.7726423  71.2539711  46.8275938  80.2105867
  71.1988515  46.6620209  79.2694312  70.6285766  47.5351971  80.3668057
  56.0432226  42.0644002  94.0367290  56.6891090  41.5542956  94.5254515
  55.8349377  42.8012684  94.6110715  68.5685618  49.1324850  99.5359430
  69.4376778  49.3065502  99.1746065  68.0892370  49.9519267  99.4135160
  64.5635836  36.3284047  79.7891186  64.5514506  37.2725887  79.9459457
  65.4559258  36.1454192  79.4950647  62.7371798  56.2521951  91.2148864
  63.6399045  56.2845561  91.5315359  62.5109168  55.3222402  91.2295200
  64.4925400  55.0052937  87.8758942  63.5421031  55.0054799  87.7623315
  64.7957887  54.2585672  87.3594977  68.3787956  32.9226824  84.0437123
  67.6120352  32.3685310  84.1893805  68.7898661  32.9948692  84.9051274
  60.3829717  39.2111619  98.1342304  61.2461179  38.8548424  98.3445628
  59.8095128  38.8725514  98.8217708  80.2278094  60.8413476  88.9404705
  80.8656504  60.7220223  88.2368045  80.1098937  61.7894320  88.9992657
  77.0367800  60.7940904  88.8766230  76.6986312  60.6781968  87.9886764
  77.9057568  60.3932069  88.8567236  72.8954616  62.6476380  84.8663120
  72.3319481  62.5566317  84.0979408  72.7807011  61.8276285  85.3465613
  77.5187583  61.9475756  94.8352435  77.5076224  61.5528554  93.9632939
  77.6808223  61.2141828  95.4286207  70.4419048  64.1427572  87.7047341
  71.2340340  63.8018396  87.2893640  70.6815698  64.2522547  88.6249494
  74.2394844  64.7312867  93.7831619  73.9484710  65.6358498  93.6678285
  74.8751829  64.7729395  94.4975689  75.1651051  62.1089716  90.3732979
  75.7614623  61.8845738  89.6589942  75.2226023  61.3674461  90.9758427
  79.7819362  58.5664930  86.0157913  80.5682452  58.1484353  85.6648330
  80.0458067  59.4711022  86.1839561  79.9529440  64.0037780  80.7146570
  79.3175273  64.0772406  81.4267474  79.6226846  64.5931379  80.0365649
  85.1827790  58.5040163  86.9190891  85.9152961  57.9339380  87.1528721
  84.4267145  58.1161763  87.3597397  76.8003909  60.9267404  84.1154234
  76.4362116  60.3998025  84.8267155  77.6571025  60.5365873  83.9420719
  82.7053210  52.2161737  91.3785500  82.3736535  53.0857148  91.1546715
  82.1098823  51.8998021  92.0579530  76.4409396  55.9557304  79.1115582
  76.6083799  56.8237540  79.4786053  76.2506565  56.1184586  78.1876872
  79.1984729  64.4174283  90.7781413  78.8985452  65.3199322  90.6697220
  78.8535789  64.1506466  91.6302566  72.6497211  60.8688080  86.8118117
  71.7247707  60.7364294  87.0195809  72.8981624  61.6482299  87.3088060
  82.5981873  56.9356823  88.4578850  81.6898751  56.8672231  88.1637611
  82.5469469  57.4128768  89.2860676  70.0106022  60.5121353  87.6461906
  70.1398403  60.7655832  88.5601318  69.3303473  61.1049061  87.3266561
  74.1805509  71.1818603  83.7452380  74.1029539  72.1326428  83.8240861
  73.5767153  70.8364476  84.4027307  76.6722739  58.3546469  96.4013747
  75.8956073  58.9140389  96.3916612  77.3113302  58.8403252  96.9228617
  84.4643520  55.1373261  90.2356724  83.8217900  55.4305795  89.5896519
  83.9598448  55.0226182  91.0409921  82.1183683  58.8836435  80.9242583
  83.0301539  59.1163821  80.7490281  81.6093330  59.4673479  80.3617662
  74.9269111  61.1631922  95.9631714  75.6683796  61.7016966  95.6866538
  74.2206097  61.7898211  96.1203266  80.4024451  63.3061062  94.5603876
  80.8107807  62.8643473  93.8158508  79.6801712  62.7313690  94.8138069
  76.7555521  58.2433669  91.9337433  77.6016716  58.6673083  92.0772082
  76.6954159  57.5867294  92.6275996  80.7253266  63.8662253  88.3156165
  80.0962128  64.0307967  87.6132233  80.3378928  64.2803863  89.0867129
  84.6042497  64.8016691  85.6700528  83.9193536  65.1815592  85.1197562
  84.6886347  65.4112018  86.4032476  79.9054966  55.9038038  93.5918606
  79.6615898  56.6580098  93.0552882  80.1814897  56.2823385  94.4265853
  81.8593429  62.4476650  92.2695872  82.0710324  63.0908410  91.5930253
  81.8123177  61.6138966  91.8017802  79.4619658  55.0594471  89.1732444
  78.6004137  55.3575724  89.4649182  79.4882093  55.2764869  88.2413477
  76.2781227  63.6036661  85.5806250  76.7419573  63.8824364  84.7910872
  76.0138026  62.7020106  85.3979340  73.1705309  63.1508143  88.5186013
  73.7406666  63.5795411  87.8803498  73.7613420  62.8690727  89.2170199
  75.2150114  59.7259814  82.3895815  75.9174157  60.1780857  82.8569741
  74.8830742  59.0843632  83.0175708  73.6630475  58.3171570  96.7647024
  73.0329136  58.9987851  96.9982421  73.5566563  58.2054652  95.8200163
  68.9575447  57.9843366  87.6912949  68.1674501  58.2400895  87.2153059
  69.4486695  58.7991704  87.7964989  82.9739257  65.3248605  90.4418229
  83.7956701  64.9228793  90.1600911  82.9701660  65.2216840  91.3934345
  76.7395860  64.8732649  92.5978940  76.8040293  65.3353056  93.4337112
  76.0306784  64.2430014  92.7261250  67.2413150  58.2373857  90.1227939
  67.4921189  59.1220867  90.3885515  67.7772699  58.0578458  89.3503031
  91.0645250  61.6687354  86.7903201  90.3108958  61.0994752  86.6347205
  91.1992791  61.6350018  87.7373836  72.9411218  52.6192336  99.1272275
  72.5478163  52.0658535  99.8019920  73.7577358  52.9302914  99.5178793
  71.7168160  67.1741950  85.1208598  71.8934789  68.0959915  84.9329582
  72.5124994  66.8600370  85.5502978  75.8579179  54.0350215  96.7192532
  76.5988892  54.6357368  96.6396994  76.0897102  53.2927853  96.1610575
  71.0020517  59.2206582  94.9970762  70.8874032  58.3191840  95.2977861
  70.1465035  59.4670279  94.6455578  78.0812355  67.1624323  96.5958262
  77.6376209  66.3760701  96.2779167  78.7429568  67.3503473  95.9302153
  72.8399476  68.6920124  91.1218941  73.3906901  68.5637188  90.3495935
  72.0010952  68.9915013  90.7713834  80.1793593  67.4427123  94.6239664
  80.1612068  68.2636004  94.1319933  81.1013513  67.3181198  94.8489805
  76.6366647  64.9571252  95.4663172  77.1694984  64.1959540  95.2362480
  76.1080728  64.6644904  96.2087326  79.8036342  50.0631318  90.9956814
  79.4600611  50.9532960  90.9195924  80.1715304  49.8732976  90.1326399
  67.8722192  62.3864848  83.8145416  68.7097414  62.7961857  83.5979124
  68.0500460  61.4464291  83.7845610  79.7686624  60.0539929  79.5029249
  79.2533248  60.8244534  79.7417636  79.4963933  59.3805065  80.1262310
  77.3533735  54.8989630  84.5614487  76.4975332  54.5096480  84.3820126
  77.7660687  54.9781591  83.7014273  78.8832882  52.4335973  88.9606047
  78.3797678  52.3966108  88.1473852  79.1763489  53.3428716  89.0202704
  75.1275768  52.5174703  87.9672229  75.9928765  52.3217512  87.6078118
  75.1953277  52.2885055  88.8941585  84.7420899  62.8072284  81.4382422
  83.9650341  62.4683443  80.9937584  85.4212380  62.8124907  80.7637387
  79.5572928  57.9267021  81.3289030  79.2523063  58.2413170  82.1799173
  80.5103370  58.0048441  81.3716363  78.0019359  64.0857245  82.9781984
  77.4740721  63.3510004  82.6655221  77.5006862  64.8631921  82.7321952
  82.9812205  62.2806265  88.0949030  82.3235880  62.9705526  88.1829159
  83.7852605  62.6702697  88.4383017  81.7917664  60.6350638  86.1452972
  82.3049546  61.2680630  86.6474682  82.4418888  60.0351833  85.7796332
  75.0360755  51.6218160  84.0663665  74.3825167  51.3067177  83.4420280
  74.9941229  50.9993900  84.7923488  79.0540038  70.6134962  78.9013643
  78.3801737  70.9166659  79.5098601  79.4405860  71.4164042  78.5519100
  78.2698495  58.1100093  88.3911312  77.3521056  58.3315040  88.2333001
  78.6858639  58.1846404  87.5323020  79.0533543  59.5091509  83.5213993
  79.8005362  60.0212906  83.2121115  79.3225132  59.1875562  84.3818386
  77.3260193  62.0050050  80.5040947  76.4171412  61.7209082  80.6013417
  77.3555277  62.4249128  79.6444254  82.5579460  65.6156639  84.2732115
  82.1041788  64.7747549  84.3297305  81.9273427  66.2518038  84.6106895
  81.5012380  56.5448625  85.5032782  80.7635137  56.0326011  85.8343025
  81.7539154  56.1049007  84.6916059  81.0012400  67.4533136  85.2081933
  81.2935374  68.0138193  84.4894298  81.5111020  67.7461697  85.9635092
  81.6024007  49.3224877  86.0974551  81.9082884  48.4622241  85.8100466
  82.3276612  49.9142497  85.8973545  67.8948363  59.7255564  84.4856149
  67.6972763  59.1324924  83.7607216  67.3395027  59.4207774  85.2032088
  75.8745087  59.6178670  86.6050742  75.9293697  58.6652507  86.5293219
  75.0636289  59.7738109  87.0892041  75.9646025  68.2313487  86.2975386
  75.9222204  68.4574333  85.3683918  76.8808724  67.9976862  86.4461187
  79.4111659  58.6997554  93.1956015  79.7661046  58.9269028  94.0550481
  80.0583790  59.0315931  92.5733270  85.1409396  61.8215990  83.9005344
  85.0027294  62.0117586  82.9726533  84.7845614  62.5835373  84.3573395
  73.3051522  55.8074086  89.9802356  73.9450901  55.6662845  89.2825320
  72.4729052  55.5208599  89.6040958  85.1678775  63.8892517  88.9116616
  85.6015282  63.7967806  89.7599670  85.8810356  63.8650018  88.2736632
  74.0811826  65.1076516  86.0937349  74.8752424  64.6126836  85.8919924
  73.3703518  64.5794379  85.7305054  78.9006670  67.4894611  90.4449716
  78.9543692  68.0585548  91.2127432  78.0321452  67.6596497  90.0803753
  71.7805064  57.1912168  91.9274168  72.4528117  56.9829530  91.2786816
  70.9534850  56.9934254  91.4879400  86.0294325  63.9316218  91.4449501
  86.2230215  64.8362029  91.6908776  85.9294943  63.4723637  92.2788086
  77.6830636  53.8174109  93.9439828  77.0358551  54.5164058  93.8504305
  78.4531651  54.2510253  94.3116077  81.0909433  64.0822961  97.0190382
  80.9394940  63.8533512  96.1020465  81.0814113  65.0393562  97.0321727
  77.8594770  61.6554874  92.0036648  78.7886830  61.8066033  91.8305615
  77.4385800  61.7438894  91.1485295  76.6583102  65.6805538  89.7735186
  76.5194187  65.3124322  90.6461124  75.8697698  66.1953177  89.6019144
  77.2531254  70.7814634  81.1160722  77.4283009  70.3102678  81.9306345
  76.5664042  71.4080401  81.3441983  78.2088317  65.0587141  87.1624024
  77.8738149  65.0187911  88.0581673  77.7092262  64.3931857  86.6894434
  72.1832561  60.4654771  92.6876605  72.0452359  59.7335009  93.2888144
  73.0937484  60.3763671  92.4060792  81.1447508  62.4043175  77.4361083
  80.5276679  61.6790003  77.3394136  80.6763997  63.1652535  77.0928157
  74.8114861  60.1774730  92.1760284  75.5214480  59.5367922  92.1346903
  74.7684170  60.4287625  93.0986465  82.8001640  67.1142083  95.0966864
  82.7414186  66.4301303  94.4297447  83.2021159  67.8561073  94.6447490
  73.5243795  57.1639948  93.9955924  72.9881152  56.7130686  94.6477520
  72.9360504  57.2985857  93.2526388  82.8019047  65.0781667  93.3280843
  81.9145826  64.7407589  93.4507242  83.3717598  64.3464699  93.5649609
  64.4548195  61.4105759  86.6523895  65.1419234  61.0967489  86.0644910
  64.2996323  62.3147124  86.3791146  69.2582917  56.2995956  91.0808918
  69.1741105  55.6921625  90.3459328  68.4365623  56.7904974  91.0818415
  76.3320201  69.7383120  90.2942086  76.2590372  70.5438091  90.8061391
  75.8897594  69.9375085  89.4690108  79.4306631  54.7849519  86.4479113
  79.9275330  54.0319481  86.1280184  78.6593612  54.8213836  85.8822323
  87.2836388  60.4889885  88.0897405  87.2726264  61.3714600  87.7191338
  86.4153767  60.1361435  87.8951942  78.7918884  69.6369954  92.4500245
  79.5046857  70.2717418  92.3776147  78.3008913  69.7333820  91.6340247
  80.5136411  63.5421206  84.0217537  79.5792690  63.6622669  83.8522241
  80.6913080  62.6393673  83.7577547  76.0141599  56.9266902  86.1750798
  75.6439387  56.3737942  86.8631704  76.5100692  56.3225036  85.6225798
  83.9008963  59.3838526  84.5567571  84.3669415  60.2166517  84.4827874
  84.3516463  58.9183507  85.2612829  73.8430798  67.3864397  93.2705816
  74.5440257  68.0200880  93.4235210  73.3725913  67.7279129  92.5101455
  81.9685194  65.7282347  81.5553723  82.2445038  65.6138941  82.4647597
  81.0989692  65.3299832  81.5165896  81.8725625  51.7519113  88.5958472
  80.9588705  51.9823339  88.7640679  82.3018727  51.8357557  89.4472505
  81.6432084  59.9409005  91.0958366  80.9903534  60.1884912  90.4410819
  82.0212464  59.1273143  90.7620844  78.6039258  69.9768698  85.1986537
  78.7861652  69.1590354  85.6614289  79.4272244  70.1936390  84.7611427
  78.9381423  68.9036883  82.4601585  79.4669190  68.3929337  81.8471747
  79.2009643  68.5879413  83.3247118  77.6919657  60.6828816  97.5824403
  77.0160294  60.5822945  98.2526779  78.5147291  60.5268029  98.0460401
  69.4398516  66.9200752  90.2036919  70.0251953  66.1744440  90.3364823
  69.2423354  67.2304709  91.0873582  72.2937171  69.9552000  85.2199361
  71.6247546  70.4398127  84.7363401  72.1550041  70.2021220  86.1342740
  64.0316171  59.4906352  88.9241362  64.0700270  58.9569943  89.7178480
  63.5256463  58.9641558  88.3052339  76.4342440  71.9895743  91.8182019
  76.9860748  72.1527365  92.5831105  76.7748633  72.5800181  91.1462044
  71.4106933  54.3370893  92.4203904  71.4748259  55.1985724  92.0081302
  71.3474053  53.7244895  91.6876263  70.8859205  56.4094025  96.0676938
  71.5131244  56.0271103  96.6814463  70.0287124  56.1908227  96.4332631
  81.2853314  66.8157001  97.6730674  81.8293218  67.4286959  97.1785629
  80.7040159  67.3736579  98.1897687  79.5710827  69.9377719  88.8045702
  79.4461966  69.1367458  88.2956647  80.2289918  70.4323912  88.3159671
  71.1918995  56.2926451  87.9822842  70.4705581  56.9062419  87.8430315
  71.9812251  56.8284216  87.9039488  81.6345735  67.7386739  90.4325252
  80.6876071  67.6192090  90.3603578  81.9828508  66.8509237  90.5151513
  73.9945309  53.6280878  94.2563493  74.5179711  53.8743174  95.0189803
  73.7757642  54.4600912  93.8366631  78.6392169  67.5339455  86.6329604
  78.4917131  66.6056162  86.8137174  79.4645662  67.5559546  86.1486679
  82.2426291  68.3568014  87.7194477  83.1672838  68.1510875  87.5818928
  82.0741594  68.1084415  88.6283818  75.1997854  54.5694573  91.9413164
  74.8594674  53.7702386  92.3433844  74.4936860  54.8696284  91.3689997
  75.8514326  51.6543885  90.3940487  76.6740395  51.1804363  90.2719377
  76.0952389  52.4334369  90.8939173  78.6353683  55.3877293  81.6261721
  78.8517297  56.2701930  81.3250549  78.1547750  54.9963506  80.8967363
  73.3752904  58.3463006  88.2032466  73.2297485  58.6603309  89.0956747
  72.8978108  58.9647906  87.6503364  75.2349287  55.3365554  88.2513355
  75.2210856  54.4406647  87.9145653  75.9521715  55.3436218  88.8851641
  77.0875418  55.7702894  90.2966483  76.8293196  56.6919965  90.2950813
  76.5560458  55.3733328  90.9866947  82.0321607  68.8753681  83.0756568
  82.2058484  68.3100104  82.3230420  82.5250498  69.6754576  82.8936058
  67.8498567  60.8868350  91.1420127  67.3052035  61.6628158  91.2740401
  68.7277916  61.2339155  90.9839248  74.6386183  54.2179934  83.5200925
  74.7602094  53.2896580  83.7191813  74.3488226  54.2318620  82.6079241
  77.5077374  51.9034844  86.6567645  77.5299070  51.9674178  85.7019625
  77.9245433  51.0639353  86.8508151  87.8860998  61.6390104  84.6946868
  88.3292144  60.8897429  84.2965991  87.0087508  61.6300240  84.3120600
  83.0196779  68.1920445  80.1753466  83.7147684  68.8127138  80.3940781
  83.3619929  67.3415797  80.4505844  68.6364588  60.0138246  94.0350284
  67.8946324  60.1620882  94.6214914  68.3157333  60.2746512  93.1717033
  84.9188202  65.6420151  81.7040797  85.4439526  65.9807424  80.9790117
  84.8310555  64.7067166  81.5203932  76.5808251  69.5554225  93.8330674
  76.8895377  69.3103371  94.7053373  77.3783733  69.7600863  93.3449544
  76.6028863  71.7092134  86.0636050  76.1633853  71.2168513  86.7568907
  77.3536980  71.1665102  85.8228125  69.0821202  67.9003675  86.0660678
  69.9079222  67.6007447  85.6859322  68.7315254  67.1311298  86.5150467
  74.0502735  67.2530143  88.1358352  73.4282745  66.5900848  87.8360580
  74.7207602  67.2791275  87.4532000  67.2829807  65.8190002  87.0249612
  66.4461715  65.3912176  86.8433613  67.2553453  66.0122445  87.9620403
  74.1227263  55.7311931  97.7290858  74.1715418  56.6074054  97.3468628
  74.6649777  55.1889324  97.1562501  84.6082108  66.2753055  97.0091995
  83.8177652  66.2577194  96.4696494  84.3715463  66.8141348  97.7641032
  84.7279983  63.1245521  94.3224724  84.7777988  62.9595528  95.2640246
  84.6193907  62.2572780  93.9322604  82.0183746  59.1076449  95.6384030
  82.9193609  58.9682914  95.3468028  82.0931720  59.2730904  96.5782208
  76.3526551  56.4843304  94.4837217  75.4829861  56.7776870  94.2119805
  76.5886032  57.0683749  95.2044480  86.2298180  65.5442463  94.5666745
  85.9382989  65.9072443  95.4030206  85.6170312  64.8309471  94.3880077
  87.4293863  63.1095342  87.0869315  88.2640754  63.5485146  87.2506876
  87.5652991  62.6333996  86.2677561  84.4785369  60.6675077  93.0346803
  84.9539490  60.8602723  92.2265654  83.5550934  60.7234263  92.7890187
  79.0565585  52.7022921  92.0002637  79.5747529  53.4383948  91.6749126
  78.7020718  53.0086914  92.8349396  79.3078179  49.1223203  87.5203534
  79.5879933  48.4546392  88.1463960  80.0928786  49.3152299  87.0078197
  83.1787038  57.5440837  91.2675109  84.1304460  57.6438935  91.2887333
  83.0090488  56.7519106  91.7773193  81.2001417  54.6296420  91.4534510
  80.6051349  54.9101433  90.7580998  80.9151114  55.1190321  92.2251251
  80.3308907  68.5819347  80.2137142  81.2639581  68.5164909  80.4170018
  80.2432120  69.4175614  79.7551675  82.9596924  67.8985218  77.1741090
  82.8810556  67.5645081  78.0676848  83.7806591  68.3906986  77.1732562
  85.6575115  60.7646957  90.3817408  85.6251435  59.8262958  90.5677092
  86.2675739  60.8430994  89.6483233  77.4958446  59.6343010  76.4244612
  78.4417551  59.5049218  76.4933030  77.1172691  58.8957672  76.9014041
  85.8069604  57.5558000  90.4275692  85.2908652  56.7716457  90.2405620
  86.6909552  57.2276717  90.5922211  83.4680331  51.2999016  86.3871504
  83.2705152  50.9914104  87.2714836  84.0780036  52.0260655  86.5169434
  91.4751665  61.8262964  89.5223445  92.2055054  61.5648252  90.0831148
  90.8658611  61.0891686  89.5625513  89.5566962  59.9670826  90.1197896
  88.8300126  59.8326791  89.5114388  89.1414249  60.2747655  90.9254614
  77.3797139  63.6860756  97.8845269  78.3000148  63.8639355  98.0785316
  77.3446722  62.7416801  97.7324969  66.5979304  58.8799350  86.8098544
  66.2782088  58.0264658  86.5172918  66.0512732  59.0947928  87.5656511
  70.3759211  61.5961791  90.5268051  70.5945221  62.5278899  90.5456084
  70.7884985  61.2369765  91.3122854  77.2963429  52.1029876  82.5143739
  76.4864157  51.7576961  82.8898985  77.9847846  51.7937420  83.1031350
  79.2253977  51.1807923  84.1368036  79.7785016  51.6003376  84.7958059
  79.4624064  50.2543671  84.1790992  75.2487077  57.1694996  99.9170799
  75.1483803  58.1189353  99.8482891  75.0308619  56.8413235  99.0446870
  74.4500148  54.4179922  76.5011477  75.3119312  54.7434820  76.7607294
  74.6350492  53.6311417  75.9884543  66.4667564  62.5002261  88.7791666
  65.7731035  62.0856214  88.2661620  67.2140555  62.5422798  88.1825085
  82.6032784  53.2908448  83.6446700  82.0231453  53.9493252  83.2624752
  82.3368717  52.4685793  83.2334117  81.0536351  52.6913506  85.8468020
  81.5536129  52.8030040  85.0382339  81.6971959  52.3874559  86.4868829
  75.1118347  60.5992135  98.7335861  74.6285428  61.3992495  98.9399750
  75.1979286  60.6100080  97.7803305  68.3804306  62.4320515  86.6557680
  68.3574994  62.5308202  85.7039564  68.6904943  63.2785666  86.9774847
  71.0391684  64.4896670  90.7704295  71.9934938  64.4580612  90.7034226
  70.8404208  64.0287294  91.5854521  71.6291066  63.0597786  93.3375093
  72.4483955  63.5541865  93.3609930  71.9027874  62.1429754  93.3092660
  81.3857662  55.4508538  82.7003048  80.4983517  55.7358189  82.4823243
  81.8011652  55.2902302  81.8530325  84.7372199  55.4755059  86.4157387
  85.5132589  55.9651512  86.6882004  84.0120333  55.9013114  86.8729257
  87.1744757  56.1882679  87.4731328  87.7689248  55.9478415  86.7624636
  87.2471341  55.4689809  88.1004864  69.3941913  70.0316290  87.7874493
  69.2596381  69.2716690  87.2212491  68.9773975  70.7557189  87.3203282
  80.5300876  65.2153213  76.7951068  81.2336726  65.4203216  77.4108724
  79.8063525  65.7829975  77.0600152  81.3598686  60.9663074  82.9153338
  81.3033888  61.4231626  82.0760971  81.9127029  60.2053759  82.7376181
  85.1703492  56.7552806  83.7403458  84.9140426  56.3549442  84.5711665
  84.5456360  57.4696600  83.6153597  89.4815830  59.4948879  86.2474749
  88.9215388  59.5642069  87.0206311  88.8759333  59.3189864  85.5274245
  72.5511039  70.9285607  87.9992935  72.4343423  71.8731039  87.8971626
  71.7303485  70.6259168  88.3878735  82.4387573  65.6535742  78.8449528
  83.2733177  65.2216941  78.6627003  82.2771916  65.4817756  79.7726423
  82.0933465  62.1567856  80.2105867  82.0382269  61.9912127  79.2694312
  81.4679521  62.8643888  80.3668057  66.8825980  57.3935920  94.0367290
  67.5284844  56.8834874  94.5254515  66.6743132  58.1304602  94.6110715
  79.4079373  64.4616767  99.5359430  80.2770532  64.6357420  99.1746065
  78.9286124  65.2811184  99.4135160  75.4029591  51.6575965  79.7891186
  75.3908261  52.6017804  79.9459457  76.2953013  51.4746110  79.4950647
  73.5765553  71.5813868  91.2148864  74.4792800  71.6137479  91.5315359
  73.3502923  70.6514319  91.2295200  75.3319155  70.3344855  87.8758942
  74.3814786  70.3346717  87.7623315  75.6351641  69.5877590  87.3594977
  79.2181710  48.2518741  84.0437123  78.4514106  47.6977228  84.1893805
  79.6292415  48.3240610  84.9051274  71.2223471  54.5403537  98.1342304
  72.0854933  54.1840342  98.3445628  70.6488882  54.2017432  98.8217708
  91.0671848  76.1705393  88.9404705  91.7050258  76.0512141  88.2368045
  90.9492691  77.1186237  88.9992657  87.8761555  76.1232821  88.8766230
  87.5380066  76.0073886  87.9886764  88.7451323  75.7223987  88.8567236
  83.7348370  77.9768298  84.8663120  83.1713236  77.8858235  84.0979408
  83.6200765  77.1568202  85.3465613  88.3581338  77.2767673  94.8352435
  88.3469978  76.8820471  93.9632939  88.5201977  76.5433746  95.4286207
  81.2812802  79.4719489  87.7047341  82.0734094  79.1310314  87.2893640
  81.5209452  79.5814465  88.6249494  89.3147929  81.6439266  80.1777585
  88.6635909  82.2293346  79.7911599  90.1092292  82.1745460  80.2372623
  83.2403556  78.7328403  80.5764720  84.0134432  78.1857390  80.4377596
  83.5928955  79.5972652  80.7879181  85.0788599  80.0604785  93.7831619
  84.7878465  80.9650416  93.6678285  85.7145583  80.1021313  94.4975689
  86.0044806  77.4381634  90.3732979  86.6008378  77.2137656  89.6589942
  86.0619777  76.6966379  90.9758427  85.5769834  74.8921069  78.2083170
  85.8295355  74.3702590  77.4466633  84.6394393  74.7287214  78.3109853
  90.6213117  73.8956847  86.0157913  91.4076206  73.4776270  85.6648330
  90.8851821  74.8002939  86.1839561  90.7923194  79.3329698  80.7146570
  90.1569027  79.4064324  81.4267474  90.4620601  79.9223296  80.0365649
  96.0221544  73.8332080  86.9190891  96.7546716  73.2631297  87.1528721
  95.2660900  73.4453681  87.3597397  85.2966123  76.7949175  80.4107545
  85.1802381  76.1194078  81.0788629  85.4068383  76.3081549  79.5939698
  87.6397664  76.2559322  84.1154234  87.2755871  75.7289943  84.8267155
  88.4964780  75.8657791  83.9420719  93.5446964  67.5453655  91.3785500
  93.2130289  68.4149065  91.1546715  92.9492578  67.2289939  92.0579530
  87.2803151  71.2849222  79.1115582  87.4477553  72.1529458  79.4786053
  87.0900320  71.4476503  78.1876872  90.0378484  79.7466201  90.7781413
  89.7379207  80.6491239  90.6697220  89.6929543  79.4798384  91.6302566
  83.4890965  76.1979997  86.8118117  82.5641462  76.0656211  87.0195809
  83.7375379  76.9774217  87.3088060  93.4375628  72.2648741  88.4578850
  92.5292505  72.1964149  88.1637611  93.3863223  72.7420686  89.2860676
  87.2592372  73.7406879  80.0962249  87.1391997  74.1863930  80.9347729
  86.5644960  74.0892197  79.5375787  80.8499776  75.8413271  87.6461906
  80.9792158  76.0947750  88.5601318  80.1697228  76.4340979  87.3266561
  85.0199264  86.5110521  83.7452380  84.9423293  87.4618346  83.8240861
  84.4160907  86.1656393  84.4027307  87.5116493  73.6838386  96.4013747
  86.7349828  74.2432306  96.3916612  88.1507057  74.1695169  96.9228617
  95.3037274  70.4665179  90.2356724  94.6611654  70.7597712  89.5896519
  94.7992203  70.3518099  91.0409921  92.9577438  74.2128352  80.9242583
  93.8695294  74.4455739  80.7490281  92.4487085  74.7965396  80.3617662
  85.7662866  76.4923840  95.9631714  86.5077550  77.0308884  95.6866538
  85.0599851  77.1190128  96.1203266  91.2418205  78.6352980  94.5603876
  91.6501561  78.1935391  93.8158508  90.5195467  78.0605608  94.8138069
  87.5949275  73.5725587  91.9337433  88.4410471  73.9965000  92.0772082
  87.5347913  72.9159211  92.6275996  91.5647020  79.1954171  88.3156165
  90.9355883  79.3599885  87.6132233  91.1772682  79.6095780  89.0867129
  95.4436252  80.1308609  85.6700528  94.7587290  80.5107510  85.1197562
  95.5280101  80.7403935  86.4032476  90.7448721  71.2329955  93.5918606
  90.5009653  71.9872016  93.0552882  91.0208651  71.6115303  94.4265853
  92.6987184  77.7768568  92.2695872  92.9104079  78.4200327  91.5930253
  92.6516932  76.9430884  91.8017802  90.3013413  70.3886388  89.1732444
  89.4397892  70.6867642  89.4649182  90.3275847  70.6056787  88.2413477
  87.1174982  78.9328579  85.5806250  87.5813327  79.2116282  84.7910872
  86.8531780  78.0312023  85.3979340  84.0099063  78.4800060  88.5186013
  84.5800420  78.9087329  87.8803498  84.6007175  78.1982645  89.2170199
  86.0543868  75.0551731  82.3895815  86.7567911  75.5072775  82.8569741
  85.7224496  74.4135550  83.0175708  84.5024230  73.6463488  96.7647024
  83.8722890  74.3279769  96.9982421  84.3960317  73.5346569  95.8200163
  79.7969202  73.3135284  87.6912949  79.0068256  73.5692812  87.2153059
  80.2880449  74.1283622  87.7964989  93.8133012  80.6540523  90.4418229
  94.6350455  80.2520710  90.1600911  93.8095414  80.5508757  91.3934345
  81.7483947  73.6779863  84.6496425  80.9515111  73.7898557  85.1679921
  81.5209540  74.0166515  83.7837316  87.5789615  80.2024566  92.5978940
  87.6434047  80.6644974  93.4337112  86.8700539  79.5721931  92.7261250
  78.0806905  73.5665774  90.1227939  78.3314943  74.4512784  90.3885515
  78.6166453  73.3870376  89.3503031 101.9039005  76.9979272  86.7903201
 101.1502713  76.4286670  86.6347205 102.0386546  76.9641936  87.7373836
  87.2937633  81.8692674  82.4657920  87.1583307  82.7144210  82.8942768
  87.8347445  82.0711951  81.7023854  83.7804972  67.9484254  99.1272275
  83.3871918  67.3950452  99.8019920  84.5971113  68.2594832  99.5178793
  80.7467030  79.3868112  83.0385845  81.2591551  80.1811362  83.1891410
  81.3989743  78.6894402  82.9719447  82.5561915  82.5033868  85.1208598
  82.7328543  83.4251833  84.9329582  83.3518748  82.1892287  85.5502978
  86.6972933  69.3642133  96.7192532  87.4382647  69.9649286  96.6396994
  86.9290856  68.6219771  96.1610575  81.8414271  74.5498500  94.9970762
  81.7267786  73.6483757  95.2977861  80.9858789  74.7962197  94.6455578
  88.9206109  82.4916240  96.5958262  88.4769963  81.7052619  96.2779167
  89.5823323  82.6795391  95.9302153  83.6793230  84.0212042  91.1218941
  84.2300655  83.8929105  90.3495935  82.8404706  84.3206931  90.7713834
  91.0187347  82.7719040  94.6239664  91.0005822  83.5927921  94.1319933
  91.9407267  82.6473115  94.8489805  87.4760401  80.2863170  95.4663172
  88.0088738  79.5251458  95.2362480  86.9474482  79.9936822  96.2087326
  90.6430096  65.3923236  90.9956814  90.2994366  66.2824877  90.9195924
  91.0109059  65.2024893  90.1326399  78.7115947  77.7156766  83.8145416
  79.5491169  78.1253775  83.5979124  78.8894214  76.7756208  83.7845610
  90.6080379  75.3831847  79.5029249  90.0927002  76.1536451  79.7417636
  90.3357687  74.7096983  80.1262310  88.1927490  70.2281548  84.5614487
  87.3369086  69.8388398  84.3820126  88.6054442  70.3073508  83.7014273
  89.7226637  67.7627891  88.9606047  89.2191432  67.7258026  88.1473852
  90.0157243  68.6720634  89.0202704  85.9669522  67.8466621  87.9672229
  86.8322519  67.6509429  87.6078118  86.0347031  67.6176972  88.8941585
  95.5814653  78.1364201  81.4382422  94.8044096  77.7975361  80.9937584
  96.2606134  78.1416825  80.7637387  90.3966682  73.2558939  81.3289030
  90.0916818  73.5705088  82.1799173  91.3497124  73.3340359  81.3716363
  88.8413114  79.4149162  82.9781984  88.3134475  78.6801922  82.6655221
  88.3400617  80.1923839  82.7321952  93.8205960  77.6098183  88.0949030
  93.1629634  78.2997444  88.1829159  94.6246359  77.9994615  88.4383017
  83.5731842  70.0768828  85.3388595  84.1475593  69.8544010  84.6061788
  84.1602824  70.1457523  86.0917197  92.6311419  75.9642555  86.1452972
  93.1443300  76.5972547  86.6474682  93.2812643  75.3643751  85.7796332
  83.9001429  72.1073290  79.3584481  83.0638741  72.4447976  79.6793755
  83.7606198  71.9722269  78.4211618  85.8754509  66.9510077  84.0663665
  85.2218922  66.6359095  83.4420280  85.8334983  66.3285818  84.7923488
  86.9865714  77.2329372  75.9816957  86.0792776  77.0018626  76.1808106
  87.4836746  76.4366992  76.1690938  89.8933793  85.9426880  78.9013643
  89.2195492  86.2458576  79.5098601  90.2799615  86.7455960  78.5519100
  89.1092250  73.4392011  88.3911312  88.1914811  73.6606958  88.2333001
  89.5252393  73.5138321  87.5323020  89.8927297  74.8383427  83.5213993
  90.6399116  75.3504824  83.2121115  90.1618887  74.5167479  84.3818386
  88.1653948  77.3341967  80.5040947  87.2565167  77.0501000  80.6013417
  88.1949031  77.7541046  79.6444254  93.3973215  80.9448557  84.2732115
  92.9435542  80.1039467  84.3297305  92.7667182  81.5809955  84.6106895
  92.3406135  71.8740543  85.5032782  91.6028891  71.3617929  85.8343025
  92.5932908  71.4340924  84.6916059  91.8406154  82.7825054  85.2081933
  92.1329129  83.3430111  84.4894298  92.3504775  83.0753615  85.9635092
  92.4417762  64.6516795  86.0974551  92.7476639  63.7914158  85.8100466
  93.1670367  65.2434415  85.8973545  78.7342118  75.0547481  84.4856149
  78.5366518  74.4616842  83.7607216  78.1788782  74.7499692  85.2032088
  86.7138842  74.9470588  86.6050742  86.7687451  73.9944424  86.5293219
  85.9030044  75.1030027  87.0892041  87.8630035  78.8750711  77.8429026
  87.4249465  78.1586570  77.3834663  88.6040476  79.1026826  77.2814117
  84.6531202  73.5647648  84.3641121  83.8399067  73.8641818  84.7706313
  85.1490196  73.1703336  85.0815603  86.8039779  83.5605405  86.2975386
  86.7615958  83.7866251  85.3683918  87.7202478  83.3268779  86.4461187
  90.2505413  74.0289472  93.1956015  90.6054801  74.2560945  94.0550481
  90.8977544  74.3607849  92.5733270  95.9803150  77.1507908  83.9005344
  95.8421049  77.3409504  82.9726533  95.6239369  77.9127291  84.3573395
  84.1445276  71.1366003  89.9802356  84.7844656  70.9954762  89.2825320
  83.3122807  70.8500517  89.6040958  96.0072530  79.2184435  88.9116616
  96.4409036  79.1259724  89.7599670  96.7204110  79.1941936  88.2736632
  84.9205580  80.4368434  86.0937349  85.7146179  79.9418754  85.8919924
  84.2097273  79.9086297  85.7305054  89.7400425  82.8186529  90.4449716
  89.7937447  83.3877465  91.2127432  88.8715206  82.9888414  90.0803753
  81.2288344  74.5811515  82.1697101  80.2985932  74.5195971  82.3867063
  81.3245816  74.0587468  81.3733743  81.1473893  71.1066328  84.7575343
  81.4080710  72.0211661  84.6484503  81.9691065  70.6390771  84.9071956
  82.6198818  72.5204085  91.9274168  83.2921871  72.3121448  91.2786816
  81.7928605  72.3226171  91.4879400  96.8688079  79.2608136  91.4449501
  97.0623969  80.1653946  91.6908776  96.7688697  78.8015555  92.2788086
  88.5224390  69.1466026  93.9439828  87.8752305  69.8455976  93.8504305
  89.2925405  69.5802170  94.3116077  91.9303188  79.4114878  97.0190382
  91.7788694  79.1825430  96.1020465  91.9207867  80.3685480  97.0321727
  88.6988524  76.9846791  92.0036648  89.6280584  77.1357951  91.8305615
  88.2779554  77.0730812  91.1485295  87.4976856  81.0097456  89.7735186
  87.3587942  80.6416240  90.6461124  86.7091452  81.5245095  89.6019144
  88.0925008  86.1106552  81.1160722  88.2676764  85.6394595  81.9306345
  87.4057796  86.7372318  81.3441983  89.0482071  80.3879058  87.1624024
  88.7131904  80.3479828  88.0581673  88.5486017  79.7223774  86.6894434
  83.0226315  75.7946688  92.6876605  82.8846113  75.0626927  93.2888144
  83.9331239  75.7055588  92.4060792  91.9841263  77.7335093  77.4361083
  91.3670434  77.0081921  77.3394136  91.5157751  78.4944453  77.0928157
  85.6508616  75.5066648  92.1760284  86.3608234  74.8659840  92.1346903
  85.6077924  75.7579543  93.0986465  93.6395395  82.4434001  95.0966864
  93.5807941  81.7593221  94.4297447  94.0414913  83.1852991  94.6447490
  84.3637550  72.4931866  93.9955924  83.8274907  72.0422604  94.6477520
  83.7754258  72.6277774  93.2526388  82.6586093  89.2595915  87.8900582
  82.8982692  89.8914439  88.5679601  81.8155290  88.9083955  88.1765942
  83.7739809  71.9520517  76.5582387  82.8969275  71.8309318  76.1944634
  84.2497562  71.1606595  76.3061276  93.6412802  80.4073585  93.3280843
  92.7539581  80.0699507  93.4507242  94.2111353  79.6756616  93.5649609
  75.2941949  76.7397677  86.6523895  75.9812989  76.4259407  86.0644910
  75.1390078  77.6439041  86.3791146  80.0976671  71.6287873  91.0808918
  80.0134860  71.0213543  90.3459328  79.2759378  72.1196892  91.0818415
  87.1713955  85.0675037  90.2942086  87.0984127  85.8730009  90.8061391
  86.7291348  85.2667003  89.4690108  86.9603735  84.3046807  83.8044908
  86.1771257  84.8468488  83.8983132  87.6596480  84.8220787  84.2039149
  90.2700385  70.1141437  86.4479113  90.7669085  69.3611399  86.1280184
  89.4987367  70.1505753  85.8822323  98.1230142  75.8181802  88.0897405
  98.1120019  76.7006518  87.7191338  97.2547522  75.4653353  87.8951942
  89.6312639  84.9661871  92.4500245  90.3440611  85.6009336  92.3776147
  89.1402667  85.0625737  91.6340247  91.3530166  78.8713124  84.0217537
  90.4186444  78.9914586  83.8522241  91.5306834  77.9685591  83.7577547
  86.8535354  72.2558820  86.1750798  86.4833141  71.7029860  86.8631704
  87.3494446  71.6516953  85.6225798  94.7402717  74.7130443  84.5567571
  95.2063169  75.5458435  84.4827874  95.1910218  74.2475425  85.2612829
  84.6824552  82.7156315  93.2705816  85.3834012  83.3492798  93.4235210
  84.2119667  83.0571046  92.5101455  92.8078948  81.0574265  81.5553723
  93.0838792  80.9430859  82.4647597  91.9383447  80.6591749  81.5165896
  92.7119380  67.0811030  88.5958472  91.7982460  67.3115257  88.7640679
  93.1412481  67.1649474  89.4472505  92.4825838  75.2700922  91.0958366
  91.8297289  75.5176830  90.4410819  92.8606218  74.4565060  90.7620844
  89.4433012  85.3060615  85.1986537  89.6255407  84.4882271  85.6614289
  90.2665998  85.5228308  84.7611427  89.7775178  84.2328801  82.4601585
  90.3062944  83.7221255  81.8471747  90.0403397  83.9171331  83.3247118
  88.5313411  76.0120733  97.5824403  87.8554048  75.9114863  98.2526779
  89.3541045  75.8559947  98.0460401  80.2792270  82.2492670  90.2036919
  80.8645707  81.5036358  90.3364823  80.0817109  82.5596627  91.0873582
  83.1330926  85.2843917  85.2199361  82.4641301  85.7690045  84.7363401
  82.9943795  85.5313138  86.1342740  74.8709925  74.8198270  88.9241362
  74.9094025  74.2861861  89.7178480  74.3650218  74.2933476  88.3052339
  87.2736194  87.3187661  91.8182019  87.8254502  87.4819282  92.5831105
  87.6142388  87.9092099  91.1462044  82.2500687  69.6662811  92.4203904
  82.3142014  70.5277641  92.0081302  82.1867808  69.0536812  91.6876263
  81.7252960  71.7385943  96.0676938  82.3524999  71.3563020  96.6814463
  80.8680879  71.5200145  96.4332631  92.1247069  82.1448918  97.6730674
  92.6686973  82.7578877  97.1785629  91.5433913  82.7028497  98.1897687
  78.5018503  73.5462372  81.9995293  78.7971944  72.6373051  81.9462347
  77.6006538  73.5250112  81.6776295  90.4104581  85.2669636  88.8045702
  90.2855721  84.4659376  88.2956647  91.0683673  85.7615830  88.3159671
  82.0312750  71.6218369  87.9822842  81.3099335  72.2354336  87.8430315
  82.8206005  72.1576134  87.9039488  92.4739490  83.0678656  90.4325252
  91.5269825  82.9484008  90.3603578  92.8222263  82.1801154  90.5151513
  84.8339063  68.9572795  94.2563493  85.3573465  69.2035092  95.0189803
  84.6151397  69.7892830  93.8366631  80.2306344  71.2276470  82.1234618
  79.9019050  70.3473849  81.9409724  80.5845715  71.1724139  83.0111008
  89.4785923  82.8631373  86.6329604  89.3310886  81.9348080  86.8137174
  90.3039417  82.8851463  86.1486679  83.3448167  71.5149440  82.4910096
  83.6844240  72.0435361  81.7688704  83.7920288  71.8529846  83.2668663
  93.0820045  83.6859931  87.7194477  94.0066592  83.4802793  87.5818928
  92.9135348  83.4376332  88.6283818  86.0391608  69.8986490  91.9413164
  85.6988429  69.0994303  92.3433844  85.3330615  70.1988201  91.3689997
  86.6908080  66.9835803  90.3940487  87.5134149  66.5096281  90.2719377
  86.9346144  67.7626287  90.8939173  85.3316315  70.0124061  80.6903389
  86.0524677  70.3905314  80.1867106  84.7081619  70.7312938  80.7938367
  89.4747437  70.7169210  81.6261721  89.6911052  71.5993848  81.3250549
  88.9941505  70.3255424  80.8967363  84.2146659  73.6754923  88.2032466
  84.0691240  73.9895227  89.0956747  83.7371862  74.2939824  87.6503364
  86.0743042  70.6657471  88.2513355  86.0604611  69.7698565  87.9145653
  86.7915470  70.6728135  88.8851641  87.9269172  71.0994812  90.2966483
  87.6686950  72.0211882  90.2950813  87.3954213  70.7025246  90.9866947
  92.8715361  84.2045599  83.0756568  93.0452239  83.6392021  82.3230420
  93.3644252  85.0046494  82.8936058  78.6892321  76.2160268  91.1420127
  78.1445789  76.9920076  91.2740401  79.5671671  76.5631072  90.9839248
  85.4779938  69.5471852  83.5200925  85.5995849  68.6188498  83.7191813
  85.1881980  69.5610538  82.6079241  88.3471128  67.2326762  86.6567645
  88.3692825  67.2966095  85.7019625  88.7639187  66.3931271  86.8508151
  98.7254752  76.9682022  84.6946868  99.1685898  76.2189347  84.2965991
  97.8481263  76.9592158  84.3120600  93.8590534  83.5212363  80.1753466
  94.5541438  84.1419056  80.3940781  94.2013684  82.6707714  80.4505844
  79.4758343  75.3430164  94.0350284  78.7340079  75.4912799  94.6214914
  79.1551087  75.6038430  93.1717033  95.7581957  80.9712069  81.7040797
  96.2833281  81.3099341  80.9790117  95.6704309  80.0359084  81.5203932
  87.4202006  84.8846142  93.8330674  87.7289132  84.6395289  94.7053373
  88.2177488  85.0892781  93.3449544  87.4422618  87.0384052  86.0636050
  87.0027608  86.5460431  86.7568907  88.1930735  86.4957020  85.8228125
  79.9214957  83.2295593  86.0660678  80.7472976  82.9299365  85.6859322
  79.5709009  82.4603215  86.5150467  84.8896490  82.5822061  88.1358352
  84.2676499  81.9192766  87.8360580  85.5601357  82.6083193  87.4532000
  78.1223562  81.1481919  87.0249612  77.2855470  80.7204094  86.8433613
  78.0947207  81.3414363  87.9620403  84.9621017  71.0603849  97.7290858
  85.0109173  71.9365972  97.3468628  85.5043531  70.5181242  97.1562501
  95.4475863  81.6044972  97.0091995  94.6571407  81.5869111  96.4696494
  95.2109217  82.1433266  97.7641032  95.5673738  78.4537439  94.3224724
  95.6171743  78.2887446  95.2640246  95.4587661  77.5864698  93.9322604
  84.4509997  81.1325984  81.6116812  84.5998117  81.8161449  80.9583485
  85.2576440  81.1131074  82.1266268  92.8577500  74.4368367  95.6384030
  93.7587363  74.2974832  95.3468028  92.9325475  74.6022822  96.5782208
  87.1920306  71.8135221  94.4837217  86.3223615  72.1068788  94.2119805
  87.4279786  72.3975666  95.2044480  97.0691935  80.8734380  94.5666745
  96.7776743  81.2364361  95.4030206  96.4564066  80.1601389  94.3880077
  98.2687617  78.4387260  87.0869315  99.1034508  78.8777064  87.2506876
  98.4046746  77.9625913  86.2677561  95.3179123  75.9966995  93.0346803
  95.7933245  76.1894641  92.2265654  94.3944688  76.0526181  92.7890187
  82.2062630  77.1591162  82.6177881  81.9608672  76.2553492  82.8158092
  82.3758544  77.1608312  81.6757359  89.8959339  68.0314838  92.0002637
  90.4141283  68.7675865  91.6749126  89.5414472  68.3378832  92.8349396
  81.4758277  72.8919520  80.1164043  80.7827522  72.9663875  79.4604079
  81.2310029  72.1279863  80.6385560  90.1471934  64.4515121  87.5203534
  90.4273687  63.7838310  88.1463960  90.9322541  64.6444217  87.0078197
  87.9505402  83.6274115  79.0828560  87.3779369  84.2464302  78.6299032
  88.5238196  84.1773477  79.6168482  94.0180792  72.8732755  91.2675109
  94.9698215  72.9730853  91.2887333  93.8484242  72.0811023  91.7773193
  92.0395171  69.9588338  91.4534510  91.4445104  70.2393351  90.7580998
  91.7544868  70.4482239  92.2251251  91.1702662  83.9111265  80.2137142
  92.1033335  83.8456827  80.4170018  91.0825875  84.7467532  79.7551675
  93.7990679  83.2277135  77.1741090  93.7204310  82.8936999  78.0676848
  94.6200345  83.7198903  77.1732562  96.4968870  76.0938875  90.3817408
  96.4645190  75.1554875  90.5677092  97.1069493  76.1722911  89.6483233
  88.3352201  74.9634928  76.4244612  89.2811305  74.8341136  76.4933030
  87.9566446  74.2249590  76.9014041  96.6463358  72.8849918  90.4275692
  96.1302407  72.1008375  90.2405620  97.5303307  72.5568635  90.5922211
  94.3074085  66.6290934  86.3871504  94.1098906  66.3206022  87.2714836
  94.9173791  67.3552573  86.5169434 102.3145420  77.1554881  89.5223445
 103.0448808  76.8940170  90.0831148 101.7052365  76.4183603  89.5625513
 100.3960717  75.2962744  90.1197896  99.6693880  75.1618709  89.5114388
  99.9808004  75.6039573  90.9254614  88.2190893  79.0152674  97.8845269
  89.1393903  79.1931273  98.0785316  88.1840476  78.0708719  97.7324969
  86.5195118  72.8884904  76.3599498  85.6126573  72.5918017  76.4362211
  86.7971099  72.5914722  75.4933784  77.4373058  74.2091267  86.8098544
  77.1175843  73.3556576  86.5172918  76.8906486  74.4239846  87.5656511
  81.2152966  76.9253708  90.5268051  81.4338976  77.8570816  90.5456084
  81.6278740  76.5661683  91.3122854  88.1357184  67.4321794  82.5143739
  87.3257912  67.0868879  82.8898985  88.8241600  67.1229337  83.1031350
  90.0647732  66.5099841  84.1368036  90.6178770  66.9295294  84.7958059
  90.3017818  65.5835589  84.1790992  86.0880831  72.4986914  99.9170799
  85.9877558  73.4481271  99.8482891  85.8702373  72.1705153  99.0446870
  85.2893902  69.7471839  76.5011477  86.1513066  70.0726738  76.7607294
  85.4744247  68.9603335  75.9884543  77.3061318  77.8294179  88.7791666
  76.6124790  77.4148132  88.2661620  78.0534309  77.8714715  88.1825085
  93.4426539  68.6200366  83.6446700  92.8625208  69.2785170  83.2624752
  93.1762472  67.7977710  83.2334117  91.8930105  68.0205423  85.8468020
  92.3929884  68.1321958  85.0382339  92.5365713  67.7166476  86.4868829
  85.9512101  75.9284053  98.7335861  85.4679183  76.7284413  98.9399750
  86.0373040  75.9391998  97.7803305  79.2198061  77.7612433  86.6557680
  79.1968749  77.8600120  85.7039564  79.5298697  78.6077583  86.9774847
  81.8785439  79.8188588  90.7704295  82.8328692  79.7872530  90.7034226
  81.6797962  79.3579211  91.5854521  82.4684821  78.3889704  93.3375093
  83.2877710  78.8833782  93.3609930  82.7421628  77.4721672  93.3092660
  92.2251417  70.7800456  82.7003048  91.3377272  71.0650107  82.4823243
  92.6405406  70.6194219  81.8530325  95.5765953  70.8046977  86.4157387
  96.3526343  71.2943429  86.6882004  94.8514087  71.2305031  86.8729257
  98.0138512  71.5174596  87.4731328  98.6083002  71.2770332  86.7624636
  98.0865095  70.7981727  88.1004864  80.2335667  85.3608207  87.7874493
  80.0990135  84.6008608  87.2212491  79.8167730  86.0849107  87.3203282
  91.3694630  80.5445131  76.7951068  92.0730481  80.7495133  77.4108724
  90.6457279  81.1121893  77.0600152  92.1992441  76.2954992  82.9153338
  92.1427642  76.7523543  82.0760971  92.7520783  75.5345677  82.7376181
  96.0097247  72.0844724  83.7403458  95.7534181  71.6841360  84.5711665
  95.3850115  72.7988518  83.6153597 100.3209584  74.8240797  86.2474749
  99.7609142  74.8933986  87.0206311  99.7153088  74.6481782  85.5274245
  83.3904793  86.2577524  87.9992935  83.2737177  87.2022957  87.8971626
  82.5697240  85.9551086  88.3878735  93.2781328  80.9827660  78.8449528
  94.1126932  80.5508858  78.6627003  93.1165671  80.8109674  79.7726423
  92.9327220  77.4859773  80.2105867  92.8776024  77.3204045  79.2694312
  92.3073275  78.1935806  80.3668057  77.7219735  72.7227838  94.0367290
  78.3678599  72.2126792  94.5254515  77.5136886  73.4596519  94.6110715
  90.2473127  79.7908685  99.5359430  91.1164287  79.9649337  99.1746065
  89.7679879  80.6103102  99.4135160  86.2423345  66.9867882  79.7891186
  86.2302015  67.9309722  79.9459457  87.1346767  66.8038028  79.4950647
  84.4159307  86.9105786  91.2148864  85.3186554  86.9429396  91.5315359
  84.1896677  85.9806237  91.2295200  86.1712909  85.6636773  87.8758942
  85.2208540  85.6638634  87.7623315  86.4745396  84.9169507  87.3594977
  82.0617226  69.8695455  98.1342304  82.9248688  69.5132260  98.3445628
  81.4882637  69.5309350  98.8217708 101.9065603  91.4997311  88.9404705
 102.5444013  91.3804058  88.2368045 101.7886446  92.4478155  88.9992657
  98.7155309  91.4524739  88.8766230  98.3773821  91.3365804  87.9886764
  99.5845077  91.0515904  88.8567236  94.5742125  93.3060216  84.8663120
  94.0106990  93.2150152  84.0979408  94.4594520  92.4860120  85.3465613
  99.1975092  92.6059591  94.8352435  99.1863733  92.2112389  93.9632939
  99.3595732  91.8725663  95.4286207  92.1206557  94.8011407  87.7047341
  92.9127849  94.4602232  87.2893640  92.3603207  94.9106382  88.6249494
 100.1541684  96.9731183  80.1777585  99.5029663  97.5585264  79.7911599
 100.9486046  97.5037378  80.2372623  94.0797311  94.0620320  80.5764720
  94.8528187  93.5149307  80.4377596  94.4322710  94.9264570  80.7879181
  95.9182353  95.3896703  93.7831619  95.6272219  96.2942334  93.6678285
  96.5539338  95.4313230  94.4975689  96.8438560  92.7673551  90.3732979
  97.4402132  92.5429574  89.6589942  96.9013532  92.0258297  90.9758427
  96.4163589  90.2212987  78.2083170  96.6689109  89.6994508  77.4466633
  95.4788148  90.0579132  78.3109853 101.4606871  89.2248765  86.0157913
 102.2469961  88.8068188  85.6648330 101.7245576  90.1294857  86.1839561
 101.6316949  94.6621615  80.7146570 100.9962782  94.7356242  81.4267474
 101.3014355  95.2515214  80.0365649 106.8615299  89.1623998  86.9190891
 107.5940470  88.5923215  87.1528721 106.1054654  88.7745599  87.3597397
  96.1359877  92.1241092  80.4107545  96.0196135  91.4485996  81.0788629
  96.2462137  91.6373466  79.5939698  98.4791418  91.5851240  84.1154234
  98.1149625  91.0581861  84.8267155  99.3358534  91.1949709  83.9420719
 104.3840719  82.8745572  91.3785500 104.0524044  83.7440983  91.1546715
 103.7886332  82.5581856  92.0579530  98.1196905  86.6141139  79.1115582
  98.2871308  87.4821376  79.4786053  97.9294074  86.7768421  78.1876872
 100.8772238  95.0758118  90.7781413 100.5772961  95.9783157  90.6697220
 100.5323298  94.8090301  91.6302566  94.3284720  91.5271915  86.8118117
  93.4035216  91.3948129  87.0195809  94.5769133  92.3066134  87.3088060
 104.2769382  87.5940658  88.4578850 103.3686260  87.5256067  88.1637611
 104.2256978  88.0712603  89.2860676  98.0986126  89.0698797  80.0962249
  97.9785751  89.5155848  80.9347729  97.4038714  89.4184114  79.5375787
  91.6893531  91.1705189  87.6461906  91.8185912  91.4239668  88.5601318
  91.0090982  91.7632897  87.3266561  95.8593018 101.8402439  83.7452380
  95.7817048 102.7910264  83.8240861  95.2554662 101.4948311  84.4027307
  98.3510248  89.0130304  96.4013747  97.5743582  89.5724224  96.3916612
  98.9900811  89.4987087  96.9228617 106.1431029  85.7957097  90.2356724
 105.5005409  86.0889630  89.5896519 105.6385957  85.6810017  91.0409921
 103.7971192  89.5420270  80.9242583 104.7089048  89.7747657  80.7490281
 103.2880839  90.1257314  80.3617662  96.6056620  91.8215757  95.9631714
  97.3471305  92.3600801  95.6866538  95.8993606  92.4482046  96.1203266
 102.0811960  93.9644898  94.5603876 102.4895316  93.5227308  93.8158508
 101.3589221  93.3897525  94.8138069  98.4343030  88.9017505  91.9337433
  99.2804225  89.3256918  92.0772082  98.3741668  88.2451129  92.6275996
 102.4040775  94.5246088  88.3156165 101.7749637  94.6891803  87.6132233
 102.0166437  94.9387698  89.0867129 106.2830006  95.4600526  85.6700528
 105.5981045  95.8399428  85.1197562 106.3673856  96.0695853  86.4032476
 101.5842475  86.5621873  93.5918606 101.3403407  87.3163933  93.0552882
 101.8602406  86.9407221  94.4265853 103.5380938  93.1060485  92.2695872
 103.7497833  93.7492245  91.5930253 103.4910686  92.2722802  91.8017802
 101.1407167  85.7178306  89.1732444 100.2791646  86.0159559  89.4649182
 101.1669602  85.9348705  88.2413477  97.9568736  94.2620496  85.5806250
  98.4207082  94.5408199  84.7910872  97.6925535  93.3603941  85.3979340
  94.8492817  93.8091978  88.5186013  95.4194175  94.2379246  87.8803498
  95.4400929  93.5274563  89.2170199  96.8937622  90.3843649  82.3895815
  97.5961666  90.8364693  82.8569741  96.5618251  89.7427468  83.0175708
  95.3417984  88.9755405  96.7647024  94.7116645  89.6571686  96.9982421
  95.2354072  88.8638487  95.8200163  90.6362956  88.6427202  87.6912949
  89.8462010  88.8984730  87.2153059  91.1274204  89.4575539  87.7964989
 104.6526766  95.9832441  90.4418229 105.4744210  95.5812628  90.1600911
 104.6489169  95.8800675  91.3934345  92.5877702  89.0071781  84.6496425
  91.7908865  89.1190475  85.1679921  92.3603294  89.3458433  83.7837316
  98.4183369  95.5316484  92.5978940  98.4827802  95.9936891  93.4337112
  97.7094293  94.9013849  92.7261250  88.9200659  88.8957692  90.1227939
  89.1708698  89.7804702  90.3885515  89.4560208  88.7162294  89.3503031
 112.7432759  92.3271189  86.7903201 111.9896467  91.7578587  86.6347205
 112.8780300  92.2933854  87.7373836  98.1331387  97.1984591  82.4657920
  97.9977062  98.0436127  82.8942768  98.6741200  97.4003869  81.7023854
  94.6198727  83.2776171  99.1272275  94.2265672  82.7242370  99.8019920
  95.4364867  83.5886750  99.5178793  91.5860785  94.7160030  83.0385845
  92.0985305  95.5103280  83.1891410  92.2383497  94.0186320  82.9719447
  93.3955669  97.8325786  85.1208598  93.5722298  98.7543751  84.9329582
  94.1912503  97.5184205  85.5502978  97.5366688  84.6934050  96.7192532
  98.2776401  85.2941204  96.6396994  97.7684611  83.9511688  96.1610575
  92.6808026  89.8790418  94.9970762  92.5661541  88.9775675  95.2977861
  91.8252543  90.1254114  94.6455578  99.7599863  97.8208158  96.5958262
  99.3163718  97.0344537  96.2779167 100.4217077  98.0087309  95.9302153
  94.5186985  99.3503960  91.1218941  95.0694410  99.2221023  90.3495935
  93.6798461  99.6498849  90.7713834 101.8581102  98.1010958  94.6239664
 101.8399577  98.9219839  94.1319933 102.7801022  97.9765033  94.8489805
  98.3154156  95.6155087  95.4663172  98.8482493  94.8543376  95.2362480
  97.7868237  95.3228739  96.2087326 101.4823851  80.7215153  90.9956814
 101.1388120  81.6116795  90.9195924 101.8502813  80.5316811  90.1326399
  89.5509701  93.0448684  83.8145416  90.3884923  93.4545692  83.5979124
  89.7287969  92.1048126  83.7845610 101.4474133  90.7123764  79.5029249
 100.9320757  91.4828369  79.7417636 101.1751442  90.0388901  80.1262310
  99.0321244  85.5573465  84.5614487  98.1762841  85.1680316  84.3820126
  99.4448196  85.6365426  83.7014273 100.5620391  83.0919809  88.9606047
 100.0585187  83.0549944  88.1473852 100.8550998  84.0012551  89.0202704
  96.8063277  83.1758538  87.9672229  97.6716274  82.9801347  87.6078118
  96.8740786  82.9468890  88.8941585 106.4208408  93.4656119  81.4382422
 105.6437850  93.1267279  80.9937584 107.0999889  93.4708742  80.7637387
 101.2360437  88.5850857  81.3289030 100.9310572  88.8997006  82.1799173
 102.1890879  88.6632276  81.3716363  99.6806868  94.7441080  82.9781984
  99.1528230  94.0093839  82.6655221  99.1794371  95.5215756  82.7321952
 104.6599714  92.9390100  88.0949030 104.0023389  93.6289362  88.1829159
 105.4640114  93.3286532  88.4383017  94.4125596  85.4060746  85.3388595
  94.9869348  85.1835928  84.6061788  94.9996578  85.4749441  86.0917197
 103.4705173  91.2934473  86.1452972 103.9837055  91.9264465  86.6474682
 104.1206397  90.6935669  85.7796332  94.7395183  87.4365207  79.3584481
  93.9032495  87.7739894  79.6793755  94.5999953  87.3014187  78.4211618
  96.7148264  82.2801995  84.0663665  96.0612676  81.9651012  83.4420280
  96.6728738  81.6577736  84.7923488  97.8259469  92.5621290  75.9816957
  96.9186530  92.3310544  76.1808106  98.3230501  91.7658909  76.1690938
 100.7327547 101.2718797  78.9013643 100.0589246 101.5750494  79.5098601
 101.1193369 102.0747878  78.5519100  99.9486004  88.7683929  88.3911312
  99.0308565  88.9898876  88.2333001 100.3646148  88.8430239  87.5323020
 100.7321052  90.1675344  83.5213993 101.4792871  90.6796742  83.2121115
 101.0012641  89.8459397  84.3818386  99.0047702  92.6633885  80.5040947
  98.0958921  92.3792918  80.6013417  99.0342786  93.0832964  79.6444254
 104.2366969  96.2740475  84.2732115 103.7829297  95.4331384  84.3297305
 103.6060936  96.9101873  84.6106895 103.1799889  87.2032461  85.5032782
 102.4422646  86.6909847  85.8343025 103.4326663  86.7632842  84.6916059
 102.6799909  98.1116971  85.2081933 102.9722883  98.6722028  84.4894298
 103.1898529  98.4045532  85.9635092 103.2811516  79.9808713  86.0974551
 103.5870393  79.1206076  85.8100466 104.0064121  80.5726333  85.8973545
  89.5735872  90.3839399  84.4856149  89.3760272  89.7908760  83.7607216
  89.0182536  90.0791609  85.2032088  97.5532596  90.2762506  86.6050742
  97.6081206  89.3236342  86.5293219  96.7423798  90.4321945  87.0892041
  98.7023790  94.2042629  77.8429026  98.2643220  93.4878488  77.3834663
  99.4434231  94.4318744  77.2814117  95.4924956  88.8939565  84.3641121
  94.6792822  89.1933736  84.7706313  95.9883950  88.4995254  85.0815603
  97.6433534  98.8897322  86.2975386  97.6009713  99.1158169  85.3683918
  98.5596233  98.6560697  86.4461187 101.0899168  89.3581390  93.1956015
 101.4448555  89.5852863  94.0550481 101.7371299  89.6899767  92.5733270
 106.8196905  92.4799826  83.9005344 106.6814803  92.6701422  82.9726533
 106.4633123  93.2419209  84.3573395  94.9839031  86.4657921  89.9802356
  95.6238410  86.3246680  89.2825320  94.1516561  86.1792434  89.6040958
 106.8466284  94.5476353  88.9116616 107.2802791  94.4551642  89.7599670
 107.5597865  94.5233853  88.2736632  95.7599335  95.7660351  86.0937349
  96.5539933  95.2710671  85.8919924  95.0491027  95.2378214  85.7305054
 100.5794179  98.1478447  90.4449716 100.6331201  98.7169383  91.2127432
  99.7108960  98.3180332  90.0803753  92.0682098  89.9103433  82.1697101
  91.1379686  89.8487889  82.3867063  92.1639570  89.3879386  81.3733743
  91.9867647  86.4358246  84.7575343  92.2474464  87.3503579  84.6484503
  92.8084820  85.9682688  84.9071956  93.4592573  87.8496003  91.9274168
  94.1315626  87.6413365  91.2786816  92.6322359  87.6518089  91.4879400
 107.7081834  94.5900053  91.4449501 107.9017724  95.4945864  91.6908776
 107.6082452  94.1307472  92.2788086  99.3618145  84.4757944  93.9439828
  98.7146060  85.1747894  93.8504305 100.1319160  84.9094088  94.3116077
 102.7696942  94.7406796  97.0190382 102.6182449  94.5117348  96.1020465
 102.7601622  95.6977398  97.0321727  99.5382279  92.3138709  92.0036648
 100.4674339  92.4649868  91.8305615  99.1173309  92.4022730  91.1485295
  98.3370611  96.3389373  89.7735186  98.1981696  95.9708158  90.6461124
  97.5485207  96.8537013  89.6019144  98.9318763 101.4398470  81.1160722
  99.1070518 100.9686513  81.9306345  98.2451551 102.0664236  81.3441983
  99.8875826  95.7170976  87.1624024  99.5525658  95.6771746  88.0581673
  99.3879771  95.0515692  86.6894434  93.8620070  91.1238606  92.6876605
  93.7239868  90.3918845  93.2888144  94.7724993  91.0347506  92.4060792
 102.8235017  93.0627010  77.4361083 102.2064188  92.3373838  77.3394136
 102.3551506  93.8236371  77.0928157  96.4902370  90.8358565  92.1760284
  97.2001989  90.1951758  92.1346903  96.4471679  91.0871460  93.0986465
 104.4789149  97.7725919  95.0966864 104.4201695  97.0885139  94.4297447
 104.8808667  98.5144909  94.6447490  95.2031304  87.8223783  93.9955924
  94.6668661  87.3714522  94.6477520  94.6148013  87.9569692  93.2526388
  93.4979848 104.5887833  87.8900582  93.7376446 105.2206357  88.5679601
  92.6549044 104.2375873  88.1765942  94.6133563  87.2812435  76.5582387
  93.7363030  87.1601235  76.1944634  95.0891316  86.4898513  76.3061276
 104.4806556  95.7365503  93.3280843 103.5933335  95.3991424  93.4507242
 105.0505107  95.0048534  93.5649609  86.1335703  92.0689594  86.6523895
  86.8206743  91.7551324  86.0644910  85.9783832  92.9730959  86.3791146
  90.9370426  86.9579791  91.0808918  90.8528614  86.3505460  90.3459328
  90.1153132  87.4488809  91.0818415  98.0107710 100.3966955  90.2942086
  97.9377881 101.2021926  90.8061391  97.5685103 100.5958921  89.4690108
  97.7997489  99.6338725  83.8044908  97.0165011 100.1760405  83.8983132
  98.4990235 100.1512705  84.2039149 101.1094140  85.4433354  86.4479113
 101.6062839  84.6903317  86.1280184 100.3381121  85.4797671  85.8822323
 108.9623897  91.1473720  88.0897405 108.9513773  92.0298435  87.7191338
 108.0941276  90.7945271  87.8951942 100.4706393 100.2953789  92.4500245
 101.1834365 100.9301254  92.3776147  99.9796422 100.3917655  91.6340247
 102.1923920  94.2005042  84.0217537 101.2580199  94.3206504  83.8522241
 102.3700589  93.2977508  83.7577547  97.6929108  87.5850737  86.1750798
  97.3226896  87.0321778  86.8631704  98.1888201  86.9808871  85.6225798
 105.5796472  90.0422361  84.5567571 106.0456924  90.8750353  84.4827874
 106.0303972  89.5767343  85.2612829  95.5218307  98.0448232  93.2705816
  96.2227766  98.6784715  93.4235210  95.0513422  98.3862964  92.5101455
 103.6472703  96.3866182  81.5553723 103.9232547  96.2722777  82.4647597
 102.7777201  95.9883667  81.5165896 103.5513134  82.4102948  88.5958472
 102.6376214  82.6407175  88.7640679 103.9806236  82.4941392  89.4472505
 103.3219593  90.5992840  91.0958366 102.6691043  90.8468747  90.4410819
 103.6999973  89.7856978  90.7620844 100.2826767 100.6352533  85.1986537
 100.4649161  99.8174189  85.6614289 101.1059753 100.8520225  84.7611427
 100.6168932  99.5620718  82.4601585 101.1456699  99.0513173  81.8471747
 100.8797152  99.2463248  83.3247118  99.3707166  91.3412651  97.5824403
  98.6947803  91.2406780  98.2526779 100.1934800  91.1851865  98.0460401
  91.1186025  97.5784588  90.2036919  91.7039462  96.8328275  90.3364823
  90.9210863  97.8888544  91.0873582  93.9724680 100.6135835  85.2199361
  93.3035055 101.0981963  84.7363401  93.8337550 100.8605055  86.1342740
  85.7103680  90.1490188  88.9241362  85.7487779  89.6153778  89.7178480
  85.2043972  89.6225393  88.3052339  98.1129949 102.6479578  91.8182019
  98.6648257 102.8111200  92.5831105  98.4536142 103.2384016  91.1462044
  93.0894442  84.9954728  92.4203904  93.1535768  85.8569559  92.0081302
  93.0261562  84.3828730  91.6876263  92.5646714  87.0677861  96.0676938
  93.1918753  86.6854938  96.6814463  91.7074633  86.8492063  96.4332631
  89.3412257  88.8754290  81.9995293  89.6365698  87.9664968  81.9462347
  88.4400293  88.8542029  81.6776295 101.2498336 100.5961554  88.8045702
 101.1249475  99.7951294  88.2956647 101.9077427 101.0907747  88.3159671
  92.8706504  86.9510286  87.9822842  92.1493090  87.5646254  87.8430315
  93.6599760  87.4868051  87.9039488 103.3133244  98.3970574  90.4325252
 102.3663580  98.2775925  90.3603578 103.6616017  97.5093072  90.5151513
  95.6732818  84.2864713  94.2563493  96.1967220  84.5327009  95.0189803
  95.4545151  85.1184748  93.8366631  91.0700099  86.5568388  82.1234618
  90.7412805  85.6765766  81.9409724  91.4239469  86.5016056  83.0111008
 100.3179678  98.1923290  86.6329604 100.1704640  97.2639998  86.8137174
 101.1433171  98.2143381  86.1486679  94.1841922  86.8441357  82.4910096
  94.5237994  87.3727279  81.7688704  94.6314042  87.1821763  83.2668663
 103.9213799  99.0151849  87.7194477 104.8460347  98.8094710  87.5818928
 103.7529103  98.7668250  88.6283818  96.8785363  85.2278408  91.9413164
  96.5382183  84.4286221  92.3433844  96.1724369  85.5280119  91.3689997
  97.5301835  82.3127720  90.3940487  98.3527904  81.8388199  90.2719377
  97.7739898  83.0918204  90.8939173  96.1710069  85.3415979  80.6903389
  96.8918432  85.7197232  80.1867106  95.5475373  86.0604856  80.7938367
 100.3141192  86.0461128  81.6261721 100.5304806  86.9285766  81.3250549
  99.8335259  85.6547341  80.8967363  95.0540413  89.0046841  88.2032466
  94.9084994  89.3187144  89.0956747  94.5765617  89.6231741  87.6503364
  96.9136796  85.9949389  88.2513355  96.8998365  85.0990482  87.9145653
  97.6309224  86.0020053  88.8851641  98.7662927  86.4286729  90.2966483
  98.5080705  87.3503800  90.2950813  98.2347967  86.0317164  90.9866947
 103.7109116  99.5337516  83.0756568 103.8845993  98.9683939  82.3230420
 104.2038007 100.3338411  82.8936058  89.5286076  91.5452186  91.1420127
  88.9839544  92.3211993  91.2740401  90.4065425  91.8922990  90.9839248
  96.3173692  84.8763769  83.5200925  96.4389603  83.9480416  83.7191813
  96.0275735  84.8902455  82.6079241  99.1864883  82.5618680  86.6567645
  99.2086579  82.6258013  85.7019625  99.6032942  81.7223188  86.8508151
 109.5648507  92.2973939  84.6946868 110.0079653  91.5481265  84.2965991
 108.6875017  92.2884076  84.3120600 104.6984288  98.8504281  80.1753466
 105.3935193  99.4710974  80.3940781 105.0407438  97.9999632  80.4505844
  90.3152097  90.6722082  94.0350284  89.5733833  90.8204717  94.6214914
  89.9944842  90.9330347  93.1717033 106.5975711  96.3003986  81.7040797
 107.1227035  96.6391259  80.9790117 106.5098064  95.3651002  81.5203932
  98.2595760 100.2138060  93.8330674  98.5682886  99.9687207  94.7053373
  99.0571242 100.4184698  93.3449544  98.2816372 102.3675970  86.0636050
  97.8421362 101.8752348  86.7568907  99.0324489 101.8248937  85.8228125
  90.7608711  98.5587511  86.0660678  91.5866731  98.2591282  85.6859322
  90.4102763  97.7895133  86.5150467  95.7290244  97.9113979  88.1358352
  95.1070253  97.2484684  87.8360580  96.3995111  97.9375111  87.4532000
  88.9617316  96.4773837  87.0249612  88.1249224  96.0496011  86.8433613
  88.9340962  96.6706280  87.9620403  95.8014772  86.3895767  97.7290858
  95.8502927  87.2657890  97.3468628  96.3437286  85.8473160  97.1562501
 106.4067492  93.7829356  94.3224724 106.4565497  93.6179364  95.2640246
 106.2981416  92.9156615  93.9322604  95.2903751  96.4617902  81.6116812
  95.4391871  97.1453366  80.9583485  96.0970195  96.4422992  82.1266268
 103.6971255  89.7660284  95.6384030 104.5981118  89.6266749  95.3468028
 103.7719229  89.9314739  96.5782208  98.0314060  87.1427139  94.4837217
  97.1617370  87.4360705  94.2119805  98.2673541  87.7267584  95.2044480
 107.9085689  96.2026298  94.5666745 107.6170498  96.5656278  95.4030206
 107.2957821  95.4893306  94.3880077 109.1081372  93.7679178  87.0869315
 109.9428263  94.2068982  87.2506876 109.2440500  93.2917831  86.2677561
 106.1572878  91.3258913  93.0346803 106.6326999  91.5186559  92.2265654
 105.2338443  91.3818098  92.7890187  93.0456384  92.4883080  82.6177881
  92.8002426  91.5845410  82.8158092  93.2152299  92.4900230  81.6757359
 100.7353094  83.3606756  92.0002637 101.2535038  84.0967783  91.6749126
 100.3808227  83.6670749  92.8349396  92.3152032  88.2211437  80.1164043
  91.6221277  88.2955792  79.4604079  92.0703784  87.4571781  80.6385560
 100.9865688  79.7807039  87.5203534 101.2667442  79.1130228  88.1463960
 101.7716295  79.9736134  87.0078197  98.7899157  98.9566033  79.0828560
  98.2173124  99.5756220  78.6299032  99.3631950  99.5065394  79.6168482
 104.8574547  88.2024673  91.2675109 105.8091969  88.3022770  91.2887333
 104.6877997  87.4102941  91.7773193 102.8788926  85.2880256  91.4534510
 102.2838858  85.5685269  90.7580998 102.5938623  85.7774157  92.2251251
 102.0096416  99.2403183  80.2137142 102.9427090  99.1748744  80.4170018
 101.9219629 100.0759450  79.7551675 104.6384433  98.5569053  77.1741090
 104.5598065  98.2228917  78.0676848 105.4594100  99.0490821  77.1732562
 107.3362624  91.4230792  90.3817408 107.3038944  90.4846793  90.5677092
 107.9463248  91.5014829  89.6483233  99.1745955  90.2926845  76.4244612
 100.1205060  90.1633053  76.4933030  98.7960200  89.5541507  76.9014041
 107.4857113  88.2141836  90.4275692 106.9696161  87.4300292  90.2405620
 108.3697061  87.8860552  90.5922211 105.1467840  81.9582851  86.3871504
 104.9492661  81.6497939  87.2714836 105.7567545  82.6844490  86.5169434
 113.1539174  92.4846799  89.5223445 113.8842563  92.2232087  90.0831148
 112.5446120  91.7475521  89.5625513 111.2354471  90.6254662  90.1197896
 110.5087635  90.4910627  89.5114388 110.8201758  90.9331490  90.9254614
  99.0584648  94.3444591  97.8845269  99.9787657  94.5223190  98.0785316
  99.0234231  93.4000637  97.7324969  97.3588872  88.2176822  76.3599498
  96.4520328  87.9209934  76.4362211  97.6364853  87.9206640  75.4933784
  88.2766813  89.5383185  86.8098544  87.9569597  88.6848493  86.5172918
  87.7300241  89.7531763  87.5656511  92.0546720  92.2545626  90.5268051
  92.2732730  93.1862734  90.5456084  92.4672494  91.8953600  91.3122854
  98.9750938  82.7613711  82.5143739  98.1651666  82.4160796  82.8898985
  99.6635355  82.4521255  83.1031350 100.9041486  81.8391758  84.1368036
 101.4572525  82.2587212  84.7958059 101.1411573  80.9127506  84.1790992
  96.9274586  87.8278832  99.9170799  96.8271312  88.7773189  99.8482891
  96.7096128  87.4997071  99.0446870  96.1287657  85.0763757  76.5011477
  96.9906821  85.4018655  76.7607294  96.3138001  84.2895253  75.9884543
  88.1455073  93.1586097  88.7791666  87.4518544  92.7440049  88.2661620
  88.8928064  93.2006633  88.1825085 104.2820293  83.9492283  83.6446700
 103.7018962  84.6077087  83.2624752 104.0156226  83.1269628  83.2334117
 102.7323860  83.3497341  85.8468020 103.2323638  83.4613876  85.0382339
 103.3759468  83.0458394  86.4868829  96.7905856  91.2575971  98.7335861
  96.3072937  92.0576331  98.9399750  96.8766795  91.2683916  97.7803305
  90.0591815  93.0904350  86.6557680  90.0362503  93.1892038  85.7039564
  90.3692452  93.9369501  86.9774847  92.7179193  95.1480505  90.7704295
  93.6722447  95.1164448  90.7034226  92.5191717  94.6871129  91.5854521
  93.3078575  93.7181621  93.3375093  94.1271464  94.2125700  93.3609930
  93.5815383  92.8013590  93.3092660 103.0645171  86.1092374  82.7003048
 102.1771026  86.3942024  82.4823243 103.4799160  85.9486137  81.8530325
 106.4159708  86.1338895  86.4157387 107.1920098  86.6235347  86.6882004
 105.6907842  86.5596949  86.8729257 108.8532266  86.8466514  87.4731328
 109.4476757  86.6062250  86.7624636 108.9258850  86.1273644  88.1004864
  91.0729422 100.6900125  87.7874493  90.9383890  99.9300526  87.2212491
  90.6561484 101.4141025  87.3203282 102.2088385  95.8737048  76.7951068
 102.9124235  96.0787051  77.4108724 101.4851034  96.4413810  77.0600152
 103.0386195  91.6246910  82.9153338 102.9821397  92.0815461  82.0760971
 103.5914538  90.8637594  82.7376181 106.8491001  87.4136642  83.7403458
 106.5927935  87.0133277  84.5711665 106.2243869  88.1280435  83.6153597
 111.1603339  90.1532715  86.2474749 110.6002897  90.2225904  87.0206311
 110.5546842  89.9773699  85.5274245  94.2298548 101.5869442  87.9992935
  94.1130932 102.5314874  87.8971626  93.4090994 101.2843003  88.3878735
 104.1175082  96.3119578  78.8449528 104.9520686  95.8800776  78.6627003
 103.9559425  96.1401591  79.7726423 103.7720974  92.8151691  80.2105867
 103.7169778  92.6495962  79.2694312 103.1467030  93.5227724  80.3668057
  88.5613489  88.0519755  94.0367290  89.2072353  87.5418709  94.5254515
  88.3530641  88.7888437  94.6110715  97.0817100  82.3159800  79.7891186
  97.0695770  83.2601640  79.9459457  97.9740522  82.1329945  79.4950647
  95.2553062 102.2397704  91.2148864  96.1580309 102.2721314  91.5315359
  95.0290432 101.3098155  91.2295200  97.0106664 100.9928690  87.8758942
  96.0602295 100.9930552  87.7623315  97.3139150 100.2461425  87.3594977
 100.8969219  78.9102577  84.0437123 100.1301615  78.3561063  84.1893805
 101.3079924  78.9824445  84.9051274  92.9010980  85.1987372  98.1342304
  93.7642442  84.8424177  98.3445628  92.3276391  84.8601267  98.8217708
 105.4135879 108.6352133  84.8663120 104.8500744 108.5442070  84.0979408
 105.2988274 107.8152038  85.3465613 102.9600311 110.1303325  87.7047341
 103.7521603 109.7894149  87.2893640 103.1996961 110.2398300  88.6249494
 104.9191065 109.3912238  80.5764720 105.6921941 108.8441225  80.4377596
 105.2716464 110.2556487  80.7879181 107.2557343 105.5504904  78.2083170
 107.5082864 105.0286425  77.4466633 106.3181902 105.3871050  78.3109853
 112.3000626 104.5540683  86.0157913 113.0863715 104.1360106  85.6648330
 112.5639330 105.4586775  86.1839561 106.9753632 107.4533010  80.4107545
 106.8589890 106.7777914  81.0788629 107.0855892 106.9665384  79.5939698
 109.3185173 106.9143157  84.1154234 108.9543380 106.3873778  84.8267155
 110.1752289 106.5241626  83.9420719 108.9590660 101.9433057  79.1115582
 109.1265062 102.8113293  79.4786053 108.7687829 102.1060339  78.1876872
 105.1678474 106.8563833  86.8118117 104.2428971 106.7240047  87.0195809
 105.4162888 107.6358052  87.3088060 108.9379881 104.3990714  80.0962249
 108.8179506 104.8447765  80.9347729 108.2432469 104.7476032  79.5375787
 102.5287285 106.4997106  87.6461906 102.6579667 106.7531585  88.5601318
 101.8484737 107.0924814  87.3266561 114.6364947 104.8712188  80.9242583
 115.5482803 105.1039574  80.7490281 114.1274594 105.4549232  80.3617662
 111.9800922 101.0470224  89.1732444 111.1185401 101.3451477  89.4649182
 112.0063356 101.2640623  88.2413477 108.7962491 109.5912414  85.5806250
 109.2600836 109.8700117  84.7910872 108.5319289 108.6895859  85.3979340
 107.7331377 105.7135567  82.3895815 108.4355420 106.1656610  82.8569741
 107.4012005 105.0719385  83.0175708 101.4756711 103.9719119  87.6912949
 100.6855765 104.2276648  87.2153059 101.9667958 104.7867457  87.7964989
 103.4271456 104.3363698  84.6496425 102.6302620 104.4482393  85.1679921
 103.1997049 104.6750351  83.7837316  99.7594414 104.2249610  90.1227939
 100.0102452 105.1096620  90.3885515 100.2953962 104.0454211  89.3503031
 102.4254539 110.0451947  83.0385845 102.9379060 110.8395197  83.1891410
 103.0777252 109.3478238  82.9719447 104.2349424 113.1617703  85.1208598
 104.4116052 114.0835668  84.9329582 105.0306257 112.8476123  85.5502978
 112.3217605  96.0507071  90.9956814 111.9781875  96.9408713  90.9195924
 112.6896568  95.8608729  90.1326399 100.3903456 108.3740602  83.8145416
 101.2278678 108.7837610  83.5979124 100.5681723 107.4340044  83.7845610
 112.2867888 106.0415682  79.5029249 111.7714511 106.8120287  79.7417636
 112.0145196 105.3680818  80.1262310 109.8714999 100.8865383  84.5614487
 109.0156595 100.4972233  84.3820126 110.2841951 100.9657344  83.7014273
 111.4014146  98.4211726  88.9606047 110.8978941  98.3841861  88.1473852
 111.6944752  99.3304469  89.0202704 107.6457031  98.5050456  87.9672229
 108.5110028  98.3093265  87.6078118 107.7134540  98.2760808  88.8941585
 112.0754191 103.9142774  81.3289030 111.7704327 104.2288923  82.1799173
 113.0284633 103.9924194  81.3716363 110.5200623 110.0732998  82.9781984
 109.9921984 109.3385757  82.6655221 110.0188126 110.8507674  82.7321952
 105.2519351 100.7352664  85.3388595 105.8263102 100.5127845  84.6061788
 105.8390333 100.8041358  86.0917197 105.5788938 102.7657125  79.3584481
 104.7426250 103.1031811  79.6793755 105.4393707 102.6306105  78.4211618
 107.5542018  97.6093913  84.0663665 106.9006431  97.2942930  83.4420280
 107.5122492  96.9869653  84.7923488 108.6653223 107.8913208  75.9816957
 107.7580285 107.6602461  76.1808106 109.1624255 107.0950827  76.1690938
 110.7879759 104.0975846  88.3911312 109.8702320 104.3190793  88.2333001
 111.2039902 104.1722157  87.5323020 111.5714806 105.4967262  83.5213993
 112.3186625 106.0088659  83.2121115 111.8406396 105.1751315  84.3818386
 109.8441457 107.9925803  80.5040947 108.9352676 107.7084836  80.6013417
 109.8736540 108.4124881  79.6444254 114.0193644 102.5324378  85.5032782
 113.2816400 102.0201764  85.8343025 114.2720417 102.0924760  84.6916059
 114.1205271  95.3100630  86.0974551 114.4264148  94.4497994  85.8100466
 114.8457876  95.9018250  85.8973545 100.4129627 105.7131317  84.4856149
 100.2154027 105.1200678  83.7607216  99.8576291 105.4083527  85.2032088
 108.3926351 105.6054423  86.6050742 108.4474960 104.6528260  86.5293219
 107.5817553 105.7613862  87.0892041 109.5417544 109.5334546  77.8429026
 109.1036974 108.8170405  77.3834663 110.2827985 109.7610661  77.2814117
 106.3318710 104.2231483  84.3641121 105.5186576 104.5225654  84.7706313
 106.8277705 103.8287172  85.0815603 105.8232785 101.7949839  89.9802356
 106.4632165 101.6538598  89.2825320 104.9910316 101.5084352  89.6040958
 106.5993089 111.0952269  86.0937349 107.3933688 110.6002589  85.8919924
 105.8884782 110.5670132  85.7305054 102.9075853 105.2395351  82.1697101
 101.9773441 105.1779806  82.3867063 103.0033325 104.7171303  81.3733743
 102.8261402 101.7650164  84.7575343 103.0868219 102.6795497  84.6484503
 103.6478574 101.2974606  84.9071956 104.2986327 103.1787921  91.9274168
 104.9709380 102.9705283  91.2786816 103.4716114 102.9810007  91.4879400
 113.6628772 108.3918928  77.4361083 113.0457943 107.6665756  77.3394136
 113.1945260 109.1528288  77.0928157 105.4527318 102.6104352  76.5582387
 104.5756784 102.4893153  76.1944634 105.9285071 101.8190431  76.3061276
  96.9729458 107.3981512  86.6523895  97.6600498 107.0843242  86.0644910
  96.8177587 108.3022877  86.3791146 101.7764180 102.2871709  91.0808918
 101.6922369 101.6797378  90.3459328 100.9546887 102.7780727  91.0818415
 111.9487894 100.7725272  86.4479113 112.4456594 100.0195234  86.1280184
 111.1774876 100.8089589  85.8822323 113.0317675 109.5296959  84.0217537
 112.0973953 109.6498422  83.8522241 113.2094343 108.6269426  83.7577547
 108.5322863 102.9142655  86.1750798 108.1620650 102.3613696  86.8631704
 109.0281955 102.3100789  85.6225798 116.4190226 105.3714279  84.5567571
 116.8850678 106.2042270  84.4827874 116.8697727 104.9059260  85.2612829
 114.3906889  97.7394866  88.5958472 113.4769969  97.9699092  88.7640679
 114.8199990  97.8233310  89.4472505  96.5497434 105.4782105  88.9241362
  96.5881534 104.9445696  89.7178480  96.0437727 104.9517311  88.3052339
 103.9288196 100.3246646  92.4203904 103.9929523 101.1861477  92.0081302
 103.8655317  99.7120648  91.6876263 100.1806012 104.2046208  81.9995293
 100.4759453 103.2956886  81.9462347  99.2794047 104.1833947  81.6776295
 103.7100259 102.2802204  87.9822842 102.9886844 102.8938172  87.8430315
 104.4993514 102.8159969  87.9039488 101.9093853 101.8860305  82.1234618
 101.5806559 101.0057684  81.9409724 102.2633224 101.8307974  83.0111008
 105.0235676 102.1733275  82.4910096 105.3631749 102.7019196  81.7688704
 105.4707797 102.5113681  83.2668663 107.7179117 100.5570326  91.9413164
 107.3775938  99.7578139  92.3433844 107.0118124 100.8572037  91.3689997
 108.3695589  97.6419638  90.3940487 109.1921658  97.1680116  90.2719377
 108.6133653  98.4210122  90.8939173 107.0103824 100.6707897  80.6903389
 107.7312186 101.0489149  80.1867106 106.3869128 101.3896773  80.7938367
 111.1534946 101.3753046  81.6261721 111.3698561 102.2577683  81.3250549
 110.6729014 100.9839259  80.8967363 105.8934168 104.3338759  88.2032466
 105.7478749 104.6479062  89.0956747 105.4159371 104.9523659  87.6503364
 107.7530551 101.3241307  88.2513355 107.7392119 100.4282400  87.9145653
 108.4702979 101.3311971  88.8851641 109.6056681 101.7578647  90.2966483
 109.3474459 102.6795718  90.2950813 109.0741722 101.3609082  90.9866947
 100.3679830 106.8744103  91.1420127  99.8233298 107.6503911  91.2740401
 101.2459180 107.2214908  90.9839248 107.1567447 100.2055687  83.5200925
 107.2783358  99.2772333  83.7191813 106.8669489 100.2194373  82.6079241
 110.0258637  97.8910598  86.6567645 110.0480334  97.9549931  85.7019625
 110.4426696  97.0515106  86.8508151 101.6002466 113.8879428  86.0660678
 102.4260485 113.5883200  85.6859322 101.2496518 113.1187051  86.5150467
  99.8011071 111.8065755  87.0249612  98.9642979 111.3787929  86.8433613
  99.7734716 111.9998198  87.9620403 106.1297506 111.7909820  81.6116812
 106.2785626 112.4745284  80.9583485 106.9363949 111.7714910  82.1266268
 103.8850139 107.8174997  82.6177881 103.6396181 106.9137327  82.8158092
 104.0546053 107.8192148  81.6757359 103.1545786 103.5503355  80.1164043
 102.4615031 103.6247710  79.4604079 102.9097538 102.7863699  80.6385560
 111.8259443  95.1098956  87.5203534 112.1061196  94.4422145  88.1463960
 112.6110050  95.3028052  87.0078197 110.0139710 105.6218763  76.4244612
 110.9598814 105.4924971  76.4933030 109.6353955 104.8833425  76.9014041
 115.9861594  97.2874769  86.3871504 115.7886415  96.9789857  87.2714836
 116.5961300  98.0136408  86.5169434 108.1982627 103.5468739  76.3599498
 107.2914082 103.2501852  76.4362211 108.4758608 103.2498557  75.4933784
  99.1160567 104.8675103  86.8098544  98.7963352 104.0140411  86.5172918
  98.5693995 105.0823681  87.5656511 109.8144693  98.0905629  82.5143739
 109.0045421  97.7452714  82.8898985 110.5029109  97.7813173  83.1031350
 111.7435241  97.1683676  84.1368036 112.2966279  97.5879129  84.7958059
 111.9805327  96.2419424  84.1790992 106.9681411 100.4055675  76.5011477
 107.8300575 100.7310573  76.7607294 107.1531756  99.6187170  75.9884543
  98.9848827 108.4878014  88.7791666  98.2912299 108.0731967  88.2661620
  99.7321818 108.5298551  88.1825085 115.1214048  99.2784201  83.6446700
 114.5412717  99.9369005  83.2624752 114.8549981  98.4561546  83.2334117
 113.5717614  98.6789259  85.8468020 114.0717393  98.7905793  85.0382339
 114.2153222  98.3750312  86.4868829 100.8985570 108.4196268  86.6557680
 100.8756258 108.5183955  85.7039564 101.2086206 109.2661419  86.9774847
 113.9038926 101.4384291  82.7003048 113.0164781 101.7233942  82.4823243
 114.3192915 101.2778055  81.8530325 117.2553462 101.4630812  86.4157387
 118.0313852 101.9527265  86.6882004 116.5301596 101.8888867  86.8729257
 113.8779950 106.9538827  82.9153338 113.8215151 107.4107379  82.0760971
 114.4308292 106.1929512  82.7376181 117.6884756 102.7428559  83.7403458
 117.4321690 102.3425195  84.5711665 117.0637624 103.4572353  83.6153597
 114.6114729 108.1443609  80.2105867 114.5563533 107.9787880  79.2694312
 113.9860784 108.8519641  80.3668057  99.4007244 103.3811673  94.0367290
 100.0466108 102.8710627  94.5254515  99.1924395 104.1180355  94.6110715
 107.9210854  97.6451718  79.7891186 107.9089524  98.5893558  79.9459457
 108.8134276  97.4621863  79.4950647 111.7362974  94.2394494  84.0437123
 110.9695370  93.6852981  84.1893805 112.1473679  94.3116363  84.9051274
  44.5186538  -8.1872727  75.6011536  44.1805050  -8.3031662  74.7132071
  45.3876306  -8.5881562  75.5812542  40.3773354  -6.3337250  71.5908427
  39.8138219  -6.4247313  70.8224715  40.2625749  -7.1537346  72.0710920
  45.0006321  -7.0337875  81.5597742  44.9894962  -7.4285077  80.6878245
  45.1626960  -7.7671802  82.1531513  37.9237786  -4.8386059  74.4292648
  38.7159078  -5.1795234  74.0138947  38.1634436  -4.7291084  75.3494801
  45.9572912  -2.6666283  66.9022892  45.3060892  -2.0812202  66.5156906
  46.7517275  -2.1360088  66.9617930  39.8828540  -5.5777145  67.3010026
  40.6559416  -6.1248158  67.1622902  40.2353938  -4.7132896  67.5124488
  41.7213582  -4.2500763  80.5076926  41.4303448  -3.3455132  80.3923592
  42.3570566  -4.2084236  81.2220995  42.6469789  -6.8723915  77.0978285
  43.2433361  -7.0967892  76.3835248  42.7044760  -7.6139169  77.7003733
  47.4348178  -4.9775851  67.4391876  46.7994011  -4.9041224  68.1512781
  47.1045584  -4.3882252  66.7610956  41.9391106  -7.5156373  67.1352851
  41.8227364  -8.1911470  67.8033936  42.0493366  -8.0023999  66.3185004
  44.2822647  -8.0546226  70.8399541  43.9180854  -8.5815605  71.5512462
  45.1389763  -8.4447757  70.6666026  46.6803467  -4.5639348  77.5026719
  46.3804190  -3.6614309  77.3942527  46.3354527  -4.8307164  78.3547872
  40.1315949  -8.1125551  73.5363424  39.2066445  -8.2449337  73.7441116
  40.3800362  -7.3331332  74.0333366  41.6624247   2.2004973  70.4697687
  41.5848277   3.1512798  70.5486168  41.0585891   1.8550845  71.1272613
  42.4087849  -7.8181708  82.6877021  43.1502533  -7.2796665  82.4111845
  41.7024835  -7.1915420  82.8448573  47.8843189  -5.6752568  81.2849182
  48.2926545  -6.1170157  80.5403815  47.1620450  -6.2499940  81.5383375
  48.2072003  -5.1151377  75.0401471  47.5780866  -4.9505663  74.3377539
  47.8197665  -4.7009768  75.8112435  52.0861235  -4.1796940  72.3945835
  51.4012273  -3.7998038  71.8442868  52.1705085  -3.5701613  73.1277783
  49.3412167  -6.5336981  78.9941179  49.5529062  -5.8905221  78.3175560
  49.2941915  -7.3674664  78.5263109  43.7599965  -5.3776969  72.3051556
  44.2238311  -5.0989266  71.5156179  43.4956763  -6.2793525  72.1224647
  40.6524046  -5.8305488  75.2431320  41.2225403  -5.4018219  74.6048804
  41.2432158  -6.1122903  75.9415505  50.4557995  -3.6565025  77.1663536
  51.2775439  -4.0584838  76.8846218  50.4520398  -3.7596791  78.1179652
  44.2214598  -4.1080982  79.3224246  44.2859031  -3.6460575  80.1582418
  43.5125522  -4.7383617  79.4506556  43.9362616  -2.4412874  69.1903227
  43.8008291  -1.5961339  69.6188075  44.4772428  -2.2393597  68.4269161
  37.3892013  -4.9237436  69.7631152  37.9016534  -4.1294186  69.9136717
  38.0414726  -5.6211146  69.6964753  39.1986898  -1.8071680  71.8453905
  39.3753526  -0.8853715  71.6574889  39.9943732  -2.1213261  72.2748285
  45.5631092  -1.8189308  83.3203569  45.1194946  -2.6052929  83.0024473
  46.2248306  -1.6310157  82.6547460  40.3218213  -0.2893506  77.8464247
  40.8725639  -0.4176443  77.0741241  39.4829689   0.0101383  77.4959140
  47.6612330  -1.5386508  81.3484970  47.6430806  -0.7177627  80.8565239
  48.5832250  -1.6632433  81.5735111  44.1185385  -4.0242378  82.1908479
  44.6513721  -4.7854090  81.9607787  43.5899466  -4.3168727  82.9332633
  45.4838097  -4.8956386  69.7027291  44.9559459  -5.6303626  69.3900528
  44.9825600  -4.1181710  69.4567259  50.4630943  -6.7007365  74.8194337
  49.8054618  -6.0108104  74.9074465  51.2671342  -6.3110933  75.1628323
  43.6290697  -7.0776176  62.7062264  42.7217759  -7.3086922  62.9053413
  44.1261729  -7.8738556  62.8936245  46.5358776   1.6321332  65.6258950
  45.8620475   1.9353028  66.2343908  46.9224598   2.4350412  65.2764407
  44.8078931  -6.9763581  67.2286254  43.8990150  -7.2604548  67.3258723
  44.8374015  -6.5564502  66.3689561  50.0398198  -3.3656991  70.9977421
  49.5860525  -4.2066081  71.0542612  49.4092165  -2.7295593  71.3352201
  48.4831137  -1.5280495  71.9327239  48.7754112  -0.9675437  71.2139605
  48.9929758  -1.2351934  72.6880398  44.5055019  -5.4354837  64.5674332
  44.0674449  -6.1518978  64.1079970  45.2465460  -5.2078722  64.0059424
  43.4464763  -0.7500143  73.0220693  43.4040941  -0.5239297  72.0929225
  44.3627462  -0.9836769  73.1706494  52.6497513  -5.0921113  75.6361922
  53.0834020  -5.1845824  76.4844976  53.3629094  -5.1163613  74.9981938
  41.5630563  -3.8737114  72.8182655  42.3571162  -4.3686794  72.6165230
  40.8522256  -4.4019251  72.4550361  46.3825408  -1.4919019  77.1695023
  46.4362430  -0.9228083  77.9372739  45.5140189  -1.3217134  76.8049060
  53.5113063  -5.0497412  78.1694808  53.7048953  -4.1451602  78.4154083
  53.4113681  -5.5089993  79.0033393  48.5728171  -4.8990670  83.7435688
  48.4213678  -5.1280118  82.8265772  48.5632851  -3.9420068  83.7567033
  45.3413508  -7.3258757  78.7281955  46.2705568  -7.1747597  78.5550922
  44.9204538  -7.2374736  77.8730601  44.1401839  -3.3008092  76.4980492
  44.0012925  -3.6689308  77.3706430  43.3516436  -2.7860453  76.3264450
  44.7349991   1.8001004  67.8406029  44.9101747   1.3289047  68.6551652
  44.0482779   2.4266770  68.0687290  45.6907055  -3.9226490  73.8869330
  45.3556887  -3.9625720  74.7826980  45.1911000  -4.5881774  73.4139740
  39.6651299  -8.5158860  79.4121911  39.5271097  -9.2478621  80.0133450
  40.5756222  -8.6049960  79.1306099  48.6266246  -6.5770455  64.1606390
  48.0095417  -7.3023627  64.0639443  48.1582735  -5.8161095  63.8173464
  42.2933599  -8.8038900  78.9005591  43.0033218  -9.4445708  78.8592209
  42.2502907  -8.5526006  79.8231772  50.2820378  -1.8671547  81.8212170
  50.2232924  -2.5512327  81.1542753  50.6839896  -1.1252557  81.3692796
  39.3011077   4.9490367  74.6145889  39.5407675   5.5808891  75.2924908
  38.4580273   4.5978407  74.9011248  50.2837785  -3.9031963  80.0526150
  49.3964564  -4.2406041  80.1752549  50.8536336  -4.6348932  80.2894915
  43.8138939   0.7569489  77.0187393  43.7409110   1.5624461  77.5306698
  43.3716332   0.9561455  76.1935414  43.6028718  -0.0058741  70.5290215
  42.8196240   0.5362939  70.6228439  44.3021463   0.5115239  70.9284456
  46.2737622   0.6556323  79.1745552  46.9865594   1.2903788  79.1021453
  45.7827651   0.7520189  78.3585554  47.9955149  -5.4392424  70.7462843
  47.0611428  -5.3190962  70.5767548  48.1731817  -6.3419957  70.4822853
  41.3249536  -1.5949233  79.9951123  42.0258995  -0.9612750  80.1480517
  40.8544651  -1.2534502  79.2346762  49.4503931  -3.2531284  68.2799030
  49.7263775  -3.3674689  69.1892904  48.5808430  -3.6513799  68.2411203
  46.0857995   0.9955067  71.9231843  46.2680390   0.1776723  72.3859596
  46.9090981   1.2122760  71.4856733  46.4200161  -0.0776748  69.1846892
  46.9487927  -0.5884293  68.5717054  46.6828381  -0.3934217  70.0492425
  45.1738395  -8.2984815  84.3069710  44.4979032  -8.3990685  84.9772085
  45.9966029  -8.4545601  84.7705707  36.9217254  -2.0612878  76.9282225
  37.5070691  -2.8069190  77.0610129  36.7242092  -1.7508922  77.8118889
  39.7755909   0.9738369  71.9444668  39.1066284   1.4584497  71.4608708
  39.6368779   1.2207590  72.8588046  43.9161178   3.0082113  78.5427326
  44.4679486   3.1713734  79.3076411  44.2567371   3.5986550  77.8707351
  48.7672052  -2.1656630  84.3975980  49.3111956  -1.5526672  83.9030935
  48.1858897  -1.6077051  84.9142993  47.0529565   0.9564088  75.5291008
  46.9280704   0.1553828  75.0201954  47.7108656   1.4510282  75.0404978
  49.1164473  -1.2426892  77.1570558  48.1694809  -1.3621541  77.0848885
  49.4647246  -2.1304394  77.2396820  46.1210906  -1.4474176  73.3574910
  45.9735869  -2.3757468  73.5382480  46.9464400  -1.4254085  72.8731986
  49.7245028  -0.6245617  74.4439783  50.6491576  -0.8302755  74.3064234
  49.5560332  -0.8729216  75.3529125  49.5140345  -0.1059949  69.8001875
  49.6877222  -0.6713527  69.0475727  50.0069236   0.6940946  69.6181365
  50.5015517  -0.7893185  66.8998773  51.1966422  -0.1686492  67.1186088
  50.8438667  -1.6397834  67.1751151  52.4006940  -3.3393479  68.4286104
  52.9258264  -3.0006207  67.7035424  52.3129293  -4.2746464  68.2449238
  44.0626989   0.5740594  80.5575980  44.3714115   0.3289741  81.4298680
  44.8602471   0.7787233  80.0694851  44.0847601   2.7278504  72.7881357
  43.6452591   2.2354883  73.4814214  44.8355718   2.1851472  72.5473432
  36.5639940  -1.0809955  72.7905985  37.3897960  -1.3806183  72.4104629
  36.2133992  -1.8502333  73.2395774  41.5321473  -1.7283487  74.8603659
  40.9101482  -2.3912782  74.5605886  42.2026340  -1.7022355  74.1777306
  34.7648545  -3.1623629  73.7494919  33.9280453  -3.5901454  73.5678920
  34.7372190  -2.9691185  74.6865710  52.0900846  -2.7060576  83.7337302
  51.2996390  -2.7236437  83.1941801  51.8534201  -2.1672282  84.4886338
  41.0934980  -3.1779564  68.3362119  41.2423100  -2.4944099  67.6828792
  41.9001423  -3.1974474  68.8511575  53.7116918  -3.4371168  81.2912052
  53.4201726  -3.0741187  82.1275513  53.0989049  -4.1504160  81.1125384
  38.8487613  -7.1514386  69.3423188  38.6033655  -8.0552056  69.5403398
  39.0183527  -7.1497236  68.4002666  44.5930385  -0.6831433  65.8073867
  44.0204353  -0.0641246  65.3544338  45.1663179  -0.1332072  66.3413788
  47.8127645  -0.3994283  66.9382449  48.7458318  -0.4648721  67.1415324
  47.7250858   0.4361984  66.4796981  50.4415662  -1.0828413  63.8986396
  50.3629293  -1.4168549  64.7922154  51.2625329  -0.5906645  63.8977869
  44.8615876  -5.2952874  84.6090576  45.7818886  -5.1174275  84.8030623
  44.8265460  -6.2396829  84.4570275  37.8577949  -7.3851840  77.2513357
  38.0763959  -6.4534732  77.2701391  38.2703723  -7.7443865  78.0368161
  42.5937084  -8.3821495  85.4581168  42.1104166  -7.5821135  85.6645057
  42.6798023  -8.3713550  84.5048612  35.8623044  -6.5493115  73.3802987
  35.8393732  -6.4505428  72.4284870  36.1723681  -5.7027965  73.7020153
  38.5210422  -4.4916960  77.4949602  39.4753675  -4.5233018  77.4279533
  38.3222945  -4.9526337  78.3099827  39.1109804  -5.9215844  80.0620399
  39.9302693  -5.4271766  80.0855236  39.3846612  -6.8383876  80.0337967
  36.8760651   1.0502659  74.5119799  36.7415119   0.2903060  73.9457797
  36.4592713   1.7743559  74.0448588  48.0119614  -3.7660417  63.5196375
  48.7155464  -3.5610415  64.1354030  47.2882262  -3.1983655  63.7845458
  40.0329777   1.9471976  74.7238242  39.9162161   2.8917409  74.6216932
  39.2122223   1.6445538  75.1124041  49.9206311  -3.3277888  65.5694835
  50.7551915  -3.7596690  65.3872310  49.7590654  -3.4995874  66.4971729
  49.5752203  -6.8245775  66.9351174  49.5201007  -6.9901503  65.9939618
  48.9498259  -6.1169742  67.0913364  46.8898110  -4.5196863  86.2604737
  47.7589270  -4.3456211  85.8991372  46.4104862  -3.7002446  86.1380466
  41.0584291   2.6000238  77.9394170  41.9611537   2.6323848  78.2560665
  40.8321661   1.6700689  77.9540506  42.8137893   1.3531225  74.6004249
  41.8633524   1.3533086  74.4868621  43.1170379   0.6063959  74.0840284
  58.5490586   7.1891763  75.6650011  59.1868996   7.0698510  74.9613352
  58.4311429   8.1372607  75.7237964  55.3580292   7.1419191  75.6011536
  55.0198804   7.0260256  74.7132071  56.2270061   6.7410356  75.5812542
  51.2167108   8.9954667  71.5908427  50.6531973   8.9044604  70.8224715
  51.1019503   8.1754572  72.0710920  55.8400075   8.2954043  81.5597742
  55.8288716   7.9006841  80.6878245  56.0020715   7.5620115  82.1531513
  48.7631540  10.4905859  74.4292648  49.5552832  10.1496684  74.0138947
  49.0028190  10.6000834  75.3494801  56.7966667  12.6625635  66.9022892
  56.1454647  13.2479716  66.5156906  57.5911030  13.1931830  66.9617930
  50.7222294   9.7514772  67.3010026  51.4953170   9.2043759  67.1622902
  51.0747693  10.6159022  67.5124488  52.5607337  11.0791155  80.5076926
  52.2697203  11.9836785  80.3923592  53.1964321  11.1207682  81.2220995
  53.4863543   8.4568003  77.0978285  54.0827116   8.2324025  76.3835248
  53.5438515   7.7152749  77.7003733  53.0588572   5.9107438  64.9328476
  53.3114093   5.3888960  64.1711939  52.1213131   5.7473584  65.0355160
  58.1031855   4.9143217  72.7403220  58.8894944   4.4962640  72.3893637
  58.3670559   5.8189309  72.9084868  58.2741932  10.3516067  67.4391876
  57.6387765  10.4250694  68.1512781  57.9439338  10.9409666  66.7610956
  63.5040282   4.8518450  73.6436198  64.2365454   4.2817667  73.8774028
  62.7479638   4.4640050  74.0842704  52.7784861   7.8135544  67.1352851
  52.6621119   7.1380448  67.8033936  52.8887120   7.3267918  66.3185004
  55.1216402   7.2745691  70.8399541  54.7574609   6.7476312  71.5512462
  55.9783517   6.8844161  70.6666026  61.0265702  -1.4359976  78.1030807
  60.6949027  -0.5664565  77.8792022  60.4311316  -1.7523692  78.7824837
  54.7621889   2.3035591  65.8360889  54.9296291   3.1715828  66.2031360
  54.5719058   2.4662873  64.9122178  57.5197222  10.7652570  77.5026719
  57.2197945  11.6677609  77.3942527  57.1748281  10.4984753  78.3547872
  50.9709703   7.2166367  73.5363424  50.0460200   7.0842581  73.7441116
  51.2194116   7.9960586  74.0333366  60.9194365   3.2835110  75.1824157
  60.0111243   3.2150519  74.8882918  60.8681961   3.7607055  76.0105982
  54.7411109   4.7593249  66.8207556  54.6210735   5.2050299  67.6593036
  54.0463698   5.1078566  66.2621094  48.3318514   6.8599640  74.3707213
  48.4610895   7.1134119  75.2846625  47.6515966   7.4527348  74.0511868
  52.5018001  17.5296890  70.4697687  52.4242031  18.4804716  70.5486168
  51.8979645  17.1842763  71.1272613  54.9935231   4.7024756  83.1259054
  54.2168565   5.2618676  83.1161919  55.6325794   5.1881539  83.6473924
  62.7856012   1.4851549  76.9602031  62.1430392   1.7784082  76.3141825
  62.2810940   1.3704469  77.7655227  60.4396176   5.2314722  67.6487890
  61.3514032   5.4642109  67.4735587  59.9305823   5.8151766  67.0862968
  53.2481604   7.5110209  82.6877021  53.9896288   8.0495253  82.4111845
  52.5418589   8.1376498  82.8448573  58.7236943   9.6539350  81.2849182
  59.1320299   9.2121760  80.5403815  58.0014205   9.0791977  81.5383375
  55.0768013   4.5911956  78.6582739  55.9229208   5.0151370  78.8017388
  55.0166651   3.9345581  79.3521303  59.0465758  10.2140540  75.0401471
  58.4174620  10.3786254  74.3377539  58.6591420  10.6282150  75.8112435
  62.9254990  11.1494978  72.3945835  62.2406028  11.5293880  71.8442868
  63.0098839  11.7590305  73.1277783  58.2267459   2.2516325  80.3163913
  57.9828390   3.0058385  79.7798189  58.5027389   2.6301672  81.1511160
  60.1805921   8.7954937  78.9941179  60.3922817   9.4386697  78.3175560
  60.1335670   7.9617254  78.5263109  57.7832150   1.4072758  75.8977751
  56.9216629   1.7054011  76.1894488  57.8094585   1.6243157  74.9658783
  54.5993720   9.9514948  72.3051556  55.0632065  10.2302651  71.5156179
  54.3350518   9.0498393  72.1224647  51.4917801   9.4986430  75.2431320
  52.0619158   9.9273698  74.6048804  52.0825913   9.2169015  75.9415505
  53.5362606   6.0738101  69.1141122  54.2386649   6.5259144  69.5815048
  53.2043234   5.4321920  69.7421015  51.9842967   4.6649857  83.4892331
  51.3541628   5.3466138  83.7227728  51.8779055   4.5532939  82.5445469
  47.2787940   4.3321653  74.4158255  46.4886994   4.5879182  73.9398366
  47.7699187   5.1469991  74.5210296  61.2951749  11.6726893  77.1663536
  62.1169193  11.2707080  76.8846218  61.2914152  11.5695127  78.1179652
  49.2302685   4.6966233  71.3741732  48.4333848   4.8084927  71.8925228
  49.0028277   5.0352885  70.5082622  55.0608353  11.2210936  79.3224246
  55.1252785  11.6831343  80.1582418  54.3519277  10.5908301  79.4506556
  45.5625643   4.5852144  76.8473246  45.8133681   5.4699154  77.1130822
  46.0985191   4.4056745  76.0748338  69.3857742   8.0165641  73.5148507
  68.6321451   7.4473039  73.3592512  69.5205284   7.9828306  74.4619142
  54.7756370  12.8879043  69.1903227  54.6402045  13.7330579  69.6188075
  55.3166183  13.0898321  68.4269161  51.2623710  -1.0329377  85.8517582
  50.8690656  -1.5863178  86.5265226  52.0789850  -0.7218798  86.2424100
  48.2285768  10.4054481  69.7631152  48.7410288  11.1997732  69.9136717
  48.8808481   9.7080772  69.6964753  50.0380652  13.5220238  71.8453905
  50.2147281  14.4438202  71.6574889  50.8337486  13.2078657  72.2748285
  54.1791671   0.3828502  83.4437839  54.9201384   0.9835655  83.3642301
  54.4109594  -0.3593860  82.8855881  49.3233009   5.5684870  81.7216068
  49.2086524   4.6670127  82.0223167  48.4677527   5.8148566  81.3700885
  56.4024847  13.5102610  83.3203569  55.9588701  12.7238988  83.0024473
  57.0642060  13.6981760  82.6547460  51.1611968  15.0398411  77.8464247
  51.7119393  14.9115475  77.0741241  50.3223444  15.3393300  77.4959140
  58.5006085  13.7905410  81.3484970  58.4824560  14.6114291  80.8565239
  59.4226005  13.6659485  81.5735111  54.9579139  11.3049539  82.1908479
  55.4907476  10.5437827  81.9607787  54.4293220  11.0123191  82.9332633
  58.1248834  -3.5890395  77.7202120  57.7813103  -2.6988753  77.6441231
  58.4927797  -3.7788737  76.8571705  46.1934685   8.7343136  70.5390722
  47.0309907   9.1440144  70.3224430  46.3712952   7.7942578  70.5090916
  58.0899117   6.4018216  66.2274555  57.5745740   7.1722821  66.4662943
  57.8176425   5.7283353  66.8507617  55.6746228   1.2467917  71.2859794
  54.8187824   0.8574768  71.1065432  56.0873179   1.3259878  70.4259579
  57.2045374  -1.2185740  75.6851354  56.7010170  -1.2555604  74.8719159
  57.4975981  -0.3092997  75.7448010  53.4488260  -1.1347010  74.6917535
  54.3141257  -1.3304201  74.3323425  53.5165769  -1.3636658  75.6186892
  63.0633391   9.1550571  68.1627729  62.2862834   8.8161731  67.7182891
  63.7424872   9.1603194  67.4882694  57.8785420   4.2745308  68.0534337
  57.5735555   4.5891458  68.9044480  58.8315862   4.3526728  68.0961670
  56.3231852  10.4335532  69.7027291  55.7953213   9.6988291  69.3900528
  55.8219354  11.2110208  69.4567259  61.3024698   8.6284552  74.8194337
  60.6448372   9.3183814  74.9074465  62.1065097   9.0180984  75.1628323
  51.0550579   1.0955198  72.0633902  51.6294331   0.8730380  71.3307095
  51.6421562   1.1643893  72.8162503  60.1130157   6.9828925  72.8698279
  60.6262038   7.6158917  73.3719988  60.7631380   6.3830120  72.5041639
  51.3820166   3.1259659  66.0829787  50.5457479   3.4634346  66.4039062
  51.2424936   2.9908639  65.1456924  53.3573247  -2.0303553  70.7908971
  52.7037659  -2.3454536  70.1665586  53.3153721  -2.6527813  71.5168794
  54.4684452   8.2515742  62.7062264  53.5611514   8.0204995  62.9053413
  54.9655484   7.4553361  62.8936245  57.3752531  16.9613249  65.6258950
  56.7014230  17.2644946  66.2343908  57.7618353  17.7642330  65.2764407
  56.5910987   4.4578381  75.1156619  55.6733549   4.6793328  74.9578307
  57.0071131   4.5324691  74.2568326  57.3746035   5.8569796  70.2459299
  58.1217854   6.3691193  69.9366421  57.6437625   5.5353849  71.1063693
  55.6472685   8.3528337  67.2286254  54.7383905   8.0687370  67.3258723
  55.6767769   8.7727415  66.3689561  60.8791953  11.9634926  70.9977421
  60.4254280  11.1225836  71.0542612  60.2485919  12.5996325  71.3352201
  59.8224872   2.8926912  72.2278089  59.0847629   2.3804299  72.5588331
  60.0751646   2.4527294  71.4161366  59.3224892  13.8011423  71.9327239
  59.6147866  14.3616480  71.2139605  59.8323513  14.0939984  72.6880398
  46.2160856   6.0733851  71.2101456  46.0185256   5.4803212  70.4852522
  45.6607520   5.7686061  71.9277395  54.1957579   5.9656958  73.3296049
  54.2506189   5.0130794  73.2538526  53.3848781   6.1216397  73.8137347
  55.3448773   9.8937081  64.5674332  54.9068203   9.1772940  64.1079970
  56.0859214  10.1213195  64.0059424  52.1349939   4.5834017  71.0886428
  51.3217805   4.8828188  71.4951620  52.6308933   4.1889706  71.8060910
  54.2858517  14.5791774  73.0220693  54.2434696  14.8052620  72.0929225
  55.2021216  14.3455149  73.1706494  57.7324151   5.0475842  79.9201322
  58.0873539   5.2747315  80.7795788  58.3796282   5.3794219  79.2978577
  63.4621888   8.1694278  70.6250651  63.3239787   8.3595874  69.6971840
  63.1058107   8.9313660  71.0818702  51.6264014   2.1552373  76.7047663
  52.2663393   2.0141132  76.0070626  50.7941545   1.8686886  76.3286265
  63.4891268  10.2370805  75.6361922  63.9227774  10.1446094  76.4844976
  64.2022848  10.2128305  74.9981938  52.4024318  11.4554803  72.8182655
  53.1964916  10.9605123  72.6165230  51.6916010  10.9272666  72.4550361
  57.2219162  13.8372899  77.1695023  57.2756185  14.4063835  77.9372739
  56.3533944  14.0074784  76.8049060  48.7107081   5.5997885  68.8942408
  47.7804670   5.5382340  69.1112370  48.8064553   5.0773838  68.0979049
  48.6292630   2.1252698  71.4820650  48.8899448   3.0398031  71.3729810
  49.4509803   1.6577140  71.6317262  50.1017556   3.5390455  78.6519474
  50.7740609   3.3307817  78.0032123  49.2747342   3.3412541  78.2124706
  64.3506817  10.2794505  78.1694808  64.5442707  11.1840316  78.4154083
  64.2507435   9.8201924  79.0033393  56.0043128   0.1652396  80.6685135
  55.3571043   0.8642346  80.5749611  56.7744143   0.5988540  81.0361383
  59.4121926  10.4301248  83.7435688  59.2607432  10.2011800  82.8265772
  59.4026605  11.3871849  83.7567033  56.1807262   8.0033161  78.7281955
  57.1099322   8.1544320  78.5550922  55.7598292   8.0917182  77.8730601
  54.9795594  12.0283825  76.4980492  54.8406680  11.6602610  77.3706430
  54.1910190  12.5431465  76.3264450  55.5743746  17.1292922  67.8406029
  55.7495502  16.6580965  68.6551652  54.8876534  17.7558688  68.0687290
  56.5300809  11.4065428  73.8869330  56.1950642  11.3666198  74.7826980
  56.0304755  10.7410144  73.4139740  50.5045053   6.8133058  79.4121911
  50.3664851   6.0813297  80.0133450  51.4149977   6.7241958  79.1306099
  59.4660001   8.7521462  64.1606390  58.8489171   8.0268290  64.0639443
  58.9976489   9.5130823  63.8173464  53.1327354   6.5253017  78.9005591
  53.8426972   5.8846209  78.8592209  53.0896662   6.7765912  79.8231772
  61.1214132  13.4620371  81.8212170  61.0626679  12.7779591  81.1542753
  61.5233651  14.2039361  81.3692796  51.8456288   3.5118235  80.7201230
  51.3093645   3.0608974  81.3722827  51.2572996   3.6464144  79.9771695
  50.1404831  20.2782284  74.6145889  50.3801429  20.9100809  75.2924908
  49.2974028  19.9270324  74.9011248  51.2558547   2.9706887  63.2827694
  50.3788013   2.8495687  62.9189941  51.7316300   2.1792965  63.0306583
  61.1231540  11.4259955  80.0526150  60.2358318  11.0885876  80.1752549
  61.6930091  10.6942986  80.2894915  42.7760687   7.7584046  73.3769201
  43.4631727   7.4445776  72.7890217  42.6208815   8.6625411  73.1036453
  47.5795409   2.6474243  77.8054225  47.4953598   2.0399912  77.0704635
  46.7578115   3.1383261  77.8063721  54.6532693  16.0861407  77.0187393
  54.5802865  16.8916378  77.5306698  54.2110086  16.2853373  76.1935414
  54.4422473  15.3233177  70.5290215  53.6589995  15.8654857  70.6228439
  55.1415218  15.8407157  70.9284456  57.7519123   1.1327806  73.1724420
  58.2487822   0.3797769  72.8525490  56.9806104   1.1692123  72.6067629
  65.6048880   6.8368172  74.8142712  65.5938756   7.7192887  74.4436645
  64.7366260   6.4839723  74.6197249  57.1131377  15.9848241  79.1745552
  57.8259349  16.6195706  79.1021453  56.6221405  16.0812107  78.3585554
  58.8348903   9.8899494  70.7462843  57.9005182  10.0100956  70.5767548
  59.0125572   8.9871960  70.4822853  54.3354092   3.2745189  72.8996105
  53.9651879   2.7216230  73.5877010  54.8313184   2.6703323  72.3471105
  62.2221455   5.7316813  71.2812878  62.6881907   6.5644804  71.2073180
  62.6728955   5.2661794  71.9858136  52.1643290  13.7342684  79.9951123
  52.8652750  14.3679167  80.1480517  51.6938405  14.0757416  79.2346762
  60.2897686  12.0760634  68.2799030  60.5657530  11.9617229  69.1892904
  59.4202185  11.6778119  68.2411203  60.1938118  -1.9002600  75.3203779
  59.2801197  -1.6698373  75.4885986  60.6231219  -1.8164156  76.1717811
  59.9644576   6.2887292  77.8203673  59.3116026   6.5363199  77.1656126
  60.3424956   5.4751430  77.4866150  56.9251750  16.3246985  71.9231843
  57.1074144  15.5068641  72.3859596  57.7484736  16.5414677  71.4856733
  57.2593915  15.2515170  69.1846892  57.7881682  14.7407625  68.5717054
  57.5222135  14.9357700  70.0492425  56.0132149   7.0307103  84.3069710
  55.3372786   6.9301232  84.9772085  56.8359783   6.8746317  84.7705707
  47.7611008  13.2679039  76.9282225  48.3464445  12.5222727  77.0610129
  47.5635847  13.5782996  77.8118889  50.6149663  16.3030287  71.9444668
  49.9460039  16.7876414  71.4608708  50.4762533  16.5499507  72.8588046
  42.3528663   5.8384640  75.6486668  42.3912762   5.3048230  76.4423786
  41.8468956   5.3119845  75.0297646  54.7554932  18.3374030  78.5427326
  55.3073240  18.5005652  79.3076411  55.0961125  18.9278468  77.8707351
  49.7319425   0.6849180  79.1449211  49.7960752   1.5464011  78.7326608
  49.6686545   0.0723182  78.4121569  49.2071698   2.7572313  82.7922245
  49.8343737   2.3749390  83.4059769  48.3499617   2.5386515  83.1577937
  59.6065806  13.1635288  84.3975980  60.1505710  13.7765246  83.9030935
  59.0252651  13.7214866  84.9142993  45.9837241   4.5648742  68.7240600
  46.2790682   3.6559420  68.6707653  45.0825276   4.5436481  68.4021602
  57.8923319  16.2856006  75.5291008  57.7674459  15.4845746  75.0201954
  58.5502410  16.7802199  75.0404978  49.5131488   2.6404738  74.7068148
  48.7918073   3.2540706  74.5675622  50.3024743   3.1762503  74.6284794
  59.9558228  14.0865026  77.1570558  59.0088563  13.9670377  77.0848885
  60.3041001  13.1987524  77.2396820  52.3157801  -0.0240835  80.9808800
  52.8392203   0.2221461  81.7435109  52.0970134   0.8079200  80.5611937
  47.7125082   2.2462839  68.8479925  47.3837788   1.3660218  68.6655031
  48.0664453   2.1910508  69.7356314  56.9604661  13.8817742  73.3574910
  56.8129623  12.9534450  73.5382480  57.7858154  13.9037833  72.8731986
  50.8266905   2.5335809  69.2155403  51.1662978   3.0621730  68.4934011
  51.2739026   2.8716215  69.9913969  60.5638783  14.7046301  74.4439783
  61.4885330  14.4989162  74.3064234  60.3954086  14.4562702  75.3529125
  53.5210346   0.9172860  78.6658471  53.1807166   0.1180673  79.0679151
  52.8149352   1.2174571  78.0935304  54.1726818  -1.9977828  77.1185794
  54.9952887  -2.4717349  76.9964684  54.4164881  -1.2187344  77.6184480
  52.8135052   1.0310431  67.4148695  53.5343415   1.4091684  66.9112412
  52.1900357   1.7499308  67.5183673  56.9566175   1.7355580  68.3507028
  57.1729790   2.6180218  68.0495856  56.4760242   1.3441793  67.6212670
  51.6965397   4.6941293  74.9277772  51.5509977   5.0081596  75.8202054
  51.2190600   5.3126193  74.3748671  53.5561780   1.6843841  74.9758662
  53.5423348   0.7884934  74.6390960  54.2734208   1.6914505  75.6096948
  55.4087910   2.1181181  77.0211789  55.1505688   3.0398252  77.0196120
  54.8772951   1.7211616  77.7112253  60.3534099  15.2231968  69.8001875
  60.5270977  14.6578391  69.0475727  60.8462990  16.0232863  69.6181365
  46.1711059   7.2346637  77.8665433  45.6264527   8.0106445  77.9985708
  47.0490409   7.5817442  77.7084555  52.9598675   0.5658221  70.2446232
  53.0814587  -0.3625133  70.4437119  52.6700718   0.5796907  69.3324547
  55.8289866  -1.7486868  73.3812952  55.8511563  -1.6847535  72.4264931
  56.2457925  -2.5882360  73.5753458  66.2073490   7.9868391  71.4192174
  66.6504636   7.2375716  71.0211298  65.3300000   7.9778528  71.0365906
  61.3409271  14.5398733  66.8998773  62.0360176  15.1605425  67.1186088
  61.6832422  13.6894084  67.1751151  46.9577081   6.3616534  80.7595590
  46.2158817   6.5099169  81.3460221  46.6369825   6.6224799  79.8962340
  63.2400695  11.9898438  68.4286104  63.7652019  12.3285711  67.7035424
  63.1523047  11.0545454  68.2449238  54.9020743  15.9032512  80.5575980
  55.2107870  15.6581659  81.4298680  55.6996225  16.1079150  80.0694851
  54.9241355  18.0570422  72.7881357  54.4846346  17.5646800  73.4814214
  55.6749472  17.5143389  72.5473432  47.4033694  14.2481962  72.7905985
  48.2291714  13.9485734  72.4104629  47.0527746  13.4789585  73.2395774
  52.3715228  13.6008431  74.8603659  51.7495237  12.9379136  74.5605886
  53.0420094  13.6269563  74.1777306  45.6042299  12.1668289  73.7494919
  44.7674208  11.7390463  73.5678920  45.5765945  12.3600732  74.6865710
  52.4439755   2.0790219  84.4536165  52.4927910   2.9552341  84.0713934
  52.9862269   1.5367612  83.8807808  62.9294601  12.6231342  83.7337302
  62.1390144  12.6055481  83.1941801  62.6927955  13.1619636  84.4886338
  63.0492476   9.4723808  81.0470030  63.0990481   9.3073816  81.9885553
  62.9406399   8.6051067  80.6567911  51.9328734  12.1512354  68.3362119
  52.0816855  12.8347818  67.6828792  52.7395178  12.1317444  68.8511575
  60.3396238   5.4554736  82.3629337  61.2406101   5.3161201  82.0713335
  60.4144213   5.6209191  83.3027514  54.6739043   2.8321591  81.2082523
  53.8042353   3.1255157  80.9365112  54.9098524   3.4162036  81.9289787
  64.5510673  11.8920750  81.2912052  64.2595481  12.2550730  82.1275513
  63.9382804  11.1787758  81.1125384  65.7506355   9.4573630  73.8114622
  66.5853246   9.8963434  73.9752182  65.8865484   8.9812283  72.9922868
  62.7997861   7.0153364  79.7592110  63.2751982   7.2081011  78.9510961
  61.8763426   7.0712550  79.5135493  49.6881367   8.1777532  69.3423188
  49.4427409   7.2739862  69.5403398  49.8577282   8.1794682  68.4002666
  57.3778077  -0.9498792  78.7247944  57.8960021  -0.2137765  78.3994432
  57.0233210  -0.6434799  79.5594703  48.9577015   3.9105889  66.8409349
  48.2646260   3.9850244  66.1849385  48.7128767   3.1466233  67.3630866
  55.4324140  14.6460484  65.8073867  54.8598107  15.2650672  65.3544338
  56.0056934  15.1959846  66.3413788  61.4999530   3.8919125  77.9920415
  62.4516953   3.9917222  78.0132639  61.3302980   3.0997393  78.5018500
  59.5213909   0.9774708  78.1779816  58.9263841   1.2579720  77.4826305
  59.2363606   1.4668609  78.9496557  58.6521400  14.9297635  66.9382449
  59.5852073  14.8643196  67.1415324  58.5644613  15.7653901  66.4796981
  61.2809416  14.2463505  63.8986396  61.2023048  13.9123368  64.7922154
  62.1019083  14.7385273  63.8977869  63.9787608   7.1125244  77.1062715
  63.9463928   6.1741245  77.2922399  64.5888231   7.1909281  76.3728540
  55.8170938   5.9821297  63.1489919  56.7630043   5.8527505  63.2178337
  55.4385183   5.2435959  63.6259347  64.1282096   3.9036288  77.1520998
  63.6121145   3.1194744  76.9650927  65.0122045   3.5755004  77.3167518
  61.7892823  -2.3522697  73.1116811  61.5917644  -2.6607609  73.9960143
  62.3992529  -1.6261058  73.2414741  69.7964157   8.1741251  76.2468752
  70.5267546   7.9126539  76.8076455  69.1871103   7.4369973  76.2870820
  67.8779455   6.3149114  76.8443203  67.1512618   6.1805079  76.2359695
  67.4626741   6.6225942  77.6499921  55.7009631  10.0339043  84.6090576
  56.6212640  10.2117642  84.8030623  55.6659214   9.0895089  84.4570275
  54.0013856   3.9071274  63.0844804  53.0945311   3.6104386  63.1607518
  54.2789837   3.6101092  62.2179090  44.9191796   5.2277637  73.5343851
  44.5994580   4.3742945  73.2418225  44.3725224   5.4426215  74.2901818
  48.6971704   7.9440078  77.2513357  48.9157713   8.8757186  77.2701391
  49.1097477   7.5848052  78.0368161  55.6175921  -1.5491837  69.2389046
  54.8076650  -1.8944752  69.6144292  56.3060338  -1.8584293  69.8276657
  57.5466470  -2.4713790  70.8613342  58.0997508  -2.0518337  71.5203365
  57.7836556  -3.3978042  70.9036298  53.5699569   3.5173284  86.6416106
  53.4696296   4.4667641  86.5728197  53.3521111   3.1891523  85.7692176
  52.7712640   0.7658209  63.2256783  53.6331804   1.0913107  63.4852601
  52.9562984  -0.0210295  62.7129849  44.7880056   8.8480548  75.5036972
  44.0943527   8.4334501  74.9906927  45.5353047   8.8901085  74.9070391
  60.9245277  -0.3613265  70.3692006  60.3443946   0.2971539  69.9870059
  60.6581209  -1.1835920  69.9579424  59.3748843  -0.9608207  72.5713327
  59.8748621  -0.8491673  71.7627646  60.0184451  -1.2647154  73.2114135
  53.4330839   6.9470423  85.4581168  52.9497921   7.7470783  85.6645057
  53.5191778   6.9578367  84.5048612  46.7016799   8.7798802  73.3802987
  46.6787487   8.8786490  72.4284870  47.0117435   9.6263953  73.7020153
  49.3604176  10.8374957  77.4949602  50.3147430  10.8058900  77.4279533
  49.1616700  10.3765581  78.3099827  49.9503559   9.4076073  80.0620399
  50.7696448   9.9020152  80.0855236  50.2240366   8.4908041  80.0337967
  59.7070155   1.7986826  69.4248355  58.8196010   2.0836476  69.2068549
  60.1224144   1.6380589  68.5775632  63.0584691   1.8233347  73.1402694
  63.8345081   2.3129799  73.4127311  62.3332825   2.2491401  73.5974563
  65.4957249   2.5360966  74.1976635  66.0901740   2.2956702  73.4869943
  65.5683833   1.8168096  74.8250171  47.7154405  16.3794577  74.5119799
  47.5808873  15.6194978  73.9457797  47.2986467  17.1035477  74.0448588
  58.8513368  11.5631500  63.5196375  59.5549218  11.7681503  64.1354030
  58.1276017  12.1308262  63.7845458  59.6811178   7.3141362  69.6398645
  59.6246380   7.7709913  68.8006277  60.2339521   6.5532046  69.4621488
  63.4915984   3.1031093  70.4648764  63.2352919   2.7027729  71.2956972
  62.8668852   3.8174887  70.3398904  67.8028322   5.8427167  72.9720056
  67.2427880   5.9120356  73.7451618  67.1971826   5.6668151  72.2519552
  50.8723531  17.2763894  74.7238242  50.7555915  18.2209326  74.6216932
  50.0515977  16.9737455  75.1124041  60.7600066  12.0014029  65.5694835
  61.5945670  11.5695228  65.3872310  60.5984409  11.8296043  66.4971729
  60.4145958   8.5046143  66.9351174  60.3594762   8.3390414  65.9939618
  59.7892013   9.2122176  67.0913364  45.2038473   3.7414207  80.7612596
  45.8497336   3.2313161  81.2499821  44.9955624   4.4782889  81.3356022
  57.7291865  10.8095055  86.2604737  58.5983025  10.9835707  85.8991372
  57.2498616  11.6289471  86.1380466  53.7242083  -1.9945748  66.5136492
  53.7120753  -1.0503908  66.6704763  54.6165505  -2.1775603  66.2195954
  51.8978045  17.9292156  77.9394170  52.8005292  17.9615766  78.2560665
  51.6715415  16.9992607  77.9540506  53.6531647  16.6823142  74.6004249
  52.7027278  16.6825004  74.4868621  53.9564133  15.9355877  74.0840284
  49.5435964   0.8881824  84.8587610  50.4067425   0.5318629  85.0690935
  48.9701374   0.5495719  85.5463015  69.3884341  22.5183681  75.6650011
  70.0262751  22.3990428  74.9613352  69.2705184  23.4664525  75.7237964
  66.1974047  22.4711109  75.6011536  65.8592558  22.3552173  74.7132071
  67.0663815  22.0702274  75.5812542  62.0560863  24.3246585  71.5908427
  61.4925728  24.2336522  70.8224715  61.9413258  23.5046490  72.0710920
  66.6793830  23.6245960  81.5597742  66.6682471  23.2298759  80.6878245
  66.8414469  22.8912033  82.1531513  59.6025295  25.8197777  74.4292648
  60.3946587  25.4788601  74.0138947  59.8421945  25.9292752  75.3494801
  67.6360421  27.9917553  66.9022892  66.9848401  28.5771633  66.5156906
  68.4304784  28.5223748  66.9617930  61.5616049  25.0806690  67.3010026
  62.3346925  24.5335677  67.1622902  61.9141447  25.9450939  67.5124488
  63.4001091  26.4083072  80.5076926  63.1090957  27.3128703  80.3923592
  64.0358075  26.4499600  81.2220995  64.3257298  23.7859921  77.0978285
  64.9220870  23.5615943  76.3835248  64.3832269  23.0444666  77.7003733
  63.8982326  21.2399356  64.9328476  64.1507847  20.7180877  64.1711939
  62.9606885  21.0765502  65.0355160  68.9425609  20.2435134  72.7403220
  69.7288698  19.8254558  72.3893637  69.2064313  21.1481227  72.9084868
  69.1135687  25.6807985  67.4391876  68.4781519  25.7542611  68.1512781
  68.7833093  26.2701584  66.7610956  74.3434036  20.1810368  73.6436198
  75.0759208  19.6109584  73.8774028  73.5873392  19.7931968  74.0842704
  63.6178615  23.1427462  67.1352851  63.5014873  22.4672365  67.8033936
  63.7280875  22.6559836  66.3185004  65.9610156  22.6037609  70.8399541
  65.5968363  22.0768230  71.5512462  66.8177272  22.2136078  70.6666026
  71.8659457  13.8931942  78.1030807  71.5342781  14.7627353  77.8792022
  71.2705070  13.5768226  78.7824837  65.6015643  17.6327509  65.8360889
  65.7690045  18.5007745  66.2031360  65.4112812  17.7954791  64.9122178
  68.3590976  26.0944488  77.5026719  68.0591699  26.9969527  77.3942527
  68.0142036  25.8276671  78.3547872  61.8103458  22.5458285  73.5363424
  60.8853954  22.4134499  73.7441116  62.0587871  23.3252504  74.0333366
  71.7588120  18.6127028  75.1824157  70.8504997  18.5442436  74.8882918
  71.7075716  19.0898973  76.0105982  65.5804864  20.0885166  66.8207556
  65.4604489  20.5342217  67.6593036  64.8857452  20.4370484  66.2621094
  59.1712269  22.1891558  74.3707213  59.3004650  22.4426037  75.2846625
  58.4909720  22.7819266  74.0511868  63.3411756  32.8588808  70.4697687
  63.2635786  33.8096633  70.5486168  62.7373400  32.5134681  71.1272613
  65.8328986  20.0316674  83.1259054  65.0562320  20.5910594  83.1161919
  66.4719549  20.5173457  83.6473924  73.6249766  16.8143466  76.9602031
  72.9824147  17.1075999  76.3141825  73.1204695  16.6996387  77.7655227
  71.2789930  20.5606640  67.6487890  72.1907786  20.7934026  67.4735587
  70.7699577  21.1443684  67.0862968  64.0875358  22.8402127  82.6877021
  64.8290042  23.3787171  82.4111845  63.3812344  23.4668416  82.8448573
  69.5630698  24.9831267  81.2849182  69.9714054  24.5413678  80.5403815
  68.8407959  24.4083895  81.5383375  65.9161768  19.9203874  78.6582739
  66.7622963  20.3443288  78.8017388  65.8560405  19.2637498  79.3521303
  69.8859512  25.5432458  75.0401471  69.2568375  25.7078172  74.3377539
  69.4985174  25.9574068  75.8112435  73.7648744  26.4786896  72.3945835
  73.0799782  26.8585797  71.8442868  73.8492594  27.0882222  73.1277783
  69.0661213  17.5808242  80.3163913  68.8222145  18.3350303  79.7798189
  69.3421144  17.9593590  81.1511160  71.0199676  24.1246855  78.9941179
  71.2316571  24.7678615  78.3175560  70.9729424  23.2909171  78.5263109
  68.6225905  16.7364675  75.8977751  67.7610384  17.0345929  76.1894488
  68.6488339  16.9535074  74.9658783  65.4387474  25.2806866  72.3051556
  65.9025820  25.5594569  71.5156179  65.1744272  24.3790311  72.1224647
  62.3311555  24.8278348  75.2431320  62.9012912  25.2565616  74.6048804
  62.9219667  24.5460932  75.9415505  64.3756360  21.4030018  69.1141122
  65.0780404  21.8551062  69.5815048  64.0436989  20.7613837  69.7421015
  62.8236722  19.9941775  83.4892331  62.1935382  20.6758056  83.7227728
  62.7172810  19.8824857  82.5445469  58.1181694  19.6613571  74.4158255
  57.3280748  19.9171100  73.9398366  58.6092942  20.4761909  74.5210296
  72.1345504  27.0018810  77.1663536  72.9562948  26.5998998  76.8846218
  72.1307907  26.8987044  78.1179652  60.0696440  20.0258150  71.3741732
  59.2727603  20.1376845  71.8925228  59.8422032  20.3644803  70.5082622
  65.9002107  26.5502854  79.3224246  65.9646540  27.0123261  80.1582418
  65.1913031  25.9200218  79.4506556  56.4019397  19.9144062  76.8473246
  56.6527436  20.7991071  77.1130822  56.9378946  19.7348663  76.0748338
  80.2251497  23.3457559  73.5148507  79.4715205  22.7764957  73.3592512
  80.3599038  23.3120223  74.4619142  65.6150125  28.2170961  69.1903227
  65.4795800  29.0622497  69.6188075  66.1559937  28.4190239  68.4269161
  62.1017465  14.2962541  85.8517582  61.7084410  13.7428739  86.5265226
  62.9183605  14.6073119  86.2424100  59.0679522  25.7346399  69.7631152
  59.5804043  26.5289649  69.9136717  59.7202235  25.0372690  69.6964753
  60.8774407  28.8512155  71.8453905  61.0541035  29.7730120  71.6574889
  61.6731241  28.5370575  72.2748285  65.0185426  15.7120420  83.4437839
  65.7595139  16.3127573  83.3642301  65.2503348  14.9698058  82.8855881
  60.1626764  20.8976787  81.7216068  60.0480279  19.9962044  82.0223167
  59.3071281  21.1440484  81.3700885  67.2418601  28.8394528  83.3203569
  66.7982455  28.0530906  83.0024473  67.9035815  29.0273678  82.6547460
  62.0005722  30.3690329  77.8464247  62.5513148  30.2407393  77.0741241
  61.1617198  30.6685218  77.4959140  69.3399839  29.1197327  81.3484970
  69.3218315  29.9406209  80.8565239  70.2619759  28.9951403  81.5735111
  65.7972894  26.6341457  82.1908479  66.3301230  25.8729745  81.9607787
  65.2686975  26.3415109  82.9332633  68.9642588  11.7401523  77.7202120
  68.6206858  12.6303165  77.6441231  69.3321551  11.5503181  76.8571705
  57.0328439  24.0635053  70.5390722  57.8703661  24.4732062  70.3224430
  57.2106707  23.1234496  70.5090916  68.9292871  21.7310134  66.2274555
  68.4139495  22.5014739  66.4662943  68.6570180  21.0575270  66.8507617
  66.5139982  16.5759835  71.2859794  65.6581579  16.1866685  71.1065432
  66.9266934  16.6551796  70.4259579  68.0439129  14.1106178  75.6851354
  67.5403924  14.0736313  74.8719159  68.3369736  15.0198921  75.7448010
  64.2882015  14.1944908  74.6917535  65.1535012  13.9987716  74.3323425
  64.3559524  13.9655260  75.6186892  73.9027145  24.4842489  68.1627729
  73.1256588  24.1453648  67.7182891  74.5818626  24.4895112  67.4882694
  68.7179174  19.6037226  68.0534337  68.4129310  19.9183375  68.9044480
  69.6709616  19.6818646  68.0961670  67.1625606  25.7627449  69.7027291
  66.6346968  25.0280209  69.3900528  66.6613109  26.5402126  69.4567259
  72.1418452  23.9576470  74.8194337  71.4842127  24.6475731  74.9074465
  72.9458851  24.3472902  75.1628323  61.8944334  16.4247116  72.0633902
  62.4688086  16.2022297  71.3307095  62.4815316  16.4935810  72.8162503
  70.9523911  22.3120843  72.8698279  71.4655793  22.9450834  73.3719988
  71.6025135  21.7122038  72.5041639  62.2213921  18.4551577  66.0829787
  61.3851233  18.7926263  66.4039062  62.0818691  18.3200557  65.1456924
  64.1967002  13.2988365  70.7908971  63.5431414  12.9837382  70.1665586
  64.1547476  12.6764105  71.5168794  65.3078206  23.5807660  62.7062264
  64.4005268  23.3496913  62.9053413  65.8049238  22.7845279  62.8936245
  68.2146285  32.2905167  65.6258950  67.5407984  32.5936864  66.2343908
  68.6012107  33.0934247  65.2764407  67.4304742  19.7870298  75.1156619
  66.5127303  20.0085245  74.9578307  67.8464886  19.8616609  74.2568326
  68.2139790  21.1861714  70.2459299  68.9611609  21.6983111  69.9366421
  68.4831379  20.8645767  71.1063693  66.4866440  23.6820255  67.2286254
  65.5777659  23.3979287  67.3258723  66.5161524  24.1019333  66.3689561
  71.7185707  27.2926844  70.9977421  71.2648034  26.4517754  71.0542612
  71.0879674  27.9288242  71.3352201  70.6618627  18.2218830  72.2278089
  69.9241384  17.7096216  72.5588331  70.9145400  17.7819212  71.4161366
  70.1618646  29.1303341  71.9327239  70.4541621  29.6908398  71.2139605
  70.6717267  29.4231902  72.6880398  70.7630254  10.9995082  72.8219858
  71.0689131  10.1392446  72.5345773  71.4882859  11.5912702  72.6218852
  57.0554610  21.4025769  71.2101456  56.8579010  20.8095129  70.4852522
  56.5001274  21.0977979  71.9277395  65.0351334  21.2948875  73.3296049
  65.0899944  20.3422712  73.2538526  64.2242536  21.4508314  73.8137347
  66.1842528  25.2228998  64.5674332  65.7461958  24.5064857  64.1079970
  66.9252968  25.4505113  64.0059424  62.9743694  19.9125935  71.0886428
  62.1611559  20.2120105  71.4951620  63.4702688  19.5181624  71.8060910
  65.1252272  29.9083692  73.0220693  65.0828450  30.1344538  72.0929225
  66.0414971  29.6747066  73.1706494  68.5717905  20.3767759  79.9201322
  68.9267293  20.6039233  80.7795788  69.2190037  20.7086136  79.2978577
  74.3015642  23.4986195  70.6250651  74.1633541  23.6887791  69.6971840
  73.9451861  24.2605578  71.0818702  62.4657769  17.4844290  76.7047663
  63.1057148  17.3433050  76.0070626  61.6335299  17.1978804  76.3286265
  74.3285022  25.5662722  75.6361922  74.7621529  25.4738011  76.4844976
  75.0416603  25.5420223  74.9981938  63.2418072  26.7846721  72.8182655
  64.0358671  26.2897041  72.6165230  62.5309765  26.2564584  72.4550361
  68.0612917  29.1664816  77.1695023  68.1149939  29.7355753  77.9372739
  67.1927698  29.3366701  76.8049060  59.5500836  20.9289803  68.8942408
  58.6198424  20.8674258  69.1112370  59.6458308  20.4065755  68.0979049
  59.4686385  17.4544615  71.4820650  59.7293202  18.3689949  71.3729810
  60.2903557  16.9869058  71.6317262  60.9411310  18.8682373  78.6519474
  61.6134364  18.6599735  78.0032123  60.1141097  18.6704459  78.2124706
  75.1900572  25.6086423  78.1694808  75.3836462  26.5132233  78.4154083
  75.0901190  25.1493842  79.0033393  66.8436882  15.4944314  80.6685135
  66.1964797  16.1934263  80.5749611  67.6137898  15.9280457  81.0361383
  70.2515680  25.7593166  83.7435688  70.1001187  25.5303717  82.8265772
  70.2420360  26.7163767  83.7567033  67.0201017  23.3325078  78.7281955
  67.9493077  23.4836238  78.5550922  66.5992047  23.4209099  77.8730601
  65.8189348  27.3575743  76.4980492  65.6800434  26.9894527  77.3706430
  65.0303945  27.8723382  76.3264450  66.4137500  32.4584839  67.8406029
  66.5889256  31.9872883  68.6551652  65.7270288  33.0850606  68.0687290
  67.3694564  26.7357346  73.8869330  67.0344396  26.6958116  74.7826980
  66.8698509  26.0702061  73.4139740  61.3438808  22.1424976  79.4121911
  61.2058605  21.4105214  80.0133450  62.2543731  22.0533876  79.1306099
  70.3053755  24.0813380  64.1606390  69.6882926  23.3560208  64.0639443
  69.8370244  24.8422740  63.8173464  63.9721108  21.8544935  78.9005591
  64.6820727  21.2138127  78.8592209  63.9290416  22.1057830  79.8231772
  71.9607887  28.7912288  81.8212170  71.9020433  28.1071508  81.1542753
  72.3627405  29.5331278  81.3692796  62.6850042  18.8410153  80.7201230
  62.1487399  18.3900891  81.3722827  62.0966751  18.9756062  79.9771695
  60.9798586  35.6074202  74.6145889  61.2195184  36.2392726  75.2924908
  60.1367782  35.2562242  74.9011248  62.0952301  18.2998804  63.2827694
  61.2181767  18.1787605  62.9189941  62.5710054  17.5084883  63.0306583
  71.9625294  26.7551872  80.0526150  71.0752073  26.4177794  80.1752549
  72.5323845  26.0234903  80.2894915  53.6154441  23.0875964  73.3769201
  54.3025481  22.7737694  72.7890217  53.4602570  23.9917329  73.1036453
  58.4189163  17.9766160  77.8054225  58.3347352  17.3691830  77.0704635
  57.5971870  18.4675179  77.8063721  65.4926448  31.4153325  77.0187393
  65.4196619  32.2208296  77.5306698  65.0503841  31.6145290  76.1935414
  65.2816227  30.6525095  70.5290215  64.4983749  31.1946775  70.6228439
  65.9808972  31.1699074  70.9284456  68.5912877  16.4619724  73.1724420
  69.0881577  15.7089686  72.8525490  67.8199859  16.4984041  72.6067629
  76.4442635  22.1660090  74.8142712  76.4332511  23.0484805  74.4436645
  75.5760014  21.8131640  74.6197249  67.9525131  31.3140159  79.1745552
  68.6653103  31.9487623  79.1021453  67.4615160  31.4104025  78.3585554
  69.6742658  25.2191411  70.7462843  68.7398937  25.3392874  70.5767548
  69.8519326  24.3163878  70.4822853  65.1747846  18.6037107  72.8996105
  64.8045634  18.0508147  73.5877010  65.6706939  17.9995240  72.3471105
  73.0615209  21.0608731  71.2812878  73.5275662  21.8936722  71.2073180
  73.5122710  20.5953712  71.9858136  63.0037045  29.0634602  79.9951123
  63.7046504  29.6971085  80.1480517  62.5332160  29.4049334  79.2346762
  71.1291440  27.4052552  68.2799030  71.4051284  27.2909146  69.1892904
  70.2595939  27.0070037  68.2411203  71.0331872  13.4289318  75.3203779
  70.1194952  13.6593544  75.4885986  71.4624974  13.5127762  76.1717811
  70.8038331  21.6179209  77.8203673  70.1509781  21.8655117  77.1656126
  71.1818710  20.8043348  77.4866150  67.7645504  31.6538903  71.9231843
  67.9467899  30.8360559  72.3859596  68.5878490  31.8706595  71.4856733
  68.0987670  30.5807088  69.1846892  68.6275436  30.0699542  68.5717054
  68.3615890  30.2649618  70.0492425  66.8525904  22.3599021  84.3069710
  66.1766541  22.2593150  84.9772085  67.6753537  22.2038234  84.7705707
  58.6004763  28.5970957  76.9282225  59.1858199  27.8514645  77.0610129
  58.4029601  28.9074914  77.8118889  61.4543418  31.6322204  71.9444668
  60.7853793  32.1168332  71.4608708  61.3156288  31.8791425  72.8588046
  53.1922417  21.1676557  75.6486668  53.2306517  20.6340148  76.4423786
  52.6862710  20.6411763  75.0297646  65.5948686  33.6665948  78.5427326
  66.1466995  33.8297569  79.3076411  65.9354880  34.2570386  77.8707351
  60.5713180  16.0141098  79.1449211  60.6354506  16.8755929  78.7326608
  60.5080300  15.4015099  78.4121569  60.0465452  18.0864230  82.7922245
  60.6737491  17.7041308  83.4059769  59.1893371  17.8678432  83.1577937
  70.4459561  28.4927206  84.3975980  70.9899465  29.1057164  83.9030935
  69.8646406  29.0506784  84.9142993  56.8230995  19.8940659  68.7240600
  57.1184436  18.9851338  68.6707653  55.9219031  19.8728399  68.4021602
  68.7317074  31.6147924  75.5291008  68.6068213  30.8137663  75.0201954
  69.3896165  32.1094117  75.0404978  60.3525242  17.9696656  74.7068148
  59.6311828  18.5832624  74.5675622  61.1418498  18.5054421  74.6284794
  70.7951982  29.4156944  77.1570558  69.8482318  29.2962295  77.0848885
  71.1434755  28.5279442  77.2396820  63.1551556  15.3051083  80.9808800
  63.6785957  15.5513379  81.7435109  62.9363889  16.1371117  80.5611937
  58.5518837  17.5754757  68.8479925  58.2231543  16.6952136  68.6655031
  58.9058207  17.5202426  69.7356314  67.7998415  29.2109660  73.3574910
  67.6523378  28.2826367  73.5382480  68.6251909  29.2329751  72.8731986
  61.6660660  17.8627727  69.2155403  62.0056732  18.3913648  68.4934011
  62.1132780  18.2008133  69.9913969  71.4032537  30.0338219  74.4439783
  72.3279085  29.8281080  74.3064234  71.2347841  29.7854620  75.3529125
  64.3604101  16.2464778  78.6658471  64.0200921  15.4472591  79.0679151
  63.6543107  16.5466488  78.0935304  65.0120572  13.3314090  77.1185794
  65.8346642  12.8574568  76.9964684  65.2558636  14.1104574  77.6184480
  63.6528807  16.3602348  67.4148695  64.3737169  16.7383601  66.9112412
  63.0294111  17.0791225  67.5183673  67.7959930  17.0647497  68.3507028
  68.0123544  17.9472135  68.0495856  67.3153997  16.6733711  67.6212670
  62.5359151  20.0233211  74.9277772  62.3903732  20.3373514  75.8202054
  62.0584355  20.6418111  74.3748671  64.3955534  17.0135759  74.9758662
  64.3817103  16.1176852  74.6390960  65.1127962  17.0206422  75.6096948
  66.2481665  17.4473099  77.0211789  65.9899443  18.3690170  77.0196120
  65.7166705  17.0503533  77.7112253  71.1927854  30.5523886  69.8001875
  71.3664731  29.9870308  69.0475727  71.6856745  31.3524781  69.6181365
  57.0104813  22.5638555  77.8665433  56.4658281  23.3398363  77.9985708
  57.8884163  22.9109360  77.7084555  63.7992430  15.8950139  70.2446232
  63.9208341  14.9666785  70.4437119  63.5094472  15.9088825  69.3324547
  66.6683620  13.5805049  73.3812952  66.6905317  13.6444382  72.4264931
  67.0851679  12.7409558  73.5753458  77.0467245  23.3160309  71.4192174
  77.4898391  22.5667634  71.0211298  76.1693755  23.3070445  71.0365906
  72.1803026  29.8690650  66.8998773  72.8753931  30.4897343  67.1186088
  72.5226176  29.0186002  67.1751151  57.7970835  21.6908451  80.7595590
  57.0552571  21.8391087  81.3460221  57.4763579  21.9516717  79.8962340
  74.0794449  27.3190356  68.4286104  74.6045773  27.6577629  67.7035424
  73.9916802  26.3837371  68.2449238  65.7414498  31.2324430  80.5575980
  66.0501624  30.9873576  81.4298680  66.5389980  31.4371068  80.0694851
  65.7635110  33.3862339  72.7881357  65.3240100  32.8938718  73.4814214
  66.5143227  32.8435307  72.5473432  58.2427449  29.5773880  72.7905985
  59.0685469  29.2777652  72.4104629  57.8921501  28.8081503  73.2395774
  63.2108982  28.9300348  74.8603659  62.5888991  28.2671053  74.5605886
  63.8813849  28.9561480  74.1777306  56.4436054  27.4960207  73.7494919
  55.6067962  27.0682381  73.5678920  56.4159699  27.6892650  74.6865710
  63.2833509  17.4082136  84.4536165  63.3321665  18.2844259  84.0713934
  63.8256024  16.8659529  83.8807808  73.7688355  27.9523260  83.7337302
  72.9783899  27.9347398  83.1941801  73.5321710  28.4911553  84.4886338
  73.8886230  24.8015726  81.0470030  73.9384235  24.6365733  81.9885553
  73.7800154  23.9342985  80.6567911  62.7722489  27.4804272  68.3362119
  62.9210609  28.1639736  67.6828792  63.5788932  27.4609362  68.8511575
  71.1789993  20.7846654  82.3629337  72.0799855  20.6453119  82.0713335
  71.2537967  20.9501109  83.3027514  65.5132798  18.1613509  81.2082523
  64.6436107  18.4547075  80.9365112  65.7492278  18.7453954  81.9289787
  75.3904427  27.2212667  81.2912052  75.0989235  27.5842648  82.1275513
  74.7776558  26.5079676  81.1125384  76.5900109  24.7865547  73.8114622
  77.4247001  25.2255351  73.9752182  76.7259238  24.3104200  72.9922868
  73.6391615  22.3445282  79.7592110  74.1145737  22.5372928  78.9510961
  72.7157181  22.4004468  79.5135493  60.5275122  23.5069449  69.3423188
  60.2821164  22.6031779  69.5403398  60.6971036  23.5086600  68.4002666
  68.2171832  14.3793126  78.7247944  68.7353776  15.1154153  78.3994432
  67.8626965  14.6857119  79.5594703  59.7970769  19.2397807  66.8409349
  59.1040014  19.3142162  66.1849385  59.5522521  18.4758150  67.3630866
  68.4684426  10.7993408  74.2448840  68.7486180  10.1316597  74.8709267
  69.2535033  10.9922504  73.7323504  66.2717894  29.9752402  65.8073867
  65.6991862  30.5942589  65.3544338  66.8450688  30.5251764  66.3413788
  72.3393284  19.2211042  77.9920415  73.2910707  19.3209140  78.0132639
  72.1696735  18.4289311  78.5018500  70.3607664  16.3066625  78.1779816
  69.7657596  16.5871638  77.4826305  70.0757360  16.7960526  78.9496557
  69.4915154  30.2589552  66.9382449  70.4245827  30.1935114  67.1415324
  69.4038367  31.0945819  66.4796981  72.1203171  29.5755423  63.8986396
  72.0416802  29.2415286  64.7922154  72.9412838  30.0677190  63.8977869
  74.8181362  22.4417162  77.1062715  74.7857682  21.5033163  77.2922399
  75.4281986  22.5201199  76.3728540  66.6564693  21.3113215  63.1489919
  67.6023798  21.1819423  63.2178337  66.2778938  20.5727877  63.6259347
  74.9675851  19.2328205  77.1520998  74.4514899  18.4486662  76.9650927
  75.8515799  18.9046922  77.3167518  72.6286577  12.9769221  73.1116811
  72.4311399  12.6684309  73.9960143  73.2386283  13.7030860  73.2414741
  80.6357912  23.5033169  76.2468752  81.3661300  23.2418457  76.8076455
  80.0264857  22.7661891  76.2870820  78.7173209  21.6441031  76.8443203
  77.9906373  21.5096996  76.2359695  78.3020496  21.9517860  77.6499921
  66.5403385  25.3630961  84.6090576  67.4606395  25.5409560  84.8030623
  66.5052969  24.4187006  84.4570275  64.8407610  19.2363191  63.0844804
  63.9339065  18.9396304  63.1607518  65.1183591  18.9393009  62.2179090
  55.7585550  20.5569555  73.5343851  55.4388335  19.7034863  73.2418225
  55.2118979  20.7718133  74.2901818  59.5365458  23.2731996  77.2513357
  59.7551468  24.2049103  77.2701391  59.9491232  22.9139970  78.0368161
  66.4569676  13.7800081  69.2389046  65.6470404  13.4347166  69.6144292
  67.1454093  13.4707625  69.8276657  68.3860224  12.8578128  70.8613342
  68.9391263  13.2773581  71.5203365  68.6230310  11.9313876  70.9036298
  64.4093323  18.8465201  86.6416106  64.3090050  19.7959558  86.5728197
  64.1914865  18.5183440  85.7692176  63.6106395  16.0950126  63.2256783
  64.4725559  16.4205025  63.4852601  63.7956739  15.3081622  62.7129849
  55.6273810  24.1772466  75.5036972  54.9337282  23.7626419  74.9906927
  56.3746801  24.2193003  74.9070391  71.7639031  14.9678653  70.3692006
  71.1837700  15.6263457  69.9870059  71.4974964  14.1455998  69.9579424
  70.2142598  14.3683711  72.5713327  70.7142376  14.4800245  71.7627646
  70.8578205  14.0644763  73.2114135  64.2724593  22.2762340  85.4581168
  63.7891675  23.0762700  85.6645057  64.3585532  22.2870285  84.5048612
  57.5410553  24.1090720  73.3802987  57.5181241  24.2078407  72.4284870
  57.8511189  24.9555871  73.7020153  60.1997931  26.1666875  77.4949602
  61.1541184  26.1350817  77.4279533  60.0010454  25.7057499  78.3099827
  60.7897313  24.7367991  80.0620399  61.6090202  25.2312070  80.0855236
  61.0634121  23.8199959  80.0337967  70.5463909  17.1278743  69.4248355
  69.6589764  17.4128394  69.2068549  70.9617898  16.9672507  68.5775632
  73.8978445  17.1525264  73.1402694  74.6738835  17.6421717  73.4127311
  73.1726580  17.5783318  73.5974563  76.3351004  17.8652883  74.1976635
  76.9295495  17.6248619  73.4869943  76.4077588  17.1460014  74.8250171
  58.5548160  31.7086494  74.5119799  58.4202628  30.9486895  73.9457797
  58.1380222  32.4327394  74.0448588  69.6907123  26.8923418  63.5196375
  70.3942973  27.0973420  64.1354030  68.9669771  27.4600180  63.7845458
  70.5204933  22.6433279  69.6398645  70.4640134  23.1001831  68.8006277
  71.0733275  21.8823964  69.4621488  74.3309739  18.4323011  70.4648764
  74.0746673  18.0319647  71.2956972  73.7062607  19.1466805  70.3398904
  78.6422077  21.1719084  72.9720056  78.0821635  21.2412274  73.7451618
  78.0365580  20.9960069  72.2519552  61.7117286  32.6055811  74.7238242
  61.5949670  33.5501244  74.6216932  60.8909732  32.3029373  75.1124041
  71.5993820  27.3305947  65.5694835  72.4339424  26.8987146  65.3872310
  71.4378163  27.1587961  66.4971729  71.2539712  23.8338060  66.9351174
  71.1988516  23.6682332  65.9939618  70.6285768  24.5414093  67.0913364
  56.0432227  19.0706125  80.7612596  56.6891091  18.5605079  81.2499821
  55.8349378  19.8074806  81.3356022  68.5685619  26.1386972  86.2604737
  69.4376779  26.3127625  85.8991372  68.0892371  26.9581389  86.1380466
  64.5635838  13.3346169  66.5136492  64.5514508  14.2788009  66.6704763
  65.4559260  13.1516315  66.2195954  62.7371800  33.2584073  77.9394170
  63.6399046  33.2907684  78.2560665  62.5109170  32.3284524  77.9540506
  64.4925402  32.0115060  74.6004249  63.5421033  32.0116921  74.4868621
  64.7957888  31.2647794  74.0840284  68.3787957   9.9288946  70.7682429
  67.6120353   9.3747433  70.9139112  68.7898662  10.0010815  71.6296581
  60.3829718  16.2173742  84.8587610  61.2461180  15.8610547  85.0690935
  59.8095129  15.8787637  85.5463015  80.2278095  37.8475598  75.6650011
  80.8656505  37.7282346  74.9613352  80.1098938  38.7956442  75.7237964
  77.0367801  37.8003026  75.6011536  76.6986313  37.6844091  74.7132071
  77.9057570  37.3994191  75.5812542  72.8954617  39.6538503  71.5908427
  72.3319482  39.5628440  70.8224715  72.7807012  38.8338407  72.0710920
  77.5187584  38.9537878  81.5597742  77.5076225  38.5590676  80.6878245
  77.6808224  38.2203951  82.1531513  70.4419049  41.1489694  74.4292648
  71.2340341  40.8080519  74.0138947  70.6815699  41.2584669  75.3494801
  78.4754176  43.3209470  66.9022892  77.8242156  43.9063551  66.5156906
  79.2698539  43.8515665  66.9617930  72.4009803  40.4098608  67.3010026
  73.1740679  39.8627595  67.1622902  72.7535202  41.2742857  67.5124488
  74.2394846  41.7374990  80.5076926  73.9484712  42.6420621  80.3923592
  74.8751830  41.7791518  81.2220995  75.1651052  39.1151838  77.0978285
  75.7614625  38.8907861  76.3835248  75.2226024  38.3736584  77.7003733
  74.7376081  36.5691274  64.9328476  74.9901602  36.0472795  64.1711939
  73.8000640  36.4057419  65.0355160  79.7819364  35.5727052  72.7403220
  80.5682453  35.1546475  72.3893637  80.0458068  36.4773144  72.9084868
  79.9529441  41.0099902  67.4391876  79.3175274  41.0834529  68.1512781
  79.6226847  41.5993501  66.7610956  85.1827791  35.5102285  73.6436198
  85.9152963  34.9401502  73.8774028  84.4267146  35.1223886  74.0842704
  74.4572370  38.4719380  67.1352851  74.3408628  37.7964283  67.8033936
  74.5674629  37.9851754  66.3185004  76.8003911  37.9329527  70.8399541
  76.4362118  37.4060148  71.5512462  77.6571026  37.5427996  70.6666026
  82.7053211  29.2223859  78.1030807  82.3736536  30.0919270  77.8792022
  82.1098825  28.9060143  78.7824837  76.4409397  32.9619427  65.8360889
  76.6083800  33.8299663  66.2031360  76.2506567  33.1246708  64.9122178
  79.1984731  41.4236405  77.5026719  78.8985454  42.3261444  77.3942527
  78.8535790  41.1568589  78.3547872  72.6497212  37.8750202  73.5363424
  71.7247709  37.7426416  73.7441116  72.8981625  38.6544422  74.0333366
  82.5981874  33.9418946  75.1824157  81.6898752  33.8734354  74.8882918
  82.5469470  34.4190891  76.0105982  76.4198618  35.4177084  66.8207556
  76.2998244  35.8634135  67.6593036  75.7251207  35.7662402  66.2621094
  70.0106023  37.5183476  74.3707213  70.1398404  37.7717955  75.2846625
  69.3303474  38.1111184  74.0511868  76.6722740  35.3608591  83.1259054
  75.8956074  35.9202511  83.1161919  77.3113303  35.8465374  83.6473924
  84.4643521  32.1435384  76.9602031  83.8217901  32.4367917  76.3141825
  83.9598449  32.0288304  77.7655227  82.1183685  35.8898557  67.6487890
  83.0301541  36.1225944  67.4735587  81.6093332  36.4735601  67.0862968
  74.9269113  38.1694045  82.6877021  75.6683797  38.7079089  82.4111845
  74.2206098  38.7960333  82.8448573  80.4024452  40.3123185  81.2849182
  80.8107808  39.8705596  80.5403815  79.6801714  39.7375813  81.5383375
  76.7555522  35.2495792  78.6582739  77.6016717  35.6735205  78.8017388
  76.6954160  34.5929416  79.3521303  80.7253267  40.8724376  75.0401471
  80.0962129  41.0370090  74.3377539  80.3378929  41.2865985  75.8112435
  84.6042499  41.8078814  72.3945835  83.9193537  42.1877715  71.8442868
  84.6886348  42.4174140  73.1277783  79.9054968  32.9100160  80.3163913
  79.6615899  33.6642221  79.7798189  80.1814898  33.2885508  81.1511160
  81.8593430  39.4538773  78.9941179  82.0710326  40.0970532  78.3175560
  81.8123179  38.6201089  78.5263109  79.4619659  32.0656593  75.8977751
  78.6004138  32.3637847  76.1894488  79.4882094  32.2826992  74.9658783
  76.2781229  40.6098784  72.3051556  76.7419574  40.8886487  71.5156179
  76.0138027  39.7082228  72.1224647  73.1705310  40.1570265  75.2431320
  73.7406667  40.5857534  74.6048804  73.7613422  39.8752850  75.9415505
  75.2150115  36.7321936  69.1141122  75.9174158  37.1842980  69.5815048
  74.8830743  36.0905755  69.7421015  73.6630476  35.3233693  83.4892331
  73.0329137  36.0049974  83.7227728  73.5566564  35.2116774  82.5445469
  68.9575449  34.9905489  74.4158255  68.1674503  35.2463017  73.9398366
  69.4486696  35.8053827  74.5210296  82.9739258  42.3310728  77.1663536
  83.7956702  41.9290915  76.8846218  82.9701661  42.2278962  78.1179652
  70.9090194  35.3550068  71.3741732  70.1121357  35.4668762  71.8925228
  70.6815786  35.6936720  70.5082622  76.7395862  41.8794771  79.3224246
  76.8040294  42.3415178  80.1582418  76.0306786  41.2492136  79.4506556
  67.2413152  35.2435979  76.8473246  67.4921190  36.1282989  77.1130822
  67.7772700  35.0640581  76.0748338  91.0645251  38.6749476  73.5148507
  90.3108960  38.1056874  73.3592512  91.1992793  38.6412141  74.4619142
  76.4543879  43.5462879  69.1903227  76.3189554  44.3914414  69.6188075
  76.9953692  43.7482156  68.4269161  72.9411219  29.6254459  85.8517582
  72.5478165  29.0720657  86.5265226  73.7577359  29.9365037  86.2424100
  69.9073277  41.0638317  69.7631152  70.4197797  41.8581567  69.9136717
  70.5595990  40.3664607  69.6964753  71.7168161  44.1804073  71.8453905
  71.8934790  45.1022038  71.6574889  72.5124995  43.8662492  72.2748285
  75.8579180  31.0412338  83.4437839  76.5988893  31.6419491  83.3642301
  76.0897103  30.2989975  82.8855881  71.0020518  36.2268705  81.7216068
  70.8874033  35.3253962  82.0223167  70.1465036  36.4732402  81.3700885
  78.0812356  44.1686445  83.3203569  77.6376210  43.3822824  83.0024473
  78.7429569  44.3565596  82.6547460  72.8399477  45.6982247  77.8464247
  73.3906902  45.5699310  77.0741241  72.0010953  45.9977136  77.4959140
  80.1793594  44.4489245  81.3484970  80.1612069  45.2698126  80.8565239
  81.1013514  44.3243320  81.5735111  76.6366648  41.9633375  82.1908479
  77.1694985  41.2021663  81.9607787  76.1080729  41.6707026  82.9332633
  79.8036343  27.0693441  77.7202120  79.4600612  27.9595082  77.6441231
  80.1715306  26.8795098  76.8571705  67.8722194  39.3926971  70.5390722
  68.7097416  39.8023979  70.3224430  68.0500461  38.4526413  70.5090916
  79.7686626  37.0602052  66.2274555  79.2533249  37.8306656  66.4662943
  79.4963934  36.3867188  66.8507617  77.3533737  31.9051752  71.2859794
  76.4975333  31.5158603  71.1065432  77.7660688  31.9843713  70.4259579
  78.8832883  29.4398096  75.6851354  78.3797679  29.4028231  74.8719159
  79.1763490  30.3490838  75.7448010  75.1275769  29.5236825  74.6917535
  75.9928766  29.3279634  74.3323425  75.1953278  29.2947177  75.6186892
  84.7420900  39.8134406  68.1627729  83.9650343  39.4745566  67.7182891
  85.4212381  39.8187030  67.4882694  79.5572929  34.9329144  68.0534337
  79.2523064  35.2475293  68.9044480  80.5103371  35.0110564  68.0961670
  78.0019361  41.0919367  69.7027291  77.4740722  40.3572127  69.3900528
  77.5006863  41.8694043  69.4567259  82.9812207  39.2868388  74.8194337
  82.3235881  39.9767649  74.9074465  83.7852606  39.6764820  75.1628323
  72.7338088  31.7539033  72.0633902  73.3081840  31.5314215  71.3307095
  73.3209071  31.8227728  72.8162503  81.7917666  37.6412760  72.8698279
  82.3049547  38.2742752  73.3719988  82.4418889  37.0413956  72.5041639
  73.0607675  33.7843494  66.0829787  72.2244988  34.1218181  66.4039062
  72.9212445  33.6492474  65.1456924  75.0360756  28.6280282  70.7908971
  74.3825168  28.3129299  70.1665586  74.9941230  28.0056023  71.5168794
  76.1471961  38.9099577  62.7062264  75.2399023  38.6788831  62.9053413
  76.6442993  38.1137197  62.8936245  79.0540040  47.6197085  65.6258950
  78.3801739  47.9228781  66.2343908  79.4405862  48.4226165  65.2764407
  78.2698496  35.1162216  75.1156619  77.3521058  35.3377163  74.9578307
  78.6858640  35.1908526  74.2568326  79.0533544  36.5153632  70.2459299
  79.8005363  37.0275029  69.9366421  79.3225134  36.1937684  71.1063693
  77.3260194  39.0112172  67.2286254  76.4171414  38.7271205  67.3258723
  77.3555278  39.4311251  66.3689561  82.5579462  42.6218762  70.9977421
  82.1041789  41.7809672  71.0542612  81.9273428  43.2580160  71.3352201
  81.5012381  33.5510748  72.2278089  80.7635138  33.0388134  72.5588331
  81.7539155  33.1111129  71.4161366  81.0012401  44.4595258  71.9327239
  81.2935375  45.0200316  71.2139605  81.5111022  44.7523819  72.6880398
  81.6024009  26.3287000  72.8219858  81.9082885  25.4684363  72.5345773
  82.3276613  26.9204620  72.6218852  67.8948365  36.7317686  71.2101456
  67.6972765  36.1387047  70.4852522  67.3395029  36.4269897  71.9277395
  75.8745088  36.6240793  73.3296049  75.9293698  35.6714629  73.2538526
  75.0636290  36.7800232  73.8137347  77.0236282  40.5520916  64.5674332
  76.5855712  39.8356775  64.1079970  77.7646723  40.7797031  64.0059424
  73.8137448  35.2417853  71.0886428  73.0005314  35.5412023  71.4951620
  74.3096442  34.8473541  71.8060910  75.9646026  45.2375610  73.0220693
  75.9222205  45.4636456  72.0929225  76.8808725  45.0038984  73.1706494
  79.4111660  35.7059677  79.9201322  79.7661048  35.9331150  80.7795788
  80.0583791  36.0378054  79.2978577  85.1409397  38.8278113  70.6250651
  85.0027295  39.0179709  69.6971840  84.7845616  39.5897496  71.0818702
  73.3051523  32.8136208  76.7047663  73.9450902  32.6724967  76.0070626
  72.4729054  32.5270722  76.3286265  85.1678777  40.8954640  75.6361922
  85.6015283  40.8029929  76.4844976  85.8810357  40.8712140  74.9981938
  74.0811827  42.1138639  72.8182655  74.8752425  41.6188959  72.6165230
  73.3703519  41.5856502  72.4550361  78.9006671  44.4956734  77.1695023
  78.9543694  45.0647670  77.9372739  78.0321453  44.6658619  76.8049060
  70.3894590  36.2581720  68.8942408  69.4592178  36.1966176  69.1112370
  70.4852062  35.7357673  68.0979049  70.3080139  32.7836533  71.4820650
  70.5686957  33.6981866  71.3729810  71.1297312  32.3160976  71.6317262
  71.7805065  34.1974290  78.6519474  72.4528118  33.9891652  78.0032123
  70.9534851  33.9996376  78.2124706  86.0294326  40.9378341  78.1694808
  86.2230216  41.8424151  78.4154083  85.9294944  40.4785760  79.0033393
  77.6830637  30.8236231  80.6685135  77.0358552  31.5226181  80.5749611
  78.4531652  31.2572375  81.0361383  81.0909435  41.0885083  83.7435688
  80.9394941  40.8595635  82.8265772  81.0814114  42.0455685  83.7567033
  77.8594771  38.6616996  78.7281955  78.7886831  38.8128156  78.5550922
  77.4385801  38.7501017  77.8730601  76.6583103  42.6867661  76.4980492
  76.5194189  42.3186445  77.3706430  75.8697699  43.2015300  76.3264450
  77.2531255  47.7876757  67.8406029  77.4283011  47.3164800  68.6551652
  76.5664043  48.4142523  68.0687290  78.2088318  42.0649263  73.8869330
  77.8738151  42.0250033  74.7826980  77.7092264  41.3993979  73.4139740
  72.1832562  37.4716893  79.4121911  72.0452360  36.7397132  80.0133450
  73.0937486  37.3825793  79.1306099  81.1447510  39.4105298  64.1606390
  80.5276680  38.6852126  64.0639443  80.6763998  40.1714658  63.8173464
  74.8114863  37.1836853  78.9005591  75.5214481  36.5430045  78.8592209
  74.7684171  37.4349747  79.8231772  82.8001641  44.1204206  81.8212170
  82.7414188  43.4363426  81.1542753  83.2021160  44.8623196  81.3692796
  73.5243797  34.1702070  80.7201230  72.9881154  33.7192809  81.3722827
  72.9360505  34.3047979  79.9771695  71.8192340  50.9366120  74.6145889
  72.0588938  51.5684644  75.2924908  70.9761537  50.5854160  74.9011248
  72.9346056  33.6290722  63.2827694  72.0575522  33.5079523  62.9189941
  73.4103809  32.8376800  63.0306583  82.8019049  42.0843790  80.0526150
  81.9145827  41.7469712  80.1752549  83.3717600  41.3526821  80.2894915
  64.4548196  38.4167882  73.3769201  65.1419236  38.1029612  72.7890217
  64.2996324  39.3209246  73.1036453  69.2582918  33.3058078  77.8054225
  69.1741107  32.6983748  77.0704635  68.4365624  33.7967096  77.8063721
  76.3320202  46.7445242  77.0187393  76.2590374  47.5500214  77.5306698
  75.8897595  46.9437208  76.1935414  76.1209982  45.9817012  70.5290215
  75.3377504  46.5238692  70.6228439  76.8202727  46.4990992  70.9284456
  79.4306632  31.7911642  73.1724420  79.9275331  31.0381604  72.8525490
  78.6593613  31.8275958  72.6067629  87.2836389  37.4952007  74.8142712
  87.2726265  38.3776723  74.4436645  86.4153769  37.1423558  74.6197249
  78.7918886  46.6432076  79.1745552  79.5046858  47.2779541  79.1021453
  78.3008914  46.7395942  78.3585554  80.5136412  40.5483329  70.7462843
  79.5792691  40.6684791  70.5767548  80.6913081  39.6455796  70.4822853
  76.0141601  33.9329025  72.8996105  75.6439388  33.3800065  73.5877010
  76.5100693  33.3287158  72.3471105  83.9008964  36.3900648  71.2812878
  84.3669416  37.2228640  71.2073180  84.3516464  35.9245630  71.9858136
  73.8430799  44.3926520  79.9951123  74.5440259  45.0263003  80.1480517
  73.3725914  44.7341251  79.2346762  81.9685195  42.7344469  68.2799030
  82.2445039  42.6201064  69.1892904  81.0989694  42.3361954  68.2411203
  81.8725627  28.7581235  75.3203779  80.9588706  28.9885462  75.4885986
  82.3018728  28.8419679  76.1717811  81.6432085  36.9471127  77.8203673
  80.9903535  37.1947035  77.1656126  82.0212465  36.1335265  77.4866150
  78.6039259  46.9830820  71.9231843  78.7861653  46.1652476  72.3859596
  79.4272245  47.1998513  71.4856733  78.9381424  45.9099005  69.1846892
  79.4669191  45.3991460  68.5717054  79.2009644  45.5941536  70.0492425
  77.6919658  37.6890938  84.3069710  77.0160295  37.5885068  84.9772085
  78.5147292  37.5330152  84.7705707  69.4398517  43.9262875  76.9282225
  70.0251954  43.1806563  77.0610129  69.2423356  44.2366831  77.8118889
  72.2937172  46.9614122  71.9444668  71.6247548  47.4460250  71.4608708
  72.1550042  47.2083343  72.8588046  64.0316172  36.4968475  75.6486668
  64.0700271  35.9632066  76.4423786  63.5256465  35.9703680  75.0297646
  76.4342441  48.9957866  78.5427326  76.9860749  49.1589487  79.3076411
  76.7748634  49.5862303  77.8707351  71.4106934  31.3433015  79.1449211
  71.4748261  32.2047846  78.7326608  71.3474054  30.7307017  78.4121569
  70.8859207  33.4156148  82.7922245  71.5131246  33.0333225  83.4059769
  70.0287126  33.1970350  83.1577937  81.2853315  43.8219123  84.3975980
  81.8293219  44.4349081  83.9030935  80.7040160  44.3798702  84.9142993
  67.6624749  35.2232577  68.7240600  67.9578191  34.3143256  68.6707653
  66.7612785  35.2020317  68.4021602  79.5710828  46.9439841  75.5291008
  79.4461968  46.1429581  75.0201954  80.2289919  47.4386035  75.0404978
  71.1918996  33.2988574  74.7068148  70.4705582  33.9124541  74.5675622
  71.9812252  33.8346339  74.6284794  81.6345737  44.7448861  77.1570558
  80.6876072  44.6254212  77.0848885  81.9828510  43.8571359  77.2396820
  73.9945310  30.6343000  80.9808800  74.5179712  30.8805297  81.7435109
  73.7757643  31.4663035  80.5611937  69.3912591  32.9046675  68.8479925
  69.0625297  32.0244054  68.6655031  69.7451962  32.8494343  69.7356314
  78.6392170  44.5401577  73.3574910  78.4917132  43.6118285  73.5382480
  79.4645663  44.5621668  72.8731986  72.5054414  33.1919645  69.2155403
  72.8450487  33.7205566  68.4934011  72.9526535  33.5300051  69.9913969
  82.2426292  45.3630136  74.4439783  83.1672839  45.1572998  74.3064234
  82.0741595  45.1146537  75.3529125  75.1997855  31.5756695  78.6658471
  74.8594675  30.7764508  79.0679151  74.4936861  31.8758406  78.0935304
  75.8514327  28.6606008  77.1185794  76.6740396  28.1866486  76.9964684
  76.0952390  29.4396491  77.6184480  74.4922561  31.6894266  67.4148695
  75.2130924  32.0675519  66.9112412  73.8687865  32.4083143  67.5183673
  78.6353684  32.3939415  68.3507028  78.8517299  33.2764053  68.0495856
  78.1547751  32.0025629  67.6212670  73.3752906  35.3525128  74.9277772
  73.2297486  35.6665431  75.8202054  72.8978109  35.9710029  74.3748671
  75.2349289  32.3427676  74.9758662  75.2210857  31.4468770  74.6390960
  75.9521717  32.3498340  75.6096948  77.0875419  32.7765017  77.0211789
  76.8293197  33.6982087  77.0196120  76.5560460  32.3795451  77.7112253
  82.0321608  45.8815804  69.8001875  82.2058486  45.3162226  69.0475727
  82.5250499  46.6816699  69.6181365  67.8498568  37.8930473  77.8665433
  67.3052036  38.6690281  77.9985708  68.7277918  38.2401277  77.7084555
  74.6386184  31.2242057  70.2446232  74.7602096  30.2958703  70.4437119
  74.3488227  31.2380743  69.3324547  77.5077375  28.9096967  73.3812952
  77.5299072  28.9736300  72.4264931  77.9245434  28.0701476  73.5753458
  87.8860999  38.6452227  71.4192174  88.3292145  37.8959552  71.0211298
  87.0087509  38.6362363  71.0365906  83.0196780  45.1982568  66.8998773
  83.7147685  45.8189261  67.1186088  83.3619931  44.3477919  67.1751151
  68.6364590  37.0200369  80.7595590  67.8946326  37.1683004  81.3460221
  68.3157334  37.2808635  79.8962340  84.9188204  42.6482274  68.4286104
  85.4439528  42.9869546  67.7035424  84.8310556  41.7129289  68.2449238
  76.5808252  46.5616347  80.5575980  76.8895379  46.3165494  81.4298680
  77.3783734  46.7662986  80.0694851  76.6028864  48.7154257  72.7881357
  76.1633855  48.2230636  73.4814214  77.3536981  48.1727225  72.5473432
  69.0821203  44.9065798  72.7905985  69.9079223  44.6069570  72.4104629
  68.7315255  44.1373420  73.2395774  74.0502736  44.2592266  74.8603659
  73.4282746  43.5962971  74.5605886  74.7207603  44.2853398  74.1777306
  67.2829808  42.8252124  73.7494919  66.4461717  42.3974299  73.5678920
  67.2553454  43.0184568  74.6865710  74.1227264  32.7374054  84.4536165
  74.1715419  33.6136177  84.0713934  74.6649778  32.1951447  83.8807808
  84.6082110  43.2815177  83.7337302  83.8177653  43.2639316  83.1941801
  84.3715464  43.8203471  84.4886338  84.7279985  40.1307644  81.0470030
  84.7777990  39.9657651  81.9885553  84.6193908  39.2634903  80.6567911
  73.6116243  42.8096189  68.3362119  73.7604364  43.4931654  67.6828792
  74.4182687  42.7901279  68.8511575  82.0183747  36.1138572  82.3629337
  82.9193610  35.9745037  82.0713335  82.0931722  36.2793026  83.3027514
  76.3526552  33.4905426  81.2082523  75.4829862  33.7838992  80.9365112
  76.5886033  34.0745871  81.9289787  86.2298182  42.5504585  81.2912052
  85.9382990  42.9134566  82.1275513  85.6170313  41.8371593  81.1125384
  87.4293864  40.1157465  73.8114622  88.2640755  40.5547269  73.9752182
  87.5652993  39.6396118  72.9922868  84.4785370  37.6737200  79.7592110
  84.9539491  37.8664846  78.9510961  83.5550935  37.7296386  79.5135493
  71.3668876  38.8361367  69.3423188  71.1214918  37.9323697  69.5403398
  71.5364791  38.8378517  68.4002666  79.0565586  29.7085043  78.7247944
  79.5747530  30.4446070  78.3994432  78.7020719  30.0149037  79.5594703
  70.6364524  34.5689725  66.8409349  69.9433769  34.6434080  66.1849385
  70.3916276  33.8050068  67.3630866  79.3078180  26.1285326  74.2448840
  79.5879934  25.4608515  74.8709267  80.0928787  26.3214421  73.7323504
  77.1111649  45.3044320  65.8073867  76.5385616  45.9234507  65.3544338
  77.6844443  45.8543681  66.3413788  83.1787039  34.5502960  77.9920415
  84.1304462  34.6501058  78.0132639  83.0090489  33.7581228  78.5018500
  81.2001418  31.6358543  78.1779816  80.6051350  31.9163556  77.4826305
  80.9151115  32.1252444  78.9496557  80.3308909  45.5881470  66.9382449
  81.2639582  45.5227032  67.1415324  80.2432122  46.4237737  66.4796981
  82.9596925  44.9047340  63.8986396  82.8810557  44.5707204  64.7922154
  83.7806592  45.3969108  63.8977869  85.6575117  37.7709080  77.1062715
  85.6251437  36.8325080  77.2922399  86.2675740  37.8493116  76.3728540
  77.4958447  36.6405133  63.1489919  78.4417552  36.5111341  63.2178337
  77.1172692  35.9019794  63.6259347  85.8069605  34.5620123  77.1520998
  85.2908654  33.7778580  76.9650927  86.6909554  34.2338840  77.3167518
  83.4680332  28.3061139  73.1116811  83.2705153  27.9976227  73.9960143
  84.0780038  29.0322777  73.2414741  91.4751666  38.8325086  76.2468752
  92.2055055  38.5710375  76.8076455  90.8658612  38.0953808  76.2870820
  89.5566964  36.9732949  76.8443203  88.8300127  36.8388914  76.2359695
  89.1414250  37.2809778  77.6499921  77.3797140  40.6922879  84.6090576
  78.3000149  40.8701478  84.8030623  77.3446723  39.7478924  84.4570275
  75.6801365  34.5655109  63.0844804  74.7732820  34.2688222  63.1607518
  75.9577346  34.2684927  62.2179090  66.5979305  35.8861472  73.5343851
  66.2782089  35.0326781  73.2418225  66.0512733  36.1010050  74.2901818
  70.3759213  38.6023913  77.2513357  70.5945222  39.5341021  77.2701391
  70.7884986  38.2431888  78.0368161  77.2963430  29.1091999  69.2389046
  76.4864159  28.7639084  69.6144292  77.9847847  28.7999542  69.8276657
  79.2253979  28.1870045  70.8613342  79.7785017  28.6065499  71.5203365
  79.4624065  27.2605794  70.9036298  75.2487078  34.1757119  86.6416106
  75.1483805  35.1251476  86.5728197  75.0308620  33.8475358  85.7692176
  74.4500149  31.4242044  63.2256783  75.3119313  31.7496942  63.4852601
  74.6350493  30.6373540  62.7129849  66.4667565  39.5064384  75.5036972
  65.7731036  39.0918337  74.9906927  67.2140556  39.5484920  74.9070391
  82.6032786  30.2970571  70.3692006  82.0231455  30.9555375  69.9870059
  82.3368718  29.4747915  69.9579424  81.0536352  29.6975628  72.5713327
  81.5536130  29.8092163  71.7627646  81.6971960  29.3936681  73.2114135
  75.1118348  37.6054258  85.4581168  74.6285430  38.4054618  85.6645057
  75.1979287  37.6162203  84.5048612  68.3804307  39.4382638  73.3802987
  68.3574996  39.5370325  72.4284870  68.6904944  40.2847788  73.7020153
  71.0391685  41.4958793  77.4949602  71.9934939  41.4642735  77.4279533
  70.8404209  41.0349416  78.3099827  71.6291067  40.0659909  80.0620399
  72.4483956  40.5603987  80.0855236  71.9027875  39.1491877  80.0337967
  81.3857664  32.4570661  69.4248355  80.4983519  32.7420312  69.2068549
  81.8011653  32.2964424  68.5775632  84.7372200  32.4817182  73.1402694
  85.5132590  32.9713634  73.4127311  84.0120334  32.9075236  73.5974563
  87.1744758  33.1944801  74.1976635  87.7689249  32.9540537  73.4869943
  87.2471342  32.4751932  74.8250171  69.3941914  47.0378412  74.5119799
  69.2596382  46.2778813  73.9457797  68.9773976  47.7619312  74.0448588
  80.5300877  42.2215336  63.5196375  81.2336727  42.4265338  64.1354030
  79.8063526  42.7892098  63.7845458  81.3598687  37.9725197  69.6398645
  81.3033889  38.4293748  68.8006277  81.9127030  37.2115882  69.4621488
  85.1703493  33.7614929  70.4648764  84.9140428  33.3611564  71.2956972
  84.5456361  34.4758723  70.3398904  89.4815831  36.5011002  72.9720056
  88.9215389  36.5704191  73.7451618  88.8759335  36.3251987  72.2519552
  72.5511040  47.9347729  74.7238242  72.4343424  48.8793162  74.6216932
  71.7303486  47.6321291  75.1124041  82.4387575  42.6597865  65.5694835
  83.2733179  42.2279063  65.3872310  82.2771917  42.4879879  66.4971729
  82.0933467  39.1629978  66.9351174  82.0382271  38.9974250  65.9939618
  81.4679522  39.8706011  67.0913364  66.8825982  34.3998043  80.7612596
  67.5284845  33.8896997  81.2499821  66.6743133  35.1366724  81.3356022
  79.4079374  41.4678890  86.2604737  80.2770534  41.6419542  85.8991372
  78.9286125  42.2873307  86.1380466  75.4029592  28.6638087  66.5136492
  75.3908262  29.6079927  66.6704763  76.2953014  28.4808233  66.2195954
  73.5765554  48.5875991  77.9394170  74.4792801  48.6199601  78.2560665
  73.3502924  47.6576442  77.9540506  75.3319156  47.3406978  74.6004249
  74.3814787  47.3408839  74.4868621  75.6351642  46.5939712  74.0840284
  79.2181712  25.2580864  70.7682429  78.4514107  24.7039350  70.9139112
  79.6292417  25.3302733  71.6296581  71.2223473  31.5465660  84.8587610
  72.0854934  31.1902464  85.0690935  70.6488883  31.2079554  85.5463015
  91.0671850  53.1767516  75.6650011  91.7050260  53.0574263  74.9613352
  90.9492693  54.1248360  75.7237964  87.8761556  53.1294944  75.6011536
  87.5380067  53.0136009  74.7132071  88.7451324  52.7286109  75.5812542
  83.7348372  54.9830420  71.5908427  83.1713237  54.8920357  70.8224715
  83.6200767  54.1630325  72.0710920  88.3581339  54.2829796  81.5597742
  88.3469980  53.8882594  80.6878245  88.5201978  53.5495868  82.1531513
  81.2812804  56.4781612  74.4292648  82.0734095  56.1372437  74.0138947
  81.5209454  56.5876587  75.3494801  89.3147930  58.6501388  66.9022892
  88.6635910  59.2355469  66.5156906  90.1092293  59.1807583  66.9617930
  83.2403558  55.7390525  67.3010026  84.0134434  55.1919512  67.1622902
  83.5928956  56.6034775  67.5124488  85.0788600  57.0666908  80.5076926
  84.7878466  57.9712538  80.3923592  85.7145584  57.1083435  81.2220995
  86.0044807  54.4443756  77.0978285  86.6008379  54.2199779  76.3835248
  86.0619778  53.7028502  77.7003733  85.5769835  51.8983191  64.9328476
  85.8295356  51.3764713  64.1711939  84.6394394  51.7349337  65.0355160
  90.6213118  50.9018970  72.7403220  91.4076207  50.4838393  72.3893637
  90.8851822  51.8065062  72.9084868  90.7923195  56.3391820  67.4391876
  90.1569028  56.4126447  68.1512781  90.4620602  56.9285419  66.7610956
  96.0221545  50.8394203  73.6436198  96.7546717  50.2693420  73.8774028
  95.2660901  50.4515803  74.0842704  85.2966124  53.8011297  67.1352851
  85.1802382  53.1256201  67.8033936  85.4068384  53.3143671  66.3185004
  87.6397665  53.2621445  70.8399541  87.2755872  52.7352065  71.5512462
  88.4964781  52.8719914  70.6666026  93.5446966  44.5515777  78.1030807
  93.2130290  45.4211188  77.8792022  92.9492579  44.2352061  78.7824837
  87.2803152  48.2911344  65.8360889  87.4477554  49.1591581  66.2031360
  87.0900321  48.4538626  64.9122178  90.0378485  56.7528323  77.5026719
  89.7379208  57.6553362  77.3942527  89.6929545  56.4860506  78.3547872
  83.4890967  53.2042120  73.5363424  82.5641463  53.0718334  73.7441116
  83.7375380  53.9836339  74.0333366  87.2592373  50.7469002  66.8207556
  87.1391998  51.1926052  67.6593036  86.5644961  51.0954319  66.2621094
  80.8499778  52.8475393  74.3707213  80.9792159  53.1009872  75.2846625
  80.1697229  53.4403101  74.0511868  85.0199265  63.5172643  70.4697687
  84.9423295  64.4680469  70.5486168  84.4160909  63.1718516  71.1272613
  87.5116495  50.6900509  83.1259054  86.7349829  51.2494429  83.1161919
  88.1507058  51.1757292  83.6473924  95.3037275  47.4727302  76.9602031
  94.6611656  47.7659835  76.3141825  94.7992204  47.3580222  77.7655227
  92.9577439  51.2190475  67.6487890  93.8695295  51.4517862  67.4735587
  92.4487086  51.8027519  67.0862968  85.7662867  53.4985962  82.6877021
  86.5077551  54.0371006  82.4111845  85.0599853  54.1252251  82.8448573
  91.2418207  55.6415103  81.2849182  91.6501563  55.1997513  80.5403815
  90.5195468  55.0667730  81.5383375  87.5949277  50.5787709  78.6582739
  88.4410472  51.0027123  78.8017388  87.5347914  49.9221334  79.3521303
  91.5647021  56.2016293  75.0401471  90.9355884  56.3662007  74.3377539
  91.1772683  56.6157903  75.8112435  90.7448722  48.2392078  80.3163913
  90.5009654  48.9934138  79.7798189  91.0208653  48.6177425  81.1511160
  90.3013414  47.3948511  75.8977751  89.4397893  47.6929764  76.1894488
  90.3275848  47.6118910  74.9658783  87.1174983  55.9390701  72.3051556
  87.5813329  56.2178404  71.5156179  86.8531781  55.0374146  72.1224647
  84.0099064  55.4862183  75.2431320  84.5800421  55.9149451  74.6048804
  84.6007176  55.2044768  75.9415505  86.0543869  52.0613854  69.1141122
  86.7567913  52.5134897  69.5815048  85.7224498  51.4197673  69.7421015
  84.5024231  50.6525610  83.4892331  83.8722891  51.3341891  83.7227728
  84.3960319  50.5408692  82.5445469  79.7969203  50.3197406  74.4158255
  79.0068257  50.5754935  73.9398366  80.2880451  51.1345744  74.5210296
  93.8133013  57.6602646  77.1663536  94.6350456  57.2582833  76.8846218
  93.8095416  57.5570880  78.1179652  81.7483949  50.6841986  71.3741732
  80.9515112  50.7960680  71.8925228  81.5209541  51.0228638  70.5082622
  78.0806906  50.5727897  76.8473246  78.3314945  51.4574907  77.1130822
  78.6166455  50.3932498  76.0748338 101.9039006  54.0041394  73.5148507
 101.1502714  53.4348792  73.3592512 102.0386547  53.9704059  74.4619142
  87.2937634  58.8754796  69.1903227  87.1583309  59.7206332  69.6188075
  87.8347446  59.0774074  68.4269161  83.7804974  44.9546376  85.8517582
  83.3871919  44.4012575  86.5265226  84.5971114  45.2656955  86.2424100
  82.5561916  59.5095991  71.8453905  82.7328544  60.4313955  71.6574889
  83.3518749  59.1954410  72.2748285  86.6972935  46.3704255  83.4437839
  87.4382648  46.9711408  83.3642301  86.9290857  45.6281893  82.8855881
  81.8414273  51.5560623  81.7216068  81.7267788  50.6545880  82.0223167
  80.9858790  51.8024319  81.3700885  83.6793231  61.0274165  77.8464247
  84.2300657  60.8991228  77.0741241  82.8404707  61.3269054  77.4959140
  87.4760402  57.2925292  82.1908479  88.0088739  56.5313581  81.9607787
  86.9474484  56.9998944  82.9332633  90.6430097  42.3985358  77.7202120
  90.2994367  43.2887000  77.6441231  91.0109060  42.2087016  76.8571705
  90.6080380  52.3893969  66.2274555  90.0927004  53.1598574  66.4662943
  90.3357689  51.7159106  66.8507617  88.1927491  47.2343670  71.2859794
  87.3369088  46.8450521  71.1065432  88.6054443  47.3135631  70.4259579
  89.7226638  44.7690013  75.6851354  89.2191433  44.7320149  74.8719159
  90.0157245  45.6782756  75.7448010  85.9669524  44.8528743  74.6917535
  86.8322520  44.6571552  74.3323425  86.0347033  44.6239095  75.6186892
  88.8413115  56.4211285  69.7027291  88.3134477  55.6864044  69.3900528
  88.3400618  57.1985961  69.4567259  83.5731843  47.0830951  72.0633902
  84.1475595  46.8606133  71.3307095  84.1602825  47.1519646  72.8162503
  92.6311420  52.9704678  72.8698279  93.1443302  53.6034670  73.3719988
  93.2812644  52.3705873  72.5041639  83.9001430  49.1135412  66.0829787
  83.0638742  49.4510099  66.4039062  83.7606200  48.9784392  65.1456924
  85.8754511  43.9572200  70.7908971  85.2218923  43.6421217  70.1665586
  85.8334985  43.3347940  71.5168794  86.9865715  54.2391495  62.7062264
  86.0792777  54.0080749  62.9053413  87.4836747  53.4429114  62.8936245
  89.8933794  62.9489002  65.6258950  89.2195493  63.2520699  66.2343908
  90.2799616  63.7518083  65.2764407  89.1092251  50.4454134  75.1156619
  88.1914812  50.6669081  74.9578307  89.5252394  50.5200444  74.2568326
  89.8927299  51.8445549  70.2459299  90.6399118  52.3566946  69.9366421
  90.1618888  51.5229602  71.1063693  88.1653949  54.3404090  67.2286254
  87.2565168  54.0563123  67.3258723  88.1949033  54.7603169  66.3689561
  93.3973216  57.9510679  70.9977421  92.9435543  57.1101589  71.0542612
  92.7667183  58.5872078  71.3352201  92.3406136  48.8802665  72.2278089
  91.6028893  48.3680052  72.5588331  92.5932909  48.4403047  71.4161366
  91.8406155  59.7887176  71.9327239  92.1329130  60.3492233  71.2139605
  92.3504776  60.0815737  72.6880398  92.4417763  41.6578917  72.8219858
  92.7476640  40.7976281  72.5345773  93.1670368  42.2496538  72.6218852
  78.7342119  52.0609604  71.2101456  78.5366519  51.4678965  70.4852522
  78.1788783  51.7561814  71.9277395  86.7138843  51.9532711  73.3296049
  86.7687453  51.0006547  73.2538526  85.9030045  52.1092150  73.8137347
  87.8630037  55.8812834  64.5674332  87.4249467  55.1648693  64.1079970
  88.6040477  56.1088948  64.0059424  84.6531203  50.5709770  71.0886428
  83.8399068  50.8703941  71.4951620  85.1490197  50.1765459  71.8060910
  86.8039781  60.5667527  73.0220693  86.7615959  60.7928374  72.0929225
  87.7202480  60.3330902  73.1706494  90.2505414  51.0351595  79.9201322
  90.6054802  51.2623068  80.7795788  90.8977546  51.3669972  79.2978577
  95.9803151  54.1570031  70.6250651  95.8421050  54.3471627  69.6971840
  95.6239370  54.9189413  71.0818702  84.1445278  48.1428126  76.7047663
  84.7844657  48.0016885  76.0070626  83.3122808  47.8562639  76.3286265
  96.0072531  56.2246558  75.6361922  96.4409038  56.1321847  76.4844976
  96.7204112  56.2004058  74.9981938  84.9205581  57.4430556  72.8182655
  85.7146180  56.9480876  72.6165230  84.2097274  56.9148419  72.4550361
  81.2288345  51.5873638  68.8942408  80.2985933  51.5258093  69.1112370
  81.3245817  51.0649591  68.0979049  81.1473894  48.1128451  71.4820650
  81.4080711  49.0273784  71.3729810  81.9691066  47.6452893  71.6317262
  82.6198819  49.5266208  78.6519474  83.2921873  49.3183570  78.0032123
  81.7928606  49.3288294  78.2124706  96.8688081  56.2670258  78.1694808
  97.0623971  57.1716069  78.4154083  96.7688699  55.8077677  79.0033393
  88.5224391  46.1528149  80.6685135  87.8752306  46.8518099  80.5749611
  89.2925407  46.5864293  81.0361383  91.9303189  56.4177001  83.7435688
  91.7788696  56.1887553  82.8265772  91.9207869  57.3747602  83.7567033
  88.6988526  53.9908914  78.7281955  89.6280586  54.1420073  78.5550922
  88.2779556  54.0792935  77.8730601  87.4976857  58.0159578  76.4980492
  87.3587943  57.6478363  77.3706430  86.7091454  58.5307218  76.3264450
  88.0925009  63.1168675  67.8406029  88.2676765  62.6456718  68.6551652
  87.4057797  63.7434441  68.0687290  89.0482073  57.3941181  73.8869330
  88.7131905  57.3541951  74.7826980  88.5486018  56.7285897  73.4139740
  83.0226317  52.8008811  79.4121911  82.8846114  52.0689050  80.0133450
  83.9331240  52.7117711  79.1306099  91.9841264  54.7397215  64.1606390
  91.3670435  54.0144043  64.0639443  91.5157753  55.5006576  63.8173464
  85.6508617  52.5128770  78.9005591  86.3608236  51.8721962  78.8592209
  85.6077925  52.7641665  79.8231772  93.6395396  59.4496124  81.8212170
  93.5807942  58.7655344  81.1542753  94.0414914  60.1915114  81.3692796
  84.3637551  49.4993988  80.7201230  83.8274908  49.0484727  81.3722827
  83.7754260  49.6339897  79.9771695  83.7739810  48.9582640  63.2827694
  82.8969276  48.8371440  62.9189941  84.2497563  48.1668718  63.0306583
  93.6412803  57.4135708  80.0526150  92.7539582  57.0761629  80.1752549
  94.2111354  56.6818739  80.2894915  80.0976672  48.6349996  77.8054225
  80.0134861  48.0275665  77.0704635  79.2759379  49.1259014  77.8063721
  87.1713957  62.0737160  77.0187393  87.0984128  62.8792131  77.5306698
  86.7291350  62.2729126  76.1935414  86.9603736  61.3108930  70.5290215
  86.1771258  61.8530610  70.6228439  87.6596481  61.8282910  70.9284456
  90.2700386  47.1203559  73.1724420  90.7669086  46.3673522  72.8525490
  89.4987368  47.1567876  72.6067629  98.1230144  52.8243925  74.8142712
  98.1120020  53.7068640  74.4436645  97.2547523  52.4715476  74.6197249
  89.6312640  61.9723994  79.1745552  90.3440612  62.6071459  79.1021453
  89.1402669  62.0687860  78.3585554  86.8535355  49.2620942  72.8996105
  86.4833143  48.7091983  73.5877010  87.3494447  48.6579076  72.3471105
  84.6824554  59.7218437  79.9951123  85.3834013  60.3554920  80.1480517
  84.2119669  60.0633169  79.2346762  92.8078949  58.0636387  68.2799030
  93.0838793  57.9492982  69.1892904  91.9383448  57.6653872  68.2411203
  92.7119381  44.0873153  75.3203779  91.7982461  44.3177380  75.4885986
  93.1412483  44.1711597  76.1717811  89.4433013  62.3122738  71.9231843
  89.6255408  61.4944394  72.3859596  90.2665999  62.5290430  71.4856733
  89.7775179  61.2390923  69.1846892  90.3062945  60.7283378  68.5717054
  90.0403399  60.9233453  70.0492425  88.5313413  53.0182856  84.3069710
  87.8554050  52.9176985  84.9772085  89.3541046  52.8622070  84.7705707
  80.2792272  59.2554792  76.9282225  80.8645708  58.5098480  77.0610129
  80.0817110  59.5658749  77.8118889  83.1330927  62.2906040  71.9444668
  82.4641302  62.7752167  71.4608708  82.9943797  62.5375260  72.8588046
  74.8709926  51.8260393  75.6486668  74.9094026  51.2923983  76.4423786
  74.3650219  51.2995598  75.0297646  87.2736195  64.3249783  78.5427326
  87.8254503  64.4881405  79.3076411  87.6142389  64.9154221  77.8707351
  82.2500689  46.6724933  79.1449211  82.3142015  47.5339764  78.7326608
  82.1867809  46.0598935  78.4121569  81.7252961  48.7448066  82.7922245
  82.3525000  48.3625143  83.4059769  80.8680880  48.5262268  83.1577937
  92.1247070  59.1511041  84.3975980  92.6686974  59.7640999  83.9030935
  91.5433915  59.7090619  84.9142993  78.5018504  50.5524495  68.7240600
  78.7971945  49.6435173  68.6707653  77.6006540  50.5312234  68.4021602
  90.4104583  62.2731759  75.5291008  90.2855722  61.4721499  75.0201954
  91.0683674  62.7677952  75.0404978  82.0312751  48.6280491  74.7068148
  81.3099337  49.2416459  74.5675622  82.8206007  49.1638256  74.6284794
  92.4739491  60.0740779  77.1570558  91.5269827  59.9546130  77.0848885
  92.8222264  59.1863277  77.2396820  84.8339064  45.9634918  80.9808800
  85.3573466  46.2097214  81.7435109  84.6151398  46.7954953  80.5611937
  80.2306346  48.2338592  68.8479925  79.9019052  47.3535971  68.6655031
  80.5845716  48.1786261  69.7356314  89.4785924  59.8693495  73.3574910
  89.3310887  58.9410203  73.5382480  90.3039418  59.8913586  72.8731986
  83.3448169  48.5211562  69.2155403  83.6844241  49.0497484  68.4934011
  83.7920289  48.8591968  69.9913969  86.0391610  46.9048613  78.6658471
  85.6988430  46.1056426  79.0679151  85.3330616  47.2050324  78.0935304
  86.6908081  43.9897925  77.1185794  87.5134151  43.5158404  76.9964684
  86.9346145  44.7688409  77.6184480  85.3316316  47.0186184  67.4148695
  86.0524678  47.3967437  66.9112412  84.7081620  47.7375061  67.5183673
  84.2146660  50.6817046  74.9277772  84.0691241  50.9957349  75.8202054
  83.7371864  51.3001946  74.3748671  86.0743043  47.6719594  74.9758662
  86.0604612  46.7760687  74.6390960  86.7915471  47.6790258  75.6096948
  87.9269174  48.1056934  77.0211789  87.6686952  49.0274005  77.0196120
  87.3954214  47.7087369  77.7112253  92.8715362  61.2107721  69.8001875
  93.0452240  60.6454144  69.0475727  93.3644254  62.0108616  69.6181365
  78.6892322  53.2222390  77.8665433  78.1445790  53.9982198  77.9985708
  79.5671672  53.5693195  77.7084555  85.4779939  46.5533974  70.2446232
  85.5995850  45.6250620  70.4437119  85.1881981  46.5672660  69.3324547
  88.3471129  44.2388885  73.3812952  88.3692826  44.3028218  72.4264931
  88.7639188  43.3993393  73.5753458  98.7254754  53.9744144  71.4192174
  99.1685900  53.2251469  71.0211298  97.8481264  53.9654281  71.0365906
  93.8590535  60.5274486  66.8998773  94.5541440  61.1481178  67.1186088
  94.2013685  59.6769837  67.1751151  79.4758344  52.3492287  80.7595590
  78.7340080  52.4974922  81.3460221  79.1551088  52.6100552  79.8962340
  87.4202007  61.8908265  80.5575980  87.7289133  61.6457412  81.4298680
  88.2177489  62.0954903  80.0694851  87.4422619  64.0446175  72.7881357
  87.0027609  63.5522553  73.4814214  88.1930736  63.5019142  72.5473432
  79.9214958  60.2357715  72.7905985  80.7472978  59.9361487  72.4104629
  79.5709010  59.4665338  73.2395774  84.8896491  59.5884184  74.8603659
  84.2676500  58.9254889  74.5605886  85.5601358  59.6145316  74.1777306
  78.1223563  58.1544042  73.7494919  77.2855471  57.7266216  73.5678920
  78.0947208  58.3476485  74.6865710  84.9621018  48.0665972  84.4536165
  85.0109174  48.9428094  84.0713934  85.5043533  47.5243365  83.8807808
  95.4475864  58.6107095  83.7337302  94.6571408  58.5931234  83.1941801
  95.2109219  59.1495389  84.4886338  95.5673739  55.4599561  81.0470030
  95.6171744  55.2949569  81.9885553  95.4587663  54.5926820  80.6567911
  84.4509998  58.1388107  68.3362119  84.5998118  58.8223571  67.6828792
  85.2576441  58.1193197  68.8511575  92.8577502  51.4430489  82.3629337
  93.7587364  51.3036954  82.0713335  92.9325476  51.6084944  83.3027514
  87.1920307  48.8197344  81.2082523  86.3223616  49.1130910  80.9365112
  87.4279787  49.4037789  81.9289787  97.0691936  57.8796503  81.2912052
  96.7776744  58.2426483  82.1275513  96.4564067  57.1663511  81.1125384
  98.2687618  55.4449383  73.8114622  99.1034510  55.8839187  73.9752182
  98.4046747  54.9688036  72.9922868  95.3179124  53.0029117  79.7592110
  95.7933246  53.1956764  78.9510961  94.3944690  53.0588303  79.5135493
  82.2062631  54.1653285  69.3423188  81.9608673  53.2615615  69.5403398
  82.3758545  54.1670435  68.4002666  89.8959341  45.0376961  78.7247944
  90.4141285  45.7737988  78.3994432  89.5414474  45.3440954  79.5594703
  81.4758278  49.8981642  66.8409349  80.7827523  49.9725997  66.1849385
  81.2310030  49.1341986  67.3630866  90.1471935  41.4577244  74.2448840
  90.4273689  40.7900433  74.8709267  90.9322542  41.6506339  73.7323504
  87.9505403  60.6336237  65.8073867  87.3779371  61.2526425  65.3544338
  88.5238197  61.1835599  66.3413788  94.0180793  49.8794878  77.9920415
  94.9698216  49.9792975  78.0132639  93.8484244  49.0873146  78.5018500
  92.0395173  46.9650461  78.1779816  91.4445105  47.2455473  77.4826305
  91.7544869  47.4544362  78.9496557  91.1702663  60.9173388  66.9382449
  92.1033336  60.8518949  67.1415324  91.0825876  61.7529654  66.4796981
  93.7990680  60.2339258  63.8986396  93.7204311  59.8999122  64.7922154
  94.6200347  60.7261026  63.8977869  96.4968871  53.1000997  77.1062715
  96.4645191  52.1616998  77.2922399  97.1069495  53.1785034  76.3728540
  88.3352202  51.9697050  63.1489919  89.2811307  51.8403258  63.2178337
  87.9566447  51.2311712  63.6259347  96.6463360  49.8912041  77.1520998
  96.1302408  49.1070497  76.9650927  97.5303308  49.5630757  77.3167518
  94.3074086  43.6353056  73.1116811  94.1098908  43.3268144  73.9960143
  94.9173792  44.3614695  73.2414741 102.3145421  54.1617004  76.2468752
 103.0448809  53.9002292  76.8076455 101.7052366  53.4245726  76.2870820
 100.3960718  52.3024867  76.8443203  99.6693882  52.1680832  76.2359695
  99.9808005  52.6101695  77.6499921  88.2190894  56.0214796  84.6090576
  89.1393904  56.1993395  84.8030623  88.1840477  55.0770842  84.4570275
  86.5195119  49.8947027  63.0844804  85.6126574  49.5980139  63.1607518
  86.7971100  49.5976845  62.2179090  77.4373059  51.2153390  73.5343851
  77.1175844  50.3618698  73.2418225  76.8906488  51.4301968  74.2901818
  81.2152967  53.9315831  77.2513357  81.4338977  54.8632939  77.2701391
  81.6278741  53.5723805  78.0368161  88.1357185  44.4383916  69.2389046
  87.3257913  44.0931001  69.6144292  88.8241602  44.1291460  69.8276657
  90.0647733  43.5161963  70.8613342  90.6178772  43.9357417  71.5203365
  90.3017819  42.5897711  70.9036298  86.0880832  49.5049037  86.6416106
  85.9877559  50.4543394  86.5728197  85.8702374  49.1767276  85.7692176
  85.2893904  46.7533962  63.2256783  86.1513068  47.0788860  63.4852601
  85.4744248  45.9665458  62.7129849  77.3061319  54.8356301  75.5036972
  76.6124791  54.4210254  74.9906927  78.0534310  54.8776838  74.9070391
  93.4426540  45.6262488  70.3692006  92.8625209  46.2847292  69.9870059
  93.1762473  44.8039833  69.9579424  91.8930107  45.0267546  72.5713327
  92.3929885  45.1384081  71.7627646  92.5365714  44.7228599  73.2114135
  85.9512102  52.9346176  85.4581168  85.4679184  53.7346536  85.6645057
  86.0373041  52.9454120  84.5048612  79.2198062  54.7674555  73.3802987
  79.1968750  54.8662243  72.4284870  79.5298698  55.6139706  73.7020153
  81.8785440  56.8250710  77.4949602  82.8328693  56.7934653  77.4279533
  81.6797963  56.3641334  78.3099827  82.4684822  55.3951826  80.0620399
  83.2877711  55.8895905  80.0855236  82.7421630  54.4783794  80.0337967
  98.0138513  48.5236719  74.1976635  98.6083004  48.2832455  73.4869943
  98.0865097  47.8043849  74.8250171  80.2335669  62.3670330  74.5119799
  80.0990137  61.6070731  73.9457797  79.8167731  63.0911230  74.0448588
  91.3694632  57.5507253  63.5196375  92.0730482  57.7557256  64.1354030
  90.6457280  58.1184015  63.7845458  92.1992442  53.3017115  69.6398645
  92.1427643  53.7585666  68.8006277  92.7520784  52.5407799  69.4621488
  96.0097248  49.0906846  70.4648764  95.7534182  48.6903482  71.2956972
  95.3850116  49.8050640  70.3398904 100.3209586  51.8302920  72.9720056
  99.7609144  51.8996109  73.7451618  99.7153089  51.6543904  72.2519552
  83.3904795  63.2639647  74.7238242  83.2737179  64.2085079  74.6216932
  82.5697241  62.9613208  75.1124041  93.2781329  57.9889783  65.5694835
  94.1126933  57.5570981  65.3872310  93.1165672  57.8171796  66.4971729
  77.7219736  49.7289960  80.7612596  78.3678600  49.2188914  81.2499821
  77.5136887  50.4658642  81.3356022  90.2473128  56.7970808  86.2604737
  91.1164288  56.9711460  85.8991372  89.7679880  57.6165225  86.1380466
  86.2423347  43.9930005  66.5136492  86.2302017  44.9371845  66.6704763
  87.1346769  43.8100150  66.2195954  84.4159309  63.9167909  77.9394170
  85.3186555  63.9491519  78.2560665  84.1896679  62.9868360  77.9540506
  86.1712911  62.6698895  74.6004249  85.2208542  62.6700757  74.4868621
  86.4745397  61.9231630  74.0840284  90.0575466  40.5872781  70.7682429
  89.2907862  40.0331268  70.9139112  90.4686171  40.6594650  71.6296581
  82.0617227  46.8757577  84.8587610  82.9248689  46.5194382  85.0690935
  81.4882638  46.5371472  85.5463015 101.9065604  68.5059434  75.6650011
 102.5444014  68.3866181  74.9613352 101.7886447  69.4540278  75.7237964
  98.7155310  68.4586862  75.6011536  98.3773822  68.3427926  74.7132071
  99.5845079  68.0578027  75.5812542  94.5742126  70.3122338  71.5908427
  94.0106991  70.2212275  70.8224715  94.4594521  69.4922243  72.0710920
  99.1975093  69.6121713  81.5597742  99.1863734  69.2174512  80.6878245
  99.3595733  68.8787786  82.1531513  92.1206558  71.8073530  74.4292648
  92.9127850  71.4664354  74.0138947  92.3603208  71.9168505  75.3494801
 100.1541685  73.9793306  66.9022892  99.5029665  74.5647386  66.5156906
 100.9486048  74.5099501  66.9617930  94.0797312  71.0682443  67.3010026
  94.8528188  70.5211430  67.1622902  94.4322711  71.9326692  67.5124488
  95.9182355  72.3958825  80.5076926  95.6272221  73.3004456  80.3923592
  96.5539339  72.4375353  81.2220995  96.8438561  69.7735674  77.0978285
  97.4402134  69.5491696  76.3835248  96.9013533  69.0320419  77.7003733
  96.4163590  67.2275109  64.9328476  96.6689111  66.7056630  64.1711939
  95.4788149  67.0641255  65.0355160 101.4606873  66.2310887  72.7403220
 102.2469962  65.8130311  72.3893637 101.7245577  67.1356980  72.9084868
 101.6316950  71.6683738  67.4391876 100.9962783  71.7418364  68.1512781
 101.3014356  72.2577337  66.7610956 106.8615300  66.1686121  73.6436198
 107.5940472  65.5985337  73.8774028 106.1054655  65.7807721  74.0842704
  98.4791419  68.5913362  70.8399541  98.1149627  68.0643983  71.5512462
  99.3358535  68.2011831  70.6666026 104.3840720  59.8807695  78.1030807
 104.0524045  60.7503106  77.8792022 103.7886334  59.5643979  78.7824837
  98.1196906  63.6203262  65.8360889  98.2871309  64.4883498  66.2031360
  97.9294076  63.7830544  64.9122178 100.8772240  72.0820241  77.5026719
 100.5772963  72.9845280  77.3942527 100.5323299  71.8152424  78.3547872
  94.3284721  68.5334038  73.5363424  93.4035218  68.4010252  73.7441116
  94.5769134  69.3128257  74.0333366 104.2769383  64.6002781  75.1824157
 103.3686261  64.5318189  74.8882918 104.2256979  65.0774726  76.0105982
  91.6893532  68.1767311  74.3707213  91.8185913  68.4301790  75.2846625
  91.0090983  68.7695019  74.0511868  95.8593019  78.8464561  70.4697687
  95.7817049  79.7972386  70.5486168  95.2554663  78.5010434  71.1272613
  98.3510249  66.0192427  83.1259054  97.5743583  66.5786347  83.1161919
  98.9900812  66.5049210  83.6473924 106.1431030  62.8019219  76.9602031
 105.5005410  63.0951753  76.3141825 105.6385958  62.6872140  77.7655227
 103.7971194  66.5482393  67.6487890 104.7089050  66.7809779  67.4735587
 103.2880841  67.1319437  67.0862968  96.6056622  68.8277880  82.6877021
  97.3471306  69.3662924  82.4111845  95.8993607  69.4544169  82.8448573
 102.0811961  70.9707020  81.2849182 102.4895317  70.5289431  80.5403815
 101.3589223  70.3959648  81.5383375  98.4343031  65.9079627  78.6582739
  99.2804226  66.3319041  78.8017388  98.3741669  65.2513251  79.3521303
 102.4040776  71.5308211  75.0401471 101.7749638  71.6953925  74.3377539
 102.0166438  71.9449821  75.8112435 106.2830008  72.4662649  72.3945835
 105.5981046  72.8461550  71.8442868 106.3673857  73.0757976  73.1277783
 101.5842477  63.5683996  80.3163913 101.3403408  64.3226056  79.7798189
 101.8602407  63.9469343  81.1511160 103.5380939  70.1122608  78.9941179
 103.7497835  70.7554368  78.3175560 103.4910688  69.2784924  78.5263109
 101.1407168  62.7240429  75.8977751 100.2791647  63.0221682  76.1894488
 101.1669603  62.9410827  74.9658783  97.9568738  71.2682619  72.3051556
  98.4207083  71.5470322  71.5156179  97.6925536  70.3666064  72.1224647
  94.8492819  70.8154101  75.2431320  95.4194176  71.2441369  74.6048804
  95.4400931  70.5336685  75.9415505  96.8937624  67.3905771  69.1141122
  97.5961667  67.8426815  69.5815048  96.5618252  66.7489590  69.7421015
  95.3417985  65.9817528  83.4892331  94.7116646  66.6633809  83.7227728
  95.2354073  65.8700610  82.5445469  90.6362958  65.6489324  74.4158255
  89.8462012  65.9046853  73.9398366  91.1274205  66.4637662  74.5210296
 104.6526767  72.9894563  77.1663536 105.4744211  72.5874751  76.8846218
 104.6489170  72.8862797  78.1179652  92.5877703  66.0133903  71.3741732
  91.7908866  66.1252598  71.8925228  92.3603295  66.3520556  70.5082622
  98.4183371  72.5378607  79.3224246  98.4827803  72.9999014  80.1582418
  97.7094295  71.9075972  79.4506556  88.9200661  65.9019815  76.8473246
  89.1708699  66.7866824  77.1130822  89.4560209  65.7224416  76.0748338
 112.7432760  69.3333312  73.5148507 111.9896469  68.7640710  73.3592512
 112.8780302  69.2995976  74.4619142  98.1331388  74.2046714  69.1903227
  97.9977063  75.0498250  69.6188075  98.6741201  74.4065992  68.4269161
  94.6198728  60.2838294  85.8517582  94.2265674  59.7304492  86.5265226
  95.4364868  60.5948872  86.2424100  91.5860786  71.7222152  69.7631152
  92.0985306  72.5165402  69.9136717  92.2383499  71.0248443  69.6964753
  93.3955670  74.8387908  71.8453905  93.5722299  75.7605873  71.6574889
  94.1912504  74.5246328  72.2748285  97.5366689  61.6996173  83.4437839
  98.2776402  62.3003326  83.3642301  97.7684612  60.9573811  82.8855881
  92.6808027  66.8852540  81.7216068  92.5661542  65.9837798  82.0223167
  91.8252545  67.1316237  81.3700885  99.7599865  74.8270281  83.3203569
  99.3163719  74.0406659  83.0024473 100.4217078  75.0149431  82.6547460
  94.5186986  76.3566082  77.8464247  95.0694411  76.2283146  77.0741241
  93.6798462  76.6560971  77.4959140 101.8581103  75.1073081  81.3484970
 101.8399578  75.9281962  80.8565239 102.7801023  74.9827156  81.5735111
  98.3154157  72.6217210  82.1908479  98.8482494  71.8605498  81.9607787
  97.7868238  72.3290862  82.9332633 101.4823852  57.7277276  77.7202120
 101.1388121  58.6178918  77.6441231 101.8502815  57.5378934  76.8571705
  89.5509703  70.0510806  70.5390722  90.3884925  70.4607815  70.3224430
  89.7287970  69.1110249  70.5090916 101.4474135  67.7185887  66.2274555
 100.9320758  68.4890492  66.4662943 101.1751443  67.0451023  66.8507617
  99.0321246  62.5635588  71.2859794  98.1762842  62.1742438  71.1065432
  99.4448197  62.6427549  70.4259579 100.5620392  60.0981931  75.6851354
 100.0585188  60.0612066  74.8719159 100.8550999  61.0074674  75.7448010
  96.8063278  60.1820661  74.6917535  97.6716275  59.9863470  74.3323425
  96.8740787  59.9531013  75.6186892 106.4208409  70.4718242  68.1627729
 105.6437852  70.1329401  67.7182891 107.0999890  70.4770865  67.4882694
 101.2360438  65.5912979  68.0534337 100.9310573  65.9059128  68.9044480
 102.1890880  65.6694399  68.0961670  99.6806870  71.7503202  69.7027291
  99.1528231  71.0155962  69.3900528  99.1794372  72.5277879  69.4567259
 104.6599716  69.9452223  74.8194337 104.0023390  70.6351484  74.9074465
 105.4640115  70.3348655  75.1628323  94.4125597  62.4122869  72.0633902
  94.9869349  62.1898050  71.3307095  94.9996580  62.4811563  72.8162503
 103.4705174  68.2996596  72.8698279 103.9837056  68.9326587  73.3719988
 104.1206398  67.6997791  72.5041639  94.7395184  64.4427330  66.0829787
  93.9032497  64.7802016  66.4039062  94.5999954  64.3076310  65.1456924
  96.7148265  59.2864118  70.7908971  96.0612677  58.9713135  70.1665586
  96.6728739  58.6639858  71.5168794  97.8259470  69.5683413  62.7062264
  96.9186532  69.3372666  62.9053413  98.3230502  68.7721032  62.8936245
 100.7327549  78.2780920  65.6258950 100.0589247  78.5812617  66.2343908
 101.1193371  79.0810000  65.2764407  99.9486005  65.7746051  75.1156619
  99.0308567  65.9960998  74.9578307 100.3646149  65.8492362  74.2568326
 100.7321053  67.1737467  70.2459299 101.4792872  67.6858864  69.9366421
 101.0012643  66.8521520  71.1063693  99.0047703  69.6696008  67.2286254
  98.0958923  69.3855040  67.3258723  99.0342787  70.0895086  66.3689561
 104.2366971  73.2802597  70.9977421 103.7829298  72.4393507  71.0542612
 103.6060937  73.9163995  71.3352201 103.1799890  64.2094583  72.2278089
 102.4422647  63.6971969  72.5588331 103.4326664  63.7694965  71.4161366
 102.6799910  75.1179094  71.9327239 102.9722884  75.6784151  71.2139605
 103.1898531  75.4107655  72.6880398 103.2811518  56.9870835  72.8219858
 103.5870394  56.1268199  72.5345773 104.0064122  57.5788455  72.6218852
  89.5735874  67.3901522  71.2101456  89.3760273  66.7970882  70.4852522
  89.0182538  67.0853732  71.9277395  97.5532597  67.2824628  73.3296049
  97.6081207  66.3298465  73.2538526  96.7423799  67.4384067  73.8137347
  98.7023791  71.2104751  64.5674332  98.2643221  70.4940610  64.1079970
  99.4434232  71.4380866  64.0059424  97.6433535  75.8959445  73.0220693
  97.6009714  76.1220291  72.0929225  98.5596234  75.6622819  73.1706494
 101.0899169  66.3643512  79.9201322 101.4448557  66.5914986  80.7795788
 101.7371300  66.6961889  79.2978577 106.8196906  69.4861948  70.6250651
 106.6814804  69.6763544  69.6971840 106.4633125  70.2481331  71.0818702
 106.8466285  71.5538475  75.6361922 107.2802792  71.4613764  76.4844976
 107.5597866  71.5295976  74.9981938  95.7599336  72.7722474  72.8182655
  96.5539934  72.2772794  72.6165230  95.0491028  72.2440337  72.4550361
 100.5794180  75.1540569  77.1695023 100.6331203  75.7231506  77.9372739
  99.7108962  75.3242454  76.8049060  92.0682099  66.9165556  68.8942408
  91.1379687  66.8550011  69.1112370  92.1639571  66.3941508  68.0979049
  91.9867648  63.4420368  71.4820650  92.2474466  64.3565702  71.3729810
  92.8084821  62.9744811  71.6317262  93.4592574  64.8558126  78.6519474
  94.1315627  64.6475488  78.0032123  92.6322360  64.6580212  78.2124706
 107.7081835  71.5962176  78.1694808 107.9017725  72.5007986  78.4154083
 107.6082453  71.1369595  79.0033393  99.3618146  61.4820067  80.6685135
  98.7146061  62.1810016  80.5749611 100.1319161  61.9156210  81.0361383
 102.7696944  71.7468919  83.7435688 102.6182450  71.5179470  82.8265772
 102.7601623  72.7039520  83.7567033  99.5382280  69.3200831  78.7281955
 100.4674340  69.4711991  78.5550922  99.1173310  69.4084852  77.8730601
  98.3370612  73.3451496  76.4980492  98.1981698  72.9770280  77.3706430
  97.5485208  73.8599135  76.3264450  98.9318764  78.4460592  67.8406029
  99.1070520  77.9748636  68.6551652  98.2451552  79.0726359  68.0687290
  99.8875827  72.7233099  73.8869330  99.5525660  72.6833869  74.7826980
  99.3879773  72.0577815  73.4139740  93.8620071  68.1300729  79.4121911
  93.7239869  67.3980967  80.0133450  94.7724994  68.0409629  79.1306099
 102.8235019  70.0689133  64.1606390 102.2064189  69.3435961  64.0639443
 102.3551507  70.8298493  63.8173464  96.4902372  67.8420688  78.9005591
  97.2001990  67.2013880  78.8592209  96.4471680  68.0933583  79.8231772
 104.4789150  74.7788041  81.8212170 104.4201697  74.0947261  81.1542753
 104.8808669  75.5207031  81.3692796  95.2031306  64.8285906  80.7201230
  94.6668663  64.3776644  81.3722827  94.6148014  64.9631815  79.9771695
  93.4979849  81.5949955  74.6145889  93.7376447  82.2268479  75.2924908
  92.6549046  81.2437995  74.9011248 104.4806558  72.7427625  80.0526150
 103.5933336  72.4053547  80.1752549 105.0505109  72.0110656  80.2894915
  86.1335705  69.0751717  73.3769201  86.8206745  68.7613447  72.7890217
  85.9783833  69.9793082  73.1036453  90.9370427  63.9641914  77.8054225
  90.8528616  63.3567583  77.0704635  90.1153133  64.4550932  77.8063721
  98.0107711  77.4029078  77.0187393  97.9377883  78.2084049  77.5306698
  97.5685104  77.6021043  76.1935414  97.7997491  76.6400848  70.5290215
  97.0165013  77.1822528  70.6228439  98.4990236  77.1574827  70.9284456
 101.1094141  62.4495477  73.1724420 101.6062840  61.6965439  72.8525490
 100.3381122  62.4859794  72.6067629 108.9623898  68.1535843  74.8142712
 108.9513774  69.0360558  74.4436645 108.0941278  67.8007393  74.6197249
 100.4706395  77.3015912  79.1745552 101.1834367  77.9363376  79.1021453
  99.9796423  77.3979778  78.3585554 102.1923921  71.2067164  70.7462843
 101.2580200  71.3268627  70.5767548 102.3700590  70.3039631  70.4822853
 105.5796473  67.0484484  71.2812878 106.0456925  67.8812475  71.2073180
 106.0303973  66.5829465  71.9858136  95.5218308  75.0510355  79.9951123
  96.2227768  75.6846838  80.1480517  95.0513423  75.3925087  79.2346762
 103.6472704  73.3928305  68.2799030 103.9232548  73.2784899  69.1892904
 102.7777203  72.9945790  68.2411203 103.5513136  59.4165071  75.3203779
 102.6376215  59.6469297  75.4885986 103.9806237  59.5003515  76.1717811
 103.3219594  67.6054963  77.8203673 102.6691044  67.8530870  77.1656126
 103.6999974  66.7919101  77.4866150 100.2826768  77.6414656  71.9231843
 100.4649162  76.8236312  72.3859596 101.1059754  77.8582348  71.4856733
 100.6168933  76.5682841  69.1846892 101.1456700  76.0575295  68.5717054
 100.8797153  76.2525371  70.0492425  99.3707167  68.3474774  84.3069710
  98.6947804  68.2468903  84.9772085 100.1934801  68.1913987  84.7705707
  91.1186026  74.5846710  76.9282225  91.7039463  73.8390398  77.0610129
  90.9210865  74.8950667  77.8118889  93.9724681  77.6197958  71.9444668
  93.3035057  78.1044085  71.4608708  93.8337551  77.8667178  72.8588046
  85.7103681  67.1552310  75.6486668  85.7487780  66.6215901  76.4423786
  85.2043974  66.6287516  75.0297646  98.1129950  79.6541701  78.5427326
  98.6648258  79.8173323  79.3076411  98.4536143  80.2446139  77.8707351
  93.0894443  62.0016851  79.1449211  93.1535770  62.8631682  78.7326608
  93.0261563  61.3890852  78.4121569  92.5646716  64.0739983  82.7922245
  93.1918755  63.6917061  83.4059769  91.7074635  63.8554185  83.1577937
 102.9640824  74.4802959  84.3975980 103.5080728  75.0932917  83.9030935
 102.3827669  75.0382537  84.9142993  89.3412258  65.8816412  68.7240600
  89.6365700  64.9727091  68.6707653  88.4400294  65.8604152  68.4021602
 101.2498337  77.6023677  75.5291008 101.1249477  76.8013416  75.0201954
 101.9077428  78.0969870  75.0404978  92.8706505  63.9572409  74.7068148
  92.1493091  64.5708377  74.5675622  93.6599761  64.4930174  74.6284794
 103.3133246  75.4032697  77.1570558 102.3663581  75.2838048  77.0848885
 103.6616019  74.5155195  77.2396820  95.6732819  61.2926836  80.9808800
  96.1967221  61.5389132  81.7435109  95.4545152  62.1246870  80.5611937
  91.0700100  63.5630510  68.8479925  90.7412806  62.6827889  68.6655031
  91.4239471  63.5078179  69.7356314 100.3179679  75.1985413  73.3574910
 100.1704641  74.2702120  73.5382480 101.1433172  75.2205504  72.8731986
  94.1841923  63.8503480  69.2155403  94.5237996  64.3789401  68.4934011
  94.6314044  64.1883886  69.9913969 103.9213801  76.0213972  74.4439783
 104.8460348  75.8156833  74.3064234 103.7529104  75.7730373  75.3529125
  96.8785364  62.2340531  78.6658471  96.5382184  61.4348344  79.0679151
  96.1724370  62.5342241  78.0935304  97.5301836  59.3189843  77.1185794
  98.3527905  58.8450321  76.9964684  97.7739899  60.0980327  77.6184480
 100.3141193  63.0523250  68.3507028 100.5304808  63.9347888  68.0495856
  99.8335260  62.6609464  67.6212670  95.0540415  66.0108964  74.9277772
  94.9084995  66.3249267  75.8202054  94.5765618  66.6293864  74.3748671
  96.9136797  63.0011512  74.9758662  96.8998366  62.1052605  74.6390960
  97.6309226  63.0082175  75.6096948  98.7662928  63.4348852  77.0211789
  98.5080706  64.3565923  77.0196120  98.2347969  63.0379286  77.7112253
 103.7109117  76.5399639  69.8001875 103.8845994  75.9746062  69.0475727
 104.2038008  77.3400534  69.6181365  89.5286077  68.5514308  77.8665433
  88.9839545  69.3274116  77.9985708  90.4065427  68.8985113  77.7084555
  96.3173693  61.8825892  70.2446232  96.4389605  60.9542538  70.4437119
  96.0275736  61.8964578  69.3324547  99.1864884  59.5680802  73.3812952
  99.2086581  59.6320136  72.4264931  99.6032943  58.7285311  73.5753458
 109.5648508  69.3036062  71.4192174 110.0079654  68.5543387  71.0211298
 108.6875018  69.2946198  71.0365906 104.6984289  75.8566403  66.8998773
 105.3935194  76.4773096  67.1186088 105.0407440  75.0061755  67.1751151
  90.3152099  67.6784204  80.7595590  89.5733835  67.8266840  81.3460221
  89.9944843  67.9392470  79.8962340 106.5975713  73.3066109  68.4286104
 107.1227037  73.6453382  67.7035424 106.5098065  72.3713124  68.2449238
  98.2595761  77.2200183  80.5575980  98.5682888  76.9749329  81.4298680
  99.0571243  77.4246821  80.0694851  98.2816373  79.3738092  72.7881357
  97.8421364  78.8814471  73.4814214  99.0324490  78.8311060  72.5473432
  90.7608712  75.5649633  72.7905985  91.5866732  75.2653405  72.4104629
  90.4102764  74.7957256  73.2395774  95.7290245  74.9176101  74.8603659
  95.1070255  74.2546806  74.5605886  96.3995112  74.9437233  74.1777306
  88.9617317  73.4835960  73.7494919  88.1249226  73.0558134  73.5678920
  88.9340963  73.6768403  74.6865710  95.8014773  63.3957889  84.4536165
  95.8502928  64.2720012  84.0713934  96.3437287  62.8535282  83.8807808
 106.2869619  73.9399013  83.7337302 105.4965162  73.9223151  83.1941801
 106.0502973  74.4787306  84.4886338 106.4067494  70.7891479  81.0470030
 106.4565499  70.6241486  81.9885553 106.2981417  69.9218738  80.6567911
 103.6971256  66.7722407  82.3629337 104.5981119  66.6328872  82.0713335
 103.7719231  66.9376862  83.3027514  98.0314061  64.1489262  81.2082523
  97.1617371  64.4422828  80.9365112  98.2673542  64.7329707  81.9289787
 107.9085691  73.2088420  81.2912052 107.6170499  73.5718401  82.1275513
 107.2957822  72.4955429  81.1125384 109.1081373  70.7741300  73.8114622
 109.9428264  71.2131104  73.9752182 109.2440502  70.2979953  72.9922868
 106.1572879  68.3321035  79.7592110 106.6327000  68.5248681  78.9510961
 105.2338444  68.3880221  79.5135493  93.0456385  69.4945202  69.3423188
  92.8002427  68.5907532  69.5403398  93.2152300  69.4962353  68.4002666
 100.7353095  60.3668879  78.7247944 101.2535039  61.1029906  78.3994432
 100.3808228  60.6732872  79.5594703  92.3152033  65.2273560  66.8409349
  91.6221278  65.3017915  66.1849385  92.0703785  64.4633904  67.3630866
 100.9865689  56.7869161  74.2448840 101.2667443  56.1192350  74.8709267
 101.7716296  56.9798257  73.7323504  98.7899158  75.9628155  65.8073867
  98.2173125  76.5818342  65.3544338  99.3631952  76.5127517  66.3413788
 104.8574548  65.2086795  77.9920415 105.8091971  65.3084893  78.0132639
 104.6877998  64.4165064  78.5018500 102.8788927  62.2942378  78.1779816
 102.2838859  62.5747391  77.4826305 102.5938624  62.7836279  78.9496557
 102.0096418  76.2465305  66.9382449 102.9427091  76.1810867  67.1415324
 101.9219631  77.0821572  66.4796981 104.6384434  75.5631176  63.8986396
 104.5598066  75.2291039  64.7922154 105.4594101  76.0552944  63.8977869
 107.3362626  68.4292915  77.1062715 107.3038946  67.4908916  77.2922399
 107.9463249  68.5076952  76.3728540 107.4857114  65.2203958  77.1520998
 106.9696163  64.4362415  76.9650927 108.3697063  64.8922675  77.3167518
 105.1467841  58.9644974  73.1116811 104.9492662  58.6560062  73.9960143
 105.7567547  59.6906613  73.2414741 113.1539175  69.4908922  76.2468752
 113.8842564  69.2294210  76.8076455 112.5446121  68.7537644  76.2870820
 111.2354473  67.6316784  76.8443203 110.5087636  67.4972749  76.2359695
 110.8201759  67.9393613  77.6499921  99.0584649  71.3506714  84.6090576
  99.9787658  71.5285313  84.8030623  99.0234232  70.4062759  84.4570275
  97.3588874  65.2238944  63.0844804  96.4520329  64.9272057  63.1607518
  97.6364855  64.9268762  62.2179090  88.2766814  66.5445308  73.5343851
  87.9569598  65.6910616  73.2418225  87.7300242  66.7593886  74.2901818
  92.0546721  69.2607749  77.2513357  92.2732731  70.1924856  77.2701391
  92.4672495  68.9015723  78.0368161  98.9750939  59.7675834  69.2389046
  98.1651668  59.4222919  69.6144292  99.6635356  59.4583378  69.8276657
 100.9041488  58.8453881  70.8613342 101.4572526  59.2649334  71.5203365
 101.1411574  57.9189629  70.9036298  96.9274587  64.8340954  86.6416106
  96.8271314  65.7835311  86.5728197  96.7096129  64.5059193  85.7692176
  88.1455074  70.1648219  75.5036972  87.4518545  69.7502172  74.9906927
  88.8928065  70.2068756  74.9070391 104.2820295  60.9554406  70.3692006
 103.7018964  61.6139210  69.9870059 104.0156227  60.1331751  69.9579424
 102.7323861  60.3559464  72.5713327 103.2323639  60.4675998  71.7627646
 103.3759469  60.0520516  73.2114135  96.7905857  68.2638093  85.4581168
  96.3072939  69.0638453  85.6645057  96.8766796  68.2746038  84.5048612
  90.0591816  70.0966473  73.3802987  90.0362505  70.1954160  72.4284870
  90.3692453  70.9431624  73.7020153  92.7179194  72.1542628  77.4949602
  93.6722448  72.1226570  77.4279533  92.5191718  71.6933252  78.3099827
  93.3078576  70.7243744  80.0620399  94.1271465  71.2187823  80.0855236
  93.5815384  69.8075712  80.0337967 103.0645173  63.1154496  69.4248355
 102.1771028  63.4004147  69.2068549 103.4799162  62.9548260  68.5775632
 106.4159709  63.1401017  73.1402694 107.1920099  63.6297470  73.4127311
 105.6907843  63.5659071  73.5974563 108.8532267  63.8528637  74.1976635
 109.4476758  63.6124372  73.4869943 108.9258851  63.1335767  74.8250171
  91.0729423  77.6962247  74.5119799  90.9383891  76.9362648  73.9457797
  90.6561485  78.4203147  74.0448588 102.2088386  72.8799171  63.5196375
 102.9124236  73.0849173  64.1354030 101.4851035  73.4475933  63.7845458
 103.0386196  68.6309032  69.6398645 102.9821398  69.0877584  68.8006277
 103.5914539  67.8699717  69.4621488 106.8491002  64.4198764  70.4648764
 106.5927937  64.0195400  71.2956972 106.2243870  65.1342558  70.3398904
 111.1603340  67.1594837  72.9720056 110.6002898  67.2288027  73.7451618
 110.5546844  66.9835822  72.2519552  94.2298549  78.5931564  74.7238242
  94.1130933  79.5376997  74.6216932  93.4090995  78.2905126  75.1124041
 104.1175084  73.3181700  65.5694835 104.9520687  72.8862899  65.3872310
 103.9559426  73.1463714  66.4971729 103.7720976  69.8213814  66.9351174
 103.7169780  69.6558085  65.9939618 103.1467031  70.5289846  67.0913364
  88.5613491  65.0581878  80.7612596  89.2072354  64.5480832  81.2499821
  88.3530642  65.7950560  81.3356022 101.0866883  72.1262725  86.2604737
 101.9558043  72.3003378  85.8991372 100.6073634  72.9457142  86.1380466
  95.2553063  79.2459826  77.9394170  96.1580310  79.2783437  78.2560665
  95.0290433  78.3160277  77.9540506  97.0106665  77.9990813  74.6004249
  96.0602296  77.9992675  74.4868621  97.3139151  77.2523547  74.0840284
 100.8969221  55.9164699  70.7682429 100.1301616  55.3623186  70.9139112
 101.3079926  55.9886568  71.6296581 112.7459359  83.8351351  75.6650011
 113.3837769  83.7158099  74.9613352 112.6280202  84.7832195  75.7237964
 109.5549065  83.7878779  75.6011536 109.2167576  83.6719844  74.7132071
 110.4238833  83.3869945  75.5812542 105.4135881  85.6414256  71.5908427
 104.8500746  85.5504193  70.8224715 105.2988276  84.8214160  72.0710920
 110.0368848  84.9413631  81.5597742 110.0257489  84.5466429  80.6878245
 110.1989487  84.2079704  82.1531513 102.9600313  87.1365447  74.4292648
 103.7521604  86.7956272  74.0138947 103.1996963  87.2460422  75.3494801
 110.9935439  89.3085224  66.9022892 110.3423419  89.8939304  66.5156906
 111.7879802  89.8391418  66.9617930 104.9191066  86.3974361  67.3010026
 105.6921942  85.8503348  67.1622902 105.2716465  87.2618610  67.5124488
 106.7576109  87.7250743  80.5076926 106.4665975  88.6296374  80.3923592
 107.3933093  87.7667271  81.2220995 107.6832316  85.1027591  77.0978285
 108.2795888  84.8783614  76.3835248 107.7407287  84.3612337  77.7003733
 107.2557344  82.5567027  64.9328476 107.5082865  82.0348548  64.1711939
 106.3181903  82.3933172  65.0355160 112.3000627  81.5602805  72.7403220
 113.0863716  81.1422228  72.3893637 112.5639331  82.4648897  72.9084868
 112.4710704  86.9975655  67.4391876 111.8356537  87.0710282  68.1512781
 112.1408111  87.5869254  66.7610956 117.7009054  81.4978038  73.6436198
 118.4334226  80.9277255  73.8774028 116.9448410  81.1099639  74.0842704
 106.9753633  84.4595133  67.1352851 106.8589891  83.7840036  67.8033936
 107.0855893  83.9727507  66.3185004 109.3185174  83.9205280  70.8399541
 108.9543381  83.3935901  71.5512462 110.1752290  83.5303749  70.6666026
 115.2234475  75.2099612  78.1030807 114.8917799  76.0795023  77.8792022
 114.6280088  74.8935896  78.7824837 108.9590661  78.9495180  65.8360889
 109.1265063  79.8175416  66.2031360 108.7687830  79.1122461  64.9122178
 111.7165994  87.4112158  77.5026719 111.4166717  88.3137197  77.3942527
 111.3717054  87.1444342  78.3547872 105.1678476  83.8625955  73.5363424
 104.2428972  83.7302169  73.7441116 105.4162889  84.6420175  74.0333366
 115.1163138  79.9294699  75.1824157 114.2080015  79.8610107  74.8882918
 115.0650734  80.4066644  76.0105982 108.9379882  81.4052837  66.8207556
 108.8179507  81.8509888  67.6593036 108.2432470  81.7538155  66.2621094
 102.5287287  83.5059229  74.3707213 102.6579668  83.7593708  75.2846625
 101.8484738  84.0986937  74.0511868 106.6986774  94.1756479  70.4697687
 106.6210804  95.1264304  70.5486168 106.0948418  93.8302351  71.1272613
 109.1904004  81.3484344  83.1259054 108.4137338  81.9078264  83.1161919
 109.8294567  81.8341127  83.6473924 116.9824784  78.1311137  76.9602031
 116.3399165  78.4243670  76.3141825 116.4779713  78.0164057  77.7655227
 114.6364948  81.8774310  67.6487890 115.5482804  82.1101697  67.4735587
 114.1274595  82.4611354  67.0862968 107.4450376  84.1569798  82.6877021
 108.1865060  84.6954842  82.4111845 106.7387361  84.7836086  82.8448573
 112.9205716  86.2998938  81.2849182 113.3289072  85.8581349  80.5403815
 112.1982977  85.7251566  81.5383375 109.2736786  81.2371545  78.6582739
 110.1197981  81.6610958  78.8017388 109.2135423  80.5805169  79.3521303
 113.2434530  86.8600129  75.0401471 112.6143393  87.0245843  74.3377539
 112.8560192  87.2741738  75.8112435 117.1223762  87.7954567  72.3945835
 116.4374800  88.1753468  71.8442868 117.2067612  88.4049893  73.1277783
 112.4236231  78.8975913  80.3163913 112.1797163  79.6517974  79.7798189
 112.6996162  79.2761261  81.1511160 114.3774694  85.4414526  78.9941179
 114.5891589  86.0846285  78.3175560 114.3304442  84.6076842  78.5263109
 111.9800923  78.0532346  75.8977751 111.1185402  78.3513600  76.1894488
 112.0063357  78.2702745  74.9658783 108.7962492  86.5974537  72.3051556
 109.2600838  86.8762240  71.5156179 108.5319290  85.6957981  72.1224647
 105.6886573  86.1446018  75.2431320 106.2587930  86.5733287  74.6048804
 106.2794685  85.8628603  75.9415505 107.7331378  82.7197689  69.1141122
 108.4355422  83.1718733  69.5815048 107.4012007  82.0781508  69.7421015
 106.1811740  81.3109446  83.4892331 105.5510400  81.9925727  83.7227728
 106.0747828  81.1992527  82.5445469 101.4756712  80.9781242  74.4158255
 100.6855766  81.2338770  73.9398366 101.9667960  81.7929580  74.5210296
 115.4920522  88.3186481  77.1663536 116.3137965  87.9166668  76.8846218
 115.4882925  88.2154715  78.1179652 103.4271458  81.3425821  71.3741732
 102.6302621  81.4544515  71.8925228 103.1997050  81.6812473  70.5082622
 109.2577125  87.8670524  79.3224246 109.3221558  88.3290932  80.1582418
 108.5488049  87.2367889  79.4506556  99.7594415  81.2311732  76.8473246
 100.0102454  82.1158742  77.1130822 100.2953964  81.0516334  76.0748338
 108.9725143  89.5338632  69.1903227 108.8370818  90.3790167  69.6188075
 109.5134955  89.7357909  68.4269161 105.4592482  75.6130212  85.8517582
 105.0659428  75.0596410  86.5265226 106.2758623  75.9240790  86.2424100
 102.4254540  87.0514070  69.7631152 102.9379061  87.8457320  69.9136717
 103.0777253  86.3540360  69.6964753 104.2349425  90.1679826  71.8453905
 104.4116053  91.0897791  71.6574889 105.0306258  89.8538245  72.2748285
 108.3760443  77.0288091  83.4437839 109.1170157  77.6295244  83.3642301
 108.6078366  76.2865728  82.8855881 103.5201781  82.2144458  81.7216068
 103.4055297  81.3129715  82.0223167 102.6646299  82.4608155  81.3700885
 110.5993619  90.1562198  83.3203569 110.1557473  89.3698577  83.0024473
 111.2610833  90.3441349  82.6547460 105.3580740  91.6858000  77.8464247
 105.9088166  91.5575063  77.0741241 104.5192216  91.9852889  77.4959140
 112.6974857  90.4364998  81.3484970 112.6793333  91.2573879  80.8565239
 113.6194777  90.3119073  81.5735111 109.1547911  87.9509128  82.1908479
 109.6876248  87.1897416  81.9607787 108.6261993  87.6582779  82.9332633
 112.3217606  73.0569194  77.7202120 111.9781876  73.9470835  77.6441231
 112.6896569  72.8670851  76.8571705 100.3903457  85.3802724  70.5390722
 101.2278679  85.7899732  70.3224430 100.5681725  84.4402166  70.5090916
 112.2867889  83.0477805  66.2274555 111.7714513  83.8182409  66.4662943
 112.0145198  82.3742941  66.8507617 109.8715000  77.8927506  71.2859794
 109.0156597  77.5034356  71.1065432 110.2841952  77.9719466  70.4259579
 111.4014147  75.4273849  75.6851354 110.8978942  75.3903984  74.8719159
 111.6944754  76.3366592  75.7448010 107.6457033  75.5112579  74.6917535
 108.5110029  75.3155387  74.3323425 107.7134542  75.2822930  75.6186892
 117.2602163  85.8010159  68.1627729 116.4831606  85.4621319  67.7182891
 117.9393644  85.8062783  67.4882694 112.0754192  80.9204897  68.0534337
 111.7704328  81.2351046  68.9044480 113.0284634  80.9986317  68.0961670
 110.5200624  87.0795120  69.7027291 109.9921986  86.3447880  69.3900528
 110.0188127  87.8569797  69.4567259 115.4993470  85.2744141  74.8194337
 114.8417145  85.9643402  74.9074465 116.3033869  85.6640573  75.1628323
 105.2519352  77.7414786  72.0633902 105.8263104  77.5189968  71.3307095
 105.8390334  77.8103481  72.8162503 114.3098929  83.6288513  72.8698279
 114.8230811  84.2618505  73.3719988 114.9600153  83.0289709  72.5041639
 105.5788939  79.7719247  66.0829787 104.7426251  80.1093934  66.4039062
 105.4393709  79.6368227  65.1456924 107.5542019  74.6156035  70.7908971
 106.9006432  74.3005053  70.1665586 107.5122494  73.9931776  71.5168794
 108.6653224  84.8975330  62.7062264 107.7580286  84.6664584  62.9053413
 109.1624256  84.1012950  62.8936245 111.5721303  93.6072838  65.6258950
 110.8983002  93.9104534  66.2343908 111.9587125  94.4101918  65.2764407
 110.7879760  81.1037969  75.1156619 109.8702321  81.3252916  74.9578307
 111.2039903  81.1784279  74.2568326 111.5714808  82.5029385  70.2459299
 112.3186627  83.0150782  69.9366421 111.8406397  82.1813437  71.1063693
 109.8441458  84.9987925  67.2286254 108.9352677  84.7146958  67.3258723
 109.8736542  85.4187004  66.3689561 115.0760725  88.6094515  70.9977421
 114.6223052  87.7685425  71.0542612 114.4454692  89.2455913  71.3352201
 114.0193645  79.5386501  72.2278089 113.2816402  79.0263887  72.5588331
 114.2720418  79.0986882  71.4161366 113.5193664  90.4471011  71.9327239
 113.8116639  91.0076069  71.2139605 114.0292285  90.7399572  72.6880398
 114.1205272  72.3162753  72.8219858 114.4264149  71.4560116  72.5345773
 114.8457877  72.9080373  72.6218852 100.4129628  82.7193439  71.2101456
 100.2154028  82.1262800  70.4852522  99.8576292  82.4145650  71.9277395
 108.3926352  82.6116546  73.3296049 108.4474962  81.6590382  73.2538526
 107.5817554  82.7675985  73.8137347 109.5417546  86.5396669  64.5674332
 109.1036976  85.8232528  64.1079970 110.2827986  86.7672784  64.0059424
 106.3318712  81.2293606  71.0886428 105.5186577  81.5287776  71.4951620
 106.8277706  80.8349294  71.8060910 108.4827290  91.2251363  73.0220693
 108.4403468  91.4512209  72.0929225 109.3989988  90.9914737  73.1706494
 111.9292923  81.6935430  79.9201322 112.2842311  81.9206903  80.7795788
 112.5765055  82.0253807  79.2978577 117.6590660  84.8153866  70.6250651
 117.5208559  85.0055462  69.6971840 117.3026879  85.5773249  71.0818702
 105.8232787  78.8011961  76.7047663 106.4632166  78.6600720  76.0070626
 104.9910317  78.5146475  76.3286265 117.6860040  86.8830393  75.6361922
 118.1196547  86.7905682  76.4844976 118.3991621  86.8587893  74.9981938
 106.5993090  88.1014392  72.8182655 107.3933689  87.6064712  72.6165230
 105.8884783  87.5732255  72.4550361 111.4187935  90.4832487  77.1695023
 111.4724957  91.0523423  77.9372739 110.5502716  90.6534372  76.8049060
 102.9075854  82.2457473  68.8942408 101.9773442  82.1841929  69.1112370
 103.0033326  81.7233426  68.0979049 102.8261403  78.7712286  71.4820650
 103.0868220  79.6857619  71.3729810 103.6478575  78.3036729  71.6317262
 104.2986328  80.1850043  78.6519474 104.9709382  79.9767405  78.0032123
 103.4716115  79.9872129  78.2124706 118.5475590  86.9254094  78.1694808
 118.7411480  87.8299904  78.4154083 118.4476208  86.4661513  79.0033393
 110.2011900  76.8111984  80.6685135 109.5539815  77.5101934  80.5749611
 110.9712916  77.2448128  81.0361383 113.6090698  87.0760836  83.7435688
 113.4576205  86.8471388  82.8265772 113.5995378  88.0331438  83.7567033
 110.3776035  84.6492749  78.7281955 111.3068095  84.8003909  78.5550922
 109.9567065  84.7376770  77.8730601 109.1764366  88.6743414  76.4980492
 109.0375452  88.3062198  77.3706430 108.3878963  89.1891053  76.3264450
 109.7712518  93.7752510  67.8406029 109.9464274  93.3040553  68.6551652
 109.0845306  94.4018276  68.0687290 110.7269582  88.0525016  73.8869330
 110.3919414  88.0125786  74.7826980 110.2273527  87.3869732  73.4139740
 104.7013826  83.4592646  79.4121911 104.5633623  82.7272885  80.0133450
 105.6118749  83.3701546  79.1306099 113.6628773  85.3981051  64.1606390
 113.0457944  84.6727879  64.0639443 113.1945262  86.1590411  63.8173464
 107.3296126  83.1712606  78.9005591 108.0395745  82.5305798  78.8592209
 107.2865434  83.4225500  79.8231772 115.3182905  90.1079959  81.8212170
 115.2595451  89.4239179  81.1542753 115.7202423  90.8498949  81.3692796
 106.0425060  80.1577824  80.7201230 105.5062417  79.7068562  81.3722827
 105.4541769  80.2923732  79.9771695 104.3373604  96.9241873  74.6145889
 104.5770202  97.5560397  75.2924908 103.4942800  96.5729913  74.9011248
 105.4527319  79.6166475  63.2827694 104.5756785  79.4955276  62.9189941
 105.9285072  78.8252553  63.0306583 115.3200312  88.0719543  80.0526150
 114.4327091  87.7345465  80.1752549 115.8898863  87.3402574  80.2894915
  96.9729459  84.4043635  73.3769201  97.6600499  84.0905365  72.7890217
  96.8177588  85.3084999  73.1036453 101.7764181  79.2933831  77.8054225
 101.6922370  78.6859501  77.0704635 100.9546888  79.7842850  77.8063721
 108.8501466  92.7320995  77.0187393 108.7771637  93.5375967  77.5306698
 108.4078859  92.9312961  76.1935414 108.6391245  91.9692765  70.5290215
 107.8558767  92.5114445  70.6228439 109.3383990  92.4866745  70.9284456
 111.9487895  77.7787395  73.1724420 112.4456595  77.0257357  72.8525490
 111.1774877  77.8151711  72.6067629 119.8017653  83.4827760  74.8142712
 119.7907529  84.3652476  74.4436645 118.9335032  83.1299311  74.6197249
 111.3100149  92.6307829  79.1745552 112.0228121  93.2655294  79.1021453
 110.8190178  92.7271695  78.3585554 113.0317676  86.5359082  70.7462843
 112.0973955  86.6560544  70.5767548 113.2094344  85.6331549  70.4822853
 108.5322864  79.9204778  72.8996105 108.1620652  79.3675818  73.5877010
 109.0281956  79.3162911  72.3471105 116.4190227  82.3776401  71.2812878
 116.8850680  83.2104393  71.2073180 116.8697728  81.9121383  71.9858136
 106.3612063  90.3802273  79.9951123 107.0621522  91.0138756  80.1480517
 105.8907178  90.7217004  79.2346762 114.4866458  88.7220223  68.2799030
 114.7626302  88.6076817  69.1892904 113.6170957  88.3237707  68.2411203
 114.3906890  74.7456988  75.3203779 113.4769970  74.9761215  75.4885986
 114.8199992  74.8295432  76.1717811 114.1613349  82.9346880  77.8203673
 113.5084799  83.1822788  77.1656126 114.5393728  82.1211018  77.4866150
 111.1220522  92.9706573  71.9231843 111.3042917  92.1528229  72.3859596
 111.9453508  93.1874266  71.4856733 111.4562688  91.8974758  69.1846892
 111.9850454  91.3867213  68.5717054 111.7190908  91.5817289  70.0492425
 110.2100922  83.6766691  84.3069710 109.5341559  83.5760821  84.9772085
 111.0328555  83.5205905  84.7705707 101.9579781  89.9138628  76.9282225
 102.5433217  89.1682316  77.0610129 101.7604619  90.2242584  77.8118889
 104.8118436  92.9489875  71.9444668 104.1428811  93.4336003  71.4608708
 104.6731306  93.1959096  72.8588046  96.5497435  82.4844228  75.6486668
  96.5881535  81.9507819  76.4423786  96.0437728  81.9579434  75.0297646
 108.9523704  94.9833619  78.5427326 109.5042012  95.1465240  79.3076411
 109.2929898  95.5738057  77.8707351 103.9288198  77.3308769  79.1449211
 103.9929524  78.1923599  78.7326608 103.8655318  76.7182770  78.4121569
 103.4040470  79.4031901  82.7922245 104.0312509  79.0208978  83.4059769
 102.5468389  79.1846103  83.1577937 113.8034579  89.8094876  84.3975980
 114.3474483  90.4224834  83.9030935 113.2221424  90.3674455  84.9142993
 100.1806013  81.2108330  68.7240600 100.4759454  80.3019009  68.6707653
  99.2794049  81.1896070  68.4021602 112.0892092  92.9315594  75.5291008
 111.9643231  92.1305334  75.0201954 112.7471183  93.4261788  75.0404978
 103.7100260  79.2864327  74.7068148 102.9886846  79.9000294  74.5675622
 104.4993516  79.8222092  74.6284794 114.1527000  90.7324614  77.1570558
 113.2057336  90.6129965  77.0848885 114.5009773  89.8447112  77.2396820
 106.5126573  76.6218753  80.9808800 107.0360975  76.8681050  81.7435109
 106.2938907  77.4538788  80.5611937 101.9093855  78.8922428  68.8479925
 101.5806561  78.0119807  68.6655031 102.2633225  78.8370097  69.7356314
 111.1573433  90.5277331  73.3574910 111.0098396  89.5994038  73.5382480
 111.9826927  90.5497421  72.8731986 105.0235678  79.1795398  69.2155403
 105.3631750  79.7081319  68.4934011 105.4707798  79.5175804  69.9913969
 114.7607555  91.3505889  74.4439783 115.6854103  91.1448751  74.3064234
 114.5922859  91.1022290  75.3529125 107.7179119  77.5632448  78.6658471
 107.3775939  76.7640261  79.0679151 107.0118125  77.8634159  78.0935304
 108.3695590  74.6481761  77.1185794 109.1921660  74.1742239  76.9964684
 108.6133654  75.4272245  77.6184480 107.0103825  77.6770019  67.4148695
 107.7312187  78.0551272  66.9112412 106.3869129  78.3958896  67.5183673
 111.1534948  78.3815168  68.3507028 111.3698562  79.2639806  68.0495856
 110.6729015  77.9901382  67.6212670 105.8934169  81.3400881  74.9277772
 105.7478750  81.6541184  75.8202054 105.4159373  81.9585782  74.3748671
 107.7530552  78.3303429  74.9758662 107.7392121  77.4344523  74.6390960
 108.4702980  78.3374093  75.6096948 109.6056683  78.7640770  77.0211789
 109.3474461  79.6857840  77.0196120 109.0741723  78.3671204  77.7112253
 114.5502871  91.8691557  69.8001875 114.7239749  91.3037979  69.0475727
 115.0431763  92.6692452  69.6181365 100.3679831  83.8806226  77.8665433
  99.8233299  84.6566034  77.9985708 101.2459181  84.2277030  77.7084555
 107.1567448  77.2117810  70.2446232 107.2783359  76.2834456  70.4437119
 106.8669490  77.2256496  69.3324547 110.0258638  74.8972720  73.3812952
 110.0480335  74.9612053  72.4264931 110.4426697  74.0577229  73.5753458
 120.4042263  84.6327980  71.4192174 120.8473409  83.8835305  71.0211298
 119.5268773  84.6238116  71.0365906 115.5378044  91.1858321  66.8998773
 116.2328949  91.8065014  67.1186088 115.8801194  90.3353672  67.1751151
 101.1545853  83.0076122  80.7595590 100.4127589  83.1558757  81.3460221
 100.8338597  83.2684388  79.8962340 117.4369467  88.6358027  68.4286104
 117.9620791  88.9745299  67.7035424 117.3491820  87.7005042  68.2449238
 109.0989516  92.5492100  80.5575980 109.4076642  92.3041247  81.4298680
 109.8964998  92.7538739  80.0694851 109.1210128  94.7030010  72.7881357
 108.6815118  94.2106389  73.4814214 109.8718245  94.1602978  72.5473432
 101.6002467  90.8941551  72.7905985 102.4260487  90.5945323  72.4104629
 101.2496519  90.1249173  73.2395774 106.5684000  90.2468019  74.8603659
 105.9464009  89.5838724  74.5605886 107.2388867  90.2729151  74.1777306
  99.8011072  88.8127877  73.7494919  98.9642980  88.3850052  73.5678920
  99.7734717  89.0060321  74.6865710 106.6408527  78.7249807  84.4536165
 106.6896683  79.6011930  84.0713934 107.1831042  78.1827200  83.8807808
 117.1263373  89.2690930  83.7337302 116.3358917  89.2515069  83.1941801
 116.8896728  89.8079224  84.4886338 117.2461248  86.1183397  81.0470030
 117.2959253  85.9533404  81.9885553 117.1375172  85.2510656  80.6567911
 106.1297507  88.7971942  68.3362119 106.2785627  89.4807407  67.6828792
 106.9363950  88.7777032  68.8511575 114.5365011  82.1014325  82.3629337
 115.4374873  81.9620790  82.0713335 114.6112985  82.2668780  83.3027514
 108.8707816  79.4781179  81.2082523 108.0011125  79.7714745  80.9365112
 109.1067296  80.0621624  81.9289787 118.7479445  88.5380338  81.2912052
 118.4564253  88.9010319  82.1275513 118.1351576  87.8247346  81.1125384
 119.9475127  86.1033218  73.8114622 120.7822019  86.5423022  73.9752182
 120.0834256  85.6271871  72.9922868 116.9966633  83.6612953  79.7592110
 117.4720755  83.8540599  78.9510961 116.0732199  83.7172139  79.5135493
 103.8850140  84.8237120  69.3423188 103.6396182  83.9199450  69.5403398
 104.0546054  84.8254270  68.4002666 111.5746850  75.6960796  78.7247944
 112.0928794  76.4321823  78.3994432 111.2201983  76.0024790  79.5594703
 103.1545787  80.5565478  66.8409349 102.4615032  80.6309833  66.1849385
 102.9097539  79.7925821  67.3630866 111.8259444  72.1161079  74.2448840
 112.1061198  71.4484268  74.8709267 112.6110051  72.3090175  73.7323504
 109.6292912  91.2920073  65.8073867 109.0566879  91.9110260  65.3544338
 110.2025706  91.8419434  66.3413788 115.6968302  80.5378713  77.9920415
 116.6485725  80.6376811  78.0132639 115.5271753  79.7456981  78.5018500
 113.7182682  77.6234296  78.1779816 113.1232614  77.9039309  77.4826305
 113.4332378  78.1128197  78.9496557 112.8490172  91.5757223  66.9382449
 113.7820845  91.5102785  67.1415324 112.7613385  92.4113490  66.4796981
 115.4778189  90.8923093  63.8986396 115.3991820  90.5582957  64.7922154
 116.2987856  91.3844861  63.8977869 118.1756380  83.7584833  77.1062715
 118.1432700  82.8200833  77.2922399 118.7857004  83.8368869  76.3728540
 110.0139711  82.6280886  63.1489919 110.9598816  82.4987094  63.2178337
 109.6353956  81.8895547  63.6259347 118.3250869  80.5495876  77.1520998
 117.8089917  79.7654333  76.9650927 119.2090817  80.2214593  77.3167518
 115.9861595  74.2936892  73.1116811 115.7886417  73.9851980  73.9960143
 116.5961301  75.0198530  73.2414741 109.8978403  86.6798632  84.6090576
 110.8181413  86.8577231  84.8030623 109.8627986  85.7354677  84.4570275
 108.1982628  80.5530862  63.0844804 107.2914083  80.2563975  63.1607518
 108.4758609  80.2560680  62.2179090  99.1160568  81.8737225  73.5343851
  98.7963353  81.0202534  73.2418225  98.5693997  82.0885803  74.2901818
 102.8940476  84.5899666  77.2513357 103.1126486  85.5216774  77.2701391
 103.3066250  84.2307641  78.0368161 109.8144694  75.0967752  69.2389046
 109.0045422  74.7514837  69.6144292 110.5029111  74.7875295  69.8276657
 111.7435242  74.1745798  70.8613342 112.2966281  74.5941252  71.5203365
 111.9805328  73.2481547  70.9036298 107.7668341  80.1632872  86.6416106
 107.6665068  81.1127229  86.5728197 107.5489883  79.8351111  85.7692176
 106.9681413  77.4117797  63.2256783 107.8300577  77.7372695  63.4852601
 107.1531757  76.6249293  62.7129849  98.9848828  85.4940137  75.5036972
  98.2912300  85.0794090  74.9906927  99.7321819  85.5360673  74.9070391
 115.1214049  76.2846324  70.3692006 114.5412718  76.9431128  69.9870059
 114.8549982  75.4623668  69.9579424 113.5717616  75.6851381  72.5713327
 114.0717394  75.7967916  71.7627646 114.2153223  75.3812434  73.2114135
 107.6299611  83.5930011  85.4581168 107.1466693  84.3930371  85.6645057
 107.7160550  83.6037956  84.5048612 100.8985571  85.4258391  73.3802987
 100.8756259  85.5246078  72.4284870 101.2086207  86.2723541  73.7020153
 103.5572949  87.4834546  77.4949602 104.5116202  87.4518488  77.4279533
 103.3585472  87.0225169  78.3099827 104.1472331  86.0535662  80.0620399
 104.9665220  86.5479740  80.0855236 104.4209139  85.1367630  80.0337967
 113.9038927  78.4446414  69.4248355 113.0164782  78.7296065  69.2068549
 114.3192916  78.2840177  68.5775632 117.2553463  78.4692935  73.1402694
 118.0313853  78.9589387  73.4127311 116.5301597  78.8950989  73.5974563
 119.6926022  79.1820554  74.1976635 120.2870513  78.9416290  73.4869943
 119.7652606  78.4627685  74.8250171 101.9123178  93.0254165  74.5119799
 101.7777646  92.2654566  73.9457797 101.4955240  93.7495065  74.0448588
 113.0482141  88.2091089  63.5196375 113.7517991  88.4141091  64.1354030
 112.3244789  88.7767851  63.7845458 113.8779951  83.9600950  69.6398645
 113.8215152  84.4169501  68.8006277 114.4308293  83.1991635  69.4621488
 117.6884757  79.7490682  70.4648764 117.4321691  79.3487317  71.2956972
 117.0637625  80.4634476  70.3398904 105.0692303  93.9223482  74.7238242
 104.9524688  94.8668915  74.6216932 104.2484750  93.6197044  75.1124041
 114.9568838  88.6473618  65.5694835 115.7914442  88.2154816  65.3872310
 114.7953181  88.4755632  66.4971729 114.6114730  85.1505731  66.9351174
 114.5563534  84.9850003  65.9939618 113.9860785  85.8581764  67.0913364
  99.4007245  80.3873796  80.7612596 100.0466109  79.8772750  81.2499821
  99.1924396  81.1242477  81.3356022 111.9260637  87.4554643  86.2604737
 112.7951797  87.6295295  85.8991372 111.4467389  88.2749060  86.1380466
 107.9210856  74.6513840  66.5136492 107.9089526  75.5955680  66.6704763
 108.8134278  74.4683986  66.2195954 106.0946818  94.5751744  77.9394170
 106.9974064  94.6075354  78.2560665 105.8684188  93.6452195  77.9540506
 107.8500420  93.3282731  74.6004249 106.8996051  93.3284592  74.4868621
 108.1532906  92.5815465  74.0840284 111.7362975  71.2456617  70.7682429
 110.9695371  70.6915104  70.9139112 112.1473680  71.3178486  71.6296581
 103.7404736  77.5341413  84.8587610 104.6036198  77.1778217  85.0690935
 103.1670147  77.1955307  85.5463015 120.3942819  99.1170697  75.6011536
 120.0561331  99.0011762  74.7132071 121.2632588  98.7161862  75.5812542
 116.2529635 100.9706174  71.5908427 115.6894500 100.8796110  70.8224715
 116.1382030 100.1506078  72.0710920 120.8762602 100.2705549  81.5597742
 120.8651243  99.8758347  80.6878245 121.0383242  99.5371621  82.1531513
 113.7994067 102.4657365  74.4292648 114.5915359 102.1248190  74.0138947
 114.0390717 102.5752340  75.3494801 115.7584821 101.7266278  67.3010026
 116.5315697 101.1795265  67.1622902 116.1110220 102.5910528  67.5124488
 117.5969864 103.0542661  80.5076926 117.3059730 103.9588291  80.3923592
 118.2326848 103.0959188  81.2220995 118.5226070 100.4319509  77.0978285
 119.1189643 100.2075532  76.3835248 118.5801042  99.6904255  77.7003733
 118.0951099  97.8858944  64.9328476 118.3476619  97.3640466  64.1711939
 117.1575658  97.7225090  65.0355160 117.8147388  99.7887050  67.1352851
 117.6983646  99.1131954  67.8033936 117.9249647  99.3019424  66.3185004
 120.1578928  99.2497198  70.8399541 119.7937136  98.7227819  71.5512462
 121.0146044  98.8595667  70.6666026 119.7984415  94.2787097  65.8360889
 119.9658818  95.1467334  66.2031360 119.6081585  94.4414379  64.9122178
 116.0072230  99.1917873  73.5363424 115.0822727  99.0594087  73.7441116
 116.2556643  99.9712092  74.0333366 119.7773636  96.7344755  66.8207556
 119.6573262  97.1801805  67.6593036 119.0826225  97.0830072  66.2621094
 113.3681041  98.8351147  74.3707213 113.4973422  99.0885625  75.2846625
 112.6878492  99.4278855  74.0511868 120.0297758  96.6776262  83.1259054
 119.2531092  97.2370182  83.1161919 120.6688321  97.1633045  83.6473924
 118.2844131  99.4861715  82.6877021 119.0258815 100.0246759  82.4111845
 117.5781116 100.1128004  82.8448573 120.1130540  96.5663462  78.6582739
 120.9591735  96.9902876  78.8017388 120.0529178  95.9097087  79.3521303
 119.6356247 101.9266454  72.3051556 120.0994592 102.2054157  71.5156179
 119.3713045 101.0249899  72.1224647 116.5280328 101.4737936  75.2431320
 117.0981685 101.9025204  74.6048804 117.1188440 101.1920521  75.9415505
 118.5725133  98.0489607  69.1141122 119.2749176  98.5010650  69.5815048
 118.2405761  97.4073426  69.7421015 117.0205494  96.6401363  83.4892331
 116.3904155  97.3217644  83.7227728 116.9141582  96.5284445  82.5445469
 112.3150467  96.3073159  74.4158255 111.5249521  96.5630688  73.9398366
 112.8061714  97.1221497  74.5210296 114.2665212  96.6717739  71.3741732
 113.4696375  96.7836433  71.8925228 114.0390804  97.0104391  70.5082622
 120.0970880 103.1962442  79.3224246 120.1615312 103.6582849  80.1582418
 119.3881804 102.5659807  79.4506556 110.5988170  96.5603650  76.8473246
 110.8496208  97.4450660  77.1130822 111.1347718  96.3808251  76.0748338
 116.2986237  90.9422129  85.8517582 115.9053183  90.3888328  86.5265226
 117.1152377  91.2532708  86.2424100 113.2648295 102.3805987  69.7631152
 113.7772815 103.1749238  69.9136717 113.9171008 101.6832278  69.6964753
 115.0743179 105.4971744  71.8453905 115.2509808 106.4189708  71.6574889
 115.8700013 105.1830163  72.2748285 119.2154198  92.3580008  83.4437839
 119.9563911  92.9587162  83.3642301 119.4472121  91.6157646  82.8855881
 114.3595536  97.5436376  81.7216068 114.2449051  96.6421633  82.0223167
 113.5040054  97.7900072  81.3700885 116.1974495 107.0149918  77.8464247
 116.7481920 106.8866981  77.0741241 115.3585971 107.3144807  77.4959140
 119.9941666 103.2801045  82.1908479 120.5270003 102.5189334  81.9607787
 119.4655747 102.9874697  82.9332633 111.2297212 100.7094642  70.5390722
 112.0672434 101.1191650  70.3224430 111.4075479  99.7694084  70.5090916
 120.7108755  93.2219423  71.2859794 119.8550351  92.8326274  71.1065432
 121.1235706  93.3011384  70.4259579 118.4850787  90.8404496  74.6917535
 119.3503784  90.6447305  74.3323425 118.5528296  90.6114848  75.6186892
 121.3594379 102.4087038  69.7027291 120.8315740 101.6739797  69.3900528
 120.8581881 103.1861714  69.4567259 116.0913106  93.0706704  72.0633902
 116.6656858  92.8481886  71.3307095 116.6784089  93.1395399  72.8162503
 116.4182693  95.1011165  66.0829787 115.5820006  95.4385852  66.4039062
 116.2787463  94.9660145  65.1456924 118.3935774  89.9447953  70.7908971
 117.7400186  89.6296970  70.1665586 118.3516248  89.3223693  71.5168794
 119.5046979 100.2267248  62.7062264 118.5974041  99.9956502  62.9053413
 120.0018011  99.4304867  62.8936245 120.6835212 100.3279843  67.2286254
 119.7746432 100.0438876  67.3258723 120.7130296 100.7478922  66.3689561
 111.2523383  98.0485357  71.2101456 111.0547782  97.4554718  70.4852522
 110.6970047  97.7437567  71.9277395 119.2320106  97.9408464  73.3296049
 119.2868716  96.9882300  73.2538526 118.4211308  98.0967903  73.8137347
 120.3811300 101.8688587  64.5674332 119.9430730 101.1524446  64.1079970
 121.1221741 102.0964701  64.0059424 117.1712466  96.5585523  71.0886428
 116.3580332  96.8579694  71.4951620 117.6671460  96.1641212  71.8060910
 116.6626541  94.1303879  76.7047663 117.3025920  93.9892638  76.0070626
 115.8304072  93.8438392  76.3286265 117.4386845 103.4306309  72.8182655
 118.2327443 102.9356629  72.6165230 116.7278537 102.9024172  72.4550361
 113.7469608  97.5749391  68.8942408 112.8167196  97.5133846  69.1112370
 113.8427080  97.0525344  68.0979049 113.6655157  94.1004204  71.4820650
 113.9261975  95.0149537  71.3729810 114.4872330  93.6328646  71.6317262
 115.1380083  95.5141961  78.6519474 115.8103136  95.3059323  78.0032123
 114.3109869  95.3164047  78.2124706 120.0158121 104.0035331  76.4980492
 119.8769207 103.6354116  77.3706430 119.2272717 104.5182971  76.3264450
 121.5663336 103.3816934  73.8869330 121.2313169 103.3417704  74.7826980
 121.0667282 102.7161650  73.4139740 115.5407580  98.7884564  79.4121911
 115.4027378  98.0564803  80.0133450 116.4512503  98.6993464  79.1306099
 118.1689881  98.5004523  78.9005591 118.8789499  97.8597715  78.8592209
 118.1259189  98.7517418  79.8231772 116.8818815  95.4869741  80.7201230
 116.3456172  95.0360480  81.3722827 116.2935523  95.6215650  79.9771695
 116.2921074  94.9458393  63.2827694 115.4150540  94.8247193  62.9189941
 116.7678827  94.1544471  63.0306583 107.8123214  99.7335552  73.3769201
 108.4994254  99.4197282  72.7890217 107.6571342 100.6376917  73.1036453
 112.6157936  94.6225749  77.8054225 112.5316125  94.0151418  77.0704635
 111.7940642  95.1134767  77.8063721 119.3716618  95.2496695  72.8996105
 119.0014406  94.6967736  73.5877010 119.8675711  94.6454829  72.3471105
 117.2005817 105.7094190  79.9951123 117.9015277 106.3430673  80.1480517
 116.7300932 106.0508922  79.2346762 112.7973535 105.2430545  76.9282225
 113.3826972 104.4974233  77.0610129 112.5998374 105.5534502  77.8118889
 107.3891190  97.8136146  75.6486668 107.4275289  97.2799736  76.4423786
 106.8831483  97.2871351  75.0297646 114.7681952  92.6600686  79.1449211
 114.8323279  93.5215517  78.7326608 114.7049072  92.0474688  78.4121569
 114.2434225  94.7323819  82.7922245 114.8706263  94.3500896  83.4059769
 113.3862144  94.5138021  83.1577937 111.0199767  96.5400248  68.7240600
 111.3153209  95.6310926  68.6707653 110.1187803  96.5187987  68.4021602
 114.5494014  94.6156244  74.7068148 113.8280600  95.2292212  74.5675622
 115.3387270  95.1514009  74.6284794 117.3520328  91.9510671  80.9808800
 117.8754730  92.1972967  81.7435109 117.1332661  92.7830706  80.5611937
 112.7487609  94.2214345  68.8479925 112.4200315  93.3411724  68.6655031
 113.1026980  94.1662014  69.7356314 115.8629432  94.5087315  69.2155403
 116.2025505  95.0373237  68.4934011 116.3101553  94.8467721  69.9913969
 118.5572873  92.8924366  78.6658471 118.2169693  92.0932179  79.0679151
 117.8511879  93.1926077  78.0935304 119.2089345  89.9773678  77.1185794
 120.0315414  89.5034157  76.9964684 119.4527408  90.7564162  77.6184480
 117.8497579  93.0061937  67.4148695 118.5705942  93.3843190  66.9112412
 117.2262883  93.7250814  67.5183673 116.7327924  96.6692799  74.9277772
 116.5872504  96.9833102  75.8202054 116.2553127  97.2877699  74.3748671
 118.5924306  93.6595347  74.9758662 118.5785875  92.7636440  74.6390960
 119.3096735  93.6666011  75.6096948 120.4450437  94.0932687  77.0211789
 120.1868215  95.0149758  77.0196120 119.9135478  93.6963122  77.7112253
 111.2073586  99.2098143  77.8665433 110.6627054  99.9857951  77.9985708
 112.0852936  99.5568948  77.7084555 117.9961202  92.5409727  70.2446232
 118.1177114  91.6126374  70.4437119 117.7063245  92.5548413  69.3324547
 120.8652393  90.2264638  73.3812952 120.8874090  90.2903971  72.4264931
 121.2820452  89.3869146  73.5753458 111.9939608  98.3368040  80.7595590
 111.2521344  98.4850675  81.3460221 111.6732352  98.5976305  79.8962340
 112.4396221 106.2233468  72.7905985 113.2654241 105.9237240  72.4104629
 112.0890273 105.4541091  73.2395774 117.4077754 105.5759937  74.8603659
 116.7857764 104.9130642  74.5605886 118.0782621 105.6021069  74.1777306
 110.6404826 104.1419795  73.7494919 109.8036735 103.7141969  73.5678920
 110.6128472 104.3352238  74.6865710 117.4802282  94.0541725  84.4536165
 117.5290437  94.9303848  84.0713934 118.0224796  93.5119118  83.8807808
 116.9691261 104.1263860  68.3362119 117.1179382 104.8099324  67.6828792
 117.7757705 104.1068950  68.8511575 119.7101570  94.8073097  81.2082523
 118.8404880  95.1006663  80.9365112 119.9461051  95.3913542  81.9289787
 114.7243894 100.1529038  69.3423188 114.4789936  99.2491368  69.5403398
 114.8939809 100.1546188  68.4002666 113.9939542  95.8857395  66.8409349
 113.3008787  95.9601750  66.1849385 113.7491294  95.1217739  67.3630866
 119.0376383  95.8822780  63.0844804 118.1307838  95.5855892  63.1607518
 119.3152364  95.5852598  62.2179090 109.9554323  97.2029143  73.5343851
 109.6357107  96.3494451  73.2418225 109.4087751  97.4177721  74.2901818
 113.7334230  99.9191584  77.2513357 113.9520240 100.8508692  77.2701391
 114.1460004  99.5599558  78.0368161 120.6538448  90.4259669  69.2389046
 119.8439177  90.0806754  69.6144292 121.3422865  90.1167213  69.8276657
 118.6062096  95.4924790  86.6416106 118.5058823  96.4419147  86.5728197
 118.3883638  95.1643029  85.7692176 117.8075167  92.7409715  63.2256783
 118.6694331  93.0664613  63.4852601 117.9925511  91.9541211  62.7129849
 109.8242583 100.8232055  75.5036972 109.1306054 100.4086007  74.9906927
 110.5715574 100.8652591  74.9070391 118.4693366  98.9221929  85.4581168
 117.9860448  99.7222289  85.6645057 118.5554305  98.9329873  84.5048612
 111.7379325 100.7550308  73.3802987 111.7150014 100.8537996  72.4284870
 112.0479962 101.6015459  73.7020153 114.3966703 102.8126463  77.4949602
 115.3509957 102.7810406  77.4279533 114.1979227 102.3517087  78.3099827
 114.9866085 101.3827579  80.0620399 115.8058974 101.8771658  80.0855236
 115.2602893 100.4659548  80.0337967 112.7516932 108.3546083  74.5119799
 112.6171400 107.5946484  73.9457797 112.3348994 109.0786983  74.0448588
 110.2401000  95.7165713  80.7612596 110.8859863  95.2064667  81.2499821
 110.0318151  96.4534395  81.3356022 118.7604610  89.9805758  66.5136492
 118.7483280  90.9247598  66.6704763 119.6528032  89.7975903  66.2195954
 114.5798491  92.8633330  84.8587610 115.4429952  92.5070135  85.0690935
 114.0063901  92.5247225  85.5463015  52.5018003  -5.4640987  57.1942994
  52.4242032  -4.5133162  57.2731474  51.8979646  -5.8095114  57.8517920
  50.1404832  -2.7155593  61.3391196  50.3801431  -2.0837069  62.0170214
  49.2974029  -3.0667553  61.6256555  50.6149665  -6.6907591  58.6689974
  49.9460040  -6.2061463  58.1854014  50.4762534  -6.4438370  59.5833353
  54.7554933  -4.6563847  65.2672633  55.3073241  -4.4932226  66.0321718
  55.0961127  -4.0659409  64.5952657  47.7154406  -6.6143301  61.2365106
  47.5808874  -7.3742900  60.6703104  47.2986469  -5.8902401  60.7693895
  50.8723532  -5.7173984  61.4483549  50.7555916  -4.7728551  61.3462239
  50.0515979  -6.0200422  61.8369348  51.8978046  -5.0645722  64.6639477
  52.8005293  -5.0322111  64.9805972  51.6715416  -5.9945271  64.6785813
  66.1974048  -0.5226769  62.3256843  65.8592560  -0.6385704  61.4377378
  67.0663816  -0.9235604  62.3057849  62.0560864   1.3308708  58.3153734
  61.4925729   1.2398645  57.5470022  61.9413259   0.5108612  58.7956226
  66.6793831   0.6308083  68.2843048  66.6682472   0.2360881  67.4123552
  66.8414471  -0.1025844  68.8776820  59.6025296   2.8259899  61.1537954
  60.3946588   2.4850724  60.7384254  59.8421946   2.9354874  62.0740108
  67.6360423   4.9979675  53.6268199  66.9848402   5.5833756  53.2402212
  68.4304785   5.5285870  53.6863236  61.5616050   2.0868813  54.0255333
  62.3346926   1.5397800  53.8868209  61.9141449   2.9513062  54.2369794
  63.4001092   3.4145195  67.2322232  63.1090958   4.3190826  67.1168899
  64.0358077   3.4561722  67.9466302  64.3257299   0.7922043  63.8223592
  64.9220871   0.5678066  63.1080555  64.3832271   0.0506789  64.4249040
  69.1135688   2.6870107  54.1637183  68.4781521   2.7604734  54.8758088
  68.7833094   3.2763706  53.4856262  63.6178616   0.1489585  53.8598158
  63.5014874  -0.5265512  54.5279242  63.7280876  -0.3378041  53.0430311
  65.9610157  -0.3900268  57.5644847  65.5968365  -0.9169647  58.2757769
  66.8177273  -0.7801799  57.3911333  68.3590977   3.1006610  64.2272026
  68.0591701   4.0031649  64.1187833  68.0142037   2.8338794  65.0793179
  61.8103459  -0.4479593  60.2608730  60.8853955  -0.5803379  60.4686422
  62.0587872   0.3314626  60.7578673  59.1712270  -0.8046319  61.0952520
  59.3004651  -0.5511840  62.0091931  58.4909721  -0.2118611  60.7757175
  63.3411757   9.8650931  57.1942994  63.2635787  10.8158756  57.2731474
  62.7373401   9.5196803  57.8517920  64.0875359  -0.1535751  69.4122328
  64.8290044   0.3849293  69.1357151  63.3812345   0.4730538  69.5693879
  69.5630699   1.9893390  68.0094489  69.9714055   1.5475800  67.2649121
  68.8407960   1.4146017  68.2628682  69.8859514   2.5494581  61.7646778
  69.2568376   2.7140295  61.0622846  69.4985176   2.9636190  62.5357742
  73.7648745   3.4849018  59.1191142  73.0799784   3.8647920  58.5688175
  73.8492595   4.0944345  59.8523090  71.0199677   1.1308977  65.7186485
  71.2316572   1.7740737  65.0420866  70.9729425   0.2971294  65.2508415
  65.4387475   2.2868989  59.0296863  65.9025821   2.5656692  58.2401486
  65.1744274   1.3852433  58.8469954  62.3311557   1.8340470  61.9676626
  62.9012914   2.2627739  61.3294111  62.9219668   1.5523055  62.6660812
  58.1181695  -3.3324306  61.1403562  57.3280749  -3.0766778  60.6643672
  58.6092943  -2.5175968  61.2455602  72.1345505   4.0080933  63.8908843
  72.9562949   3.6061120  63.6091524  72.1307908   3.9049167  64.8424958
  60.0696441  -2.9679727  58.0987038  59.2727604  -2.8561033  58.6170534
  59.8422033  -2.6293075  57.2327929  65.9002108   3.5564976  66.0469553
  65.9646541   4.0185383  66.8827725  65.1913032   2.9262341  66.1751863
  56.4019398  -3.0793816  63.5718553  56.6527437  -2.1946806  63.8376129
  56.9378947  -3.2589214  62.7993644  65.6150126   5.2233084  55.9148533
  65.4795801   6.0684619  56.3433381  66.1559939   5.4252361  55.1514467
  59.0679524   2.7408522  56.4876459  59.5804044   3.5351772  56.6382023
  59.7202236   2.0434812  56.4210060  60.8774408   5.8574278  58.5699212
  61.0541037   6.7792243  58.3820196  61.6731242   5.5432697  58.9993591
  60.1626765  -2.0961090  68.4461375  60.0480280  -2.9975833  68.7468474
  59.3071283  -1.8497393  68.0946191  67.2418603   5.8456650  70.0448876
  66.7982457   5.0593029  69.7269780  67.9035816   6.0335801  69.3792766
  62.0005724   7.3752452  64.5709554  62.5513149   7.2469515  63.7986548
  61.1617200   7.6747341  64.2204447  69.3399841   6.1259450  68.0730277
  69.3218316   6.9468331  67.5810546  70.2619761   6.0013525  68.2980418
  65.7972895   3.6403580  68.9153785  66.3301232   2.8791868  68.6853093
  65.2686976   3.3477231  69.6577940  57.0328440   1.0697176  57.2636029
  57.8703662   1.4794184  57.0469737  57.2106708   0.1296618  57.2336223
  67.1625607   2.7689572  56.4272597  66.6346969   2.0342332  56.1145835
  66.6613110   3.5464248  56.1812566  72.1418453   0.9638593  61.5439643
  71.4842128   1.6537854  61.6319772  72.9458853   1.3535024  61.8873630
  65.3078208   0.5869782  49.4307570  64.4005269   0.3559036  49.6298719
  65.8049240  -0.2092598  49.6181552  68.2146287   9.2967290  52.3504256
  67.5407985   9.5998986  52.9589214  68.6012108  10.0996370  52.0009713
  66.4866441   0.6882377  53.9531560  65.5777660   0.4041410  54.0504030
  66.5161525   1.1081456  53.0934867  71.7185708   4.2988967  57.7222728
  71.2648036   3.4579877  57.7787918  71.0879675   4.9350365  58.0597508
  70.1618648   6.1365463  58.6572546  70.4541622   6.6970520  57.9384912
  70.6717268   6.4294024  59.4125705  57.0554611  -1.5912109  57.9346763
  56.8579011  -2.1842748  57.2097829  56.5001275  -1.8959899  58.6522701
  66.1842529   2.2291121  51.2919639  65.7461959   1.5126980  50.8325276
  66.9252970   2.4567236  50.7304730  65.1252273   6.9145814  59.7465999
  65.0828452   7.1406661  58.8174531  66.0414972   6.6809189  59.8951800
  74.3285023   2.5724845  62.3607229  74.7621530   2.4800134  63.2090283
  75.0416604   2.5482345  61.7227245  63.2418074   3.7908843  59.5427962
  64.0358672   3.2959164  59.3410537  62.5309766   3.2626707  59.1795668
  68.0612918   6.1726939  63.8940330  68.1149940   6.7417875  64.6618045
  67.1927700   6.3428824  63.5294367  59.5500837  -2.0648075  55.6187715
  58.6198425  -2.1263619  55.8357677  59.6458309  -2.5872122  54.8224356
  75.1900573   2.6148546  64.8940114  75.3836463   3.5194356  65.1399389
  75.0901191   2.1555965  65.7278699  70.2515682   2.7655288  70.4680995
  70.1001188   2.5365840  69.5511079  70.2420361   3.7225890  70.4812340
  67.0201018   0.3387201  65.4527261  67.9493078   0.4898361  65.2796229
  66.5992048   0.4271222  64.5975908  65.8189350   4.3637865  63.2225799
  65.6800435   3.9956650  64.0951737  65.0303946   4.8785505  63.0509757
  66.4137502   9.4646962  54.5651336  66.5889257   8.9935005  55.3796958
  65.7270290  10.0912728  54.7932596  67.3694565   3.7419468  60.6114637
  67.0344397   3.7020238  61.5072287  66.8698511   3.0764184  60.1385047
  61.3438809  -0.8512902  66.1367218  61.2058607  -1.5832663  66.7378757
  62.2543732  -0.9404002  65.8551406  70.3053756   1.0875502  50.8851696
  69.6882927   0.3622331  50.7884749  69.8370245   1.8484863  50.5418771
  63.9721109  -1.1392942  65.6250898  64.6820728  -1.7799750  65.5837516
  63.9290418  -0.8880048  66.5477078  71.9607888   5.7974411  68.5457477
  71.9020434   5.1133631  67.8788060  72.3627407   6.5393401  68.0938103
  60.9798587  12.6136325  61.3391196  61.2195185  13.2454849  62.0170214
  60.1367783  12.2624365  61.6256555  71.9625295   3.7613995  66.7771457
  71.0752074   3.4239917  66.8997855  72.5323846   3.0297026  67.0140222
  53.6154443   0.0938087  60.1014508  54.3025482  -0.2200183  59.5135523
  53.4602571   0.9979451  59.8281759  65.4926449   8.4215447  63.7432700
  65.4196620   9.2270419  64.2552004  65.0503842   8.6207413  62.9180721
  65.2816228   7.6587217  57.2535521  64.4983750   8.2008897  57.3473746
  65.9808974   8.1761197  57.6529762  67.9525132   8.3202281  65.8990858
  68.6653105   8.9549746  65.8266760  67.4615161   8.4166147  65.0830860
  69.6742659   2.2253534  57.4708150  68.7398938   2.3454996  57.3012854
  69.8519328   1.3226001  57.2068160  63.0037046   6.0696725  66.7196429
  63.7046505   6.7033208  66.8725823  62.5332161   6.4111456  65.9592068
  71.1291442   4.4114674  55.0044336  71.4051286   4.2971269  55.9138210
  70.2595940   4.0132159  54.9656509  67.7645506   8.6601025  58.6477150
  67.9467900   7.8422681  59.1104902  68.5878492   8.8768718  58.2102040
  68.0987671   7.5869210  55.9092198  68.6275438   7.0761665  55.2962360
  68.3615891   7.2711741  56.7737731  66.8525905  -0.6338857  71.0315017
  66.1766542  -0.7344728  71.7017392  67.6753539  -0.7899643  71.4951014
  58.6004764   5.6033080  63.6527532  59.1858201   4.8576768  63.7855436
  58.4029602   5.9137036  64.5364196  61.4543419   8.6384327  58.6689974
  60.7853794   9.1230455  58.1854014  61.3156289   8.8853548  59.5833353
  53.1922419  -1.8261320  62.3731975  53.2306518  -2.3597729  63.1669093
  52.6862711  -2.3526115  61.7542952  65.5948688  10.6728071  65.2672633
  66.1466996  10.8359692  66.0321718  65.9354881  11.2632508  64.5952657
  70.4459562   5.4989328  71.1221287  70.9899466   6.1119286  70.6276242
  69.8646407   6.0568907  71.6388300  56.8230996  -3.0997218  55.4485906
  57.1184437  -4.0086540  55.3952960  55.9219032  -3.1209479  55.1266909
  68.7317075   8.6210046  62.2536315  68.6068214   7.8199786  61.7447260
  69.3896166   9.1156239  61.7650285  70.7951983   6.4219066  63.8815865
  69.8482319   6.3024417  63.8094192  71.1434757   5.5341564  63.9642126
  67.7998417   6.2171782  60.0820217  67.6523379   5.2888490  60.2627787
  68.6251910   6.2391873  59.5977292  71.4032539   7.0400341  61.1685090
  72.3279086   6.8343202  61.0309541  71.2347842   6.7916742  62.0774431
  71.1927855   7.5586009  56.5247181  71.3664732   6.9932431  55.7721034
  71.6856746   8.3586903  56.3426671  57.0104815  -0.4299322  64.5910740
  56.4658283   0.3460486  64.7231014  57.8884164  -0.0828518  64.4329862
  72.1803027   6.8752773  53.6244080  72.8753932   7.4959466  53.8431394
  72.5226177   6.0248124  53.8996457  57.7970836  -1.3029426  67.4840897
  57.0552572  -1.1546791  68.0705527  57.4763581  -1.0421160  66.6207646
  74.0794450   4.3252479  55.1531410  74.6045774   4.6639751  54.4280730
  73.9916803   3.3899494  54.9694545  65.7414499   8.2386552  67.2821287
  66.0501626   7.9935699  68.1543987  66.5389981   8.4433191  66.7940157
  65.7635111  10.3924462  59.5126664  65.3240101   9.9000841  60.2059520
  66.5143228   9.8497429  59.2718739  58.2427450   6.5836003  59.5151292
  59.0685470   6.2839775  59.1349935  57.8921502   5.8143625  59.9641080
  63.2108983   5.9362471  61.5848965  62.5888993   5.2733176  61.2851193
  63.8813850   5.9623603  60.9022613  56.4436055   4.5022329  60.4740225
  55.6067963   4.0744503  60.2924226  56.4159701   4.6954772  61.4111016
  73.7688356   4.9585382  70.4582608  72.9783900   4.9409521  69.9187108
  73.5321711   5.4973676  71.2131645  62.7722490   4.4866394  55.0607426
  62.9210611   5.1701859  54.4074098  63.5788934   4.4671484  55.5756881
  75.3904428   4.2274790  68.0157358  75.0989237   4.5904771  68.8520819
  74.7776560   3.5141798  67.8370690  60.5275123   0.5131572  56.0668495
  60.2821165  -0.3906098  56.2648705  60.6971038   0.5148722  55.1247973
  66.2717896   6.9814525  52.5319173  65.6991863   7.6004712  52.0789645
  66.8450689   7.5313886  53.0659095  69.4915155   7.2651675  53.6627755
  70.4245829   7.1997236  53.8660631  69.4038368   8.1007942  53.2042288
  72.1203172   6.5817545  50.6231703  72.0416804   6.2477409  51.5167461
  72.9412839   7.0739313  50.6223175  66.5403387   2.3693084  71.3335883
  67.4606396   2.5471683  71.5275929  66.5052970   1.4249129  71.1815582
  55.7585552  -2.4368323  60.2589157  55.4388336  -3.2903015  59.9663531
  55.2118980  -2.2219745  61.0147125  59.5365459   0.2794118  63.9758664
  59.7551469   1.2111226  63.9946698  59.9491233  -0.0797907  64.7613468
  55.6273812   1.1834589  62.2282279  54.9337283   0.7688542  61.7152233
  56.3746803   1.2255125  61.6315698  64.2724595  -0.7175537  72.1826474
  63.7891676   0.0824823  72.3890363  64.3585534  -0.7067592  71.2293918
  57.5410554   1.1152843  60.1048294  57.5181242   1.2140530  59.1530177
  57.8511191   1.9617993  60.4265460  60.1997932   3.1728998  64.2194908
  61.1541186   3.1412940  64.1524840  60.0010456   2.7119621  65.0345134
  60.7897314   1.7430114  66.7865706  61.6090203   2.2374192  66.8100543
  61.0634122   0.8262082  66.7583273  58.5548161   8.7148617  61.2365106
  58.4202629   7.9549018  60.6703104  58.1380223   9.4389517  60.7693895
  69.6907124   3.8985541  50.2441681  70.3942974   4.1035543  50.8599337
  68.9669773   4.4662302  50.5090765  61.7117287   9.6117934  61.4483549
  61.5949671  10.5563367  61.3462239  60.8909733   9.3091496  61.8369348
  71.5993821   4.3368070  52.2940141  72.4339425   3.9049268  52.1117616
  71.4378164   4.1650083  53.2217036  71.2539714   0.8400183  53.6596481
  71.1988517   0.6744454  52.7184925  70.6285769   1.5476216  53.8158670
  56.0432229  -3.9231753  67.4857903  56.6891092  -4.4332799  67.9745128
  55.8349380  -3.1863071  68.0601328  68.5685621   3.1449095  72.9850043
  69.4376780   3.3189747  72.6236678  68.0892372   3.9643512  72.8625773
  62.7371801  10.2646196  64.6639477  63.6399048  10.2969806  64.9805972
  62.5109171   9.3346647  64.6785813  64.4925403   9.0177182  61.3249556
  63.5421034   9.0179044  61.2113928  64.7957889   8.2709917  60.8085590
  80.2278096  14.8537721  62.3895318  80.8656506  14.7344468  61.6858658
  80.1098939  15.8018565  62.4483270  77.0367803  14.8065149  62.3256843
  76.6986314  14.6906214  61.4377378  77.9057571  14.4056314  62.3057849
  72.8954618  16.6600625  58.3153734  72.3319484  16.5690562  57.5470022
  72.7807013  15.8400530  58.7956226  77.5187586  15.9600001  68.2843048
  77.5076226  15.5652799  67.4123552  77.6808225  15.2266073  68.8776820
  70.4419050  18.1551817  61.1537954  71.2340342  17.8142642  60.7384254
  70.6815701  18.2646792  62.0740108  78.4754177  20.3271593  53.6268199
  77.8242157  20.9125674  53.2402212  79.2698540  20.8577788  53.6863236
  72.4009804  17.4160730  54.0255333  73.1740680  16.8689717  53.8868209
  72.7535203  18.2804980  54.2369794  74.2394847  18.7437113  67.2322232
  73.9484713  19.6482743  67.1168899  74.8751831  18.7853640  67.9466302
  75.1651054  16.1213961  63.8223592  75.7614626  15.8969983  63.1080555
  75.2226025  15.3798707  64.4249040  74.7376082  13.5753396  51.6573783
  74.9901603  13.0534918  50.8957246  73.8000641  13.4119542  51.7600467
  79.7819365  12.5789175  59.4648526  80.5682454  12.1608598  59.1138943
  80.0458069  13.4835267  59.6330175  79.9529442  18.0162025  54.1637183
  79.3175275  18.0896652  54.8758088  79.6226849  18.6055624  53.4856262
  85.1827792  12.5164408  60.3681505  85.9152964  11.9463625  60.6019334
  84.4267148  12.1286008  60.8088010  74.4572371  15.4781502  53.8598158
  74.3408629  14.8026406  54.5279242  74.5674631  14.9913876  53.0430311
  76.8003912  14.9391649  57.5644847  76.4362119  14.4122270  58.2757769
  77.6571028  14.5490118  57.3911333  82.7053212   6.2285982  64.8276113
  82.3736537   7.0981393  64.6037328  82.1098826   5.9122266  65.5070144
  76.4409399   9.9681549  52.5606196  76.6083801  10.8361786  52.9276667
  76.2506568  10.1308831  51.6367485  79.1984732  18.4298528  64.2272026
  78.8985455  19.3323567  64.1187833  78.8535791  18.1630711  65.0793179
  72.6497213  14.8812325  60.2608730  71.7247710  14.7488539  60.4686422
  72.8981627  15.6606544  60.7578673  82.5981876  10.9481068  61.9069463
  81.6898753  10.8796477  61.6128224  82.5469472  11.4253013  62.7351289
  76.4198620  12.4239207  53.5452862  76.2998245  12.8696257  54.3838343
  75.7251208  12.7724524  52.9866401  70.0106024  14.5245598  61.0952520
  70.1398406  14.7780077  62.0091931  69.3303476  15.1173306  60.7757175
  74.1805512  25.1942848  57.1942994  74.1029541  26.1450673  57.2731474
  73.5767155  24.8488721  57.8517920  76.6722741  12.3670714  69.8504361
  75.8956076  12.9264634  69.8407225  77.3113305  12.8527497  70.3719231
  84.4643522   9.1497507  63.6847337  83.8217902   9.4430040  63.0387132
  83.9598451   9.0350427  64.4900534  82.1183686  12.8960680  54.3733197
  83.0301542  13.1288067  54.1980894  81.6093333  13.4797724  53.8108275
  74.9269114  15.1756167  69.4122328  75.6683798  15.7141211  69.1357151
  74.2206099  15.8022456  69.5693879  80.4024453  17.3185308  68.0094489
  80.8107809  16.8767718  67.2649121  79.6801715  16.7437935  68.2628682
  76.7555523  12.2557914  65.3828046  77.6016719  12.6797328  65.5262695
  76.6954161  11.5991539  66.0766609  80.7253268  17.8786498  61.7646778
  80.0962131  18.0432212  61.0622846  80.3378930  18.2928108  62.5357742
  84.6042500  18.8140936  59.1191142  83.9193538  19.1939837  58.5688175
  84.6886349  19.4236263  59.8523090  79.9054969   9.9162283  67.0409220
  79.6615901  10.6704343  66.5043495  80.1814899  10.2947630  67.8756467
  81.8593432  16.4600895  65.7186485  82.0710327  17.1032655  65.0420866
  81.8123180  15.6263212  65.2508415  79.4619661   9.0718716  62.6223057
  78.6004140   9.3699969  62.9139795  79.4882095   9.2889115  61.6904090
  76.2781230  17.6160906  59.0296863  76.7419575  17.8948609  58.2401486
  76.0138028  16.7144351  58.8469954  73.1705311  17.1632388  61.9676626
  73.7406668  17.5919656  61.3294111  73.7613423  16.8814973  62.6660812
  75.2150116  13.7384059  55.8386428  75.9174159  14.1905102  56.3060355
  74.8830745  13.0967878  56.4666321  73.6630478  12.3295815  70.2137638
  73.0329138  13.0112096  70.4473034  73.5566565  12.2178897  69.2690776
  68.9575450  11.9967611  61.1403562  68.1674504  12.2525140  60.6643672
  69.4486697  12.8115949  61.2455602  82.9739260  19.3372851  63.8908843
  83.7956703  18.9353038  63.6091524  82.9701662  19.2341085  64.8424958
  70.9090195  12.3612191  58.0987038  70.1121359  12.4730885  58.6170534
  70.6815788  12.6998843  57.2327929  76.7395863  18.8856894  66.0469553
  76.8040295  19.3477301  66.8827725  76.0306787  18.2554259  66.1751863
  67.2413153  12.2498102  63.5718553  67.4921191  13.1345112  63.8376129
  67.7772701  12.0702703  62.7993644  91.0645253  15.6811599  60.2393814
  90.3108961  15.1118997  60.0837819  91.1992794  15.6474264  61.1864449
  76.4543881  20.5525001  55.9148533  76.3189555  21.3976537  56.3433381
  76.9953693  20.7544279  55.1514467  72.9411220   6.6316581  72.5762889
  72.5478166   6.0782780  73.2510533  73.7577361   6.9427160  72.9669406
  69.9073278  18.0700439  56.4876459  70.4197799  18.8643690  56.6382023
  70.5595991  17.3726730  56.4210060  71.7168163  21.1866196  58.5699212
  71.8934791  22.1084160  58.3820196  72.5124996  20.8724615  58.9993591
  75.8579181   8.0474460  70.1683145  76.5988895   8.6481613  70.0887608
  76.0897104   7.3052098  69.6101188  71.0020519  13.2330828  68.4461375
  70.8874034  12.3316085  68.7468474  70.1465037  13.4794524  68.0946191
  78.0812357  21.1748568  70.0448876  77.6376211  20.3884946  69.7269780
  78.7429571  21.3627718  69.3792766  72.8399478  22.7044369  64.5709554
  73.3906903  22.5761433  63.7986548  72.0010954  23.0039258  64.2204447
  80.1793595  21.4551368  68.0730277  80.1612070  22.2760249  67.5810546
  81.1013515  21.3305443  68.2980418  76.6366649  18.9695497  68.9153785
  77.1694986  18.2083785  68.6853093  76.1080730  18.6769149  69.6577940
  79.8036344   4.0755563  64.4447427  79.4600614   4.9657205  64.3686537
  80.1715307   3.8857221  63.5817012  67.8722195  16.3989094  57.2636029
  68.7097417  16.8086102  57.0469737  68.0500463  15.4588536  57.2336223
  79.7686627  14.0664174  52.9519862  79.2533250  14.8368779  53.1908249
  79.4963935  13.3929310  53.5752923  77.3533738   8.9113875  58.0105100
  76.4975334   8.5220725  57.8310739  77.7660690   8.9905836  57.1504886
  78.8832885   6.4460218  62.4096660  78.3797680   6.4090354  61.5964465
  79.1763491   7.3552961  62.4693317  75.1275770   6.5298948  61.4162842
  75.9928767   6.3341757  61.0568731  75.1953279   6.3009300  62.3432199
  84.7420901  16.8196529  54.8873036  83.9650344  16.4807688  54.4428198
  85.4212382  16.8249152  54.2128001  79.5572930  11.9391266  54.7779643
  79.2523066  12.2537416  55.6289786  80.5103372  12.0172686  54.8206976
  78.0019362  18.0981490  56.4272597  77.4740724  17.3634249  56.1145835
  77.5006865  18.8756166  56.1812566  82.9812208  16.2930510  61.5439643
  82.3235882  16.9829772  61.6319772  83.7852607  16.6826942  61.8873630
  72.7338090   8.7601156  58.7879209  73.3081841   8.5376338  58.0552402
  73.3209072   8.8289851  59.5407810  81.7917667  14.6474883  59.5943585
  82.3049549  15.2804875  60.0965295  82.4418891  14.0476078  59.2286945
  73.0607677  10.7905617  52.8075094  72.2244989  11.1280304  53.1284369
  72.9212446  10.6554597  51.8702231  75.0360757   5.6342405  57.5154278
  74.3825170   5.3191422  56.8910893  74.9941231   5.0118145  58.2414101
  76.1471962  15.9161700  49.4307570  75.2399024  15.6850953  49.6298719
  76.6442994  15.1199319  49.6181552  79.0540041  24.6259207  52.3504256
  78.3801740  24.9290904  52.9589214  79.4405863  25.4288288  52.0009713
  78.2698498  12.1224338  61.8401926  77.3521059  12.3439285  61.6823614
  78.6858641  12.1970649  60.9813633  79.0533545  13.5215754  56.9704606
  79.8005364  14.0337151  56.6611728  79.3225135  13.1999807  57.8309000
  77.3260196  16.0174295  53.9531560  76.4171415  15.7333328  54.0504030
  77.3555279  16.4373373  53.0934867  82.5579463  19.6280884  57.7222728
  82.1041790  18.7871794  57.7787918  81.9273430  20.2642283  58.0597508
  81.5012383  10.5572870  58.9523395  80.7635139  10.0450257  59.2833638
  81.7539156  10.1173252  58.1406672  81.0012402  21.4657381  58.6572546
  81.2935377  22.0262438  57.9384912  81.5111023  21.7585942  59.4125705
  67.8948366  13.7379809  57.9346763  67.6972766  13.1449170  57.2097829
  67.3395030  13.4332019  58.6522701  75.8745090  13.6302915  60.0541356
  75.9293699  12.6776752  59.9783832  75.0636292  13.7862355  60.5382654
  77.0236283  17.5583039  51.2919639  76.5855713  16.8418897  50.8325276
  77.7646724  17.7859153  50.7304730  73.8137450  12.2479975  57.8131735
  73.0005315  12.5474146  58.2196927  74.3096444  11.8535664  58.5306217
  75.9646027  22.2437732  59.7465999  75.9222206  22.4698578  58.8174531
  76.8808726  22.0101107  59.8951800  79.4111661  12.7121800  66.6446628
  79.7661049  12.9393273  67.5041094  80.0583792  13.0440176  66.0223884
  85.1409398  15.8340236  57.3495957  85.0027297  16.0241832  56.4217147
  84.7845617  16.5959618  57.8064009  73.3051524   9.8198331  63.4292969
  73.9450904   9.6787090  62.7315933  72.4729055   9.5332844  63.0531571
  85.1678778  17.9016763  62.3607229  85.6015284  17.8092052  63.2090283
  85.8810358  17.8774263  61.7227245  74.0811828  19.1200761  59.5427962
  74.8752427  18.6251081  59.3410537  73.3703521  18.5918624  59.1795668
  78.9006673  21.5018857  63.8940330  78.9543695  22.0709793  64.6618045
  78.0321454  21.6720742  63.5294367  70.3894592  13.2643843  55.6187715
  69.4592180  13.2028298  55.8357677  70.4852064  12.7419796  54.8224356
  70.3080141   9.7898656  58.2065956  70.5686958  10.7043989  58.0975117
  71.1297313   9.3223098  58.3562569  71.7805066  11.2036413  65.3764781
  72.4528119  10.9953775  64.7277430  70.9534853  11.0058499  64.9370013
  86.0294327  17.9440463  64.8940114  86.2230217  18.8486274  65.1399389
  85.9294945  17.4847882  65.7278699  77.6830638   7.8298354  67.3930442
  77.0358553   8.5288303  67.2994918  78.4531653   8.2634498  67.7606690
  81.0909436  18.0947206  70.4680995  80.9394942  17.8657758  69.5511079
  81.0814115  19.0517807  70.4812340  77.8594772  15.6679119  65.4527261
  78.7886832  15.8190278  65.2796229  77.4385802  15.7563140  64.5975908
  76.6583104  19.6929783  63.2225799  76.5194190  19.3248568  64.0951737
  75.8697700  20.2077423  63.0509757  77.2531256  24.7938880  54.5651336
  77.4283012  24.3226923  55.3796958  76.5664044  25.4204646  54.7932596
  78.2088319  19.0711386  60.6114637  77.8738152  19.0312156  61.5072287
  77.7092265  18.4056102  60.1385047  72.1832563  14.4779016  66.1367218
  72.0452361  13.7459255  66.7378757  73.0937487  14.3887916  65.8551406
  81.1447511  16.4167420  50.8851696  80.5276682  15.6914248  50.7884749
  80.6763999  17.1776780  50.5418771  74.8114864  14.1898975  65.6250898
  75.5214482  13.5492167  65.5837516  74.7684172  14.4411870  66.5477078
  82.8001643  21.1266329  68.5457477  82.7414189  20.4425549  67.8788060
  83.2021161  21.8685319  68.0938103  73.5243798  11.1764193  67.4446537
  72.9881155  10.7254932  68.0968133  72.9360506  11.3110102  66.7017001
  71.8192341  27.9428242  61.3391196  72.0588940  28.5746767  62.0170214
  70.9761538  27.5916282  61.6256555  72.9346057  10.6352844  50.0073001
  72.0575523  10.5141645  49.6435247  73.4103810   9.8438923  49.7551889
  82.8019050  19.0905912  66.7771457  81.9145829  18.7531834  66.8997855
  83.3717601  18.3588944  67.0140222  64.4548197  15.4230004  60.1014508
  65.1419237  15.1091734  59.5135523  64.2996326  16.3271369  59.8281759
  69.2582919  10.3120201  64.5299532  69.1741108   9.7045870  63.7949942
  68.4365626  10.8029219  64.5309028  76.3320203  23.7507365  63.7432700
  76.2590375  24.5562336  64.2552004  75.8897596  23.9499331  62.9180721
  76.1209983  22.9879135  57.2535521  75.3377505  23.5300815  57.3473746
  76.8202728  23.5053114  57.6529762  79.4306633   8.7973764  59.8969727
  79.9275333   8.0443727  59.5770797  78.6593615   8.8338081  59.3312936
  87.2836390  14.5014130  61.5388018  87.2726267  15.3838845  61.1681951
  86.4153770  14.1485681  61.3442555  78.7918887  23.6494199  65.8990858
  79.5046859  24.2841664  65.8266760  78.3008915  23.7458065  65.0830860
  80.5136414  17.5545452  57.4708150  79.5792692  17.6746914  57.3012854
  80.6913082  16.6517918  57.2068160  76.0141602  10.9391147  59.6241411
  75.6439389  10.3862188  60.3122317  76.5100694  10.3349281  59.0716411
  83.9008965  13.3962771  58.0058184  84.3669417  14.2290762  57.9318487
  84.3516466  12.9307752  58.7103443  73.8430800  21.3988642  66.7196429
  74.5440260  22.0325125  66.8725823  73.3725915  21.7403374  65.9592068
  81.9685196  19.7406592  55.0044336  82.2445040  19.6263187  55.9138210
  81.0989695  19.3424077  54.9656509  81.8725628   5.7643358  62.0449086
  80.9588708   5.9947585  62.2131292  82.3018729   5.8481802  62.8963118
  81.6432086  13.9533250  64.5448980  80.9903537  14.2009157  63.8901432
  82.0212466  13.1397388  64.2111457  78.6039260  23.9892943  58.6477150
  78.7861655  23.1714599  59.1104902  79.4272246  24.2060635  58.2102040
  78.9381426  22.9161128  55.9092198  79.4669192  22.4053583  55.2962360
  79.2009645  22.6003658  56.7737731  77.6919659  14.6953061  71.0315017
  77.0160296  14.5947190  71.7017392  78.5147293  14.5392275  71.4951014
  69.4398518  20.9324997  63.6527532  70.0251955  20.1868685  63.7855436
  69.2423357  21.2428954  64.5364196  72.2937174  23.9676245  58.6689974
  71.6247549  24.4522372  58.1854014  72.1550043  24.2145465  59.5833353
  64.0316173  13.5030598  62.3731975  64.0700273  12.9694188  63.1669093
  63.5256466  12.9765803  61.7542952  76.4342442  26.0019988  65.2672633
  76.9860750  26.1651610  66.0321718  76.7748636  26.5924426  64.5952657
  71.4106935   8.3495138  65.8694517  71.4748262   9.2109969  65.4571915
  71.3474056   7.7369140  65.1366876  70.8859208  10.4218271  69.5167552
  71.5131247  10.0395348  70.1305076  70.0287127  10.2032473  69.8823244
  81.2853317  20.8281246  71.1221287  81.8293221  21.4411204  70.6276242
  80.7040161  21.3860824  71.6388300  67.6624751  12.2294700  55.4485906
  67.9578192  11.3205378  55.3952960  66.7612786  12.2082439  55.1266909
  79.5710829  23.9501964  62.2536315  79.4461969  23.1491704  61.7447260
  80.2289921  24.4448157  61.7650285  71.1918998  10.3050696  61.4313455
  70.4705583  10.9186664  61.2920928  71.9812253  10.8408461  61.3530101
  81.6345738  21.7510984  63.8815865  80.6876073  21.6316335  63.8094192
  81.9828511  20.8633482  63.9642126  73.9945311   7.6405123  67.7054107
  74.5179713   7.8867419  68.4680416  73.7757645   8.4725158  67.2857244
  69.3912592   9.9108797  55.5725232  69.0625298   9.0306176  55.3900337
  69.7451963   9.8556466  56.4601621  78.6392171  21.5463700  60.0820217
  78.4917134  20.6180408  60.2627787  79.4645665  21.5683791  59.5977292
  72.5054415  10.1981767  55.9400709  72.8450488  10.7267688  55.2179318
  72.9526536  10.5362173  56.7159276  82.2426293  22.3692259  61.1685090
  83.1672841  22.1635120  61.0309541  82.0741596  22.1208660  62.0774431
  75.1997856   8.5818818  65.3903777  74.8594677   7.7826631  65.7924457
  74.4936863   8.8820529  64.8180610  75.8514328   5.6668130  63.8431100
  76.6740397   5.1928609  63.7209991  76.0952392   6.4458614  64.3429787
  74.4922563   8.6956389  54.1394002  75.2130925   9.0737642  53.6357719
  73.8687867   9.4145266  54.2428980  78.6353685   9.4001538  55.0752334
  78.8517300  10.2826176  54.7741162  78.1547753   9.0087751  54.3457976
  73.3752907  12.3587251  61.6523079  73.2297488  12.6727554  62.5447360
  72.8978111  12.9772151  61.0993978  75.2349290   9.3489799  61.7003968
  75.2210859   8.4530892  61.3636266  75.9521718   9.3560463  62.3342255
  77.0875420   9.7827139  63.7457096  76.8293198  10.7044210  63.7441426
  76.5560461   9.3857574  64.4357560  82.0321609  22.8877926  56.5247181
  82.2058487  22.3224349  55.7721034  82.5250500  23.6878821  56.3426671
  67.8498569  14.8992595  64.5910740  67.3052037  15.6752403  64.7231014
  68.7277919  15.2463400  64.4329862  74.6386186   8.2304179  56.9691539
  74.7602097   7.3020825  57.1682426  74.3488228   8.2442865  56.0569854
  77.5077376   5.9159090  60.1058258  77.5299073   5.9798423  59.1510238
  77.9245435   5.0763598  60.2998765  87.8861000  15.6514349  58.1437481
  88.3292146  14.9021674  57.7456604  87.0087511  15.6424486  57.7611213
  83.0196782  22.2044691  53.6244080  83.7147686  22.8251383  53.8431394
  83.3619932  21.3540042  53.8996457  68.6364591  14.0262492  67.4840897
  67.8946327  14.1745127  68.0705527  68.3157335  14.2870757  66.6207646
  84.9188205  19.6544396  55.1531410  85.4439529  19.9931669  54.4280730
  84.8310557  18.7191412  54.9694545  76.5808254  23.5678470  67.2821287
  76.8895380  23.3227617  68.1543987  77.3783736  23.7725108  66.7940157
  76.6028866  25.7216379  59.5126664  76.1633856  25.2292758  60.2059520
  77.3536983  25.1789347  59.2718739  69.0821205  21.9127920  59.5151292
  69.9079224  21.6131692  59.1349935  68.7315257  21.1435543  59.9641080
  74.0502738  21.2654389  61.5848965  73.4282747  20.6025094  61.2851193
  74.7207605  21.2915520  60.9022613  67.2829810  19.8314247  60.4740225
  66.4461718  19.4036421  60.2924226  67.2553455  20.0246690  61.4111016
  74.1227265   9.7436177  71.1781471  74.1715421  10.6198299  70.7959241
  74.6649779   9.2013570  70.6053114  84.6082111  20.2877300  70.4582608
  83.8177655  20.2701439  69.9187108  84.3715465  20.8265594  71.2131645
  84.7279986  17.1369766  67.7715337  84.7777991  16.9719774  68.7130860
  84.6193909  16.2697025  67.3813218  73.6116245  19.8158312  55.0607426
  73.7604365  20.4993776  54.4074098  74.4182688  19.7963402  55.5756881
  82.0183748  13.1200694  69.0874644  82.9193611  12.9807159  68.7958641
  82.0931723  13.2855149  70.0272821  76.3526554  10.4967549  67.9327830
  75.4829863  10.7901115  67.6610418  76.5886034  11.0807994  68.6535094
  86.2298183  19.5566708  68.0157358  85.9382991  19.9196688  68.8520819
  85.6170314  18.8433716  67.8370690  87.4293865  17.1219588  60.5359929
  88.2640756  17.5609392  60.6997489  87.5652994  16.6458241  59.7168174
  84.4785371  14.6799322  66.4837416  84.9539493  14.8726969  65.6756268
  83.5550936  14.7358508  66.2380800  71.3668878  15.8423490  56.0668495
  71.1214920  14.9385820  56.2648705  71.5364792  15.8440640  55.1247973
  79.0565588   6.7147166  65.4493250  79.5747531   7.4508193  65.1239739
  78.7020720   7.0211159  66.2840009  70.6364525  11.5751847  53.5654656
  69.9433770  11.6496202  52.9094692  70.3916277  10.8112191  54.0876173
  77.1111650  22.3106442  52.5319173  76.5385617  22.9296629  52.0789645
  77.6844444  22.8605804  53.0659095  83.1787040  11.5565082  64.7165722
  84.1304463  11.6563180  64.7377946  83.0090490  10.7643351  65.2263806
  81.2001419   8.6420666  64.9025123  80.6051352   8.9225678  64.2071612
  80.9151116   9.1314567  65.6741864  80.3308910  22.5943592  53.6627755
  81.2639583  22.5289154  53.8660631  80.2432123  23.4299859  53.2042288
  82.9596927  21.9109463  50.6231703  82.8810558  21.5769326  51.5167461
  83.7806593  22.4031231  50.6223175  85.6575118  14.7771202  63.8308022
  85.6251438  13.8387203  64.0167705  86.2675741  14.8555239  63.0973846
  77.4958449  13.6467255  49.8735226  78.4417553  13.5173463  49.9423644
  77.1172694  12.9081917  50.3504654  85.8069606  11.5682246  63.8766305
  85.2908655  10.7840702  63.6896234  86.6909555  11.2400962  64.0412824
  83.4680333   5.3123261  59.8362117  83.2705154   5.0038349  60.7205449
  84.0780039   6.0384900  59.9660047  91.4751668  15.8387209  62.9714058
  92.2055056  15.5772497  63.5321762  90.8658613  15.1015931  63.0116126
  89.5566965  13.9795072  63.5688510  88.8300128  13.8451037  62.9605001
  89.1414252  14.2871900  64.3745228  77.3797141  17.6985001  71.3335883
  78.3000151  17.8763600  71.5275929  77.3446724  16.7541047  71.1815582
  75.6801366  11.5717232  49.8090111  74.7732821  11.2750344  49.8852824
  75.9577347  11.2747050  48.9424397  66.5979306  12.8923595  60.2589157
  66.2782091  12.0388903  59.9663531  66.0512734  13.1072173  61.0147125
  70.3759214  15.6086036  63.9758664  70.5945224  16.5403144  63.9946698
  70.7884988  15.2494010  64.7613468  77.2963432   6.1154121  55.9634352
  76.4864160   5.7701206  56.3389598  77.9847848   5.8061665  56.5521964
  79.2253980   5.1932168  57.5858649  79.7785018   5.6127621  58.2448672
  79.4624066   4.2667916  57.6281605  75.2487079  11.1819242  73.3661413
  75.1483806  12.1313599  73.2973504  75.0308621  10.8537481  72.4937483
  74.4500150   8.4304167  49.9502090  75.3119314   8.7559065  50.2097907
  74.6350495   7.6435663  49.4375156  66.4667566  16.5126506  62.2282279
  65.7731038  16.0980459  61.7152233  67.2140557  16.5547043  61.6315698
  82.6032787   7.3032693  57.0937313  82.0231456   7.9617497  56.7115365
  82.3368720   6.4810038  56.6824731  81.0536353   6.7037751  59.2958633
  81.5536132   6.8154285  58.4872952  81.6971961   6.3998804  59.9359442
  75.1118349  14.6116381  72.1826474  74.6285431  15.4116741  72.3890363
  75.1979288  14.6224325  71.2293918  68.3804309  16.4444760  60.1048294
  68.3574997  16.5432447  59.1530177  68.6904945  17.2909911  60.4265460
  71.0391687  18.5020915  64.2194908  71.9934940  18.4704858  64.1524840
  70.8404210  18.0411539  65.0345134  71.6291069  17.0722031  66.7865706
  72.4483958  17.5666110  66.8100543  71.9027876  16.1553999  66.7583273
  81.3857665   9.4632784  56.1493661  80.4983520   9.7482434  55.9313856
  81.8011654   9.3026547  55.3020938  84.7372201   9.4879305  59.8648001
  85.5132591   9.9775757  60.1372617  84.0120335   9.9137359  60.3219870
  87.1744760  10.2006924  60.9221941  87.7689251   9.9602660  60.2115249
  87.2471343   9.4814054  61.5495477  69.3941915  24.0440535  61.2365106
  69.2596383  23.2840936  60.6703104  68.9773978  24.7681435  60.7693895
  80.5300878  19.2277458  50.2441681  81.2336729  19.4327461  50.8599337
  79.8063527  19.7954220  50.5090765  81.3598689  14.9787320  56.3643951
  81.3033890  15.4355871  55.5251584  81.9127031  14.2178004  56.1866794
  85.1703495  10.7677051  57.1894071  84.9140429  10.3673687  58.0202279
  84.5456363  11.4820845  57.0644210  89.4815832  13.5073125  59.6965362
  88.9215390  13.5766314  60.4696924  88.8759336  13.3314109  58.9764859
  72.5511041  24.9409852  61.4483549  72.4343425  25.8855284  61.3462239
  71.7303488  24.6383413  61.8369348  82.4387576  19.6659987  52.2940141
  83.2733180  19.2341186  52.1117616  82.2771919  19.4942001  53.2217036
  82.0933468  16.1692101  53.6596481  82.0382272  16.0036372  52.7184925
  81.4679523  16.8768134  53.8158670  66.8825983  11.4060165  67.4857903
  67.5284847  10.8959119  67.9745128  66.6743134  12.1428847  68.0601328
  79.4079375  18.4741013  72.9850043  80.2770535  18.6481665  72.6236678
  78.9286127  19.2935429  72.8625773  75.4029593   5.6700210  53.2381799
  75.3908263   6.6142050  53.3950070  76.2953015   5.4870355  52.9441260
  73.5765555  25.5938114  64.6639477  74.4792802  25.6261724  64.9805972
  73.3502925  24.6638565  64.6785813  75.3319157  24.3469100  61.3249556
  74.3814788  24.3470962  61.2113928  75.6351644  23.6001835  60.8085590
  71.2223474   8.5527782  71.5832917  72.0854936   8.1964587  71.7936242
  70.6488885   8.2141677  72.2708321  91.0671851  30.1829639  62.3895318
  91.7050261  30.0636386  61.6858658  90.9492694  31.1310483  62.4483270
  87.8761557  30.1357067  62.3256843  87.5380069  30.0198131  61.4377378
  88.7451325  29.7348232  62.3057849  88.3581340  31.2891918  68.2843048
  88.3469981  30.8944717  67.4123552  88.5201980  30.5557991  68.8776820
  85.0788601  34.0729030  67.2322232  84.7878467  34.9774661  67.1168899
  85.7145586  34.1145558  67.9466302  86.0044808  31.4505879  63.8223592
  86.6008380  31.2261901  63.1080555  86.0619780  30.7090624  64.4249040
  96.0221547  27.8456326  60.3681505  96.7546718  27.2755542  60.6019334
  95.2660902  27.4577926  60.8088010  93.5446967  21.5577900  64.8276113
  93.2130292  22.4273311  64.6037328  92.9492580  21.2414184  65.5070144
  90.0378486  33.7590446  64.2272026  89.7379210  34.6615485  64.1187833
  89.6929546  33.4922629  65.0793179  93.4375630  26.2772986  61.9069463
  92.5292508  26.2088394  61.6128224  93.3863226  26.7544931  62.7351289
  80.8499779  29.8537516  61.0952520  80.9792160  30.1071995  62.0091931
  80.1697230  30.4465224  60.7757175  87.5116496  27.6962631  69.8504361
  86.7349830  28.2556552  69.8407225  88.1507059  28.1819414  70.3719231
  95.3037277  24.4789424  63.6847337  94.6611657  24.7721957  63.0387132
  94.7992205  24.3642345  64.4900534  85.7662868  30.5048085  69.4122328
  86.5077553  31.0433129  69.1357151  85.0599854  31.1314374  69.5693879
  91.2418208  32.6477225  68.0094489  91.6501564  32.2059636  67.2649121
  90.5195469  32.0729853  68.2628682  87.5949278  27.5849832  65.3828046
  88.4410473  28.0089246  65.5262695  87.5347916  26.9283456  66.0766609
  90.7448723  25.2454200  67.0409220  90.5009655  25.9996261  66.5043495
  91.0208654  25.6239548  67.8756467  92.6987186  31.7892813  65.7186485
  92.9104081  32.4324573  65.0420866  92.6516934  30.9555129  65.2508415
  90.3013415  24.4010633  62.6223057  89.4397894  24.6991887  62.9139795
  90.3275850  24.6181032  61.6904090  84.0099066  32.4924306  61.9676626
  84.5800423  32.9211574  61.3294111  84.6007177  32.2106890  62.6660812
  84.5024232  27.6587733  70.2137638  83.8722893  28.3404014  70.4473034
  84.3960320  27.5470815  69.2690776  79.7969204  27.3259529  61.1403562
  79.0068258  27.5817058  60.6643672  80.2880452  28.1407867  61.2455602
  93.8133014  34.6664768  63.8908843  94.6350458  34.2644955  63.6091524
  93.8095417  34.5633002  64.8424958  81.7483950  27.6904108  58.0987038
  80.9515113  27.8022803  58.6170534  81.5209542  28.0290761  57.2327929
  87.5789617  34.2148812  66.0469553  87.6434050  34.6769219  66.8827725
  86.8700541  33.5846176  66.1751863  78.0806907  27.5790019  63.5718553
  78.3314946  28.4637029  63.8376129  78.6166456  27.3994621  62.7993644
 101.9039007  31.0103517  60.2393814 101.1502715  30.4410915  60.0837819
 102.0386548  30.9766181  61.1864449  83.7804975  21.9608499  72.5762889
  83.3871920  21.4074697  73.2510533  84.5971115  22.2719077  72.9669406
  86.6972936  23.3766378  70.1683145  87.4382649  23.9773531  70.0887608
  86.9290859  22.6344016  69.6101188  81.8414274  28.5622745  68.4461375
  81.7267789  27.6608002  68.7468474  80.9858792  28.8086442  68.0946191
  88.9206112  36.5040486  70.0448876  88.4769966  35.7176864  69.7269780
  89.5823325  36.6919636  69.3792766  83.6793233  38.0336287  64.5709554
  84.2300658  37.9053350  63.7986548  82.8404709  38.3331176  64.2204447
  91.0187350  36.7843285  68.0730277  91.0005825  37.6052166  67.5810546
  91.9407270  36.6597361  68.2980418  87.4760404  34.2987415  68.9153785
  88.0088741  33.5375703  68.6853093  86.9474485  34.0061067  69.6577940
  90.6430099  19.4047481  64.4447427  90.2994368  20.2949123  64.3686537
  91.0109061  19.2149139  63.5817012  89.7226639  21.7752136  62.4096660
  89.2191435  21.7382271  61.5964465  90.0157246  22.6844879  62.4693317
  85.9669525  21.8590866  61.4162842  86.8322522  21.6633674  61.0568731
  86.0347034  21.6301218  62.3432199  83.5731844  24.0893074  58.7879209
  84.1475596  23.8668255  58.0552402  84.1602826  24.1581768  59.5407810
  85.8754512  20.9634323  57.5154278  85.2218924  20.6483340  56.8910893
  85.8334986  20.3410063  58.2414101  89.1092252  27.4516256  61.8401926
  88.1914813  27.6731203  61.6823614  89.5252396  27.5262567  60.9813633
  92.4417764  18.6641040  59.5465165  92.7476641  17.8038403  59.2591080
  93.1670369  19.2558660  59.3464158  78.7342120  29.0671727  57.9346763
  78.5366520  28.4741087  57.2097829  78.1788784  28.7623937  58.6522701
  90.2505416  28.0413717  66.6446628  90.6054803  28.2685190  67.5041094
  90.8977547  28.3732094  66.0223884  84.1445279  25.1490248  63.4292969
  84.7844658  25.0079008  62.7315933  83.3122809  24.8624762  63.0531571
  89.7400427  36.8310774  63.8940330  89.7937449  37.4001711  64.6618045
  88.8715209  37.0012659  63.5294367  81.1473895  25.1190573  58.2065956
  81.4080712  26.0335907  58.0975117  81.9691068  24.6515016  58.3562569
  82.6198821  26.5328331  65.3764781  83.2921874  26.3245693  64.7277430
  81.7928607  26.3350417  64.9370013  96.8688082  33.2732381  64.8940114
  97.0623972  34.1778191  65.1399389  96.7688700  32.8139800  65.7278699
  88.5224393  23.1590271  67.3930442  87.8752308  23.8580221  67.2994918
  89.2925408  23.5926415  67.7606690  91.9303190  33.4239124  70.4680995
  91.7788697  33.1949675  69.5511079  91.9207870  34.3809725  70.4812340
  88.6988527  30.9971036  65.4527261  89.6280587  31.1482196  65.2796229
  88.2779557  31.0855057  64.5975908  87.4976859  35.0221701  63.2225799
  87.3587944  34.6540485  64.0951737  86.7091455  35.5369340  63.0509757
  83.0226318  29.8070934  66.1367218  82.8846116  29.0751172  66.7378757
  83.9331241  29.7179834  65.8551406  85.6508618  29.5190893  65.6250898
  86.3608237  28.8784085  65.5837516  85.6077927  29.7703788  66.5477078
  93.6395397  36.4558246  68.5457477  93.5807943  35.7717466  67.8788060
  94.0414916  37.1977236  68.0938103  84.3637552  26.5056111  67.4446537
  83.8274909  26.0546849  68.0968133  83.7754261  26.6402020  66.7017001
  82.6586096  43.2720160  61.3391196  82.8982694  43.9038684  62.0170214
  81.8155292  42.9208200  61.6256555  93.6412804  34.4197830  66.7771457
  92.7539583  34.0823752  66.8997855  94.2111355  33.6880861  67.0140222
  75.2941952  30.7521922  60.1014508  75.9812991  30.4383652  59.5135523
  75.1390080  31.6563287  59.8281759  80.0976674  25.6412118  64.5299532
  80.0134862  25.0337788  63.7949942  79.2759380  26.1321137  64.5309028
  87.1713958  39.0799282  63.7432700  87.0984129  39.8854254  64.2552004
  86.7291351  39.2791248  62.9180721  90.2700388  24.1265682  59.8969727
  90.7669087  23.3735644  59.5770797  89.4987369  24.1629999  59.3312936
  98.1230145  29.8306048  61.5388018  98.1120021  30.7130763  61.1681951
  97.2547524  29.4777598  61.3442555  89.6312641  38.9786117  65.8990858
  90.3440614  39.6133581  65.8266760  89.1402670  39.0749983  65.0830860
  84.6824555  36.7280560  66.7196429  85.3834014  37.3617043  66.8725823
  84.2119670  37.0695292  65.9592068  92.7119382  21.0935275  62.0449086
  91.7982462  21.3239502  62.2131292  93.1412484  21.1773720  62.8963118
  92.4825841  29.2825167  64.5448980  91.8297291  29.5301075  63.8901432
  92.8606221  28.4689306  64.2111457  88.5313414  30.0244978  71.0315017
  87.8554051  29.9239108  71.7017392  89.3541048  29.8684192  71.4951014
  80.2792273  36.2616915  63.6527532  80.8645710  35.5160603  63.7855436
  80.0817111  36.5720872  64.5364196  74.8709928  28.8322515  62.3731975
  74.9094027  28.2986106  63.1669093  74.3650220  28.3057721  61.7542952
  87.2736197  41.3311906  65.2672633  87.8254505  41.4943527  66.0321718
  87.6142390  41.9216344  64.5952657  82.2500690  23.6787056  65.8694517
  82.3142016  24.5401887  65.4571915  82.1867810  23.0661057  65.1366876
  81.7252962  25.7510188  69.5167552  82.3525001  25.3687266  70.1305076
  80.8680881  25.5324390  69.8823244  92.1247071  36.1573163  71.1221287
  92.6686975  36.7703122  70.6276242  91.5433916  36.7152742  71.6388300
  78.5018505  27.5586617  55.4485906  78.7971946  26.6497296  55.3952960
  77.6006541  27.5374357  55.1266909  90.4104584  39.2793881  62.2536315
  90.2855723  38.4783621  61.7447260  91.0683675  39.7740075  61.7650285
  82.0312752  25.6342614  61.4313455  81.3099338  26.2478582  61.2920928
  82.8206008  26.1700379  61.3530101  92.4739492  37.0802902  63.8815865
  91.5269828  36.9608253  63.8094192  92.8222265  36.1925400  63.9642126
  84.8339066  22.9697040  67.7054107  85.3573468  23.2159337  68.4680416
  84.6151399  23.8017075  67.2857244  86.0391611  23.9110736  65.3903777
  85.6988431  23.1118549  65.7924457  85.3330617  24.2112446  64.8180610
  86.6908083  20.9960048  63.8431100  87.5134152  20.5220526  63.7209991
  86.9346146  21.7750532  64.3429787  84.2146661  27.6879169  61.6523079
  84.0691242  28.0019472  62.5447360  83.7371865  28.3064069  61.0993978
  86.0743044  24.6781717  61.7003968  86.0604613  23.7822810  61.3636266
  86.7915472  24.6852380  62.3342255  87.9269175  25.1119057  63.7457096
  87.6686953  26.0336127  63.7441426  87.3954215  24.7149491  64.4357560
  78.6892324  30.2284513  64.5910740  78.1445792  31.0044321  64.7231014
  79.5671673  30.5755318  64.4329862  85.4779940  23.5596097  56.9691539
  85.5995851  22.6312743  57.1682426  85.1881983  23.5734783  56.0569854
  88.3471131  21.2451007  60.1058258  88.3692827  21.3090340  59.1510238
  88.7639190  20.4055516  60.2998765  79.4758345  29.3554409  67.4840897
  78.7340081  29.5037045  68.0705527  79.1551090  29.6162675  66.6207646
  87.4202008  38.8970388  67.2821287  87.7289134  38.6519534  68.1543987
  88.2177490  39.1017026  66.7940157  78.1223564  35.1606164  60.4740225
  77.2855472  34.7328339  60.2924226  78.0947210  35.3538608  61.4111016
  84.9621020  25.0728094  71.1781471  85.0109175  25.9490217  70.7959241
  85.5043534  24.5305487  70.6053114  95.4475865  35.6169218  70.4582608
  94.6571409  35.5993356  69.9187108  95.2109220  36.1557511  71.2131645
  95.5673740  32.4661684  67.7715337  95.6171745  32.3011691  68.7130860
  95.4587664  31.5988943  67.3813218  92.8577503  28.4492612  69.0874644
  93.7587366  28.3099077  68.7958641  92.9325477  28.6147067  70.0272821
  87.1920308  25.8259467  67.9327830  86.3223618  26.1193033  67.6610418
  87.4279789  26.4099912  68.6535094  97.0691937  34.8858625  68.0157358
  96.7776746  35.2488606  68.8520819  96.4564069  34.1725634  67.8370690
  95.3179126  30.0091240  66.4837416  95.7933247  30.2018886  65.6756268
  94.3944691  30.0650426  66.2380800  89.8959342  22.0439084  65.4493250
  90.4141286  22.7800111  65.1239739  89.5414475  22.3503077  66.2840009
  90.1471936  18.4639366  60.9694147  90.4273690  17.7962555  61.5954573
  90.9322543  18.6568462  60.4568811  94.0180795  26.8857000  64.7165722
  94.9698217  26.9855098  64.7377946  93.8484245  26.0935269  65.2263806
  92.0395174  23.9712583  64.9025123  91.4445106  24.2517596  64.2071612
  91.7544871  24.4606484  65.6741864  96.4968872  30.1063120  63.8308022
  96.4645192  29.1679121  64.0167705  97.1069496  30.1847157  63.0973846
  96.6463361  26.8974163  63.8766305  96.1302409  26.1132620  63.6896234
  97.5303309  26.5692880  64.0412824  94.3074088  20.6415179  59.8362117
  94.1098909  20.3330267  60.7205449  94.9173793  21.3676818  59.9660047
 102.3145422  31.1679127  62.9714058 103.0448811  30.9064415  63.5321762
 101.7052368  30.4307849  63.0116126 100.3960719  29.3086989  63.5688510
  99.6693883  29.1742954  62.9605001  99.9808006  29.6163818  64.3745228
  88.2190896  33.0276919  71.3335883  89.1393905  33.2055518  71.5275929
  88.1840479  32.0832964  71.1815582  77.4373061  28.2215513  60.2589157
  77.1175845  27.3680821  59.9663531  76.8906489  28.4364091  61.0147125
  81.2152968  30.9377954  63.9758664  81.4338978  31.8695061  63.9946698
  81.6278742  30.5785928  64.7613468  88.1357186  21.4446039  55.9634352
  87.3257914  21.0993124  56.3389598  88.8241603  21.1353583  56.5521964
  90.0647734  20.5224086  57.5858649  90.6178773  20.9419539  58.2448672
  90.3017821  19.5959834  57.6281605  86.0880834  26.5111159  73.3661413
  85.9877560  27.4605516  73.2973504  85.8702376  26.1829398  72.4937483
  77.3061321  31.8418424  62.2282279  76.6124792  31.4272377  61.7152233
  78.0534312  31.8838961  61.6315698  93.4426541  22.6324611  57.0937313
  92.8625210  23.2909415  56.7115365  93.1762474  21.8101955  56.6824731
  91.8930108  22.0329669  59.2958633  92.3929886  22.1446203  58.4872952
  92.5365716  21.7290721  59.9359442  85.9512104  29.9408298  72.1826474
  85.4679185  30.7408658  72.3890363  86.0373043  29.9516243  71.2293918
  79.2198063  31.7736678  60.1048294  79.1968751  31.8724365  59.1530177
  79.5298700  32.6201829  60.4265460  81.8785441  33.8312833  64.2194908
  82.8328695  33.7996775  64.1524840  81.6797965  33.3703457  65.0345134
  82.4684823  32.4013949  66.7865706  83.2877712  32.8958028  66.8100543
  82.7421631  31.4845917  66.7583273  95.5765956  24.8171222  59.8648001
  96.3526346  25.3067675  60.1372617  94.8514090  25.2429276  60.3219870
  98.0138514  25.5298841  60.9221941  98.6083005  25.2894577  60.2115249
  98.0865098  24.8105972  61.5495477  80.2335670  39.3732452  61.2365106
  80.0990138  38.6132853  60.6703104  79.8167732  40.0973352  60.7693895
  96.0097249  26.0968969  57.1894071  95.7534183  25.6965605  58.0202279
  95.3850117  26.8112763  57.0644210 100.3209587  28.8365042  59.6965362
  99.7609145  28.9058232  60.4696924  99.7153090  28.6606027  58.9764859
  83.3904796  40.2701769  61.4483549  83.2737180  41.2147202  61.3462239
  82.5697242  39.9675331  61.8369348  77.7219737  26.7352083  67.4857903
  78.3678601  26.2251037  67.9745128  77.5136889  27.4720764  68.0601328
  90.2473130  33.8032930  72.9850043  91.1164289  33.9773583  72.6236678
  89.7679881  34.6227347  72.8625773  86.2423348  20.9992127  53.2381799
  86.2302018  21.9433967  53.3950070  87.1346770  20.8162273  52.9441260
  84.4159310  40.9230031  64.6639477  85.3186557  40.9553642  64.9805972
  84.1896680  39.9930482  64.6785813  90.0575467  17.5934904  57.4927736
  89.2907863  17.0393391  57.6384418  90.4686172  17.6656773  58.3541887
  82.0617228  23.8819700  71.5832917  82.9248690  23.5256505  71.7936242
  81.4882639  23.5433595  72.2708321 101.9065605  45.5121556  62.3895318
 102.5444015  45.3928304  61.6858658 101.7886448  46.4602400  62.4483270
  98.7155312  45.4648984  62.3256843  98.3773823  45.3490049  61.4377378
  99.5845080  45.0640149  62.3057849  94.5742127  47.3184461  58.3153734
  94.0106993  47.2274398  57.5470022  94.4594522  46.4984365  58.7956226
  99.1975095  46.6183836  68.2843048  99.1863735  46.2236634  67.4123552
  99.3595734  45.8849909  68.8776820  92.1206559  48.8135652  61.1537954
  92.9127851  48.4726477  60.7384254  92.3603209  48.9230627  62.0740108
 100.1541686  50.9855428  53.6268199  99.5029666  51.5709509  53.2402212
 100.9486049  51.5161623  53.6863236  94.0797313  48.0744566  54.0255333
  94.8528189  47.5273553  53.8868209  94.4322712  48.9388815  54.2369794
  95.9182356  49.4020948  67.2322232  95.6272222  50.3066579  67.1168899
  96.5539340  49.4437475  67.9466302  96.8438563  46.7797796  63.8223592
  97.4402135  46.5553819  63.1080555  96.9013534  46.0382542  64.4249040
  96.4163591  44.2337232  51.6573783  96.6689112  43.7118753  50.8957246
  95.4788150  44.0703377  51.7600467 101.4606874  43.2373010  59.4648526
 102.2469963  42.8192433  59.1138943 101.7245578  44.1419102  59.6330175
 101.6316951  48.6745860  54.1637183 100.9962784  48.7480487  54.8758088
 101.3014358  49.2639459  53.4856262 106.8615301  43.1748243  60.3681505
 107.5940473  42.6047460  60.6019334 106.1054657  42.7869844  60.8088010
  96.1359880  46.1365338  53.8598158  96.0196138  45.4610241  54.5279242
  96.2462140  45.6497712  53.0430311  98.4791421  45.5975485  57.5644847
  98.1149628  45.0706106  58.2757769  99.3358537  45.2073954  57.3911333
 104.3840721  36.8869817  64.8276113 104.0524046  37.7565228  64.6037328
 103.7886335  36.5706101  65.5070144 100.8772241  49.0882363  64.2272026
 100.5772964  49.9907402  64.1187833 100.5323300  48.8214547  65.0793179
  94.3284722  45.5396160  60.2608730  93.4035219  45.4072374  60.4686422
  94.5769136  46.3190379  60.7578673 104.2769385  41.6064904  61.9069463
 103.3686262  41.5380312  61.6128224 104.2256980  42.0836848  62.7351289
  98.0986129  43.0823042  53.5452862  97.9785754  43.5280093  54.3838343
  97.4038717  43.4308360  52.9866401  91.6893533  45.1829434  61.0952520
  91.8185915  45.4363913  62.0091931  91.0090985  45.7757142  60.7757175
  95.8593021  55.8526684  57.1942994  95.7817050  56.8034509  57.2731474
  95.2554664  55.5072556  57.8517920  98.3510250  43.0254549  69.8504361
  97.5743585  43.5848469  69.8407225  98.9900814  43.5111332  70.3719231
 106.1431031  39.8081342  63.6847337 105.5005411  40.1013875  63.0387132
 105.6385960  39.6934262  64.4900534 103.7971195  43.5544515  54.3733197
 104.7089051  43.7871902  54.1980894 103.2880842  44.1381559  53.8108275
  96.6056623  45.8340003  69.4122328  97.3471307  46.3725046  69.1357151
  95.8993608  46.4606291  69.5693879  98.4343032  42.9141750  65.3828046
  99.2804228  43.3381163  65.5262695  98.3741670  42.2575374  66.0766609
 102.4040777  48.5370334  61.7646778 101.7749640  48.7016048  61.0622846
 102.0166439  48.9511943  62.5357742 106.2830009  49.4724771  59.1191142
 105.5981047  49.8523673  58.5688175 106.3673858  50.0820098  59.8523090
 101.5842478  40.5746118  67.0409220 101.3403410  41.3288179  66.5043495
 101.8602408  40.9531466  67.8756467 103.5380941  47.1184730  65.7186485
 103.7497836  47.7616490  65.0420866 103.4910689  46.2847047  65.2508415
 101.1407170  39.7302551  62.6223057 100.2791649  40.0283805  62.9139795
 101.1669604  39.9472950  61.6904090  97.9568739  48.2744742  59.0296863
  98.4207084  48.5532445  58.2401486  97.6925537  47.3728186  58.8469954
  94.8492820  47.8216223  61.9676626  95.4194177  48.2503492  61.3294111
  95.4400932  47.5398808  62.6660812  95.3417987  42.9879651  70.2137638
  94.7116647  43.6695932  70.4473034  95.2354074  42.8762732  69.2690776
  90.6362959  42.6551447  61.1403562  89.8462013  42.9108975  60.6643672
  91.1274206  43.4699785  61.2455602 104.6526769  49.9956686  63.8908843
 105.4744212  49.5936873  63.6091524 104.6489171  49.8924920  64.8424958
  98.4183372  49.5440729  66.0469553  98.4827804  50.0061136  66.8827725
  97.7094296  48.9138094  66.1751863  88.9200662  42.9081937  63.5718553
  89.1708700  43.7928947  63.8376129  89.4560210  42.7286539  62.7993644
 112.7432762  46.3395434  60.2393814 111.9896470  45.7702832  60.0837819
 112.8780303  46.3058099  61.1864449  98.1331390  51.2108837  55.9148533
  97.9977064  52.0560372  56.3433381  98.6741202  51.4128114  55.1514467
  94.6198729  37.2900417  72.5762889  94.2265675  36.7366615  73.2510533
  95.4364870  37.6010995  72.9669406  91.5860787  48.7284275  56.4876459
  92.0985308  49.5227525  56.6382023  92.2383500  48.0310565  56.4210060
  93.3955672  51.8450031  58.5699212  93.5722300  52.7667996  58.3820196
  94.1912505  51.5308450  58.9993591  97.5366690  38.7058296  70.1683145
  98.2776404  39.3065449  70.0887608  97.7684613  37.9635933  69.6101188
  92.6808028  43.8914663  68.4461375  92.5661543  42.9899920  68.7468474
  91.8252546  44.1378360  68.0946191  99.7599866  51.8332403  70.0448876
  99.3163720  51.0468782  69.7269780 100.4217080  52.0211554  69.3792766
  94.5186987  53.3628205  64.5709554  95.0694412  53.2345268  63.7986548
  93.6798463  53.6623094  64.2204447 101.8581104  52.1135203  68.0730277
 101.8399579  52.9344084  67.5810546 102.7801024  51.9889278  68.2980418
  98.3154158  49.6279333  68.9153785  98.8482495  48.8667621  68.6853093
  97.7868239  49.3352984  69.6577940 101.4823853  34.7339399  64.4447427
 101.1388123  35.6241040  64.3686537 101.8502816  34.5441056  63.5817012
  89.5509704  47.0572929  57.2636029  90.3884926  47.4669937  57.0469737
  89.7287971  46.1172371  57.2336223 101.4474136  44.7248010  52.9519862
 100.9320759  45.4952614  53.1908249 101.1751444  44.0513146  53.5752923
 100.5620394  37.1044054  62.4096660 100.0585189  37.0674189  61.5964465
 100.8551000  38.0136796  62.4693317 106.4208410  47.4780364  54.8873036
 105.6437853  47.1391524  54.4428198 107.0999891  47.4832987  54.2128001
  99.6806871  48.7565325  56.4272597  99.1528233  48.0218085  56.1145835
  99.1794374  49.5340001  56.1812566 104.6599717  46.9514346  61.5439643
 104.0023391  47.6413607  61.6319772 105.4640116  47.3410778  61.8873630
 103.4705176  45.3058718  59.5943585 103.9837057  45.9388710  60.0965295
 104.1206400  44.7059914  59.2286945  97.8259471  46.5745535  49.4307570
  96.9186533  46.3434789  49.6298719  98.3230503  45.7783155  49.6181552
 100.7327550  55.2843043  52.3504256 100.0589249  55.5874739  52.9589214
 101.1193372  56.0872123  52.0009713  99.9486007  42.7808174  61.8401926
  99.0308568  43.0023121  61.6823614 100.3646150  42.8554484  60.9813633
 100.7321054  44.1799589  56.9704606 101.4792873  44.6920987  56.6611728
 101.0012644  43.8583642  57.8309000  99.0047705  46.6758130  53.9531560
  98.0958924  46.3917163  54.0504030  99.0342788  47.0957209  53.0934867
 104.2366972  50.2864720  57.7222728 103.7829299  49.4455630  57.7787918
 103.6060939  50.9226118  58.0597508 103.1799892  41.2156706  58.9523395
 102.4422648  40.7034092  59.2833638 103.4326665  40.7757087  58.1406672
 102.6799911  52.1241216  58.6572546 102.9722886  52.6846274  57.9384912
 103.1898532  52.4169777  59.4125705 103.2811519  33.9932958  59.5465165
 103.5870396  33.1330321  59.2591080 104.0064124  34.5850578  59.3464158
  97.5532599  44.2886751  60.0541356  97.6081208  43.3360587  59.9783832
  96.7423801  44.4446190  60.5382654  98.7023792  48.2166874  51.2919639
  98.2643222  47.5002733  50.8325276  99.4434233  48.4442989  50.7304730
  97.6433536  52.9021567  59.7465999  97.6009715  53.1282414  58.8174531
  98.5596235  52.6684942  59.8951800 101.0899170  43.3705635  66.6446628
 101.4448558  43.5977108  67.5041094 101.7371301  43.7024012  66.0223884
 106.8196907  46.4924071  57.3495957 106.6814806  46.6825667  56.4217147
 106.4633126  47.2543454  57.8064009  94.9839033  40.4782166  63.4292969
  95.6238413  40.3370925  62.7315933  94.1516564  40.1916679  63.0531571
 106.8466287  48.5600598  62.3607229 107.2802793  48.4675887  63.2090283
 107.5597867  48.5358098  61.7227245  95.7599337  49.7784596  59.5427962
  96.5539936  49.2834917  59.3410537  95.0491030  49.2502460  59.1795668
 100.5794182  52.1602692  63.8940330 100.6331204  52.7293628  64.6618045
  99.7108963  52.3304577  63.5294367  93.4592575  41.8620248  65.3764781
  94.1315628  41.6537610  64.7277430  92.6322362  41.6642334  64.9370013
 107.7081836  48.6024299  64.8940114 107.9017726  49.5070109  65.1399389
 107.6082454  48.1431718  65.7278699  99.3618147  38.4882189  67.3930442
  98.7146062  39.1872139  67.2994918 100.1319162  38.9218333  67.7606690
 102.7696945  48.7531041  70.4680995 102.6182451  48.5241593  69.5511079
 102.7601624  49.7101643  70.4812340  99.5382281  46.3262954  65.4527261
 100.4674341  46.4774114  65.2796229  99.1173311  46.4146975  64.5975908
  98.3370613  50.3513618  63.2225799  98.1981699  49.9832403  64.0951737
  97.5485209  50.8661258  63.0509757  98.9318765  55.4522715  54.5651336
  99.1070521  54.9810758  55.3796958  98.2451553  56.0788481  54.7932596
  99.8875828  49.7295221  60.6114637  99.5525661  49.6895991  61.5072287
  99.3879774  49.0639937  60.1385047  93.8620072  45.1362851  66.1367218
  93.7239870  44.4043090  66.7378757  94.7724996  45.0471751  65.8551406
 102.8235020  47.0751256  50.8851696 102.2064191  46.3498084  50.7884749
 102.3551508  47.8360616  50.5418771  96.4902373  44.8482811  65.6250898
  97.2001991  44.2076003  65.5837516  96.4471681  45.0995705  66.5477078
 104.4789152  51.7850164  68.5457477 104.4201698  51.1009384  67.8788060
 104.8808670  52.5269154  68.0938103  95.2031307  41.8348028  67.4446537
  94.6668664  41.3838767  68.0968133  94.6148015  41.9693937  66.7017001
 104.4806559  49.7489748  66.7771457 103.5933338  49.4115670  66.8997855
 105.0505110  49.0172779  67.0140222  86.1335706  46.0813840  60.1014508
  86.8206746  45.7675570  59.5135523  85.9783835  46.9855204  59.8281759
  90.9370428  40.9704036  64.5299532  90.8528617  40.3629706  63.7949942
  90.1153135  41.4613054  64.5309028  98.0107712  54.4091200  63.7432700
  97.9377884  55.2146172  64.2552004  97.5685105  54.6083166  62.9180721
  97.7997492  53.6462970  57.2535521  97.0165014  54.1884650  57.3473746
  98.4990237  54.1636950  57.6529762 108.9623899  45.1597965  61.5388018
 108.9513776  46.0422681  61.1681951 108.0941279  44.8069516  61.3442555
 100.4706396  54.3078034  65.8990858 101.1834368  54.9425499  65.8266760
  99.9796424  54.4041900  65.0830860 102.1923923  48.2129287  57.4708150
 101.2580201  48.3330749  57.3012854 102.3700591  47.3101754  57.2068160
 105.5796474  44.0546606  58.0058184 106.0456926  44.8874598  57.9318487
 106.0303975  43.5891588  58.7103443  95.5218309  52.0572478  66.7196429
  96.2227769  52.6908961  66.8725823  95.0513424  52.3987209  65.9592068
 103.6472705  50.3990427  55.0044336 103.9232549  50.2847022  55.9138210
 102.7777204  50.0007912  54.9656509 103.5513137  36.4227193  62.0449086
 102.6376217  36.6531420  62.2131292 103.9806238  36.5065637  62.8963118
 103.3219595  44.6117085  64.5448980 102.6691046  44.8592993  63.8901432
 103.6999975  43.7981223  64.2111457 100.2826769  54.6476778  58.6477150
 100.4649164  53.8298434  59.1104902 101.1059755  54.8644471  58.2102040
 100.6168935  53.5744963  55.9092198 101.1456701  53.0637418  55.2962360
 100.8797154  53.2587494  56.7737731  99.3707168  45.3536896  71.0315017
  98.6947805  45.2531025  71.7017392 100.1934802  45.1976110  71.4951014
  91.1186027  51.5908833  63.6527532  91.7039464  50.8452521  63.7855436
  90.9210866  51.9012789  64.5364196  93.9724683  54.6260080  58.6689974
  93.3035058  55.1106208  58.1854014  93.8337552  54.8729301  59.5833353
  85.7103682  44.1614433  62.3731975  85.7487782  43.6278024  63.1669093
  85.2043975  43.6349638  61.7542952  98.1129951  56.6603824  65.2672633
  98.6648259  56.8235445  66.0321718  98.4536145  57.2508261  64.5952657
  93.0894444  39.0078973  65.8694517  93.1535771  39.8693804  65.4571915
  93.0261565  38.3952975  65.1366876  92.5646717  41.0802106  69.5167552
  93.1918756  40.6979183  70.1305076  91.7074636  40.8616308  69.8823244
 102.9640826  51.4865081  71.1221287 103.5080730  52.0995039  70.6276242
 102.3827670  52.0444660  71.6388300 101.2498338  54.6085799  62.2536315
 101.1249478  53.8075539  61.7447260 101.9077430  55.1031993  61.7650285
  92.8706507  40.9634532  61.4313455  92.1493092  41.5770499  61.2920928
  93.6599762  41.4992296  61.3530101 103.3133247  52.4094819  63.8815865
 102.3663582  52.2900170  63.8094192 103.6616020  51.5217317  63.9642126
  95.6732820  38.2988958  67.7054107  96.1967222  38.5451255  68.4680416
  95.4545154  39.1308993  67.2857244 100.3179680  52.2047535  60.0820217
 100.1704643  51.2764243  60.2627787 101.1433174  52.2267626  59.5977292
 103.9213802  53.0276094  61.1685090 104.8460349  52.8218956  61.0309541
 103.7529105  52.7792495  62.0774431  96.8785365  39.2402653  65.3903777
  96.5382186  38.4410466  65.7924457  96.1724372  39.5404364  64.8180610
  97.5301837  36.3251966  63.8431100  98.3527906  35.8512444  63.7209991
  97.7739901  37.1042449  64.3429787  95.0540416  43.0171086  61.6523079
  94.9084997  43.3311389  62.5447360  94.5765619  43.6355987  61.0993978
  96.9136799  40.0073634  61.7003968  96.8998368  39.1114728  61.3636266
  97.6309227  40.0144298  62.3342255  98.7662929  40.4410975  63.7457096
  98.5080707  41.3628045  63.7441426  98.2347970  40.0441409  64.4357560
 103.7109118  53.5461762  56.5247181 103.8845996  52.9808184  55.7721034
 104.2038009  54.3462657  56.3426671  89.5286078  45.5576431  64.5910740
  88.9839546  46.3336239  64.7231014  90.4065428  45.9047235  64.4329862
 109.5648509  46.3098185  58.1437481 110.0079655  45.5605510  57.7456604
 108.6875020  46.3008321  57.7611213 104.6984291  52.8628526  53.6244080
 105.3935195  53.4835219  53.8431394 105.0407441  52.0123877  53.8996457
  90.3152100  44.6846327  67.4840897  89.5733836  44.8328962  68.0705527
  89.9944844  44.9454593  66.6207646 106.5975714  50.3128232  55.1531410
 107.1227038  50.6515504  54.4280730 106.5098066  49.3775247  54.9694545
  98.2595763  54.2262305  67.2821287  98.5682889  53.9811452  68.1543987
  99.0571245  54.4308944  66.7940157  98.2816375  56.3800215  59.5126664
  97.8421365  55.8876594  60.2059520  99.0324492  55.8373183  59.2718739
  90.7608714  52.5711756  59.5151292  91.5866733  52.2715528  59.1349935
  90.4102766  51.8019378  59.9641080  95.7290247  51.9238224  61.5848965
  95.1070256  51.2608929  61.2851193  96.3995114  51.9499356  60.9022613
  88.9617319  50.4898082  60.4740225  88.1249227  50.0620257  60.2924226
  88.9340964  50.6830526  61.4111016  95.8014774  40.4020012  71.1781471
  95.8502930  41.2782135  70.7959241  96.3437288  39.8597405  70.6053114
 106.2869620  50.9461135  70.4582608 105.4965164  50.9285274  69.9187108
 106.0502974  51.4849429  71.2131645 106.4067495  47.7953602  67.7715337
 106.4565500  47.6303609  68.7130860 106.2981418  46.9280861  67.3813218
  95.2903754  50.4742147  55.0607426  95.4391874  51.1577612  54.4074098
  96.0970197  50.4547237  55.5756881 103.6971257  43.7784530  69.0874644
 104.5981120  43.6390994  68.7958641 103.7719232  43.9438984  70.0272821
  98.0314063  41.1551384  67.9327830  97.1617372  41.4484950  67.6610418
  98.2673543  41.7391829  68.6535094 107.9085692  50.2150543  68.0157358
 107.6170500  50.5780524  68.8520819 107.2957823  49.5017551  67.8370690
 109.1081374  47.7803423  60.5359929 109.9428265  48.2193227  60.6997489
 109.2440503  47.3042076  59.7168174 106.1572880  45.3383158  66.4837416
 106.6327002  45.5310804  65.6756268 105.2338445  45.3942344  66.2380800
  93.0456387  46.5007325  56.0668495  92.8002429  45.5969655  56.2648705
  93.2152301  46.5024475  55.1247973 100.7353097  37.3731001  65.4493250
 101.2535040  38.1092028  65.1239739 100.3808229  37.6794995  66.2840009
 100.9865691  33.7931284  60.9694147 101.2667444  33.1254473  61.5954573
 101.7716298  33.9860379  60.4568811  98.7899159  52.9690278  52.5319173
  98.2173126  53.5880465  52.0789645  99.3631953  53.5189639  53.0659095
 104.8574549  42.2148918  64.7165722 105.8091972  42.3147015  64.7377946
 104.6877999  41.4227186  65.2263806 102.8788928  39.3004501  64.9025123
 102.2838861  39.5809514  64.2071612 102.5938625  39.7898402  65.6741864
 102.0096419  53.2527428  53.6627755 102.9427092  53.1872990  53.8660631
 101.9219632  54.0883695  53.2042288 104.6384436  52.5693298  50.6231703
 104.5598067  52.2353162  51.5167461 105.4594102  53.0615066  50.6223175
 107.3362627  45.4355038  63.8308022 107.3038947  44.4971038  64.0167705
 107.9463250  45.5139074  63.0973846 107.4857115  42.2266081  63.8766305
 106.9696164  41.4424538  63.6896234 108.3697064  41.8984798  64.0412824
 105.1467842  35.9707097  59.8362117 104.9492663  35.6622185  60.7205449
 105.7567548  36.6968735  59.9660047 113.1539177  46.4971044  62.9714058
 113.8842565  46.2356332  63.5321762 112.5446122  45.7599766  63.0116126
 111.2354474  44.6378907  63.5688510 110.5087637  44.5034872  62.9605001
 110.8201761  44.9455736  64.3745228  88.2766815  43.5507430  60.2589157
  87.9569600  42.6972738  59.9663531  87.7300243  43.7656008  61.0147125
  92.0546723  46.2669871  63.9758664  92.2732733  47.1986979  63.9946698
  92.4672497  45.9077846  64.7613468 100.9041489  35.8516003  57.5858649
 101.4572527  36.2711457  58.2448672 101.1411575  34.9251751  57.6281605
  96.9274588  41.8403077  73.3661413  96.8271315  42.7897434  73.2973504
  96.7096130  41.5121316  72.4937483  88.1455075  47.1710342  62.2282279
  87.4518547  46.7564295  61.7152233  88.8928066  47.2130878  61.6315698
 104.2820296  37.9616529  57.0937313 103.7018965  38.6201333  56.7115365
 104.0156229  37.1393873  56.6824731 102.7323862  37.3621586  59.2958633
 103.2323641  37.4738121  58.4872952 103.3759470  37.0582639  59.9359442
  96.7905858  45.2700216  72.1826474  96.3072940  46.0700576  72.3890363
  96.8766797  45.2808161  71.2293918  90.0591818  47.1028596  60.1048294
  90.0362506  47.2016283  59.1530177  90.3692454  47.9493746  60.4265460
  92.7179196  49.1604751  64.2194908  93.6722449  49.1288693  64.1524840
  92.5191719  48.6995374  65.0345134  93.3078578  47.7305867  66.7865706
  94.1271467  48.2249945  66.8100543  93.5815385  46.8137835  66.7583273
 106.4159710  40.1463140  59.8648001 107.1920100  40.6359592  60.1372617
 105.6907844  40.5721194  60.3219870 108.8532269  40.8590759  60.9221941
 109.4476760  40.6186495  60.2115249 108.9258852  40.1397890  61.5495477
  91.0729424  54.7024370  61.2365106  90.9383892  53.9424771  60.6703104
  90.6561487  55.4265270  60.7693895 102.2088387  49.8861294  50.2441681
 102.9124238  50.0911296  50.8599337 101.4851036  50.4538055  50.5090765
 103.0386198  45.6371155  56.3643951 102.9821399  46.0939706  55.5251584
 103.5914540  44.8761839  56.1866794 106.8491004  41.4260887  57.1894071
 106.5927938  41.0257522  58.0202279 106.2243872  42.1404681  57.0644210
 111.1603341  44.1656960  59.6965362 110.6002899  44.2350149  60.4696924
 110.5546845  43.9897945  58.9764859  94.2298550  55.5993687  61.4483549
  94.1130934  56.5439120  61.3462239  93.4090997  55.2967249  61.8369348
 104.1175085  50.3243823  52.2940141 104.9520689  49.8925021  52.1117616
 103.9559428  50.1525836  53.2217036 103.7720977  46.8275936  53.6596481
 103.7169781  46.6620208  52.7184925 103.1467032  47.5351969  53.8158670
  88.5613492  42.0644000  67.4857903  89.2072356  41.5542954  67.9745128
  88.3530643  42.8012682  68.0601328 101.0866884  49.1324848  72.9850043
 101.9558044  49.3065500  72.6236678 100.6073636  49.9519265  72.8625773
  97.0106666  55.0052936  61.3249556  96.0602297  55.0054797  61.2113928
  97.3139153  54.2585670  60.8085590 100.8969222  32.9226822  57.4927736
 100.1301618  32.3685308  57.6384418 101.3079927  32.9948691  58.3541887
  92.9010983  39.2111618  71.5832917  93.7642445  38.8548422  71.7936242
  92.3276394  38.8725512  72.2708321 112.7459360  60.8413474  62.3895318
 113.3837770  60.7220221  61.6858658 112.6280203  61.7894318  62.4483270
 109.5549066  60.7940902  62.3256843 109.2167578  60.6781967  61.4377378
 110.4238834  60.3932067  62.3057849 105.4135882  62.6476378  58.3153734
 104.8500747  62.5566315  57.5470022 105.2988277  61.8276283  58.7956226
 110.0368849  61.9475754  68.2843048 110.0257490  61.5528552  67.4123552
 110.1989489  61.2141826  68.8776820 102.9600314  64.1427570  61.1537954
 103.7521606  63.8018395  60.7384254 103.1996964  64.2522545  62.0740108
 110.9935441  66.3147346  53.6268199 110.3423420  66.9001427  53.2402212
 111.7879803  66.8453541  53.6863236 104.9191068  63.4036483  54.0255333
 105.6921944  62.8565470  53.8868209 105.2716467  64.2680733  54.2369794
 106.7576110  64.7312866  67.2322232 106.4665976  65.6358496  67.1168899
 107.3933095  64.7729393  67.9466302 107.6832317  62.1089714  63.8223592
 108.2795889  61.8845736  63.1080555 107.7407289  61.3674460  64.4249040
 107.2557346  59.5629149  51.6573783 107.5082866  59.0410671  50.8957246
 106.3181905  59.3995295  51.7600467 112.3000628  58.5664928  59.4648526
 113.0863718  58.1484351  59.1138943 112.5639333  59.4711020  59.6330175
 112.4710706  64.0037778  54.1637183 111.8356539  64.0772405  54.8758088
 112.1408112  64.5931377  53.4856262 117.7009056  58.5040161  60.3681505
 118.4334227  57.9339378  60.6019334 116.9448411  58.1161761  60.8088010
 106.9753634  61.4657255  53.8598158 106.8589892  60.7902159  54.5279242
 107.0855894  60.9789629  53.0430311 109.3185175  60.9267402  57.5644847
 108.9543382  60.3998023  58.2757769 110.1752291  60.5365872  57.3911333
 115.2234476  52.2161735  64.8276113 114.8917801  53.0857146  64.6037328
 114.6280089  51.8998019  65.5070144 108.9590662  55.9557302  52.5606196
 109.1265065  56.8237539  52.9276667 108.7687831  56.1184584  51.6367485
 111.7165995  64.4174281  64.2272026 111.4166718  65.3199320  64.1187833
 111.3717055  64.1506464  65.0793179 105.1678477  60.8688078  60.2608730
 104.2428973  60.7364292  60.4686422 105.4162890  61.6482297  60.7578673
 115.1163139  56.9356821  61.9069463 114.2080017  56.8672230  61.6128224
 115.0650735  57.4128766  62.7351289 108.9379883  58.4114960  53.5452862
 108.8179508  58.8572010  54.3838343 108.2432471  58.7600277  52.9866401
 102.5287288  60.5121351  61.0952520 102.6579669  60.7655830  62.0091931
 101.8484739  61.1049059  60.7757175 106.6986775  71.1818601  57.1942994
 106.6210805  72.1326426  57.2731474 106.0948419  70.8364474  57.8517920
 109.1904005  58.3546467  69.8504361 108.4137339  58.9140387  69.8407225
 109.8294568  58.8403250  70.3719231 116.9824786  55.1373260  63.6847337
 116.3399166  55.4305793  63.0387132 116.4779714  55.0226180  64.4900534
 114.6364949  58.8836433  54.3733197 115.5482805  59.1163820  54.1980894
 114.1274596  59.4673477  53.8108275 107.4450377  61.1631920  69.4122328
 108.1865062  61.7016964  69.1357151 106.7387363  61.7898209  69.5693879
 112.9205717  63.3061061  68.0094489 113.3289073  62.8643471  67.2649121
 112.1982978  62.7313688  68.2628682 109.2736787  58.2433667  65.3828046
 110.1197982  58.6673081  65.5262695 109.2135425  57.5867292  66.0766609
 113.2434532  63.8662251  61.7646778 112.6143394  64.0307965  61.0622846
 112.8560194  64.2803861  62.5357742 117.1223763  64.8016689  59.1191142
 116.4374802  65.1815590  58.5688175 117.2067613  65.4112016  59.8523090
 112.4236232  55.9038036  67.0409220 112.1797164  56.6580096  66.5043495
 112.6996163  56.2823383  67.8756467 114.3774695  62.4476648  65.7186485
 114.5891590  63.0908408  65.0420866 114.3304443  61.6138965  65.2508415
 111.9800924  55.0594469  62.6223057 111.1185403  55.3575722  62.9139795
 112.0063359  55.2764868  61.6904090 108.7962493  63.6036659  59.0296863
 109.2600839  63.8824362  58.2401486 108.5319292  62.7020104  58.8469954
 105.6886575  63.1508141  61.9676626 106.2587932  63.5795409  61.3294111
 106.2794686  62.8690726  62.6660812 107.7331379  59.7259812  55.8386428
 108.4355423  60.1780855  56.3060355 107.4012008  59.0843631  56.4666321
 106.1811741  58.3171568  70.2137638 105.5510402  58.9987849  70.4473034
 106.0747829  58.2054650  69.2690776 101.4756713  57.9843364  61.1403562
 100.6855767  58.2400893  60.6643672 101.9667961  58.7991702  61.2455602
 115.4920523  65.3248604  63.8908843 116.3137967  64.9228791  63.6091524
 115.4882926  65.2216838  64.8424958 109.2577126  64.8732647  66.0469553
 109.3221559  65.3353054  66.8827725 108.5488050  64.2430012  66.1751863
  99.7594416  58.2373855  63.5718553 100.0102455  59.1220865  63.8376129
 100.2953965  58.0578456  62.7993644 108.9725144  66.5400754  55.9148533
 108.8370819  67.3852290  56.3433381 109.5134957  66.7420032  55.1514467
 105.4592484  52.6192334  72.5762889 105.0659429  52.0658533  73.2510533
 106.2758624  52.9302913  72.9669406 102.4254542  64.0576192  56.4876459
 102.9379062  64.8519443  56.6382023 103.0777254  63.3602483  56.4210060
 104.2349426  67.1741949  58.5699212 104.4116055  68.0959913  58.3820196
 105.0306260  66.8600368  58.9993591 108.3760445  54.0350213  70.1683145
 109.1170158  54.6357366  70.0887608 108.6078368  53.2927851  69.6101188
 103.5201783  59.2206581  68.4461375 103.4055298  58.3191838  68.7468474
 102.6646300  59.4670277  68.0946191 110.5993620  67.1624321  70.0448876
 110.1557475  66.3760699  69.7269780 111.2610834  67.3503471  69.3792766
 105.3580742  68.6920122  64.5709554 105.9088167  68.5637186  63.7986548
 104.5192218  68.9915011  64.2204447 112.6974859  67.4427121  68.0730277
 112.6793334  68.2636002  67.5810546 113.6194779  67.3181196  68.2980418
 109.1547913  64.9571250  68.9153785 109.6876250  64.1959538  68.6853093
 108.6261994  64.6644902  69.6577940 112.3217608  50.0631316  64.4447427
 111.9781877  50.9532958  64.3686537 112.6896570  49.8732974  63.5817012
 100.3903458  62.3864847  57.2636029 101.2278680  62.7961855  57.0469737
 100.5681726  61.4464289  57.2336223 112.2867890  60.0539927  52.9519862
 111.7714514  60.8244532  53.1908249 112.0145199  59.3805064  53.5752923
 109.8715001  54.8989628  58.0105100 109.0156598  54.5096479  57.8310739
 110.2841953  54.9781589  57.1504886 111.4014148  52.4335971  62.4096660
 110.8978944  52.3966107  61.5964465 111.6944755  53.3428714  62.4693317
 107.6457034  52.5174701  61.4162842 108.5110031  52.3217510  61.0568731
 107.7134543  52.2885053  62.3432199 117.2602165  62.8072282  54.8873036
 116.4831607  62.4683441  54.4428198 117.9393646  62.8124905  54.2128001
 112.0754194  57.9267019  54.7779643 111.7704329  58.2413169  55.6289786
 113.0284636  58.0048439  54.8206976 110.5200625  64.0857243  56.4272597
 109.9921987  63.3510002  56.1145835 110.0188128  64.8631919  56.1812566
 115.4993471  62.2806263  61.5439643 114.8417146  62.9705525  61.6319772
 116.3033871  62.6702695  61.8873630 105.2519353  54.7476909  58.7879209
 105.8263105  54.5252091  58.0552402 105.8390335  54.8165604  59.5407810
 114.3098930  60.6350636  59.5943585 114.8230812  61.2680628  60.0965295
 114.9600154  60.0351831  59.2286945 105.5788940  56.7781370  52.8075094
 104.7426252  57.1156057  53.1284369 105.4393710  56.6430350  51.8702231
 107.5542021  51.6218158  57.5154278 106.9006433  51.3067175  56.8910893
 107.5122495  50.9993898  58.2414101 108.6653226  61.9037453  49.4307570
 107.7580287  61.6726706  49.6298719 109.1624258  61.1075072  49.6181552
 111.5721304  70.6134960  52.3504256 110.8983003  70.9166657  52.9589214
 111.9587126  71.4164041  52.0009713 110.7879761  58.1100091  61.8401926
 109.8702322  58.3315038  61.6823614 111.2039905  58.1846402  60.9813633
 111.5714809  59.5091507  56.9704606 112.3186628  60.0212904  56.6611728
 111.8406398  59.1875560  57.8309000 109.8441459  62.0050048  53.9531560
 108.9352678  61.7209081  54.0504030 109.8736543  62.4249126  53.0934867
 115.0760726  65.6156637  57.7222728 114.6223054  64.7747547  57.7787918
 114.4454693  66.2518036  58.0597508 114.0193646  56.5448623  58.9523395
 113.2816403  56.0326010  59.2833638 114.2720420  56.1049005  58.1406672
 113.5193666  67.4533134  58.6572546 113.8116640  68.0138191  57.9384912
 114.0292286  67.7461695  59.4125705 114.1205273  49.3224875  59.5465165
 114.4264150  48.4622239  59.2591080 114.8457878  49.9142496  59.3464158
 100.4129629  59.7255562  57.9346763 100.2154029  59.1324923  57.2097829
  99.8576293  59.4207772  58.6522701 108.3926353  59.6178668  60.0541356
 108.4474963  58.6652505  59.9783832 107.5817555  59.7738108  60.5382654
 109.5417547  63.5458792  51.2919639 109.1036977  62.8294650  50.8325276
 110.2827988  63.7734906  50.7304730 106.3318713  58.2355728  57.8131735
 105.5186579  58.5349899  58.2196927 106.8277707  57.8411417  58.5306217
 108.4827291  68.2313485  59.7465999 108.4403470  68.4574331  58.8174531
 109.3989990  67.9976860  59.8951800 111.9292925  58.6997553  66.6446628
 112.2842312  58.9269026  67.5041094 112.5765056  59.0315929  66.0223884
 117.6590662  61.8215989  57.3495957 117.5208560  62.0117585  56.4217147
 117.3026880  62.5835371  57.8064009 105.8232788  55.8074084  63.4292969
 106.4632167  55.6662843  62.7315933 104.9910318  55.5208597  63.0531571
 117.6860041  63.8892516  62.3607229 118.1196548  63.7967805  63.2090283
 118.3991622  63.8650016  61.7227245 106.5993092  65.1076514  59.5427962
 107.3933690  64.6126834  59.3410537 105.8884784  64.5794377  59.1795668
 111.4187936  67.4894610  63.8940330 111.4724958  68.0585546  64.6618045
 110.5502717  67.6596495  63.5294367 102.9075855  59.2519596  55.6187715
 101.9773443  59.1904051  55.8357677 103.0033327  58.7295549  54.8224356
 102.8261404  55.7774409  58.2065956 103.0868221  56.6919742  58.0975117
 103.6478577  55.3098851  58.3562569 104.2986330  57.1912166  65.3764781
 104.9709383  56.9829528  64.7277430 103.4716116  56.9934252  64.9370013
 118.5475591  63.9316216  64.8940114 118.7411481  64.8362027  65.1399389
 118.4476209  63.4723635  65.7278699 110.2011902  53.8174107  67.3930442
 109.5539817  54.5164056  67.2994918 110.9712917  54.2510251  67.7606690
 113.6090699  64.0822959  70.4680995 113.4576206  63.8533511  69.5511079
 113.5995379  65.0393560  70.4812340 110.3776036  61.6554872  65.4527261
 111.3068096  61.8066031  65.2796229 109.9567066  61.7438893  64.5975908
 109.1764368  65.6805536  63.2225799 109.0375453  65.3124321  64.0951737
 108.3878964  66.1953176  63.0509757 109.7712520  70.7814633  54.5651336
 109.9464275  70.3102676  55.3796958 109.0845308  71.4080399  54.7932596
 110.7269583  65.0587139  60.6114637 110.3919415  65.0187909  61.5072287
 110.2273528  64.3931855  60.1385047 104.7013827  60.4654769  66.1367218
 104.5633625  59.7335008  66.7378757 105.6118750  60.3763669  65.8551406
 113.6628774  62.4043173  50.8851696 113.0457945  61.6790001  50.7884749
 113.1945263  63.1652533  50.5418771 107.3296127  60.1774728  65.6250898
 108.0395746  59.5367920  65.5837516 107.2865436  60.4287623  66.5477078
 115.3182906  67.1142082  68.5457477 115.2595452  66.4301302  67.8788060
 115.7202424  67.8561072  68.0938103 106.0425061  57.1639946  67.4446537
 105.5062418  56.7130685  68.0968133 105.4541770  57.2985855  66.7017001
 104.3373605  73.9303995  61.3391196 104.5770203  74.5622520  62.0170214
 103.4942801  73.5792035  61.6256555 105.4527320  56.6228598  50.0073001
 104.5756787  56.5017398  49.6435247 105.9285073  55.8314676  49.7551889
 115.3200313  65.0781665  66.7771457 114.4327092  64.7407587  66.8997855
 115.8898864  64.3464697  67.0140222  96.9729460  61.4105757  60.1014508
  97.6600500  61.0967487  59.5135523  96.8177589  62.3147122  59.8281759
 101.7764183  56.2995954  64.5299532 101.6922371  55.6921623  63.7949942
 100.9546889  56.7904972  64.5309028 108.8501467  69.7383118  63.7432700
 108.7771638  70.5438089  64.2552004 108.4078860  69.9375084  62.9180721
 108.6391246  68.9754888  57.2535521 107.8558768  69.5176568  57.3473746
 109.3383992  69.4928868  57.6529762 111.9487897  54.7849517  59.8969727
 112.4456596  54.0319480  59.5770797 111.1774878  54.8213834  59.3312936
 119.8017654  60.4889883  61.5388018 119.7907530  61.3714598  61.1681951
 118.9335033  60.1361434  61.3442555 111.3100150  69.6369952  65.8990858
 112.0228123  70.2717417  65.8266760 110.8190179  69.7333818  65.0830860
 113.0317677  63.5421205  57.4708150 112.0973956  63.6622667  57.3012854
 113.2094346  62.6393671  57.2068160 108.5322865  56.9266900  59.6241411
 108.1620653  56.3737941  60.3122317 109.0281958  56.3225034  59.0716411
 116.4190229  59.3838524  58.0058184 116.8850681  60.2166515  57.9318487
 116.8697729  58.9183505  58.7103443 106.3612064  67.3864395  66.7196429
 107.0621523  68.0200878  66.8725823 105.8907179  67.7279127  65.9592068
 114.4866460  65.7282345  55.0044336 114.7626304  65.6138940  55.9138210
 113.6170958  65.3299830  54.9656509 114.3906891  51.7519111  62.0449086
 113.4769971  51.9823338  62.2131292 114.8199993  51.8357555  62.8963118
 114.1613350  59.9409003  64.5448980 113.5084800  60.1884910  63.8901432
 114.5393730  59.1273141  64.2111457 111.1220524  69.9768696  58.6477150
 111.3042918  69.1590352  59.1104902 111.9453510  70.1936388  58.2102040
 111.4562689  68.9036881  55.9092198 111.9850456  68.3929336  55.2962360
 111.7190909  68.5879411  56.7737731 110.2100923  60.6828814  71.0315017
 109.5341560  60.5822943  71.7017392 111.0328557  60.5268028  71.4951014
 101.9579782  66.9200750  63.6527532 102.5433219  66.1744438  63.7855436
 101.7604620  67.2304707  64.5364196 104.8118437  69.9551998  58.6689974
 104.1428812  70.4398125  58.1854014 104.6731307  70.2021218  59.5833353
  96.5497437  59.4906351  62.3731975  96.5881536  58.9569941  63.1669093
  96.0437729  58.9641556  61.7542952 108.9523706  71.9895741  65.2672633
 109.5042014  72.1527363  66.0321718 109.2929899  72.5800179  64.5952657
 103.9288199  54.3370891  65.8694517 103.9929525  55.1985722  65.4571915
 103.8655319  53.7244893  65.1366876 103.4040471  56.4094024  69.5167552
 104.0312510  56.0271101  70.1305076 102.5468390  56.1908226  69.8823244
 113.8034580  66.8156999  71.1221287 114.3474484  67.4286957  70.6276242
 113.2221425  67.3736577  71.6388300 100.1806014  58.2170453  55.4485906
 100.4759455  57.3081131  55.3952960  99.2794050  58.1958192  55.1266909
 112.0892093  69.9377717  62.2536315 111.9643232  69.1367457  61.7447260
 112.7471184  70.4323910  61.7650285 103.7100261  56.2926449  61.4313455
 102.9886847  56.9062417  61.2920928 104.4993517  56.8284214  61.3530101
 114.1527001  67.7386737  63.8815865 113.2057337  67.6192088  63.8094192
 114.5009774  66.8509235  63.9642126 106.5126575  53.6280876  67.7054107
 107.0360977  53.8743172  68.4680416 106.2938908  54.4600911  67.2857244
 101.9093856  55.8984550  55.5725232 101.5806562  55.0181929  55.3900337
 102.2633226  55.8432219  56.4601621 111.1573435  67.5339453  60.0820217
 111.0098397  66.6056161  60.2627787 111.9826928  67.5559544  59.5977292
 114.7607556  68.3568012  61.1685090 115.6854104  68.1510873  61.0309541
 114.5922860  68.1084413  62.0774431 107.7179120  54.5694571  65.3903777
 107.3775940  53.7702384  65.7924457 107.0118126  54.8696282  64.8180610
 108.3695592  51.6543883  63.8431100 109.1921661  51.1804362  63.7209991
 108.6133655  52.4334367  64.3429787 111.1534949  55.3877291  55.0752334
 111.3698563  56.2701929  54.7741162 110.6729016  54.9963504  54.3457976
 105.8934170  58.3463004  61.6523079 105.7478751  58.6603307  62.5447360
 105.4159374  58.9647904  61.0993978 107.7530553  55.3365552  61.7003968
 107.7392122  54.4406645  61.3636266 108.4702981  55.3436216  62.3342255
 109.6056684  55.7702892  63.7457096 109.3474462  56.6919963  63.7441426
 109.0741724  55.3733327  64.4357560 114.5502873  68.8753679  56.5247181
 114.7239750  68.3100102  55.7721034 115.0431764  69.6754574  56.3426671
 100.3679833  60.8868348  64.5910740  99.8233301  61.6628156  64.7231014
 101.2459182  61.2339153  64.4329862 107.1567449  54.2179932  56.9691539
 107.2783360  53.2896578  57.1682426 106.8669492  54.2318618  56.0569854
 110.0258640  51.9034843  60.1058258 110.0480336  51.9674176  59.1510238
 110.4426699  51.0639351  60.2998765 120.4042264  61.6390102  58.1437481
 120.8473410  60.8897427  57.7456604 119.5268774  61.6300239  57.7611213
 115.5378045  68.1920444  53.6244080 116.2328950  68.8127136  53.8431394
 115.8801195  67.3415795  53.8996457 101.1545854  60.0138245  67.4840897
 100.4127590  60.1620880  68.0705527 100.8338599  60.2746510  66.6207646
 117.4369468  65.6420149  55.1531410 117.9620792  65.9807422  54.4280730
 117.3491821  64.7067165  54.9694545 109.0989517  69.5554223  67.2821287
 109.4076643  69.3103370  68.1543987 109.8964999  69.7600861  66.7940157
 109.1210129  71.7092133  59.5126664 108.6815119  71.2168511  60.2059520
 109.8718246  71.1665100  59.2718739 101.6002468  67.9003673  59.5151292
 102.4260488  67.6007445  59.1349935 101.2496520  67.1311296  59.9641080
 106.5684001  67.2530142  61.5848965 105.9464011  66.5900847  61.2851193
 107.2388868  67.2791273  60.9022613  99.8011073  65.8190000  60.4740225
  98.9642981  65.3912174  60.2924226  99.7734719  66.0122443  61.4111016
 106.6408529  55.7311930  71.1781471 106.6896684  56.6074052  70.7959241
 107.1831043  55.1889323  70.6053114 117.1263374  66.2753053  70.4582608
 116.3358918  66.2577192  69.9187108 116.8896729  66.8141347  71.2131645
 117.2461249  63.1245519  67.7715337 117.2959254  62.9595527  68.7130860
 117.1375173  62.2572778  67.3813218 106.1297508  65.8034065  55.0607426
 106.2785628  66.4869529  54.4074098 106.9363952  65.7839155  55.5756881
 114.5365012  59.1076447  69.0874644 115.4374875  58.9682912  68.7958641
 114.6112986  59.2730902  70.0272821 108.8707817  56.4843302  67.9327830
 108.0011127  56.7776868  67.6610418 109.1067298  57.0683747  68.6535094
 118.7479446  65.5442461  68.0157358 118.4564255  65.9072441  68.8520819
 118.1351578  64.8309469  67.8370690 119.9475129  63.1095341  60.5359929
 120.7822020  63.5485145  60.6997489 120.0834257  62.6333994  59.7168174
 116.9966635  60.6675075  66.4837416 117.4720756  60.8602722  65.6756268
 116.0732200  60.7234261  66.2380800 103.8850141  61.8299243  56.0668495
 103.6396183  60.9261573  56.2648705 104.0546056  61.8316393  55.1247973
 111.5746851  52.7022919  65.4493250 112.0928795  53.4383946  65.1239739
 111.2201984  53.0086912  66.2840009 103.1545789  57.5627600  53.5654656
 102.4615034  57.6371955  52.9094692 102.9097541  56.7987944  54.0876173
 111.8259445  49.1223201  60.9694147 112.1061199  48.4546391  61.5954573
 112.6110052  49.3152297  60.4568811 109.6292914  68.2982195  52.5319173
 109.0566881  68.9172383  52.0789645 110.2025707  68.8481557  53.0659095
 115.6968304  57.5440835  64.7165722 116.6485726  57.6438933  64.7377946
 115.5271754  56.7519104  65.2263806 113.7182683  54.6296419  64.9025123
 113.1232615  54.9101431  64.2071612 113.4332380  55.1190320  65.6741864
 112.8490173  68.5819346  53.6627755 113.7820847  68.5164907  53.8660631
 112.7613386  69.4175612  53.2042288 115.4778190  67.8985216  50.6231703
 115.3991822  67.5645079  51.5167461 116.2987857  68.3906984  50.6223175
 118.1756381  60.7646955  63.8308022 118.1432701  59.8262956  64.0167705
 118.7857005  60.8430992  63.0973846 110.0139712  59.6343008  49.8735226
 110.9598817  59.5049216  49.9423644 109.6353957  58.8957670  50.3504654
 118.3250870  57.5557999  63.8766305 117.8089918  56.7716455  63.6896234
 119.2090818  57.2276715  64.0412824 115.9861597  51.2999014  59.8362117
 115.7886418  50.9914102  60.7205449 116.5961302  52.0260653  59.9660047
 109.8978405  63.6860754  71.3335883 110.8181414  63.8639353  71.5275929
 109.8627988  62.7416800  71.1815582 108.1982629  57.5592985  49.8090111
 107.2914085  57.2626097  49.8852824 108.4758610  57.2622803  48.9424397
 102.8940477  61.5961789  63.9758664 103.1126487  62.5278897  63.9946698
 103.3066251  61.2369763  64.7613468 109.8144695  52.1029874  55.9634352
 109.0045423  51.7576959  56.3389598 110.5029112  51.7937418  56.5521964
 111.7435243  51.1807921  57.5858649 112.2966282  51.6003374  58.2448672
 111.9805330  50.2543669  57.6281605 107.7668343  57.1694995  73.3661413
 107.6665069  58.1189352  73.2973504 107.5489885  56.8413234  72.4937483
 106.9681414  54.4179920  49.9502090 107.8300578  54.7434818  50.2097907
 107.1531758  53.6311416  49.4375156  98.9848830  62.5002259  62.2282279
  98.2912301  62.0856212  61.7152233  99.7321821  62.5422796  61.6315698
 115.1214050  53.2908446  57.0937313 114.5412719  53.9493250  56.7115365
 114.8549983  52.4685791  56.6824731 113.5717617  52.6913504  59.2958633
 114.0717395  52.8030038  58.4872952 114.2153225  52.3874557  59.9359442
 107.6299613  60.5992134  72.1826474 107.1466694  61.3992494  72.3890363
 107.7160552  60.6100078  71.2293918 100.8985572  62.4320513  60.1048294
 100.8756260  62.5308200  59.1530177 101.2086209  63.2785664  60.4265460
 103.5572950  64.4896668  64.2194908 104.5116204  64.4580611  64.1524840
 103.3585474  64.0287292  65.0345134 104.1472332  63.0597784  66.7865706
 104.9665221  63.5541863  66.8100543 104.4209140  62.1429752  66.7583273
 113.9038928  55.4508537  56.1493661 113.0164783  55.7358187  55.9313856
 114.3192918  55.2902300  55.3020938 117.2553465  55.4755058  59.8648001
 118.0313855  55.9651510  60.1372617 116.5301599  55.9013112  60.3219870
 119.6926023  56.1882677  60.9221941 120.2870514  55.9478413  60.2115249
 119.7652607  55.4689807  61.5495477 101.9123179  70.0316288  61.2365106
 101.7777647  69.2716689  60.6703104 101.4955241  70.7557188  60.7693895
 113.0482142  65.2153211  50.2441681 113.7517992  65.4203214  50.8599337
 112.3244791  65.7829973  50.5090765 113.8779952  60.9663073  56.3643951
 113.8215154  61.4231624  55.5251584 114.4308295  60.2053757  56.1866794
 117.6884758  56.7552804  57.1894071 117.4321692  56.3549440  58.0202279
 117.0637626  57.4696598  57.0644210 105.0692305  70.9285605  61.4483549
 104.9524689  71.8731037  61.3462239 104.2484751  70.6259166  61.8369348
 114.9568839  65.6535740  52.2940141 115.7914443  65.2216939  52.1117616
 114.7953182  65.4817754  53.2217036 114.6114731  62.1567854  53.6596481
 114.5563535  61.9912125  52.7184925 113.9860787  62.8643887  53.8158670
  99.4007246  57.3935918  67.4857903 100.0466110  56.8834872  67.9745128
  99.1924398  58.1304600  68.0601328 111.9260639  64.4616766  72.9850043
 112.7951798  64.6357418  72.6236678 111.4467390  65.2811182  72.8625773
 107.9210857  51.6575963  53.2381799 107.9089527  52.6017803  53.3950070
 108.8134279  51.4746108  52.9441260 106.0946819  71.5813867  64.6639477
 106.9974066  71.6137477  64.9805972 105.8684189  70.6514318  64.6785813
 107.8500421  70.3344853  61.3249556 106.8996052  70.3346715  61.2113928
 108.1532907  69.5877588  60.8085590 111.7362976  48.2518739  57.4927736
 110.9695372  47.6977226  57.6384418 112.1473681  48.3240608  58.3541887
 103.7404737  54.5403535  71.5832917 104.6036199  54.1840340  71.7936242
 103.1670148  54.2017430  72.2708321 120.3942821  76.1232820  62.3256843
 120.0561332  76.0073884  61.4377378 121.2632589  75.7223985  62.3057849
 116.2529636  77.9768296  58.3153734 115.6894502  77.8858233  57.5470022
 116.1382031  77.1568201  58.7956226 120.8762604  77.2767671  68.2843048
 120.8651244  76.8820470  67.4123552 121.0383243  76.5433744  68.8776820
 113.7994068  79.4719488  61.1537954 114.5915360  79.1310312  60.7384254
 114.0390718  79.5814463  62.0740108 115.7584822  78.7328401  54.0255333
 116.5315698  78.1857388  53.8868209 116.1110221  79.5972650  54.2369794
 117.5969865  80.0604783  67.2322232 117.3059731  80.9650414  67.1168899
 118.2326849  80.1021311  67.9466302 118.5226072  77.4381632  63.8223592
 119.1189644  77.2137654  63.1080555 118.5801043  76.6966377  64.4249040
 118.0951100  74.8921067  51.6573783 118.3476621  74.3702588  50.8957246
 117.1575659  74.7287213  51.7600467 117.8147389  76.7949173  53.8598158
 117.6983647  76.1194076  54.5279242 117.9249649  76.3081547  53.0430311
 120.1578930  76.2559320  57.5644847 119.7937137  75.7289941  58.2757769
 121.0146046  75.8657789  57.3911333 119.7984417  71.2849220  52.5606196
 119.9658819  72.1529456  52.9276667 119.6081586  71.4476502  51.6367485
 116.0072231  76.1979996  60.2608730 115.0822728  76.0656210  60.4686422
 116.2556645  76.9774215  60.7578673 119.7773638  73.7406877  53.5452862
 119.6573263  74.1863928  54.3838343 119.0826226  74.0892195  52.9866401
 113.3681042  75.8413269  61.0952520 113.4973424  76.0947748  62.0091931
 112.6878494  76.4340977  60.7757175 117.5380530  86.5110519  57.1942994
 117.4604559  87.4618344  57.2731474 116.9342173  86.1656392  57.8517920
 120.0297759  73.6838385  69.8504361 119.2531094  74.2432305  69.8407225
 120.6688323  74.1695167  70.3719231 118.2844132  76.4923838  69.4122328
 119.0258816  77.0308882  69.1357151 117.5781117  77.1190127  69.5693879
 120.1130541  73.5725585  65.3828046 120.9591737  73.9964999  65.5262695
 120.0529179  72.9159209  66.0766609 119.6356248  78.9328577  59.0296863
 120.0994593  79.2116280  58.2401486 119.3713046  78.0312022  58.8469954
 116.5280329  78.4800059  61.9676626 117.0981686  78.9087327  61.3294111
 117.1188441  78.1982643  62.6660812 118.5725134  75.0551729  55.8386428
 119.2749177  75.5072773  56.3060355 118.2405762  74.4135548  56.4666321
 117.0205496  73.6463486  70.2137638 116.3904156  74.3279767  70.4473034
 116.9141583  73.5346568  69.2690776 112.3150468  73.3135282  61.1403562
 111.5249522  73.5692811  60.6643672 112.8061715  74.1283620  61.2455602
 114.2665213  73.6779861  58.0987038 113.4696377  73.7898556  58.6170534
 114.0390806  74.0166514  57.2327929 120.0970881  80.2024565  66.0469553
 120.1615313  80.6644972  66.8827725 119.3881805  79.5721929  66.1751863
 110.5988171  73.5665773  63.5718553 110.8496209  74.4512782  63.8376129
 111.1347719  73.3870374  62.7993644 119.8118899  81.8692672  55.9148533
 119.6764573  82.7144208  56.3433381 120.3528711  82.0711950  55.1514467
 116.2986238  67.9484252  72.5762889 115.9053184  67.3950450  73.2510533
 117.1152379  68.2594830  72.9669406 113.2648296  79.3868110  56.4876459
 113.7772817  80.1811360  56.6382023 113.9171009  78.6894401  56.4210060
 115.0743181  82.5033866  58.5699212 115.2509809  83.4251831  58.3820196
 115.8700014  82.1892286  58.9993591 119.2154199  69.3642131  70.1683145
 119.9563913  69.9649284  70.0887608 119.4472122  68.6219769  69.6101188
 114.3595537  74.5498498  68.4461375 114.2449052  73.6483755  68.7468474
 113.5040055  74.7962195  68.0946191 116.1974496  84.0212040  64.5709554
 116.7481921  83.8929103  63.7986548 115.3585972  84.3206929  64.2204447
 119.9941667  80.2863168  68.9153785 120.5270004  79.5251456  68.6853093
 119.4655748  79.9936820  69.6577940 111.2297213  77.7156764  57.2636029
 112.0672435  78.1253773  57.0469737 111.4075480  76.7756207  57.2336223
 120.7108756  70.2281546  58.0105100 119.8550352  69.8388396  57.8310739
 121.1235708  70.3073507  57.1504886 118.4850788  67.8466619  61.4162842
 119.3503785  67.6509427  61.0568731 118.5528297  67.6176971  62.3432199
 121.3594380  79.4149160  56.4272597 120.8315741  78.6801920  56.1145835
 120.8581883  80.1923837  56.1812566 116.0913108  70.0768827  58.7879209
 116.6656859  69.8544008  58.0552402 116.6784090  70.1457521  59.5407810
 116.4182695  72.1073288  52.8075094 115.5820007  72.4447974  53.1284369
 116.2787464  71.9722268  51.8702231 118.3935775  66.9510076  57.5154278
 117.7400188  66.6359093  56.8910893 118.3516249  66.3285816  58.2414101
 119.5046980  77.2329371  49.4307570 118.5974042  77.0018624  49.6298719
 120.0018012  76.4366990  49.6181552 120.6835214  77.3341966  53.9531560
 119.7746433  77.0500998  54.0504030 120.7130297  77.7541044  53.0934867
 111.2523384  75.0547480  57.9346763 111.0547784  74.4616840  57.2097829
 110.6970048  74.7499690  58.6522701 119.2320108  74.9470586  60.0541356
 119.2868717  73.9944423  59.9783832 118.4211310  75.1030025  60.5382654
 120.3811301  78.8750709  51.2919639 119.9430731  78.1586568  50.8325276
 121.1221742  79.1026824  50.7304730 117.1712467  73.5647646  57.8131735
 116.3580333  73.8641816  58.2196927 117.6671462  73.1703335  58.5306217
 119.3221045  83.5605403  59.7465999 119.2797224  83.7866249  58.8174531
 120.2383744  83.3268777  59.8951800 116.6626542  71.1366001  63.4292969
 117.3025922  70.9954761  62.7315933 115.8304073  70.8500515  63.0531571
 117.4386846  80.4368432  59.5427962 118.2327445  79.9418752  59.3410537
 116.7278539  79.9086295  59.1795668 113.7469610  74.5811514  55.6187715
 112.8167198  74.5195969  55.8357677 113.8427082  74.0587466  54.8224356
 113.6655159  71.1066326  58.2065956 113.9261976  72.0211660  58.0975117
 114.4872331  70.6390769  58.3562569 115.1380084  72.5204084  65.3764781
 115.8103137  72.3121446  64.7277430 114.3109871  72.3226170  64.9370013
 120.0158122  81.0097454  63.2225799 119.8769208  80.6416238  64.0951737
 119.2272718  81.5245093  63.0509757 120.6106274  86.1106550  54.5651336
 120.7858030  85.6394594  55.3796958 119.9239062  86.7372317  54.7932596
 121.5663337  80.3879057  60.6114637 121.2313170  80.3479827  61.5072287
 121.0667283  79.7223772  60.1385047 115.5407581  75.7946687  66.1367218
 115.4027379  75.0626925  66.7378757 116.4512505  75.7055587  65.8551406
 118.1689882  75.5066646  65.6250898 118.8789500  74.8659838  65.5837516
 118.1259190  75.7579541  66.5477078 116.8818816  72.4931864  67.4446537
 116.3456173  72.0422602  68.0968133 116.2935524  72.6277773  66.7017001
 115.1767359  89.2595913  61.3391196 115.4163958  89.8914437  62.0170214
 114.3336556  88.9083953  61.6256555 116.2921075  71.9520515  50.0073001
 115.4150541  71.8309316  49.6435247 116.7678828  71.1606593  49.7551889
 107.8123215  76.7397675  60.1014508 108.4994255  76.4259405  59.5135523
 107.6571344  77.6439040  59.8281759 112.6157937  71.6287871  64.5299532
 112.5316126  71.0213541  63.7949942 111.7940644  72.1196890  64.5309028
 119.6895221  85.0675036  63.7432700 119.6165393  85.8730007  64.2552004
 119.2472614  85.2667001  62.9180721 119.4785001  84.3046806  57.2535521
 118.6952523  84.8468486  57.3473746 120.1777746  84.8220785  57.6529762
 119.3716620  72.2558818  59.6241411 119.0014407  71.7029858  60.3122317
 119.8675712  71.6516951  59.0716411 117.2005818  82.7156313  66.7196429
 117.9015278  83.3492796  66.8725823 116.7300933  83.0571045  65.9592068
 112.7973536  82.2492668  63.6527532 113.3826973  81.5036356  63.7855436
 112.5998375  82.5596625  64.5364196 115.6512192  85.2843915  58.6689974
 114.9822567  85.7690043  58.1854014 115.5125061  85.5313136  59.5833353
 107.3891191  74.8198268  62.3731975 107.4275291  74.2861859  63.1669093
 106.8831484  74.2933474  61.7542952 119.7917460  87.3187659  65.2672633
 120.3435768  87.4819280  66.0321718 120.1323654  87.9092097  64.5952657
 114.7681953  69.6662809  65.8694517 114.8323280  70.5277640  65.4571915
 114.7049074  69.0536810  65.1366876 114.2434226  71.7385941  69.5167552
 114.8706265  71.3563019  70.1305076 113.3862145  71.5200143  69.8823244
 111.0199769  73.5462370  55.4485906 111.3153210  72.6373049  55.3952960
 110.1187804  73.5250110  55.1266909 114.5494016  71.6218367  61.4313455
 113.8280601  72.2354335  61.2920928 115.3387271  72.1576132  61.3530101
 117.3520329  68.9572793  67.7054107 117.8754731  69.2035090  68.4680416
 117.1332662  69.7892828  67.2857244 112.7487610  71.2276468  55.5725232
 112.4200316  70.3473847  55.3900337 113.1026981  71.1724137  56.4601621
 115.8629433  71.5149438  55.9400709 116.2025506  72.0435359  55.2179318
 116.3101554  71.8529844  56.7159276 118.5572874  69.8986489  65.3903777
 118.2169695  69.0994302  65.7924457 117.8511881  70.1988199  64.8180610
 119.2089346  66.9835801  63.8431100 120.0315415  66.5096279  63.7209991
 119.4527410  67.7626285  64.3429787 117.8497581  70.0124059  54.1394002
 118.5705943  70.3905312  53.6357719 117.2262885  70.7312936  54.2428980
 116.7327925  73.6754922  61.6523079 116.5872506  73.9895225  62.5447360
 116.2553128  74.2939822  61.0993978 118.5924308  70.6657470  61.7003968
 118.5785876  69.7698563  61.3636266 119.3096736  70.6728133  62.3342255
 120.4450438  71.0994810  63.7457096 120.1868216  72.0211881  63.7441426
 119.9135479  70.7025244  64.4357560 111.2073587  76.2160266  64.5910740
 110.6627055  76.9920074  64.7231014 112.0852937  76.5631071  64.4329862
 117.9961204  69.5471850  56.9691539 118.1177115  68.6188496  57.1682426
 117.7063246  69.5610536  56.0569854 120.8652394  67.2326760  60.1058258
 120.8874091  67.2966093  59.1510238 121.2820453  66.3931269  60.2998765
 111.9939609  75.3430162  67.4840897 111.2521345  75.4912798  68.0705527
 111.6732353  75.6038428  66.6207646 119.9383272  84.8846141  67.2821287
 120.2470398  84.6395287  68.1543987 120.7358754  85.0892779  66.7940157
 119.9603884  87.0384050  59.5126664 119.5208874  86.5460429  60.2059520
 120.7112001  86.4957018  59.2718739 112.4396223  83.2295591  59.5151292
 113.2654242  82.9299363  59.1349935 112.0890275  82.4603213  59.9641080
 117.4077756  82.5822059  61.5848965 116.7857765  81.9192764  61.2851193
 118.0782623  82.6083191  60.9022613 110.6404828  81.1481918  60.4740225
 109.8036736  80.7204092  60.2924226 110.6128473  81.3414361  61.4111016
 117.4802283  71.0603847  71.1781471 117.5290439  71.9365970  70.7959241
 118.0224797  70.5181240  70.6053114 116.9691263  81.1325983  55.0607426
 117.1179383  81.8161447  54.4074098 117.7757706  81.1131073  55.5756881
 119.7101572  71.8135220  67.9327830 118.8404881  72.1068786  67.6610418
 119.9461052  72.3975665  68.6535094 114.7243896  77.1591160  56.0668495
 114.4789938  76.2553490  56.2648705 114.8939810  77.1608311  55.1247973
 113.9939543  72.8919518  53.5654656 113.3008788  72.9663873  52.9094692
 113.7491295  72.1279861  54.0876173 120.4686668  83.6274113  52.5319173
 119.8960635  84.2464300  52.0789645 121.0419462  84.1773475  53.0659095
 119.0376384  72.8884902  49.8090111 118.1307839  72.5918015  49.8852824
 119.3152365  72.5914720  48.9424397 109.9554324  74.2091266  60.2589157
 109.6357109  73.3556574  59.9663531 109.4087752  74.4239844  61.0147125
 113.7334232  76.9253707  63.9758664 113.9520242  77.8570814  63.9946698
 114.1460006  76.5661681  64.7613468 120.6538450  67.4321792  55.9634352
 119.8439178  67.0868877  56.3389598 121.3422866  67.1229336  56.5521964
 118.6062097  72.4986912  73.3661413 118.5058824  73.4481269  73.2973504
 118.3883639  72.1705151  72.4937483 117.8075168  69.7471837  49.9502090
 118.6694332  70.0726736  50.2097907 117.9925513  68.9603333  49.4375156
 109.8242584  77.8294177  62.2282279 109.1306056  77.4148130  61.7152233
 110.5715575  77.8714714  61.6315698 118.4693367  75.9284051  72.1826474
 117.9860449  76.7284411  72.3890363 118.5554306  75.9391996  71.2293918
 111.7379327  77.7612431  60.1048294 111.7150015  77.8600118  59.1530177
 112.0479963  78.6077582  60.4265460 114.3966705  79.8188586  64.2194908
 115.3509958  79.7872528  64.1524840 114.1979228  79.3579210  65.0345134
 114.9866087  78.3889702  66.7865706 115.8058976  78.8833781  66.8100543
 115.2602894  77.4721670  66.7583273 112.7516933  85.3608205  61.2365106
 112.6171401  84.6008606  60.6703104 112.3348996  86.0849105  60.7693895
 115.9086059  86.2577522  61.4483549 115.7918443  87.2022955  61.3462239
 115.0878506  85.9551084  61.8369348 110.2401001  72.7227836  67.4857903
 110.8859865  72.2126790  67.9745128 110.0318152  73.4596517  68.0601328
 118.7604611  66.9867880  53.2381799 118.7483281  67.9309720  53.3950070
 119.6528033  66.8038026  52.9441260 116.9340573  86.9105784  64.6639477
 117.8367820  86.9429395  64.9805972 116.7077943  85.9806235  64.6785813
 118.6894175  85.6636771  61.3249556 117.7389806  85.6638632  61.2113928
 118.9926662  84.9169505  60.8085590 114.5798492  69.8695453  71.5832917
 115.4429954  69.5132258  71.7936242 114.0063903  69.5309348  72.2708321
 118.6516969  92.0689593  60.1014508 119.3388009  91.7551323  59.5135523
 118.4965098  92.9730957  59.8281759 118.2284946  90.1490186  62.3731975
 118.2669045  89.6153777  63.1669093 117.7225238  89.6225391  61.7542952
 121.4798582  96.4773835  60.4740225 120.6430490  96.0496010  60.2924226
 121.4522228  96.6706279  61.4111016 120.7948079  89.5383183  60.2589157
 120.4750863  88.6848491  59.9663531 120.2481507  89.7531761  61.0147125
 120.6636339  93.1586095  62.2282279 119.9699810  92.7440048  61.7152233
 121.4109330  93.2006631  61.6315698  74.1805513   2.2004971  43.9188300
  74.1029543   3.1512796  43.9976781  73.5767157   1.8550843  44.5763227
  71.8192343   4.9490365  48.0636502  72.0588941   5.5808889  48.7415521
  70.9761539   4.5978405  48.3501862  72.2937175   0.9738367  45.3935281
  71.6247550   1.4584495  44.9099321  72.1550045   1.2207588  46.3078659
  76.4342443   3.0082111  51.9917939  76.9860752   3.1713732  52.7567024
  76.7748637   3.5986549  51.3197964  69.3941917   1.0502657  47.9610413
  69.2596385   0.2903058  47.3948411  68.9773979   1.7743557  47.4939202
  72.5511043   1.9471974  48.1728855  72.4343427   2.8917407  48.0707546
  71.7303489   1.6445536  48.5614655  73.5765557   2.6000236  51.3884784
  74.4792803   2.6323846  51.7051279  73.3502927   1.6700687  51.4031120
  87.8761558   7.1419189  49.0502149  87.5380070   7.0260254  48.1622684
  88.7451327   6.7410354  49.0303156  83.7348374   8.9954666  45.0399040
  83.1713239   8.9044603  44.2715328  83.6200769   8.1754570  45.5201533
  88.3581341   8.2954041  55.0088355  88.3469982   7.9006839  54.1368859
  88.5201981   7.5620114  55.6022126  81.2812806  10.4905857  47.8783261
  82.0734098  10.1496682  47.4629560  81.5209456  10.6000832  48.7985414
  89.3147933  12.6625633  40.3513505  88.6635913  13.2479714  39.9647519
  90.1092296  13.1931828  40.4108543  83.2403560   9.7514771  40.7500640
  84.0134436   9.2043758  40.6113515  83.5928959  10.6159020  40.9615101
  85.0788603  11.0791153  53.9567539  84.7878469  11.9836784  53.8414205
  85.7145587  11.1207680  54.6711609  86.0044809   8.4568001  50.5468899
  86.6008382   8.2324024  49.8325862  86.0619781   7.7152747  51.1494346
  90.7923198  10.3516065  40.8882490  90.1569031  10.4250692  41.6003394
  90.4620604  10.9409664  40.2101569  85.2966127   7.8135543  40.5843465
  85.1802385   7.1380446  41.2524549  85.4068386   7.3267917  39.7675618
  87.6397668   7.2745690  44.2890154  87.2755875   6.7476311  45.0003075
  88.4964783   6.8844159  44.1156639  90.0378488  10.7652568  50.9517333
  89.7379211  11.6677607  50.8433140  89.6929547  10.4984752  51.8038486
  83.4890969   7.2166365  46.9854037  82.5641466   7.0842579  47.1931729
  83.7375382   7.9960584  47.4823979  80.8499780   6.8599639  47.8197826
  80.9792161   7.1134118  48.7337238  80.1697232   7.4527347  47.5002481
  85.0199267  17.5296889  43.9188300  84.9423297  18.4804714  43.9976781
  84.4160911  17.1842761  44.5763227  85.7662870   7.5110207  56.1367634
  86.5077554   8.0495251  55.8602458  85.0599855   8.1376496  56.2939186
  91.2418209   9.6539348  54.7339796  91.6501565   9.2121758  53.9894428
  90.5195471   9.0791975  54.9873989  91.5647024  10.2140539  48.4892085
  90.9355886  10.3786253  47.7868152  91.1772686  10.6282148  49.2603049
  95.4436256  11.1494976  45.8436448  94.7587294  11.5293878  45.2933482
  95.5280105  11.7590303  46.5768396  92.6987187   8.7954935  52.4431792
  92.9104083   9.4386695  51.7666173  92.6516936   7.9617252  51.9753722
  87.1174986   9.9514947  45.7542170  87.5813331  10.2302650  44.9646792
  86.8531784   9.0498391  45.5715260  84.0099067   9.4986428  48.6921933
  84.5800424   9.9273697  48.0539417  84.6007179   9.2169013  49.3906119
  79.7969206   4.3321652  47.8648868  79.0068260   4.5879180  47.3888979
  80.2880453   5.1469989  47.9700909  93.8133015  11.6726891  50.6154149
  94.6350459  11.2707078  50.3336831  93.8095418  11.5695125  51.5670265
  81.7483951   4.6966231  44.8232345  80.9515114   4.8084925  45.3415841
  81.5209543   5.0352883  43.9573236  87.5789619  11.2210934  52.7714860
  87.6434051  11.6831341  53.6073032  86.8700543  10.5908299  52.8997170
  78.0806909   4.5852142  50.2963859  78.3314947   5.4699152  50.5621435
  78.6166457   4.4056744  49.5238951  87.2937636  12.8879042  42.6393840
  87.1583311  13.7330577  43.0678688  87.8347449  13.0898319  41.8759774
  80.7467034  10.4054480  43.2121765  81.2591554  11.1997730  43.3627330
  81.3989747   9.7080770  43.1455367  82.5561918  13.5220236  45.2944518
  82.7328547  14.4438201  45.1065502  83.3518752  13.2078655  45.7238898
  81.8414275   5.5684868  55.1706682  81.7267790   4.6670125  55.4713780
  80.9858793   5.8148565  54.8191498  88.9206113  13.5102608  56.7694182
  88.4769967  12.7238987  56.4515087  89.5823326  13.6981759  56.1038073
  83.6793234  15.0398410  51.2954861  84.2300659  14.9115473  50.5231855
  82.8404710  15.3393299  50.9449753  91.0187351  13.7905408  54.7975583
  91.0005826  14.6114289  54.3055853  91.9407271  13.6659483  55.0225725
  87.4760405  11.3049538  55.6399092  88.0088742  10.5437826  55.4098400
  86.9474486  11.0123189  56.3823246  78.7115951   8.7343134  43.9881336
  79.5491173   9.1440142  43.7715043  78.8894218   7.7942576  43.9581530
  88.8413118  10.4335530  43.1517904  88.3134479   9.6988290  42.8391141
  88.3400620  11.2110206  42.9057872  93.8205964   8.6284550  48.2684950
  93.1629638   9.3183812  48.3565079  94.6246363   9.0180982  48.6118936
  86.9865718   8.2515740  36.1552877  86.0792780   8.0204994  36.3544026
  87.4836750   7.4553360  36.3426858  89.8933797  16.9613247  39.0749563
  89.2195496  17.2644944  39.6834521  90.2799619  17.7642328  38.7255020
  88.1653951   8.3528335  40.6776867  87.2565171   8.0687368  40.7749337
  88.1949035   8.7727414  39.8180174  93.3973219  11.9634925  44.4468035
  92.9435546  11.1225835  44.5033225  92.7667185  12.5996323  44.7842815
  91.8406158  13.8011421  45.3817853  92.1329132  14.3616478  44.6630218
  92.3504779  14.0939982  46.1371012  78.7342122   6.0733849  44.6592069
  78.5366522   5.4803210  43.9343136  78.1788786   5.7686059  45.3768008
  87.8630039   9.8937079  38.0164946  87.4249469   9.1772938  37.5570583
  88.6040480  10.1213194  37.4550037  86.8039783  14.5791772  46.4711306
  86.7615962  14.8052619  45.5419838  87.7202482  14.3455147  46.6197107
  96.0072534  10.2370803  49.0852536  96.4409040  10.1446092  49.9335590
  96.7204114  10.2128303  48.4472552  84.9205584  11.4554801  46.2673269
  85.7146182  10.9605122  46.0655844  84.2097276  10.9272665  45.9040974
  89.7400428  13.8372897  50.6185636  89.7937451  14.4063833  51.3863352
  88.8715210  14.0074782  50.2539673  81.2288347   5.5997883  42.3433021
  80.2985936   5.5382339  42.5602983  81.3245819   5.0773836  41.5469663
  96.8688083  10.2794503  51.6185421  97.0623973  11.1840314  51.8644696
  96.7688701   9.8201923  52.4524006  91.9303192  10.4301246  57.1926302
  91.7788698  10.2011798  56.2756385  91.9207871  11.3871848  57.2057647
  88.6988528   8.0033159  52.1772568  89.6280588   8.1544319  52.0041535
  88.2779558   8.0917180  51.3221215  87.4976860  12.0283823  49.9471106
  87.3587946  11.6602608  50.8197044  86.7091456  12.5431463  49.7755063
  88.0925012  17.1292920  41.2896642  88.2676768  16.6580963  42.1042265
  87.4057800  17.7558686  41.5177903  89.0482075  11.4065426  47.3359943
  88.7131908  11.3666196  48.2317593  88.5486021  10.7410142  46.8630354
  83.0226319   6.8133056  52.8612525  82.8846117   6.0813295  53.4624064
  83.9331243   6.7241956  52.5796712  91.9841267   8.7521460  37.6097003
  91.3670437   8.0268289  37.5130056  91.5157755   9.5130821  37.2664077
  85.6508620   6.5253015  52.3496204  86.3608238   5.8846208  52.3082823
  85.6077928   6.7765910  53.2722385  93.6395398  13.4620369  55.2702783
  93.5807945  12.7779589  54.6033366  94.0414917  14.2039359  54.8183409
  82.6586097  20.2782283  48.0636502  82.8982695  20.9100807  48.7415521
  81.8155294  19.9270323  48.3501862  93.6412806  11.4259953  53.5016763
  92.7539584  11.0885875  53.6243162  94.2111357  10.6942984  53.7385529
  75.2941953   7.7584044  46.8259815  75.9812993   7.4445775  46.2380830
  75.1390081   8.6625409  46.5527066  87.1713959  16.0861405  50.4678006
  87.0984131  16.8916377  50.9797311  86.7291352  16.2853371  49.6426028
  86.9603739  15.3233175  43.9780828  86.1771261  15.8654855  44.0719052
  87.6596484  15.8407155  44.3775069  89.6312643  15.9848239  52.6236165
  90.3440615  16.6195704  52.5512066  89.1402671  16.0812105  51.8076167
  91.3530169   9.8899492  44.1953457  90.4186448  10.0100954  44.0258161
  91.5306838   8.9871959  43.9313467  84.6824556  13.7342683  53.4441736
  85.3834016  14.3679166  53.5971130  84.2119671  14.0757414  52.6837375
  92.8078952  12.0760632  41.7289643  93.0838796  11.9617227  42.6383517
  91.9383451  11.6778117  41.6901816  89.4433016  16.3246983  45.3722456
  89.6255410  15.5068639  45.8350209  90.2666002  16.5414675  44.9347346
  89.7775181  15.2515168  42.6337505  90.3062948  14.7407623  42.0207667
  90.0403401  14.9357699  43.4983038  88.5313415   7.0307101  57.7560323
  87.8554052   6.9301230  58.4262698  89.3541049   6.8746315  58.2196320
  80.2792274  13.2679038  50.3772839  80.8645711  12.5222726  50.5100743
  80.0817113  13.5782994  51.2609502  83.1330929  16.3030285  45.3935281
  82.4641305  16.7876413  44.9099321  82.9943799  16.5499505  46.3078659
  74.8709929   5.8384638  49.0977282  74.9094028   5.3048229  49.8914400
  74.3650222   5.3119843  48.4788259  87.2736198  18.3374029  51.9917939
  87.8254506  18.5005650  52.7567024  87.6142391  18.9278466  51.3197964
  92.1247072  13.1635286  57.8466594  92.6686976  13.7765244  57.3521548
  91.5433917  13.7214864  58.3633607  78.5018506   4.5648740  42.1731213
  78.7971948   3.6559418  42.1198267  77.6006542   4.5436479  41.8512215
  90.4104585  16.2856004  48.9781621  90.2855725  15.4845744  48.4692567
  91.0683676  16.7802197  48.4895591  92.4739494  14.0865024  50.6061171
  91.5269829  13.9670375  50.5339498  92.8222267  13.1987522  50.6887433
  89.4785927  13.8817740  46.8065524  89.3310889  12.9534448  46.9873094
  90.3039420  13.9037831  46.3222599  93.0820049  14.7046299  47.8930396
  94.0066596  14.4989160  47.7554848  92.9135352  14.4562700  48.8019738
  92.8715365  15.2231967  43.2492488  93.0452243  14.6578389  42.4966340
  93.3644256  16.0232861  43.0671978  78.6892325   7.2346636  51.3156047
  78.1445793   8.0106444  51.4476321  79.5671675   7.5817440  51.1575168
  93.8590537  14.5398731  40.3489386  94.5541442  15.1605424  40.5676701
  94.2013688  13.6894082  40.6241764  79.4758347   6.3616532  54.2086204
  78.7340083   6.5099167  54.7950834  79.1551091   6.6224798  53.3452953
  95.7581961  11.9898436  41.8776717  96.2833285  12.3285709  41.1526037
  95.6704313  11.0545452  41.6939852  87.4202009  15.9032510  54.0066594
  87.7289136  15.6581657  54.8789293  88.2177491  16.1079149  53.5185464
  87.4422621  18.0570420  46.2371970  87.0027612  17.5646798  46.9304827
  88.1930738  17.5143387  45.9964045  79.9214960  14.2481961  46.2396598
  80.7472980  13.9485732  45.8595242  79.5709012  13.4789583  46.6886387
  84.8896494  13.6008429  48.3094272  84.2676503  12.9379134  48.0096500
  85.5601360  13.6269561  47.6267920  78.1223565  12.1668287  47.1985532
  77.2855474  11.7390461  47.0169533  78.0947211  12.3600730  48.1356323
  95.4475867  12.6231340  57.1827915  94.6571410  12.6055479  56.6432414
  95.2109221  13.1619634  57.9376952  84.4510000  12.1512352  41.7852732
  84.5998121  12.8347817  41.1319405  85.2576444  12.1317442  42.3002188
  97.0691939  11.8920748  54.7402665  96.7776747  12.2550729  55.5766126
  96.4564070  11.1787756  54.5615997  82.2062633   8.1777530  42.7913801
  81.9608675   7.2739860  42.9894011  82.3758548   8.1794680  41.8493279
  87.9505406  14.6460483  39.2564480  87.3779373  15.2650670  38.8034952
  88.5238200  15.1959844  39.7904402  91.1702666  14.9297633  40.3873062
  92.1033339  14.8643194  40.5905938  91.0825879  15.7653900  39.9287595
  93.7990682  14.2463503  37.3477010  93.7204314  13.9123367  38.2412768
  94.6200349  14.7385271  37.3468482  88.2190897  10.0339042  58.0581189
  89.1393906  10.2117641  58.2521236  88.1840480   9.0895087  57.9060889
  77.4373062   5.2277635  46.9834464  77.1175846   4.3742943  46.6908838
  76.8906490   5.4426213  47.7392431  81.2152970   7.9440076  50.7003970
  81.4338979   8.8757184  50.7192004  81.6278743   7.5848051  51.4858774
  77.3061322   8.8480547  48.9527586  76.6124793   8.4334499  48.4397540
  78.0534313   8.8901083  48.3561004  85.9512105   6.9470421  58.9071781
  85.4679187   7.7470781  59.1135670  86.0373044   6.9578366  57.9539225
  79.2198064   8.7798800  46.8293600  79.1968753   8.8786488  45.8775483
  79.5298701   9.6263951  47.1510767  81.8785442  10.8374955  50.9440215
  82.8328696  10.8058898  50.8770146  81.6797966  10.3765579  51.7590441
  82.4684824   9.4076072  53.5111012  83.2877713   9.9020150  53.5345850
  82.7421632   8.4908040  53.4828580  80.2335671  16.3794575  47.9610413
  80.0990139  15.6194976  47.3948411  79.8167733  17.1035475  47.4939202
  91.3694634  11.5631499  36.9686988  92.0730484  11.7681501  37.5844644
  90.6457283  12.1308260  37.2336071  83.3904797  17.2763892  48.1728855
  83.2737181  18.2209324  48.0707546  82.5697243  16.9737454  48.5614655
  93.2781332  12.0014028  39.0185448  94.1126936  11.5695226  38.8362923
  93.1165674  11.8296041  39.9462342  92.9327224   8.5046141  40.3841787
  92.8776028   8.3390412  39.4430231  92.3073279   9.2122174  40.5403977
  77.7219739   3.7414205  54.2103210  78.3678602   3.2313159  54.6990435
  77.5136890   4.4782887  54.7846635  90.2473131  10.8095053  59.7095350
  91.1164291  10.9835705  59.3481985  89.7679882  11.6289470  59.5871079
  84.4159311  17.9292154  51.3884784  85.3186558  17.9615764  51.7051279
  84.1896681  16.9992605  51.4031120  86.1712913  16.6823140  48.0494862
  85.2208544  16.6825002  47.9359235  86.4745399  15.9355875  47.5330897
 101.9065607  22.5183679  49.1140625 102.5444017  22.3990426  48.4103965
 101.7886450  23.4664523  49.1728577  98.7155313  22.4711107  49.0502149
  98.3773824  22.3552172  48.1622684  99.5845081  22.0702272  49.0303156
  99.1975096  23.6245959  55.0088355  99.1863737  23.2298757  54.1368859
  99.3595735  22.8912031  55.6022126  96.4163592  21.2399354  38.3819090
  96.6689113  20.7180876  37.6202553  95.4788151  21.0765500  38.4845773
 101.4606875  20.2435133  46.1893833 102.2469964  19.8254556  45.8384250
 101.7245579  21.1481225  46.3575481 101.6316953  25.6807983  40.8882490
 100.9962785  25.7542609  41.6003394 101.3014359  26.2701582  40.2101569
 106.8615302  20.1810366  47.0926811 107.5940474  19.6109583  47.3264641
 106.1054658  19.7931966  47.5333317  96.1359881  23.1427460  40.5843465
  96.0196139  22.4672364  41.2524549  96.2462141  22.6559834  39.7675618
  98.4791422  22.6037607  44.2890154  98.1149629  22.0768228  45.0003075
  99.3358538  22.2136076  44.1156639 104.3840723  13.8931940  51.5521420
 104.0524047  14.7627351  51.3282635 103.7886336  13.5768224  52.2315450
  98.1196909  17.6327507  39.2851502  98.2871311  18.5007743  39.6521973
  97.9294078  17.7954789  38.3612792 100.8772242  26.0944486  50.9517333
 100.5772965  26.9969525  50.8433140 100.5323302  25.8276669  51.8038486
  94.3284724  22.5458283  46.9854037  93.4035220  22.4134497  47.1931729
  94.5769137  23.3252502  47.4823979 104.2769386  18.6127026  48.6314770
 103.3686263  18.5442435  48.3373531 104.2256982  19.0898971  49.4596595
  98.0986130  20.0885165  40.2698169  97.9785755  20.5342215  41.1083649
  97.4038718  20.4370482  39.7111707  91.6893535  22.1891556  47.8197826
  91.8185916  22.4426035  48.7337238  91.0090986  22.7819264  47.5002481
  98.3510252  20.0316672  56.5749667  97.5743586  20.5910592  56.5652532
  98.9900815  20.5173455  57.0964537 106.1431032  16.8143465  50.4092644
 105.5005413  17.1075998  49.7632438 105.6385961  16.6996385  51.2145841
 103.7971196  20.5606638  41.0978503 104.7089052  20.7934024  40.9226201
 103.2880843  21.1443682  40.5353582  96.6056624  22.8402125  56.1367634
  97.3471308  23.3787169  55.8602458  95.8993610  23.4668414  56.2939186
 102.0811964  24.9831266  54.7339796 102.4895320  24.5413676  53.9894428
 101.3589225  24.4083893  54.9873989  98.4343034  19.9203872  52.1073353
  99.2804229  20.3443286  52.2508002  98.3741671  19.2637497  52.8011916
 102.4040778  25.5432456  48.4892085 101.7749641  25.7078170  47.7868152
 102.0166440  25.9574066  49.2603049 106.2830010  26.4786894  45.8436448
 105.5981048  26.8585795  45.2933482 106.3673860  27.0882221  46.5768396
 101.5842479  17.5808241  53.7654526 101.3403411  18.3350301  53.2288802
 101.8602410  17.9593588  54.6001773 103.5380942  24.1246853  52.4431792
 103.7497837  24.7678613  51.7666173 103.4910690  23.2909170  51.9753722
 101.1407171  16.7364674  49.3468364 100.2791650  17.0345927  49.6385102
 101.1669605  16.9535073  48.4149397  96.8937626  21.4030017  42.5631735
  97.5961670  21.8551060  43.0305661  96.5618255  20.7613836  43.1911628
  95.3417988  19.9941773  56.9382944  94.7116648  20.6758054  57.1718341
  95.2354076  19.8824855  55.9936083  90.6362960  19.6613569  47.8648868
  89.8462014  19.9171098  47.3888979  91.1274208  20.4761907  47.9700909
 104.6526770  27.0018808  50.6154149 105.4744214  26.5998996  50.3336831
 104.6489173  26.8987043  51.5670265  92.5877706  20.0258149  44.8232345
  91.7908869  20.1376843  45.3415841  92.3603298  20.3644801  43.9573236
  98.4183373  26.5502852  52.7714860  98.4827806  27.0123259  53.6073032
  97.7094297  25.9200217  52.8997170  88.9200663  19.9144060  50.2963859
  89.1708702  20.7991070  50.5621435  89.4560212  19.7348661  49.5238951
 112.7432763  23.3457557  46.9639121 111.9896471  22.7764955  46.8083125
 112.8780304  23.3120221  47.9109755  94.6198731  14.2962539  59.3008195
  94.2265676  13.7428738  59.9755840  95.4364871  14.6073118  59.6914713
  97.5366692  15.7120418  56.8928452  98.2776405  16.3127571  56.8132914
  97.7684614  14.9698056  56.3346494  92.6808030  20.8976785  55.1706682
  92.5661545  19.9962043  55.4713780  91.8252547  21.1440482  54.8191498
  99.7599867  28.8394526  56.7694182  99.3163721  28.0530904  56.4515087
 100.4217081  29.0273676  56.1038073 101.8581105  29.1197326  54.7975583
 101.8399581  29.9406207  54.3055853 102.7801025  28.9951401  55.0225725
  98.3154159  26.6341455  55.6399092  98.8482496  25.8729743  55.4098400
  97.7868241  26.3415107  56.3823246 101.4823854  11.7401521  51.1692734
 101.1388124  12.6303163  51.0931844 101.8502817  11.5503179  50.3062319
 101.4474137  21.7310132  39.6765169 100.9320761  22.5014737  39.9153556
 101.1751446  21.0575268  40.2998230  99.0321248  16.5759833  44.7350407
  98.1762845  16.1866683  44.5556046  99.4448200  16.6551794  43.8750193
 100.5620395  14.1106176  49.1341967 100.0585190  14.0736311  48.3209772
 100.8551002  15.0198919  49.1938623  96.8063281  14.1944906  48.1408149
  97.6716277  13.9987715  47.7814038  96.8740790  13.9655258  49.0677505
 106.4208411  24.4842487  41.6118342 105.6437854  24.1453646  41.1673504
 107.0999892  24.4895110  40.9373307 101.2360440  19.6037224  41.5024950
 100.9310576  19.9183374  42.3535093 102.1890882  19.6818644  41.5452283
 104.6599718  23.9576468  48.2684950 104.0023393  24.6475730  48.3565079
 105.4640117  24.3472900  48.6118936  94.4125600  16.4247114  45.5124515
  94.9869352  16.2022295  44.7797708  94.9996582  16.4935808  46.2653117
 103.4705177  22.3120841  46.3188892 103.9837059  22.9450833  46.8210602
 104.1206401  21.7122036  45.9532252  94.7395187  18.4551575  39.5320401
  93.9032499  18.7926262  39.8529675  94.5999957  18.3200555  38.5947538
  96.7148268  13.2988363  44.2399585  96.0612680  12.9837380  43.6156200
  96.6728742  12.6764103  44.9659408  97.8259472  23.5807658  36.1552877
  96.9186534  23.3496911  36.3544026  98.3230504  22.7845277  36.3426858
  99.9486008  19.7870296  48.5647232  99.0308569  20.0085243  48.4068920
 100.3646151  19.8616607  47.7058940 100.7321056  21.1861712  43.6949913
 101.4792875  21.6983109  43.3857035 101.0012645  20.8645765  44.5554306
  99.0047706  23.6820253  40.6776867  98.0958925  23.3979286  40.7749337
  99.0342790  24.1019331  39.8180174 104.2366973  27.2926842  44.4468035
 103.7829300  26.4517752  44.5033225 103.6060940  27.9288241  44.7842815
 103.1799893  18.2218828  45.6768702 102.4422650  17.7096215  46.0078945
 103.4326666  17.7819210  44.8651979  97.5532600  21.2948873  46.7786662
  97.6081210  20.3422710  46.7029139  96.7423802  21.4508313  47.2627961
  98.7023794  25.2228996  38.0164946  98.2643224  24.5064855  37.5570583
  99.4434234  25.4505111  37.4550037  95.4924960  19.9125933  44.5377041
  94.6792825  20.2120104  44.9442233  95.9883954  19.5181622  45.2551523
 101.0899171  20.3767758  53.3691935 101.4448559  20.6039231  54.2286401
 101.7371303  20.7086134  52.7469190 106.8196908  23.4986194  44.0741264
 106.6814807  23.6887789  43.1462453 106.4633127  24.2605576  44.5309315
  94.9839035  17.4844289  50.1538276  95.6238414  17.3433048  49.4561239
  94.1516565  17.1978802  49.7776878 106.8466288  25.5662721  49.0852536
 107.2802795  25.4738010  49.9335590 107.5597869  25.5420221  48.4472552
 100.5794183  29.1664815  50.6185636 100.6331205  29.7355751  51.3863352
  99.7108964  29.3366700  50.2539673  91.9867651  17.4544614  44.9311263
  92.2474468  18.3689947  44.8220423  92.8084823  16.9869056  45.0807876
  93.4592576  18.8682371  52.1010087  94.1315630  18.6599733  51.4522736
  92.6322363  18.6704457  51.6615320 107.7081838  25.6086421  51.6185421
 107.9017728  26.5132232  51.8644696 107.6082456  25.1493840  52.4524006
  99.3618148  15.4944312  54.1175748  98.7146063  16.1934261  54.0240225
 100.1319164  15.9280456  54.4851997 102.7696946  25.7593164  57.1926302
 102.6182453  25.5303716  56.2756385 102.7601626  26.7163765  57.2057647
  99.5382283  23.3325077  52.1772568 100.4674343  23.4836236  52.0041535
  99.1173313  23.4209097  51.3221215  98.3370614  27.3575741  49.9471106
  98.1981700  26.9894525  50.8197044  97.5485211  27.8723381  49.7755063
 102.8235021  24.0813378  37.6097003 102.2064192  23.3560206  37.5130056
 102.3551510  24.8422738  37.2664077  96.4902374  21.8544933  52.3496204
  97.2001993  21.2138125  52.3082823  96.4471682  22.1057828  53.2722385
 104.4789153  28.7912286  55.2702783 104.4201699  28.1071507  54.6033366
 104.8808671  29.5331276  54.8183409  95.2031308  18.8410151  54.1691844
  94.6668665  18.3900889  54.8213440  94.6148017  18.9756060  53.4262308
  94.6133567  18.2998802  36.7318307  93.7363033  18.1787603  36.3680554
  95.0891320  17.5084881  36.4797196 104.4806560  26.7551870  53.5016763
 103.5933339  26.4177792  53.6243162 105.0505111  26.0234902  53.7385529
  90.9370429  17.9766159  51.2544838  90.8528618  17.3691828  50.5195248
  90.1153136  18.4675177  51.2554335 101.1094143  16.4619722  46.6215033
 101.6062843  15.7089685  46.3016104 100.3381125  16.4984039  46.0558243
 108.9623901  22.1660088  48.2633325 108.9513777  23.0484803  47.8927258
 108.0941280  21.8131639  48.0687862 100.4706397  31.3140157  52.6236165
 101.1834369  31.9487622  52.5512066  99.9796426  31.4104023  51.8076167
 102.1923924  25.2191409  44.1953457 101.2580203  25.3392872  44.0258161
 102.3700592  24.3163876  43.9313467  97.6929112  18.6037105  46.3486718
  97.3226900  18.0508146  47.0367623  98.1888204  17.9995239  45.7961718
 105.5796475  21.0608729  44.7303491 106.0456928  21.8936720  44.6563793
 106.0303976  20.5953710  45.4348749 103.6472706  27.4052550  41.7289643
 103.9232550  27.2909145  42.6383517 102.7777205  27.0070035  41.6901816
 103.5513138  13.4289316  48.7694392 102.6376218  13.6593543  48.9376599
 103.9806240  13.5127760  49.6208425 103.3219597  21.6179208  51.2694286
 102.6691047  21.8655115  50.6146739 103.6999976  20.8043346  50.9356763
  99.3707170  22.3599019  57.7560323  98.6947807  22.2593148  58.4262698
 100.1934803  22.2038233  58.2196320  85.7103683  21.1676556  49.0977282
  85.7487783  20.6340146  49.8914400  85.2043976  20.6411761  48.4788259
  93.0894446  16.0141096  52.5939824  93.1535772  16.8755927  52.1817222
  93.0261566  15.4015098  51.8612182  92.5646718  18.0864229  56.2412858
  93.1918757  17.7041306  56.8550383  91.7074637  17.8678430  56.6068551
 102.9640827  28.4927204  57.8466594 103.5080731  29.1057162  57.3521548
 102.3827672  29.0506782  58.3633607  89.3412261  19.8940658  42.1731213
  89.6365702  18.9851336  42.1198267  88.4400297  19.8728397  41.8512215
 101.2498340  31.6147922  48.9781621 101.1249479  30.8137662  48.4692567
 101.9077431  32.1094115  48.4895591  92.8706508  17.9696654  48.1558762
  92.1493094  18.5832622  48.0166235  93.6599764  18.5054419  48.0775408
 103.3133248  29.4156942  50.6061171 102.3663584  29.2962293  50.5339498
 103.6616021  28.5279440  50.6887433  95.6732822  15.3051081  54.4299413
  96.1967223  15.5513377  55.1925723  95.4545155  16.1371116  54.0102551
  91.0700103  17.5754755  42.2970538  90.7412809  16.6952134  42.1145644
  91.4239473  17.5202424  43.1846927  94.1841926  17.8627725  42.6646016
  94.5237998  18.3913646  41.9424624  94.6314046  18.2008131  43.4404582
 103.9213803  30.0338217  47.8930396 104.8460351  29.8281078  47.7554848
 103.7529107  29.7854618  48.8019738  96.8785367  16.2464776  52.1149084
  96.5382187  15.4472589  52.5169764  96.1724373  16.5466487  51.5425917
  97.5301838  13.3314088  50.5676407  98.3527908  12.8574566  50.4455297
  97.7739902  14.1104572  51.0675093  96.1710073  16.3602347  40.8639309
  96.8918435  16.7383600  40.3603025  95.5475377  17.0791224  40.9674287
 100.3141196  17.0647496  41.7997641 100.5304810  17.9472134  41.4986469
  99.8335263  16.6733709  41.0703283  95.0540417  20.0233209  48.3768386
  94.9084998  20.3373512  49.2692667  94.5765621  20.6418109  47.8239284
  96.9136800  17.0135757  48.4249275  96.8998369  16.1176850  48.0881573
  97.6309228  17.0206421  49.0587561  98.7662931  17.4473097  50.4702403
  98.5080709  18.3690168  50.4686733  98.2347971  17.0503532  51.1602867
  96.3173696  15.8950137  43.6936845  96.4389607  14.9666783  43.8927733
  96.0275738  15.9088823  42.7815161  99.1864886  13.5805048  46.8303565
  99.2086583  13.6444381  45.8755545  99.6032945  12.7409556  47.0244071
 109.5648511  23.3160307  44.8682788 110.0079657  22.5667632  44.4701911
 108.6875021  23.3070444  44.4856520 104.6984292  29.8690649  40.3489386
 105.3935197  30.4897341  40.5676701 105.0407442  29.0186000  40.6241764
  90.3152101  21.6908450  54.2086204  89.5733837  21.8391085  54.7950834
  89.9944845  21.9516715  53.3452953 106.5975715  27.3190354  41.8776717
 107.1227039  27.6577627  41.1526037 106.5098068  26.3837369  41.6939852
  95.8014775  17.4082135  57.9026778  95.8502931  18.2844257  57.5204547
  96.3437290  16.8659528  57.3298421 106.2869621  27.9523258  57.1827915
 105.4965165  27.9347397  56.6432414 106.0502976  28.4911551  57.9376952
 106.4067496  24.8015724  54.4960643 106.4565501  24.6365732  55.4376166
 106.2981420  23.9342983  54.1058524 103.6971259  20.7846652  55.8119950
 104.5981121  20.6453117  55.5203948 103.7719233  20.9501107  56.7518128
  98.0314064  18.1613507  54.6573137  97.1617373  18.4547073  54.3855725
  98.2673544  18.7453952  55.3780400 107.9085693  27.2212666  54.7402665
 107.6170501  27.5842646  55.5766126 107.2957824  26.5079674  54.5615997
 109.1081375  24.7865545  47.2605235 109.9428267  25.2255350  47.4242796
 109.2440504  24.3104199  46.4413481 106.1572881  22.3445280  53.2082723
 106.6327003  22.5372927  52.4001574 105.2338447  22.4004466  52.9626107
 100.7353098  14.3793124  52.1738557 101.2535042  15.1154151  51.8485045
 100.3808231  14.6857117  53.0085316 104.8574550  19.2211040  51.4411029
 105.8091973  19.3209138  51.4623253 104.6878001  18.4289309  51.9509113
 102.8788930  16.3066624  51.6270430 102.2838862  16.5871636  50.9316918
 102.5938626  16.7960525  52.3987171 104.6384437  29.5755421  37.3477010
 104.5598068  29.2415284  38.2412768 105.4594104  30.0677189  37.3468482
 107.3362628  22.4417160  50.5553328 107.3038948  21.5033161  50.7413012
 107.9463252  22.5201197  49.8219153  99.1745959  21.3113213  36.5980532
 100.1205064  21.1819421  36.6668950  98.7960204  20.5727875  37.0749960
 107.4857117  19.2328204  50.6011611 106.9696165  18.4486660  50.4141540
 108.3697065  18.9046920  50.7658131 105.1467843  12.9769219  46.5607424
 104.9492665  12.6684307  47.4450756 105.7567549  13.7030858  46.6905354
 113.1539178  23.5033167  49.6959365 113.8842566  23.2418455  50.2567068
 112.5446123  22.7661889  49.7361433 111.2354475  21.6441030  50.2933816
 110.5087639  21.5096994  49.6850308 110.8201762  21.9517858  51.0990534
  99.0584651  25.3630959  58.0581189  99.9787661  25.5409558  58.2521236
  99.0234234  24.4187005  57.9060889  97.3588876  19.2363189  36.5335418
  96.4520331  18.9396302  36.6098131  97.6364857  18.9393008  35.6669704
  98.9750942  13.7800079  42.6879659  98.1651670  13.4347164  43.0634905
  99.6635359  13.4707623  43.2767270 100.9041490  12.8578126  44.3103955
 101.4572529  13.2773579  44.9693979 101.1411576  11.9313874  44.3526911
  96.9274589  18.8465200  60.0906719  96.8271316  19.7959557  60.0218810
  96.7096131  18.5183439  59.2182789  96.1287661  16.0950125  36.6747397
  96.9906825  16.4205023  36.9343214  96.3138005  15.3081621  36.1620463
 104.2820297  14.9678651  43.8182620 103.7018966  15.6263455  43.4360672
 104.0156230  14.1455996  43.4070037 102.7323864  14.3683709  46.0203940
 103.2323642  14.4800243  45.2118259 103.3759471  14.0644762  46.6604748
  96.7905859  22.2762338  58.9071781  96.3072941  23.0762699  59.1135670
  96.8766798  22.2870283  57.9539225 103.0645175  17.1278742  42.8738968
 102.1771030  17.4128392  42.6559163 103.4799164  16.9672505  42.0266245
 106.4159711  17.1525262  46.5893307 107.1920101  17.6421715  46.8617924
 105.6907845  17.5783317  47.0465177 108.8532270  17.8652882  47.6467248
 109.4476761  17.6248618  46.9360556 108.9258854  17.1460012  48.2740784
 102.2088389  26.8923416  36.9686988 102.9124239  27.0973419  37.5844644
 101.4851037  27.4600178  37.2336071 103.0386199  22.6433277  43.0889258
 102.9821400  23.1001829  42.2496891 103.5914541  21.8823962  42.9112101
 106.8491005  18.4323009  43.9139378 106.5927939  18.0319645  44.7447585
 106.2243873  19.1466803  43.7889517 111.1603343  21.1719083  46.4210669
 110.6002901  21.2412272  47.1942231 110.5546846  20.9960067  45.7010165
 104.1175086  27.3305945  39.0185448 104.9520690  26.8987144  38.8362923
 103.9559429  27.1587959  39.9462342 103.7720978  23.8338059  40.3841787
 103.7169782  23.6682330  39.4430231 103.1467034  24.5414092  40.5403977
  88.5613493  19.0706123  54.2103210  89.2072357  18.5605077  54.6990435
  88.3530644  19.8074805  54.7846635 101.0866885  26.1386971  59.7095350
 101.9558045  26.3127623  59.3481985 100.6073637  26.9581387  59.5871079
  97.0817104  13.3346168  39.9627106  97.0695774  14.2788008  40.1195377
  97.9740526  13.1516313  39.6686567  92.9010984  16.2173740  58.3078224
  93.7642446  15.8610545  58.5181548  92.3276395  15.8787635  58.9953628
 112.7459361  37.8475597  49.1140625 113.3837771  37.7282344  48.4103965
 112.6280204  38.7956440  49.1728577 109.5549067  37.8003025  49.0502149
 109.2167579  37.6844089  48.1622684 110.4238836  37.3994190  49.0303156
 105.4135883  39.6538501  45.0399040 104.8500748  39.5628438  44.2715328
 105.2988278  38.8338405  45.5201533 110.0368850  38.9537876  55.0088355
 110.0257491  38.5590675  54.1368859 110.1989490  38.2203949  55.6022126
 102.9600315  41.1489693  47.8783261 103.7521607  40.8080517  47.4629560
 103.1996965  41.2584668  48.7985414 110.9935442  43.3209469  40.3513505
 110.3423422  43.9063549  39.9647519 111.7879805  43.8515664  40.4108543
 104.9191069  40.4098606  40.7500640 105.6921945  39.8627593  40.6113515
 105.2716468  41.2742855  40.9615101 106.7576112  41.7374988  53.9567539
 106.4665978  42.6420619  53.8414205 107.3933096  41.7791516  54.6711609
 107.6832318  39.1151837  50.5468899 108.2795891  38.8907859  49.8325862
 107.7407290  38.3736582  51.1494346 107.2557347  36.5691272  38.3819090
 107.5082868  36.0472793  37.6202553 106.3181906  36.4057417  38.4845773
 112.3000630  35.5727050  46.1893833 113.0863719  35.1546474  45.8384250
 112.5639334  36.4773143  46.3575481 112.4710707  41.0099901  40.8882490
 111.8356540  41.0834527  41.6003394 112.1408113  41.5993499  40.2101569
 117.7009057  35.5102284  47.0926811 118.4334229  34.9401500  47.3264641
 116.9448412  35.1223884  47.5333317 106.9753636  38.4719378  40.5843465
 106.8589894  37.7964281  41.2524549 107.0855895  37.9851752  39.7675618
 109.3185176  37.9329525  44.2890154 108.9543384  37.4060146  45.0003075
 110.1752292  37.5427994  44.1156639 115.2234477  29.2223858  51.5521420
 114.8917802  30.0919269  51.3282635 114.6280091  28.9060142  52.2315450
 108.9590663  32.9619425  39.2851502 109.1265066  33.8299661  39.6521973
 108.7687833  33.1246706  38.3612792 111.7165997  41.4236404  50.9517333
 111.4166720  42.3261442  50.8433140 111.3717056  41.1568587  51.8038486
 105.1678478  37.8750200  46.9854037 104.2428975  37.7426415  47.1931729
 105.4162891  38.6544420  47.4823979 115.1163140  33.9418944  48.6314770
 114.2080018  33.8734352  48.3373531 115.0650736  34.4190889  49.4596595
 108.9379884  35.4177082  40.2698169 108.8179510  35.8634133  41.1083649
 108.2432473  35.7662400  39.7111707 102.5287289  37.5183474  47.8197826
 102.6579670  37.7717953  48.7337238 101.8484740  38.1111182  47.5002481
 106.6986776  48.1880724  43.9188300 106.6210806  49.1388549  43.9976781
 106.0948420  47.8426596  44.5763227 109.1904006  35.3608589  56.5749667
 108.4137340  35.9202510  56.5652532 109.8294569  35.8465372  57.0964537
 116.9824787  32.1435382  50.4092644 116.3399167  32.4367915  49.7632438
 116.4779715  32.0288303  51.2145841 114.6364951  35.8898555  41.0978503
 115.5482807  36.1225942  40.9226201 114.1274598  36.4735600  40.5353582
 107.4450379  38.1694043  56.1367634 108.1865063  38.7079087  55.8602458
 106.7387364  38.7960332  56.2939186 112.9205718  40.3123183  54.7339796
 113.3289074  39.8705594  53.9894428 112.1982980  39.7375811  54.9873989
 109.2736788  35.2495790  52.1073353 110.1197983  35.6735204  52.2508002
 109.2135426  34.5929414  52.8011916 113.2434533  40.8724374  48.4892085
 112.6143395  41.0370088  47.7868152 112.8560195  41.2865983  49.2603049
 117.1223765  41.8078812  45.8436448 116.4374803  42.1877713  45.2933482
 117.2067614  42.4174138  46.5768396 112.4236234  32.9100158  53.7654526
 112.1797165  33.6642219  53.2288802 112.6996164  33.2885506  54.6001773
 114.3774696  39.4538771  52.4431792 114.5891592  40.0970531  51.7666173
 114.3304445  38.6201087  51.9753722 111.9800925  32.0656591  49.3468364
 111.1185404  32.3637845  49.6385102 112.0063360  32.2826990  48.4149397
 108.7962495  40.6098782  45.7542170 109.2600840  40.8886485  44.9646792
 108.5319293  39.7082227  45.5715260 105.6886576  40.1570264  48.6921933
 106.2587933  40.5857532  48.0539417 106.2794688  39.8752848  49.3906119
 107.7331381  36.7321934  42.5631735 108.4355424  37.1842978  43.0305661
 107.4012009  36.0905753  43.1911628 106.1811742  35.3233691  56.9382944
 105.5510403  36.0049972  57.1718341 106.0747830  35.2116773  55.9936083
 115.4920524  42.3310726  50.6154149 116.3137968  41.9290913  50.3336831
 115.4882927  42.2278960  51.5670265 109.2577128  41.8794769  52.7714860
 109.3221560  42.3415177  53.6073032 108.5488052  41.2492134  52.8997170
 108.9725145  43.5462877  42.6393840 108.8370820  44.3914413  43.0678688
 109.5134958  43.7482155  41.8759774 105.4592485  29.6254457  59.3008195
 105.0659431  29.0720655  59.9755840 106.2758625  29.9365035  59.6914713
 104.2349427  44.1804071  45.2944518 104.4116056  45.1022036  45.1065502
 105.0306261  43.8662490  45.7238898 108.3760446  31.0412336  56.8928452
 109.1170159  31.6419489  56.8132914 108.6078369  30.2989974  56.3346494
 103.5201784  36.2268703  55.1706682 103.4055299  35.3253960  55.4713780
 102.6646302  36.4732400  54.8191498 110.5993622  44.1686443  56.7694182
 110.1557476  43.3822822  56.4515087 111.2610835  44.3565594  56.1038073
 105.3580743  45.6982245  51.2954861 105.9088168  45.5699308  50.5231855
 104.5192219  45.9977134  50.9449753 112.6974860  44.4489243  54.7975583
 112.6793335  45.2698124  54.3055853 113.6194780  44.3243319  55.0225725
 109.1547914  41.9633373  55.6399092 109.6876251  41.2021661  55.4098400
 108.6261995  41.6707025  56.3823246 112.3217609  27.0693439  51.1692734
 111.9781878  27.9595081  51.0931844 112.6896572  26.8795096  50.3062319
 112.2867892  37.0602050  39.6765169 111.7714515  37.8306655  39.9153556
 112.0145200  36.3867186  40.2998230 109.8715003  31.9051751  44.7350407
 109.0156599  31.5158601  44.5556046 110.2841954  31.9843712  43.8750193
 111.4014149  29.4398094  49.1341967 110.8978945  29.4028229  48.3209772
 111.6944756  30.3490837  49.1938623 107.6457035  29.5236824  48.1408149
 108.5110032  29.3279632  47.7814038 107.7134544  29.2947175  49.0677505
 117.2602166  39.8134405  41.6118342 116.4831609  39.4745564  41.1673504
 117.9393647  39.8187028  40.9373307 112.0754195  34.9329142  41.5024950
 111.7704330  35.2475291  42.3535093 113.0284637  35.0110562  41.5452283
 110.5200627  41.0919365  43.1517904 109.9921988  40.3572125  42.8391141
 110.0188129  41.8694042  42.9057872 115.4993473  39.2868386  48.2684950
 114.8417147  39.9767647  48.3565079 116.3033872  39.6764818  48.6118936
 105.2519354  31.7539032  45.5124515 105.8263106  31.5314213  44.7797708
 105.8390337  31.8227726  46.2653117 114.3098932  37.6412759  46.3188892
 114.8230813  38.2742750  46.8210602 114.9600155  37.0413954  45.9532252
 105.5788941  33.7843493  39.5320401 104.7426254  34.1218179  39.8529675
 105.4393711  33.6492472  38.5947538 107.5542022  28.6280281  44.2399585
 106.9006434  28.3129298  43.6156200 107.5122496  28.0056021  44.9659408
 108.6653227  38.9099576  36.1552877 107.7580289  38.6788829  36.3544026
 109.1624259  38.1137195  36.3426858 111.5721306  47.6197083  39.0749563
 110.8983005  47.9228780  39.6834521 111.9587128  48.4226163  38.7255020
 110.7879762  35.1162214  48.5647232 109.8702324  35.3377161  48.4068920
 111.2039906  35.1908525  47.7058940 111.5714810  36.5153630  43.6949913
 112.3186629  37.0275027  43.3857035 111.8406400  36.1937682  44.5554306
 109.8441460  39.0112170  40.6776867 108.9352680  38.7271203  40.7749337
 109.8736544  39.4311249  39.8180174 115.0760728  42.6218760  44.4468035
 114.6223055  41.7809670  44.5033225 114.4454694  43.2580158  44.7842815
 114.0193647  33.5510746  45.6768702 113.2816404  33.0388132  46.0078945
 114.2720421  33.1111128  44.8651979 113.5193667  44.4595257  45.3817853
 113.8116641  45.0200314  44.6630218 114.0292288  44.7523818  46.1371012
 114.1205275  26.3286998  46.2710471 114.4264151  25.4684361  45.9836386
 114.8457879  26.9204618  46.0709465 108.3926354  36.6240791  46.7786662
 108.4474964  35.6714627  46.7029139 107.5817556  36.7800230  47.2627961
 109.5417548  40.5520914  38.0164946 109.1036978  39.8356773  37.5570583
 110.2827989  40.7797029  37.4550037 106.3318714  35.2417851  44.5377041
 105.5186580  35.5412021  44.9442233 106.8277708  34.8473540  45.2551523
 108.4827292  45.2375608  46.4711306 108.4403471  45.4636454  45.5419838
 109.3989991  45.0038982  46.6197107 111.9292926  35.7059675  53.3691935
 112.2842314  35.9331148  54.2286401 112.5765057  36.0378052  52.7469190
 117.6590663  38.8278111  44.0741264 117.5208561  39.0179707  43.1462453
 117.3026882  39.5897494  44.5309315 105.8232789  32.8136206  50.1538276
 106.4632168  32.6724965  49.4561239 104.9910320  32.5270720  49.7776878
 117.6860042  40.8954638  49.0852536 118.1196549  40.8029927  49.9335590
 118.3991623  40.8712139  48.4472552 106.5993093  42.1138637  46.2673269
 107.3933691  41.6188957  46.0655844 105.8884785  41.5856500  45.9040974
 111.4187937  44.4956732  50.6185636 111.4724960  45.0647669  51.3863352
 110.5502719  44.6658617  50.2539673 104.2986331  34.1974289  52.1010087
 104.9709384  33.9891651  51.4522736 103.4716117  33.9996375  51.6615320
 118.5475592  40.9378339  51.6185421 118.7411482  41.8424149  51.8644696
 118.4476210  40.4785758  52.4524006 110.2011903  30.8236229  54.1175748
 109.5539818  31.5226179  54.0240225 110.9712918  31.2572373  54.4851997
 113.6090701  41.0885082  57.1926302 113.4576207  40.8595633  56.2756385
 113.5995380  42.0455683  57.2057647 110.3776037  38.6616994  52.1772568
 111.3068097  38.8128154  52.0041535 109.9567067  38.7501015  51.3221215
 109.1764369  42.6867659  49.9471106 109.0375455  42.3186443  50.8197044
 108.3878965  43.2015298  49.7755063 109.7712521  47.7876755  41.2896642
 109.9464277  47.3164798  42.1042265 109.0845309  48.4142521  41.5177903
 110.7269584  42.0649261  47.3359943 110.3919417  42.0250031  48.2317593
 110.2273530  41.3993977  46.8630354 104.7013828  37.4716891  52.8612525
 104.5633626  36.7397130  53.4624064 105.6118751  37.3825792  52.5796712
 113.6628776  39.4105296  37.6097003 113.0457946  38.6852124  37.5130056
 113.1945264  40.1714656  37.2664077 107.3296129  37.1836851  52.3496204
 108.0395747  36.5430043  52.3082823 107.2865437  37.4349746  53.2722385
 115.3182907  44.1204204  55.2702783 115.2595454  43.4363424  54.6033366
 115.7202426  44.8623194  54.8183409 106.0425063  34.1702069  54.1691844
 105.5062420  33.7192807  54.8213440 105.4541771  34.3047978  53.4262308
 104.3373606  50.9366118  48.0636502 104.5770204  51.5684642  48.7415521
 103.4942803  50.5854158  48.3501862 105.4527322  33.6290720  36.7318307
 104.5756788  33.5079521  36.3680554 105.9285075  32.8376798  36.4797196
 115.3200315  42.0843788  53.5016763 114.4327093  41.7469710  53.6243162
 115.8898866  41.3526819  53.7385529 101.7764184  33.3058076  51.2544838
 101.6922373  32.6983746  50.5195248 100.9546890  33.7967095  51.2554335
 108.8501468  46.7445240  50.4678006 108.7771640  47.5500212  50.9797311
 108.4078861  46.9437206  49.6426028 108.6391248  45.9817010  43.9780828
 107.8558770  46.5238691  44.0719052 109.3383993  46.4990990  44.3775069
 111.9487898  31.7911640  46.6215033 112.4456597  31.0381602  46.3016104
 111.1774879  31.8275957  46.0558243 119.8017655  37.4952005  48.2633325
 119.7907531  38.3776721  47.8927258 118.9335035  37.1423556  48.0687862
 111.3100152  46.6432074  52.6236165 112.0228124  47.2779539  52.5512066
 110.8190180  46.7395940  51.8076167 113.0317678  40.5483327  44.1953457
 112.0973957  40.6684790  44.0258161 113.2094347  39.6455794  43.9313467
 108.5322867  33.9329023  46.3486718 108.1620654  33.3800063  47.0367623
 109.0281959  33.3287156  45.7961718 116.4190230  36.3900646  44.7303491
 116.8850682  37.2228638  44.6563793 116.8697730  35.9245628  45.4348749
 106.3612065  44.3926518  53.4441736 107.0621525  45.0263001  53.5971130
 105.8907180  44.7341249  52.6837375 114.4866461  42.7344468  41.7289643
 114.7626305  42.6201062  42.6383517 113.6170960  42.3361953  41.6901816
 114.3906893  28.7581233  48.7694392 113.4769972  28.9885460  48.9376599
 114.8199994  28.8419677  49.6208425 114.1613351  36.9471125  51.2694286
 113.5084801  37.1947033  50.6146739 114.5393731  36.1335264  50.9356763
 111.1220525  46.9830819  45.3722456 111.3042919  46.1652474  45.8350209
 111.9453511  47.1998511  44.9347346 111.4562690  45.9099004  42.6337505
 111.9850457  45.3991458  42.0207667 111.7190910  45.5941534  43.4983038
 110.2100924  37.6890936  57.7560323 109.5341561  37.5885066  58.4262698
 111.0328558  37.5330150  58.2196320 101.9579783  43.9262873  50.3772839
 102.5433220  43.1806561  50.5100743 101.7604622  44.2366830  51.2609502
 104.8118438  46.9614120  45.3935281 104.1428814  47.4460248  44.9099321
 104.6731308  47.2083341  46.3078659 108.9523707  48.9957864  51.9917939
 109.5042015  49.1589485  52.7567024 109.2929900  49.5862302  51.3197964
 103.9288200  31.3433014  52.5939824 103.9929527  32.2047845  52.1817222
 103.8655320  30.7307015  51.8612182 103.4040473  33.4156146  56.2412858
 104.0312512  33.0333224  56.8550383 102.5468392  33.1970348  56.6068551
 113.8034581  43.8219121  57.8466594 114.3474485  44.4349080  57.3521548
 113.2221426  44.3798700  58.3633607 112.0892094  46.9439839  48.9781621
 111.9643234  46.1429579  48.4692567 112.7471185  47.4386033  48.4895591
 103.7100262  33.2988572  48.1558762 102.9886848  33.9124540  48.0166235
 104.4993518  33.8346337  48.0775408 114.1527003  44.7448860  50.6061171
 113.2057338  44.6254211  50.5339498 114.5009776  43.8571358  50.6887433
 106.5126576  30.6342998  54.4299413 107.0360978  30.8805295  55.1925723
 106.2938909  31.4663033  54.0102551 111.1573436  44.5401576  46.8065524
 111.0098398  43.6118283  46.9873094 111.9826929  44.5621666  46.3222599
 105.0235680  33.1919643  42.6646016 105.3631753  33.7205564  41.9424624
 105.4707801  33.5300049  43.4404582 114.7607558  45.3630134  47.8930396
 115.6854105  45.1572996  47.7554848 114.5922861  45.1146536  48.8019738
 107.7179121  31.5756694  52.1149084 107.3775941  30.7764507  52.5169764
 107.0118127  31.8758404  51.5425917 108.3695593  28.6606006  50.5676407
 109.1921662  28.1866484  50.4455297 108.6133656  29.4396490  51.0675093
 107.0103827  31.6894264  40.8639309 107.7312190  32.0675517  40.3603025
 106.3869131  32.4083141  40.9674287 111.1534950  32.3939413  41.7997641
 111.3698565  33.2764051  41.4986469 110.6729017  32.0025627  41.0703283
 105.8934172  35.3525127  48.3768386 105.7478752  35.6665430  49.2692667
 105.4159375  35.9710027  47.8239284 107.7530554  32.3427675  48.4249275
 107.7392123  31.4468768  48.0881573 108.4702983  32.3498338  49.0587561
 109.6056685  32.7765015  50.4702403 109.3474463  33.6982085  50.4686733
 109.0741726  32.3795449  51.1602867 114.5502874  45.8815802  43.2492488
 114.7239752  45.3162224  42.4966340 115.0431765  46.6816697  43.0671978
 107.1567450  31.2242055  43.6936845 107.2783362  30.2958701  43.8927733
 106.8669493  31.2380741  42.7815161 110.0258641  28.9096965  46.8303565
 110.0480338  28.9736298  45.8755545 110.4426700  28.0701474  47.0244071
 120.4042265  38.6452225  44.8682788 120.8473411  37.8959550  44.4701911
 119.5268775  38.6362361  44.4856520 115.5378046  45.1982566  40.3489386
 116.2328951  45.8189259  40.5676701 115.8801197  44.3477918  40.6241764
 101.1545856  37.0200367  54.2086204 100.4127592  37.1683003  54.7950834
 100.8338600  37.2808633  53.3452953 117.4369470  42.6482272  41.8776717
 117.9620794  42.9869545  41.1526037 117.3491822  41.7129287  41.6939852
 109.0989518  46.5616345  54.0066594 109.4076645  46.3165492  54.8789293
 109.8965000  46.7662984  53.5185464 109.1210130  48.7154255  46.2371970
 108.6815121  48.2230634  46.9304827 109.8718247  48.1727223  45.9964045
 101.6002469  44.9065796  46.2396598 102.4260489  44.6069568  45.8595242
 101.2496521  44.1373418  46.6886387 106.5684002  44.2592264  48.3094272
 105.9464012  43.5962969  48.0096500 107.2388869  44.2853396  47.6267920
 106.6408530  32.7374052  57.9026778 106.6896685  33.6136175  57.5204547
 107.1831044  32.1951445  57.3298421 117.1263376  43.2815175  57.1827915
 116.3358919  43.2639314  56.6432414 116.8896730  43.8203469  57.9376952
 117.2461251  40.1307642  54.4960643 117.2959256  39.9657649  55.4376166
 117.1375174  39.2634901  54.1058524 106.1297509  42.8096188  41.7852732
 106.2785630  43.4931652  41.1319405 106.9363953  42.7901278  42.3002188
 114.5365013  36.1138570  55.8119950 115.4374876  35.9745035  55.5203948
 114.6112988  36.2793025  56.7518128 108.8707818  33.4905425  54.6573137
 108.0011128  33.7838991  54.3855725 109.1067299  34.0745870  55.3780400
 118.7479448  42.5504583  54.7402665 118.4564256  42.9134564  55.5766126
 118.1351579  41.8371592  54.5615997 119.9475130  40.1157463  47.2605235
 120.7822021  40.5547267  47.4242796 120.0834259  39.6396116  46.4413481
 116.9966636  37.6737198  53.2082723 117.4720757  37.8664844  52.4001574
 116.0732201  37.7296384  52.9626107 111.5746852  29.7085042  52.1738557
 112.0928796  30.4446068  51.8485045 111.2201985  30.0149035  53.0085316
 111.8259446  26.1285324  47.6939454 112.1061200  25.4608513  48.3199880
 112.6110053  26.3214420  47.1814117 109.6292915  45.3044318  39.2564480
 109.0566882  45.9234505  38.8034952 110.2025709  45.8543680  39.7904402
 115.6968305  34.5502958  51.4411029 116.6485728  34.6501056  51.4623253
 115.5271755  33.7581227  51.9509113 113.7182684  31.6358541  51.6270430
 113.1232616  31.9163554  50.9316918 113.4332381  32.1252442  52.3987171
 112.8490175  45.5881468  40.3873062 113.7820848  45.5227030  40.5905938
 112.7613388  46.4237735  39.9287595 115.4778191  44.9047338  37.3477010
 115.3991823  44.5707202  38.2412768 116.2987858  45.3969106  37.3468482
 118.1756383  37.7709078  50.5553328 118.1432703  36.8325078  50.7413012
 118.7857006  37.8493114  49.8219153 110.0139713  36.6405131  36.5980532
 110.9598818  36.5111339  36.6668950 109.6353958  35.9019793  37.0749960
 118.3250871  34.5620121  50.6011611 117.8089920  33.7778578  50.4141540
 119.2090820  34.2338838  50.7658131 115.9861598  28.3061137  46.5607424
 115.7886419  27.9976225  47.4450756 116.5961304  29.0322776  46.6905354
 109.8978406  40.6922877  58.0581189 110.8181415  40.8701476  58.2521236
 109.8627989  39.7478922  57.9060889 108.1982631  34.5655107  36.5335418
 107.2914086  34.2688220  36.6098131 108.4758612  34.2684925  35.6669704
 102.8940478  38.6023912  50.7003970 103.1126488  39.5341019  50.7192004
 103.3066252  38.2431886  51.4858774 109.8144696  29.1091997  42.6879659
 109.0045425  28.7639082  43.0634905 110.5029113  28.7999541  43.2767270
 111.7435245  28.1870044  44.3103955 112.2966283  28.6065497  44.9693979
 111.9805331  27.2605792  44.3526911 107.7668344  34.1757117  60.0906719
 107.6665071  35.1251474  60.0218810 107.5489886  33.8475356  59.2182789
 106.9681415  31.4242042  36.6747397 107.8300579  31.7496941  36.9343214
 107.1531759  30.6373538  36.1620463 115.1214052  30.2970569  43.8182620
 114.5412721  30.9555373  43.4360672 114.8549984  29.4747913  43.4070037
 113.5717618  29.6975627  46.0203940 114.0717396  29.8092161  45.2118259
 114.2153226  29.3936679  46.6604748 107.6299614  37.6054256  58.9071781
 107.1466696  38.4054616  59.1135670 107.7160553  37.6162201  57.9539225
 103.5572951  41.4958791  50.9440215 104.5116205  41.4642733  50.8770146
 103.3585475  41.0349415  51.7590441 104.1472333  40.0659907  53.5111012
 104.9665222  40.5603986  53.5345850 104.4209141  39.1491875  53.4828580
 113.9038930  32.4570659  42.8738968 113.0164785  32.7420310  42.6559163
 114.3192919  32.2964423  42.0266245 117.2553466  32.4817180  46.5893307
 118.0313856  32.9713633  46.8617924 116.5301600  32.9075234  47.0465177
 119.6926024  33.1944799  47.6467248 120.2870515  32.9540535  46.9360556
 119.7652608  32.4751930  48.2740784 101.9123180  47.0378410  47.9610413
 101.7777648  46.2778811  47.3948411 101.4955242  47.7619310  47.4939202
 113.0482143  42.2215334  36.9686988 113.7517993  42.4265336  37.5844644
 112.3244792  42.7892096  37.2336071 113.8779953  37.9725195  43.0889258
 113.8215155  38.4293747  42.2496891 114.4308296  37.2115880  42.9112101
 117.6884759  33.7614927  43.9139378 117.4321694  33.3611563  44.7447585
 117.0637627  34.4758721  43.7889517 105.0692306  47.9347727  48.1728855
 104.9524690  48.8793160  48.0707546 104.2484752  47.6321289  48.5614655
 114.9568841  42.6597863  39.0185448 115.7914444  42.2279062  38.8362923
 114.7953183  42.4879877  39.9462342 114.6114733  39.1629976  40.3841787
 114.5563537  38.9974248  39.4430231 113.9860788  39.8706009  40.5403977
 111.9260640  41.4678888  59.7095350 112.7951800  41.6419541  59.3481985
 111.4467391  42.2873305  59.5871079 107.9210858  28.6638085  39.9627106
 107.9089528  29.6079925  40.1195377 108.8134280  28.4808231  39.6686567
 106.0946820  48.5875989  51.3884784 106.9974067  48.6199600  51.7051279
 105.8684190  47.6576440  51.4031120 107.8500422  47.3406976  48.0494862
 106.8996053  47.3408837  47.9359235 108.1532908  46.5939710  47.5330897
 111.7362978  25.2580862  44.2173043 110.9695373  24.7039349  44.3629725
 112.1473683  25.3302731  45.0787194 103.7404739  31.5465658  58.3078224
 104.6036200  31.1902463  58.5181548 103.1670149  31.2079553  58.9953628
 120.3942822  53.1294942  49.0502149 120.0561333  53.0136007  48.1622684
 121.2632590  52.7286107  49.0303156 116.2529638  54.9830419  45.0399040
 115.6894503  54.8920356  44.2715328 116.1382033  54.1630323  45.5201533
 120.8762605  54.2829794  55.0088355 120.8651246  53.8882592  54.1368859
 121.0383244  53.5495867  55.6022126 113.7994070  56.4781610  47.8783261
 114.5915361  56.1372435  47.4629560 114.0390720  56.5876585  48.7985414
 115.7584823  55.7390524  40.7500640 116.5315699  55.1919511  40.6113515
 116.1110222  56.6034773  40.9615101 117.5969866  57.0666906  53.9567539
 117.3059732  57.9712537  53.8414205 118.2326850  57.1083433  54.6711609
 118.5226073  54.4443754  50.5468899 119.1189645  54.2199777  49.8325862
 118.5801044  53.7028500  51.1494346 118.0951101  51.8983190  38.3819090
 118.3476622  51.3764711  37.6202553 117.1575660  51.7349335  38.4845773
 117.8147390  53.8011296  40.5843465 117.6983648  53.1256199  41.2524549
 117.9249650  53.3143670  39.7675618 120.1578931  53.2621443  44.2890154
 119.7937138  52.7352064  45.0003075 121.0146047  52.8719912  44.1156639
 119.7984418  48.2911342  39.2851502 119.9658820  49.1591579  39.6521973
 119.6081587  48.4538624  38.3612792 116.0072233  53.2042118  46.9854037
 115.0822729  53.0718332  47.1931729 116.2556646  53.9836337  47.4823979
 119.7773639  50.7469000  40.2698169 119.6573264  51.1926051  41.1083649
 119.0826227  51.0954318  39.7111707 113.3681044  52.8475392  47.8197826
 113.4973425  53.1009871  48.7337238 112.6878495  53.4403100  47.5002481
 117.5380531  63.5172642  43.9188300 117.4604561  64.4680467  43.9976781
 116.9342175  63.1718514  44.5763227 120.0297761  50.6900507  56.5749667
 119.2531095  51.2494427  56.5652532 120.6688324  51.1757290  57.0964537
 118.2844133  53.4985960  56.1367634 119.0258817  54.0371004  55.8602458
 117.5781118  54.1252249  56.2939186 120.1130543  50.5787708  52.1073353
 120.9591738  51.0027121  52.2508002 120.0529180  49.9221332  52.8011916
 119.6356249  55.9390700  45.7542170 120.0994595  56.2178403  44.9646792
 119.3713047  55.0374144  45.5715260 116.5280330  55.4862181  48.6921933
 117.0981687  55.9149450  48.0539417 117.1188442  55.2044766  49.3906119
 118.5725135  52.0613852  42.5631735 119.2749179  52.5134896  43.0305661
 118.2405764  51.4197671  43.1911628 117.0205497  50.6525609  56.9382944
 116.3904157  51.3341889  57.1718341 116.9141585  50.5408690  55.9936083
 112.3150469  50.3197405  47.8648868 111.5249523  50.5754933  47.3888979
 112.8061717  51.1345743  47.9700909 114.2665215  50.6841984  44.8232345
 113.4696378  50.7960678  45.3415841 114.0390807  51.0228636  43.9573236
 120.0970882  57.2086687  52.7714860 120.1615315  57.6707094  53.6073032
 119.3881806  56.5784052  52.8997170 110.5988172  50.5727895  50.2963859
 110.8496211  51.4574905  50.5621435 111.1347721  50.3932497  49.5238951
 119.8118900  58.8754795  42.6393840 119.6764575  59.7206330  43.0678688
 120.3528712  59.0774072  41.8759774 116.2986239  44.9546374  59.3008195
 115.9053185  44.4012573  59.9755840 117.1152380  45.2656953  59.6914713
 113.2648297  56.3930233  43.2121765 113.7772818  57.1873483  43.3627330
 113.9171010  55.6956523  43.1455367 115.0743182  59.5095989  45.2944518
 115.2509810  60.4313954  45.1065502 115.8700015  59.1954408  45.7238898
 119.2154200  46.3704254  56.8928452 119.9563914  46.9711407  56.8132914
 119.4472123  45.6281891  56.3346494 114.3595538  51.5560621  55.1706682
 114.2449054  50.6545878  55.4713780 113.5040056  51.8024318  54.8191498
 116.1974497  61.0274163  51.2954861 116.7481923  60.8991226  50.5231855
 115.3585973  61.3269052  50.9449753 119.9941668  57.2925291  55.6399092
 120.5270005  56.5313579  55.4098400 119.4655750  56.9998942  56.3823246
 111.2297214  54.7218887  43.9881336 112.0672436  55.1315895  43.7715043
 111.4075482  53.7818329  43.9581530 120.7108757  47.2343668  44.7350407
 119.8550354  46.8450519  44.5556046 121.1235709  47.3135629  43.8750193
 118.4850790  44.8528741  48.1408149 119.3503786  44.6571550  47.7814038
 118.5528299  44.6239093  49.0677505 121.3594381  56.4211283  43.1517904
 120.8315743  55.6864043  42.8391141 120.8581884  57.1985959  42.9057872
 116.0913109  47.0830949  45.5124515 116.6656861  46.8606131  44.7797708
 116.6784091  47.1519644  46.2653117 116.4182696  49.1135410  39.5320401
 115.5820008  49.4510097  39.8529675 116.2787466  48.9784390  38.5947538
 118.3935776  43.9572198  44.2399585 117.7400189  43.6421215  43.6156200
 118.3516251  43.3347939  44.9659408 119.5046981  54.2391493  36.1552877
 118.5974043  54.0080747  36.3544026 120.0018013  53.4429113  36.3426858
 120.6835215  54.3404088  40.6776867 119.7746434  54.0563121  40.7749337
 120.7130299  54.7603167  39.8180174 111.2523385  52.0609602  44.6592069
 111.0547785  51.4678963  43.9343136 110.6970049  51.7561812  45.3768008
 119.2320109  51.9532709  46.7786662 119.2868719  51.0006545  46.7029139
 118.4211311  52.1092148  47.2627961 120.3811303  55.8812832  38.0164946
 119.9430733  55.1648691  37.5570583 121.1221743  56.1088947  37.4550037
 117.1712469  50.5709769  44.5377041 116.3580334  50.8703939  44.9442233
 117.6671463  50.1765457  45.2551523 119.3221047  60.5667525  46.4711306
 119.2797225  60.7928372  45.5419838 120.2383745  60.3330900  46.6197107
 116.6626544  48.1428124  50.1538276 117.3025923  48.0016883  49.4561239
 115.8304074  47.8562637  49.7776878 117.4386847  57.4430554  46.2673269
 118.2327446  56.9480875  46.0655844 116.7278540  56.9148418  45.9040974
 113.7469611  51.5873636  42.3433021 112.8167199  51.5258092  42.5602983
 113.8427083  51.0649589  41.5469663 113.6655160  48.1128449  44.9311263
 113.9261977  49.0273782  44.8220423 114.4872332  47.6452892  45.0807876
 115.1380085  49.5266206  52.1010087 115.8103139  49.3183568  51.4522736
 114.3109872  49.3288292  51.6615320 120.0158123  58.0159576  49.9471106
 119.8769209  57.6478361  50.8197044 119.2272720  58.5307216  49.7755063
 120.6106275  63.1168673  41.2896642 120.7858031  62.6456716  42.1042265
 119.9239063  63.7434439  41.5177903 121.5663339  57.3941179  47.3359943
 121.2313171  57.3541949  48.2317593 121.0667284  56.7285895  46.8630354
 115.5407583  52.8008809  52.8612525 115.4027380  52.0689048  53.4624064
 116.4512506  52.7117709  52.5796712 118.1689883  52.5128768  52.3496204
 118.8789502  51.8721961  52.3082823 118.1259191  52.7641663  53.2722385
 116.8818817  49.4993986  54.1691844 116.3456174  49.0484725  54.8213440
 116.2935526  49.6339895  53.4262308 115.1767361  66.2658036  48.0636502
 115.4163959  66.8976560  48.7415521 114.3336557  65.9146076  48.3501862
 116.2921076  48.9582638  36.7318307 115.4150542  48.8371439  36.3680554
 116.7678829  48.1668716  36.4797196 107.8123216  53.7459798  46.8259815
 108.4994256  53.4321528  46.2380830 107.6571345  54.6501162  46.5527066
 112.6157938  48.6349994  51.2544838 112.5316127  48.0275664  50.5195248
 111.7940645  49.1259012  51.2554335 119.6895223  62.0737158  50.4678006
 119.6165394  62.8792130  50.9797311 119.2472616  62.2729124  49.6426028
 119.4785002  61.3108928  43.9780828 118.6952524  61.8530608  44.0719052
 120.1777747  61.8282908  44.3775069 119.3716621  49.2620941  46.3486718
 119.0014409  48.7091981  47.0367623 119.8675713  48.6579074  45.7961718
 117.2005820  59.7218436  53.4441736 117.9015279  60.3554919  53.5971130
 116.7300935  60.0633167  52.6837375 112.7973538  59.2554791  50.3772839
 113.3826974  58.5098479  50.5100743 112.5998376  59.5658747  51.2609502
 115.6512193  62.2906038  45.3935281 114.9822568  62.7752166  44.9099321
 115.5125063  62.5375258  46.3078659 107.3891192  51.8260391  49.0977282
 107.4275292  51.2923982  49.8914400 106.8831485  51.2995596  48.4788259
 119.7917461  64.3249782  51.9917939 120.3435769  64.4881403  52.7567024
 120.1323655  64.9154219  51.3197964 114.7681955  46.6724931  52.5939824
 114.8323281  47.5339762  52.1817222 114.7049075  46.0598933  51.8612182
 114.2434227  48.7448064  56.2412858 114.8706266  48.3625141  56.8550383
 113.3862146  48.5262266  56.6068551 111.0199770  50.5524493  42.1731213
 111.3153211  49.6435171  42.1198267 110.1187806  50.5312232  41.8512215
 114.5494017  48.6280490  48.1558762 113.8280603  49.2416457  48.0166235
 115.3387273  49.1638254  48.0775408 117.3520330  45.9634916  54.4299413
 117.8754732  46.2097213  55.1925723 117.1332664  46.7954951  54.0102551
 112.7487612  48.2338591  42.2970538 112.4200318  47.3535970  42.1145644
 113.1026982  48.1786259  43.1846927 115.8629435  48.5211560  42.6646016
 116.2025507  49.0497482  41.9424624 116.3101555  48.8591967  43.4404582
 118.5572876  46.9048611  52.1149084 118.2169696  46.1056424  52.5169764
 117.8511882  47.2050322  51.5425917 119.2089347  43.9897924  50.5676407
 120.0315417  43.5158402  50.4455297 119.4527411  44.7688407  51.0675093
 117.8497582  47.0186182  40.8639309 118.5705944  47.3967435  40.3603025
 117.2262886  47.7375059  40.9674287 116.7327926  50.6817044  48.3768386
 116.5872507  50.9957347  49.2692667 116.2553130  51.3001945  47.8239284
 118.5924309  47.6719592  48.4249275 118.5785878  46.7760686  48.0881573
 119.3096737  47.6790256  49.0587561 120.4450440  48.1056932  50.4702403
 120.1868218  49.0274003  50.4686733 119.9135480  47.7087367  51.1602867
 111.2073588  53.2222389  51.3156047 110.6627056  53.9982197  51.4476321
 112.0852938  53.5693193  51.1575168 117.9961205  46.5533973  43.6936845
 118.1177116  45.6250619  43.8927733 117.7063247  46.5672658  42.7815161
 120.8652395  44.2388883  46.8303565 120.8874092  44.3028216  45.8755545
 121.2820454  43.3993392  47.0244071 111.9939610  52.3492285  54.2086204
 111.2521346  52.4974920  54.7950834 111.6732354  52.6100551  53.3452953
 119.9383273  61.8908263  54.0066594 120.2470399  61.6457410  54.8789293
 120.7358755  62.0954902  53.5185464 119.9603885  64.0446173  46.2371970
 119.5208875  63.5522551  46.9304827 120.7112002  63.5019140  45.9964045
 112.4396224  60.2357714  46.2396598 113.2654244  59.9361486  45.8595242
 112.0890276  59.4665336  46.6886387 117.4077757  59.5884182  48.3094272
 116.7857766  58.9254887  48.0096500 118.0782624  59.6145314  47.6267920
 110.6404829  58.1544040  47.1985532 109.8036737  57.7266214  47.0169533
 110.6128474  58.3476483  48.1356323 117.4802284  48.0665970  57.9026778
 117.5290440  48.9428093  57.5204547 118.0224799  47.5243363  57.3298421
 116.9691264  58.1388105  41.7852732 117.1179384  58.8223570  41.1319405
 117.7757707  58.1193195  42.3002188 119.7101573  48.8197342  54.6573137
 118.8404882  49.1130908  54.3855725 119.9461053  49.4037787  55.3780400
 114.7243897  54.1653283  42.7913801 114.4789939  53.2615613  42.9894011
 114.8939811  54.1670433  41.8493279 113.9939544  49.8981640  40.2899963
 113.3008789  49.9725995  39.6339999 113.7491296  49.1341984  40.8121480
 120.4686669  60.6336236  39.2564480 119.8960636  61.2526423  38.8034952
 121.0419463  61.1835597  39.7904402 119.0376385  49.8947025  36.5335418
 118.1307840  49.5980138  36.6098131 119.3152366  49.5976843  35.6669704
 109.9554325  51.2153388  46.9834464 109.6357110  50.3618696  46.6908838
 109.4087754  51.4301966  47.7392431 113.7334233  53.9315829  50.7003970
 113.9520243  54.8632937  50.7192004 114.1460007  53.5723804  51.4858774
 120.6538451  44.4383915  42.6879659 119.8439179  44.0930999  43.0634905
 121.3422868  44.1291458  43.2767270 118.6062098  49.5049035  60.0906719
 118.5058825  50.4543392  60.0218810 118.3883640  49.1767274  59.2182789
 117.8075170  46.7533960  36.6747397 118.6694334  47.0788858  36.9343214
 117.9925514  45.9665456  36.1620463 109.8242585  54.8356300  48.9527586
 109.1306057  54.4210252  48.4397540 110.5715576  54.8776836  48.3561004
 118.4693368  52.9346174  58.9071781 117.9860450  53.7346534  59.1135670
 118.5554307  52.9454119  57.9539225 111.7379328  54.7674553  46.8293600
 111.7150016  54.8662241  45.8775483 112.0479964  55.6139704  47.1510767
 114.3966706  56.8250709  50.9440215 115.3509959  56.7934651  50.8770146
 114.1979229  56.3641332  51.7590441 114.9866088  55.3951825  53.5111012
 115.8058977  55.8895903  53.5345850 115.2602896  54.4783793  53.4828580
 112.7516935  62.3670328  47.9610413 112.6171403  61.6070729  47.3948411
 112.3348997  63.0911228  47.4939202 115.9086061  63.2639645  48.1728855
 115.7918445  64.2085078  48.0707546 115.0878507  62.9613207  48.5614655
 110.2401002  49.7289958  54.2103210 110.8859866  49.2188912  54.6990435
 110.0318153  50.4658640  54.7846635 118.7604613  43.9930003  39.9627106
 118.7483283  44.9371843  40.1195377 119.6528035  43.8100148  39.6686567
 116.9340575  63.9167907  51.3884784 117.8367821  63.9491517  51.7051279
 116.7077945  62.9868358  51.4031120 118.6894177  62.6698893  48.0494862
 117.7389808  62.6700755  47.9359235 118.9926663  61.9231628  47.5330897
 114.5798493  46.8757575  58.3078224 115.4429955  46.5194380  58.5181548
 114.0063904  46.5371470  58.9953628 118.6516971  69.0751715  46.8259815
 119.3388011  68.7613445  46.2380830 118.4965099  69.9793080  46.5527066
 118.2284947  67.1552309  49.0977282 118.2669046  66.6215899  49.8914400
 117.7225240  66.6287514  48.4788259 121.4798583  73.4835958  47.1985532
 120.6430492  73.0558132  47.0169533 121.4522229  73.6768401  48.1356323
 120.7948080  66.5445306  46.9834464 120.4750864  65.6910614  46.6908838
 120.2481508  66.7593884  47.7392431 120.6636340  70.1648217  48.9527586
 119.9699811  69.7502170  48.4397540 121.4109331  70.2068754  48.3561004
  95.8593023   9.8650929  30.6433607  95.7817053  10.8158754  30.7222088
  95.2554667   9.5196801  31.3008533  93.4979853  12.6136323  34.7881809
  93.7376451  13.2454847  35.4660828  92.6549049  12.2624363  35.0747168
  93.9724685   8.6384325  32.1180588  93.3035060   9.1230453  31.6344628
  93.8337555   8.8853546  33.0323966  98.1129954  10.6728069  38.7163246
  98.6648262  10.8359690  39.4812331  98.4536147  11.2632507  38.0443271
  91.0729427   8.7148615  34.6855719  90.9383895   7.9549016  34.1193717
  90.6561489   9.4389515  34.2184508  94.2298553   9.6117932  34.8974162
  94.1130937  10.5563365  34.7952852  93.4090999   9.3091494  35.2859961
  95.2553067  10.2646194  38.1130090  96.1580314  10.2969804  38.4296585
  95.0290437   9.3346645  38.1276426 109.5549069  14.8065147  35.7747456
 109.2167580  14.6906212  34.8867991 110.4238837  14.4056312  35.7548462
 105.4135884  16.6600624  31.7644347 104.8500750  16.5690561  30.9960635
 105.2988279  15.8400528  32.2446840 110.0368852  15.9599999  41.7333662
 110.0257492  15.5652797  40.8614165 110.1989491  15.2266072  42.3267433
 102.9600316  18.1551815  34.6028568 103.7521608  17.8142640  34.1874867
 103.1996966  18.2646790  35.5230721 110.9935443  20.3271591  27.0758812
 110.3423423  20.9125672  26.6892826 111.7879806  20.8577786  27.1353849
 104.9191070  17.4160728  27.4745946 105.6921946  16.8689716  27.3358822
 105.2716469  18.2804978  27.6860408 106.7576113  18.7437111  40.6812846
 106.4665979  19.6482742  40.5659512 107.3933097  18.7853638  41.3956915
 107.6832320  16.1213959  37.2714205 108.2795892  15.8969982  36.5571168
 107.7407291  15.3798705  37.8739653 106.9753637  15.4781501  27.3088771
 106.8589895  14.8026404  27.9769855 107.0855897  14.9913874  26.4920924
 109.3185178  14.9391648  31.0135460 108.9543385  14.4122269  31.7248382
 110.1752294  14.5490117  30.8401946 111.7165998  18.4298526  37.6762639
 111.4166721  19.3323565  37.5678447 111.3717057  18.1630709  38.5283792
 105.1678479  14.8812323  33.7099344 104.2428976  14.7488537  33.9177035
 105.4162893  15.6606542  34.2069286 102.5287290  14.5245597  34.5443133
 102.6579672  14.7780076  35.4582545 101.8484742  15.1173305  34.2247788
 106.6986778  25.1942847  30.6433607 106.6210807  26.1450672  30.7222088
 106.0948421  24.8488719  31.3008533 107.4450380  15.1756165  42.8612941
 108.1865064  15.7141209  42.5847765 106.7387365  15.8022454  43.0184493
 112.9205719  17.3185306  41.4585102 113.3289075  16.8767716  40.7139735
 112.1982981  16.7437933  41.7119295 113.2434534  17.8786496  35.2137391
 112.6143397  18.0432211  34.5113459 112.8560196  18.2928106  35.9848355
 117.1223766  18.8140934  32.5681755 116.4374804  19.1939836  32.0178788
 117.2067615  19.4236261  33.3013703 114.3774698  16.4600893  39.1677099
 114.5891593  17.1032653  38.4911480 114.3304446  15.6263210  38.6999029
 108.7962496  17.6160905  32.4787476 109.2600841  17.8948608  31.6892099
 108.5319294  16.7144349  32.2960567 105.6886577  17.1632386  35.4167240
 106.2587934  17.5919654  34.7784724 106.2794689  16.8814971  36.1151425
 101.4756716  11.9967610  34.5894175 100.6855770  12.2525138  34.1134286
 101.9667963  12.8115947  34.6946216 115.4920526  19.3372849  37.3399456
 116.3137969  18.9353036  37.0582138 115.4882928  19.2341083  38.2915572
 103.4271461  12.3612189  31.5477652 102.6302625  12.4730883  32.0661147
 103.1997054  12.6998841  30.6818542 109.2577129  18.8856892  39.4960166
 109.3221561  19.3477299  40.3318338 108.5488053  18.2554257  39.6242476
  99.7594419  12.2498100  37.0209166 100.0102457  13.1345110  37.2866742
 100.2953967  12.0702702  36.2484258 108.9725147  20.5525000  29.3639147
 108.8370821  21.3976535  29.7923995 109.5134959  20.7544277  28.6005081
 102.4254544  18.0700438  29.9367072 102.9379065  18.8643688  30.0872636
 103.0777257  17.3726728  29.8700673 104.2349429  21.1866194  32.0189825
 104.4116057  22.1084159  31.8310809 105.0306262  20.8724613  32.4484205
 103.5201785  13.2330826  41.8951988 103.4055300  12.3316083  42.1959087
 102.6646303  13.4794523  41.5436805 110.5993623  21.1748566  43.4939489
 110.1557477  20.3884945  43.1760393 111.2610837  21.3627717  42.8283380
 105.3580744  22.7044368  38.0200167 105.9088169  22.5761431  37.2477161
 104.5192220  23.0039257  37.6695060 112.6974861  21.4551366  41.5220890
 112.6793336  22.2760247  41.0301159 113.6194781  21.3305441  41.7471031
 109.1547915  18.9695495  42.3644398 109.6876252  18.2083784  42.1343706
 108.6261996  18.6769147  43.1068553 100.3903461  16.3989092  30.7126642
 101.2278683  16.8086100  30.4960350 100.5681728  15.4588534  30.6826836
 110.5200628  18.0981488  29.8763210 109.9921990  17.3634248  29.5636448
 110.0188131  18.8756164  29.6303179 115.4993474  16.2930508  34.9930257
 114.8417148  16.9829770  35.0810385 116.3033873  16.6826940  35.3364243
 111.5721307  24.6259205  25.7994870 110.8983006  24.9290902  26.4079827
 111.9587129  25.4288286  25.4500327 115.0760729  19.6280883  31.1713341
 114.6223056  18.7871792  31.2278532 114.4454696  20.2642281  31.5088121
 113.5193668  21.4657379  32.1063159 113.8116643  22.0262436  31.3875525
 114.0292289  21.7585940  32.8616318 100.4129632  13.7379807  31.3837376
 100.2154032  13.1449168  30.6588442  99.8576296  13.4332017  32.1013315
 108.4827293  22.2437730  33.1956612 108.4403472  22.4698577  32.2665145
 109.3989992  22.0101105  33.3442414 117.6860044  17.9016761  35.8097842
 118.1196550  17.8092050  36.6580896 118.3991624  17.8774261  35.1717858
 106.5993094  19.1200759  32.9918575 107.3933693  18.6251080  32.7901150
 105.8884787  18.5918623  32.6286281 111.4187939  21.5018855  37.3430943
 111.4724961  22.0709791  38.1108659 110.5502720  21.6720740  36.9784980
 102.9075858  13.2643841  29.0678328 101.9773446  13.2028297  29.2848290
 103.0033330  12.7419794  28.2714969 118.5475593  17.9440461  38.3430728
 118.7411483  18.8486272  38.5890003 118.4476211  17.4847881  39.1769313
 113.6090702  18.0947204  43.9171608 113.4576208  17.8657756  43.0001692
 113.5995381  19.0517806  43.9302953 110.3776038  15.6679117  38.9017875
 111.3068098  15.8190277  38.7286842 109.9567068  15.7563138  38.0466521
 109.1764370  19.6929781  36.6716412 109.0375456  19.3248566  37.5442350
 108.3878966  20.2077421  36.5000370 109.7712522  24.7938878  28.0141949
 109.9464278  24.3226921  28.8287572 109.0845310  25.4204644  28.2423210
 110.7269585  19.0711384  34.0605250 110.3919418  19.0312154  34.9562900
 110.2273531  18.4056100  33.5875660 104.7013829  14.4779014  39.5857831
 104.5633627  13.7459253  40.1869370 105.6118753  14.3887914  39.3042019
 107.3296130  14.1898973  39.0741511 108.0395748  13.5492166  39.0328129
 107.2865438  14.4411868  39.9967692 115.3182909  21.1266327  41.9948090
 115.2595455  20.4425547  41.3278673 115.7202427  21.8685317  41.5428716
 104.3373607  27.9428241  34.7881809 104.5770206  28.5746765  35.4660828
 103.4942804  27.5916281  35.0747168 115.3200316  19.0905911  40.2262070
 114.4327095  18.7531832  40.3488469 115.8898867  18.3588942  40.4630835
  96.9729463  15.4230002  33.5505121  97.6600503  15.1091732  32.9626136
  96.8177592  16.3271367  33.2772373 108.8501469  23.7507363  37.1923313
 108.7771641  24.5562335  37.7042618 108.4078862  23.9499329  36.3671334
 108.6391249  22.9879133  30.7026135 107.8558771  23.5300813  30.7964359
 109.3383994  23.5053113  31.1020376 111.3100153  23.6494197  39.3481472
 112.0228125  24.2841662  39.2757373 110.8190181  23.7458063  38.5321473
 113.0317680  17.5545450  30.9198763 112.0973958  17.6746912  30.7503468
 113.2094348  16.6517917  30.6558773 106.3612066  21.3988641  40.1687042
 107.0621526  22.0325123  40.3216437 105.8907181  21.7403372  39.4082682
 111.1220526  23.9892941  32.0967763 111.3042921  23.1714597  32.5595515
 111.9453512  24.2060633  31.6592653 111.4562692  22.9161126  29.3582812
 111.9850458  22.4053581  28.7452974 111.7190911  22.6003656  30.2228345
 110.2100925  14.6953059  44.4805630 109.5341562  14.5947188  45.1508005
 111.0328559  14.5392273  44.9441627 101.9579784  20.9324996  37.1018145
 102.5433221  20.1868683  37.2346049 101.7604623  21.2428952  37.9854809
 104.8118440  23.9676243  32.1180588 104.1428815  24.4522371  31.6344628
 104.6731309  24.2145463  33.0323966  96.5497439  13.5030596  35.8222588
  96.5881539  12.9694186  36.6159706  96.0437732  12.9765801  35.2033565
 108.9523708  26.0019986  38.7163246 109.5042016  26.1651608  39.4812331
 109.2929902  26.5924424  38.0443271 113.8034583  20.8281244  44.5711900
 114.3474487  21.4411202  44.0766855 113.2221427  21.3860822  45.0878913
 112.0892095  23.9501962  35.7026928 111.9643235  23.1491702  35.1937874
 112.7471187  24.4448155  35.2140898 114.1527004  21.7510982  37.3306478
 113.2057339  21.6316333  37.2584805 114.5009777  20.8633480  37.4132740
 111.1573437  21.5463698  33.5310830 111.0098400  20.6180406  33.7118400
 111.9826931  21.5683789  33.0467906 114.7607559  22.3692257  34.6175703
 115.6854106  22.1635118  34.4800154 114.5922862  22.1208658  35.5265045
 114.5502875  22.8877924  29.9737795 114.7239753  22.3224347  29.2211647
 115.0431766  23.6878819  29.7917285 100.3679835  14.8992594  38.0401353
  99.8233303  15.6752402  38.1721628 101.2459185  15.2463398  37.8820475
 101.1545857  14.0262490  40.9331510 100.4127593  14.1745125  41.5196141
 100.8338601  14.2870755  40.0698260 109.0989520  23.5678468  40.7311900
 109.4076646  23.3227615  41.6034600 109.8965002  23.7725107  40.2430770
 109.1210132  25.7216378  32.9617277 108.6815122  25.2292756  33.6550134
 109.8718249  25.1789345  32.7209352 101.6002471  21.9127919  32.9641905
 102.4260490  21.6131690  32.5840548 101.2496523  21.1435541  33.4131694
 106.5684004  21.2654387  35.0339578 105.9464013  20.6025092  34.7341806
 107.2388871  21.2915519  34.3513226  99.8011076  19.8314245  33.9230838
  98.9642984  19.4036419  33.7414840  99.7734721  20.0246688  34.8601630
 117.1263377  20.2877298  43.9073222 116.3358921  20.2701437  43.3677721
 116.8896731  20.8265592  44.6622258 106.1297511  19.8158310  28.5098039
 106.2785631  20.4993775  27.8564712 106.9363954  19.7963400  29.0247495
 118.7479449  19.5566706  41.4647972 118.4564257  19.9196687  42.3011433
 118.1351580  18.8433714  41.2861304 103.8850144  15.8423488  29.5159108
 103.6396186  14.9385818  29.7139318 104.0546058  15.8440638  28.5738586
 109.6292916  22.3106441  25.9809786 109.0566883  22.9296628  25.5280258
 110.2025710  22.8605802  26.5149708 109.8978407  17.6984999  44.7826496
 110.8181417  17.8763598  44.9766542 109.8627990  16.7541045  44.6306195
  99.1160572  12.8923593  33.7079771  98.7963357  12.0388901  33.4154145
  98.5694000  13.1072171  34.4637738 102.8940480  15.6086034  37.4249277
 103.1126490  16.5403142  37.4437311 103.3066254  15.2494009  38.2104081
  98.9848832  16.5126505  35.6772892  98.2912304  16.0980457  35.1642847
  99.7321823  16.5547041  35.0806311 107.6299615  14.6116379  45.6317088
 107.1466697  15.4116739  45.8380977 107.7160554  14.6224324  44.6784532
 100.8985575  16.4444758  33.5538907 100.8756263  16.5432446  32.6020790
 101.2086211  17.2909909  33.8756073 103.5572953  18.5020913  37.6685521
 104.5116206  18.4704856  37.6015453 103.3585476  18.0411537  38.4835747
 104.1472335  17.0722029  40.2356319 104.9665224  17.5666108  40.2591156
 104.4209142  16.1553998  40.2073887 101.9123181  24.0440533  34.6855719
 101.7777649  23.2840934  34.1193717 101.4955244  24.7681433  34.2184508
 105.0692307  24.9409850  34.8974162 104.9524691  25.8855282  34.7952852
 104.2484754  24.6383411  35.2859961  99.4007249  11.4060163  40.9348516
 100.0466113  10.8959117  41.4235741  99.1924400  12.1428845  41.5091941
 111.9260641  18.4741011  46.4340657 112.7951801  18.6481663  46.0727292
 111.4467393  19.2935428  46.3116386 106.0946821  25.5938112  38.1130090
 106.9974068  25.6261722  38.4296585 105.8684191  24.6638563  38.1276426
 107.8500423  24.3469098  34.7740169 106.8996054  24.3470960  34.6604541
 108.1532910  23.6001833  34.2576204 120.3942823  30.1357065  35.7747456
 120.0561335  30.0198130  34.8867991 121.2632591  29.7348230  35.7548462
 116.2529639  31.9892541  31.7644347 115.6894504  31.8982478  30.9960635
 116.1382034  31.1692446  32.2446840 120.8762606  31.2891917  41.7333662
 120.8651247  30.8944715  40.8614165 121.0383246  30.5557989  42.3267433
 113.7994071  33.4843733  34.6028568 114.5915363  33.1434558  34.1874867
 114.0390721  33.5938708  35.5230721 115.7584825  32.7452646  27.4745946
 116.5315701  32.1981633  27.3358822 116.1110224  33.6096895  27.6860408
 117.5969867  34.0729028  40.6812846 117.3059733  34.9774659  40.5659512
 118.2326852  34.1145556  41.3956915 118.5226074  31.4505877  37.2714205
 119.1189646  31.2261899  36.5571168 118.5801046  30.7090622  37.8739653
 117.8147391  30.8073418  27.3088771 117.6983649  30.1318322  27.9769855
 117.9249651  30.3205792  26.4920924 120.1578932  30.2683565  31.0135460
 119.7937139  29.7414186  31.7248382 121.0146048  29.8782034  30.8401946
 116.0072234  30.2104241  33.7099344 115.0822730  30.0780455  33.9177035
 116.2556647  30.9898460  34.2069286 113.3681045  29.8537514  34.5443133
 113.4973426  30.1071993  35.4582545 112.6878496  30.4465222  34.2247788
 117.5380532  40.5234764  30.6433607 117.4604562  41.4742589  30.7222088
 116.9342176  40.1780637  31.3008533 120.0297762  27.6962630  43.2994974
 119.2531096  28.2556550  43.2897839 120.6688325  28.1819413  43.8209844
 118.2844134  30.5048083  42.8612941 119.0258819  31.0433127  42.5847765
 117.5781120  31.1314372  43.0184493 120.1130544  27.5849830  38.8318659
 120.9591739  28.0089244  38.9753308 120.0529182  26.9283455  39.5257222
 119.6356250  32.9452822  32.4787476 120.0994596  33.2240525  31.6892099
 119.3713049  32.0436267  32.2960567 116.5280332  32.4924304  35.4167240
 117.0981689  32.9211572  34.7784724 117.1188443  32.2106888  36.1151425
 118.5725137  29.0675975  29.2877042 119.2749180  29.5197018  29.7550968
 118.2405765  28.4259793  29.9156935 117.0205498  27.6587731  43.6628251
 116.3904159  28.3404012  43.8963648 116.9141586  27.5470813  42.7181389
 112.3150470  27.3259527  34.5894175 111.5249524  27.5817056  34.1134286
 112.8061718  28.1407865  34.6946216 114.2665216  27.6904107  31.5477652
 113.4696379  27.8022801  32.0661147 114.0390808  28.0290759  30.6818542
 120.0970883  34.2148810  39.4960166 120.1615316  34.6769217  40.3318338
 119.3881807  33.5846175  39.6242476 110.5988173  27.5790018  37.0209166
 110.8496212  28.4637028  37.2866742 111.1347722  27.3994619  36.2484258
 119.8118901  35.8816917  29.3639147 119.6764576  36.7268453  29.7923995
 120.3528714  36.0836195  28.6005081 116.2986241  21.9608497  46.0253502
 115.9053186  21.4074696  46.7001146 117.1152381  22.2719076  46.4160019
 113.2648299  33.3992355  29.9367072 113.7772819  34.1935606  30.0872636
 113.9171011  32.7018646  29.8700673 115.0743183  36.5158112  32.0189825
 115.2509812  37.4376076  31.8310809 115.8700017  36.2016531  32.4484205
 119.2154202  23.3766376  43.6173759 119.9563915  23.9773529  43.5378221
 119.4472125  22.6344014  43.0591801 114.3595540  28.5622743  41.8951988
 114.2449055  27.6608001  42.1959087 113.5040058  28.8086440  41.5436805
 116.1974499  38.0336285  38.0200167 116.7481924  37.9053349  37.2477161
 115.3585975  38.3331174  37.6695060 119.9941670  34.2987413  42.3644398
 120.5270007  33.5375701  42.1343706 119.4655751  34.0061065  43.1068553
 111.2297215  31.7281010  30.7126642 112.0672437  32.1378018  30.4960350
 111.4075483  30.7880452  30.6826836 118.4850791  21.8590864  34.8653455
 119.3503788  21.6633673  34.5059345 118.5528300  21.6301216  35.7922812
 121.3594382  33.4273406  29.8763210 120.8315744  32.6926165  29.5636448
 120.8581885  34.2048082  29.6303179 116.0913110  24.0893072  32.2369822
 116.6656862  23.8668253  31.5043015 116.6784092  24.1581766  32.9898423
 111.2523386  29.0671725  31.3837376 111.0547786  28.4741086  30.6588442
 110.6970050  28.7623935  32.1013315 119.2320110  28.9594831  33.5031969
 119.2868720  28.0068668  33.4274446 118.4211312  29.1154270  33.9873267
 117.1712470  27.5771891  31.2622348 116.3580336  27.8766062  31.6687540
 117.6671464  27.1827580  31.9796830 119.3221048  37.5729648  33.1956612
 119.2797227  37.7990494  32.2665145 120.2383747  37.3393023  33.3442414
 116.6626545  25.1490247  36.8783583 117.3025924  25.0079006  36.1806546
 115.8304075  24.8624760  36.5022185 117.4386849  34.4492677  32.9918575
 118.2327447  33.9542997  32.7901150 116.7278541  33.9210540  32.6286281
 113.7469612  28.5935759  29.0678328 112.8167200  28.5320214  29.2848290
 113.8427084  28.0711712  28.2714969 113.6655161  25.1190572  31.6556570
 113.9261978  26.0335905  31.5465730 114.4872334  24.6515014  31.8053182
 115.1380087  26.5328329  38.8255394 115.8103140  26.3245691  38.1768043
 114.3109873  26.3350415  38.3860626 120.0158125  35.0221699  36.6716412
 119.8769210  34.6540483  37.5442350 119.2272721  35.5369338  36.5000370
 120.6106277  40.1230795  28.0141949 120.7858032  39.6518839  28.8287572
 119.9239065  40.7496562  28.2423210 121.5663340  34.4003302  34.0605250
 121.2313172  34.3604072  34.9562900 121.0667285  33.7348018  33.5875660
 115.5407584  29.8070932  39.5857831 115.4027382  29.0751171  40.1869370
 116.4512507  29.7179832  39.3042019 118.1689884  29.5190891  39.0741511
 118.8789503  28.8784083  39.0328129 118.1259193  29.7703786  39.9967692
 116.8818818  26.5056109  40.8937150 116.3456175  26.0546847  41.5458747
 116.2935527  26.6402018  40.1507615 115.1767362  43.2720158  34.7881809
 115.4163960  43.9038682  35.4660828 114.3336558  42.9208198  35.0747168
 107.8123218  30.7521920  33.5505121 108.4994257  30.4383650  32.9626136
 107.6571346  31.6563285  33.2772373 112.6157940  25.6412117  37.9790145
 112.5316128  25.0337786  37.2440555 111.7940646  26.1321135  37.9799641
 119.6895224  39.0799281  37.1923313 119.6165395  39.8854252  37.7042618
 119.2472617  39.2791247  36.3671334 119.4785003  38.3171051  30.7026135
 118.6952525  38.8592731  30.7964359 120.1777749  38.8345030  31.1020376
 119.3716622  26.2683063  33.0732025 119.0014410  25.7154104  33.7612930
 119.8675715  25.6641197  32.5207025 117.2005821  36.7280558  40.1687042
 117.9015280  37.3617041  40.3216437 116.7300936  37.0695290  39.4082682
 112.7973539  36.2616913  37.1018145 113.3826976  35.5160601  37.2346049
 112.5998377  36.5720870  37.9854809 115.6512194  39.2968161  32.1180588
 114.9822569  39.7814288  31.6344628 115.5125064  39.5437381  33.0323966
 107.3891194  28.8322513  35.8222588 107.4275293  28.2986104  36.6159706
 106.8831486  28.3057719  35.2033565 119.7917463  41.3311904  38.7163246
 120.3435771  41.4943526  39.4812331 120.1323656  41.9216342  38.0443271
 114.7681956  23.6787054  39.3185131 114.8323282  24.5401885  38.9062528
 114.7049076  23.0661056  38.5857489 114.2434228  25.7510187  42.9658165
 114.8706267  25.3687264  43.5795689 113.3862147  25.5324388  43.3313857
 111.0199771  27.5586616  28.8976520 111.3153212  26.6497294  28.8443573
 110.1187807  27.5374355  28.5757522 114.5494018  25.6342612  34.8804068
 113.8280604  26.2478580  34.7411542 115.3387274  26.1700377  34.8020714
 117.3520332  22.9697039  41.1544720 117.8754734  23.2159335  41.9171029
 117.1332665  23.8017074  40.7347857 112.7487613  25.2400713  29.0215845
 112.4200319  24.3598092  28.8390951 113.1026983  25.1848382  29.9092234
 115.8629436  25.5273683  29.3891323 116.2025508  26.0559604  28.6669931
 116.3101556  25.8654089  30.1649889 118.5572877  23.9110734  38.8394391
 118.2169697  23.1118547  39.2415070 117.8511883  24.2112445  38.2671224
 119.2089349  20.9960046  37.2921714 120.0315418  20.5220524  37.1700604
 119.4527412  21.7750530  37.7920400 116.7327927  27.6879167  35.1013692
 116.5872508  28.0019470  35.9937974 116.2553131  28.3064067  34.5484591
 118.5924310  24.6781715  35.1494582 118.5785879  23.7822808  34.8126880
 119.3096738  24.6852379  35.7832868 120.4450441  25.1119055  37.1947709
 120.1868219  26.0336126  37.1932040 119.9135481  24.7149490  37.8848173
 111.2073590  30.2284511  38.0401353 110.6627058  31.0044319  38.1721628
 112.0852939  30.5755316  37.8820475 111.9939611  29.3554408  40.9331510
 111.2521347  29.5037043  41.5196141 111.6732356  29.6162673  40.0698260
 119.9383274  38.8970386  40.7311900 120.2470400  38.6519533  41.6034600
 120.7358756  39.1017024  40.2430770 119.9603886  41.0508295  32.9617277
 119.5208876  40.5584674  33.6550134 120.7112003  40.5081263  32.7209352
 112.4396225  37.2419836  32.9641905 113.2654245  36.9423608  32.5840548
 112.0890277  36.4727459  33.4131694 117.4077758  36.5946304  35.0339578
 116.7857768  35.9317009  34.7341806 118.0782625  36.6207436  34.3513226
 110.6404830  35.1606163  33.9230838 109.8036738  34.7328337  33.7414840
 110.6128476  35.3538606  34.8601630 117.4802286  25.0728092  44.6272085
 117.5290441  25.9490215  44.2449854 118.0224800  24.5305486  44.0543728
 116.9691265  35.1450228  28.5098039 117.1179386  35.8285692  27.8564712
 117.7757709  35.1255318  29.0247495 119.7101574  25.8259465  41.3818443
 118.8404884  26.1193031  41.1101032 119.9461055  26.4099910  42.1025707
 114.7243898  31.1715405  29.5159108 114.4789940  30.2677735  29.7139318
 114.8939813  31.1732556  28.5738586 113.9939546  26.9043763  27.0145269
 113.3008791  26.9788118  26.3585305 113.7491298  26.1404107  27.5366786
 120.4686671  37.6398358  25.9809786 119.8960638  38.2588545  25.5280258
 121.0419464  38.1897720  26.5149708 109.9554327  28.2215511  33.7079771
 109.6357111  27.3680819  33.4154145 109.4087755  28.4364089  34.4637738
 113.7334234  30.9377952  37.4249277 113.9520244  31.8695060  37.4437311
 114.1460008  30.5785926  38.2104081 118.6062100  26.5111158  46.8152026
 118.5058826  27.4605515  46.7464117 118.3883642  26.1829396  45.9428096
 109.8242587  31.8418422  35.6772892 109.1306058  31.4272375  35.1642847
 110.5715578  31.8838959  35.0806311 118.4693370  29.9408296  45.6317088
 117.9860451  30.7408657  45.8380977 118.5554309  29.9516241  44.6784532
 111.7379329  31.7736676  33.5538907 111.7150017  31.8724363  32.6020790
 112.0479966  32.6201827  33.8756073 114.3966707  33.8312831  37.6685521
 115.3509961  33.7996773  37.6015453 114.1979231  33.3703455  38.4835747
 114.9866089  32.4013947  40.2356319 115.8058978  32.8958026  40.2591156
 115.2602897  31.4845915  40.2073887 112.7516936  39.3732451  34.6855719
 112.6171404  38.6132851  34.1193717 112.3348998  40.0973350  34.2184508
 115.9086062  40.2701768  34.8974162 115.7918446  41.2147200  34.7952852
 115.0878508  39.9675329  35.2859961 110.2401003  26.7352081  40.9348516
 110.8859867  26.2251035  41.4235741 110.0318155  27.4720763  41.5091941
 116.9340576  40.9230030  38.1130090 117.8367823  40.9553640  38.4296585
 116.7077946  39.9930480  38.1276426 118.6894178  39.6761016  34.7740169
 117.7389809  39.6762878  34.6604541 118.9926664  38.9293751  34.2576204
 114.5798494  23.8819698  45.0323530 115.4429956  23.5256503  45.2426855
 114.0063905  23.5433593  45.7198935 118.6516972  46.0813838  33.5505121
 119.3388012  45.7675568  32.9626136 118.4965101  46.9855202  33.2772373
 118.2284948  44.1614431  35.8222588 118.2669048  43.6278022  36.6159706
 117.7225241  43.6349637  35.2033565 121.4798585  50.4898080  33.9230838
 120.6430493  50.0620255  33.7414840 121.4522230  50.6830524  34.8601630
 120.7948081  43.5507428  33.7079771 120.4750866  42.6972737  33.4154145
 120.2481509  43.7656007  34.4637738 120.6636341  47.1710340  35.6772892
 119.9699813  46.7564293  35.1642847 121.4109332  47.2130876  35.0806311
   3.1783755  55.2843046 105.4523027   2.5045453  55.5874743 106.0607985
   3.5649577  56.0872126 105.1028484   7.1440495  52.8628530 106.7262850
   7.8391400  53.4835222 106.9450165   7.4863645  52.0123881 107.0015228
   1.2355364  52.9690281 105.6337944   0.6629331  53.5880468 105.1808415
   1.8088157  53.5189643 106.1677865   4.4552624  53.2527431 106.7646526
   5.3883297  53.1872993 106.9679401   4.3675836  54.0883698 106.3061058
   7.0840640  52.5693302 103.7250473   7.0054272  52.2353165 104.6186231
   7.9050307  53.0615070 103.7241946   4.6544592  49.8861297 103.3460452
   5.3580442  50.0911300 103.9618107   3.9307241  50.4538059 103.6109535
   6.5631289  50.3243826 105.3958912   7.3976893  49.8925025 105.2136387
   6.4015632  50.1525840 106.3235806  15.1915564  60.8413477 115.4914089
  15.8293974  60.7220225 114.7877429  15.0736407  61.7894321 115.5502041
   7.8592086  62.6476382 111.4172504   7.2956952  62.5566319 110.6488792
   7.7444481  61.8276286 111.8974997  13.4391645  66.3147350 106.7286969
  12.7879625  66.9001430 106.3420983  14.2336008  66.8453545 106.7882007
   7.3647272  63.4036487 107.1274103   8.1378148  62.8565474 106.9886979
   7.7172671  64.2680736 107.3388565   9.7013550  59.5629153 104.7592553
   9.9539071  59.0410674 103.9976016   8.7638109  59.3995298 104.8619237
  14.7456833  58.5664931 112.5667297  15.5319922  58.1484354 112.2157714
  15.0095537  59.4711023 112.7348945  14.9166910  64.0037782 107.2655953
  14.2812743  64.0772408 107.9776858  14.5864317  64.5931380 106.5875033
  20.1465260  58.5040165 113.4700275  20.8790432  57.9339381 113.7038105
  19.3904616  58.1161765 113.9106781   9.4209839  61.4657259 106.9616928
   9.3046097  60.7902162 107.6298013   9.5312099  60.9789633 106.1449081
  11.7641380  60.9267406 110.6663618  11.3999587  60.3998027 111.3776539
  12.6208496  60.5365875 110.4930103  11.4046867  55.9557306 105.6624966
  11.5721269  56.8237542 106.0295437  11.2144036  56.1184587 104.7386255
  11.3836088  58.4114963 106.6471633  11.2635713  58.8572014 107.4857113
  10.6888676  58.7600281 106.0885171   9.1442980  71.1818605 110.2961764
   9.0667009  72.1326430 110.3750245   8.5404623  70.8364477 110.9536690
  17.0821154  58.8836436 107.4751967  17.9939010  59.1163823 107.2999664
  16.5730801  59.4673481 106.9127046  15.6890736  63.8662255 114.8665548
  15.0599599  64.0307969 114.1641616  15.3016398  64.2803864 115.6376512
  19.5679968  64.8016693 112.2209912  18.8831006  65.1815594 111.6706945
  19.6523817  65.4112019 112.9541860  11.2418698  63.6036663 112.1315633
  11.7057044  63.8824366 111.3420256  10.9775496  62.7020107 111.9488724
  10.1787584  59.7259815 108.9405199  10.8811627  60.1780859 109.4079125
   9.8468213  59.0843634 109.5685092  17.9376728  65.3248607 116.9927613
  18.7594171  64.9228794 116.7110295  17.9339130  65.2216841 117.9443729
  26.0282721  61.6687356 113.3412584  25.2746429  61.0994754 113.1856589
  26.1630262  61.6350020 114.2883219  11.4181349  66.5400758 109.0167304
  11.2827023  67.3852294 109.4452152  11.9591161  66.7420036 108.2533238
   4.8710746  64.0576196 109.5895229   5.3835267  64.8519446 109.7400794
   5.5233459  63.3602486 109.5228830   6.6805631  67.1741952 111.6717982
   6.8572259  68.0959917 111.4838966   7.4762464  66.8600371 112.1012362
   2.8359663  62.3864850 110.3654799   3.6734885  62.7961859 110.1488507
   3.0137931  61.4464292 110.3354993  14.7324095  60.0539931 106.0538632
  14.2170718  60.8244536 106.2927020  14.4601403  59.3805067 106.6771694
  12.3171206  54.8989632 111.1123871  11.4612802  54.5096482 110.9329509
  12.7298158  54.9781592 110.2523656  19.7058369  62.8072286 107.9891806
  18.9287812  62.4683445 107.5446968  20.3849850  62.8124909 107.3146771
  14.5210398  57.9267023 107.8798414  14.2160534  58.2413172 108.7308557
  15.4740840  58.0048443 107.9225747  12.9656830  64.0857246 109.5291368
  12.4378192  63.3510006 109.2164605  12.4644333  64.8631923 109.2831336
  17.9449676  62.2806267 114.6458414  17.2873350  62.9705528 114.7338542
  18.7490075  62.6702699 114.9892400  16.7555135  60.6350639 112.6962356
  17.2687017  61.2680631 113.1984065  17.4056359  60.0351835 112.3305716
   8.0245145  56.7781374 105.9093864   7.1882457  57.1156060 106.2303139
   7.8849914  56.6430353 104.9721001  11.1109430  61.9037457 102.5326341
  10.2036492  61.6726710 102.7317490  11.6080462  61.1075076 102.7200322
  14.0177509  70.6134964 105.4523027  13.3439208  70.9166661 106.0607985
  14.4043331  71.4164044 105.1028484  14.0171013  59.5091511 110.0723376
  14.7642832  60.0212908 109.7630498  14.2862603  59.1875563 110.9327770
  12.2897664  62.0050051 107.0550331  11.3808883  61.7209084 107.1522800
  12.3192747  62.4249130 106.1953638  17.5216931  65.6156641 110.8241498
  17.0679258  64.7747551 110.8806689  16.8910898  66.2518039 111.1616278
  16.4649851  56.5448627 112.0542166  15.7272607  56.0326013 112.3852408
  16.7176624  56.1049009 111.2425443  15.9649870  67.4533138 111.7591316
  16.2572845  68.0138195 111.0403682  16.4748491  67.7461699 112.5144475
  10.8382558  59.6178672 113.1560126  10.8931167  58.6652508 113.0802603
  10.0273760  59.7738111 113.6401424  11.9873751  63.5458795 104.3938409
  11.5493181  62.8294654 103.9344047  12.7284192  63.7734910 103.8323501
   8.7774918  58.2355732 110.9150505   7.9642783  58.5349902 111.3215697
   9.2733912  57.8411421 111.6324987  10.9283495  68.2313489 112.8484770
  10.8859674  68.4574335 111.9193302  11.8446194  67.9976863 112.9970571
  20.1046866  61.8215992 110.4514728  19.9664765  62.0117588 109.5235917
  19.7483085  62.5835375 110.9082779  20.1316246  63.8892519 115.4625999
  20.5652752  63.7967808 116.3109053  20.8447826  63.8650020 114.8246015
   9.0449296  65.1076518 112.6446732   9.8389895  64.6126838 112.4429307
   8.3340989  64.5794381 112.2814438   5.3532060  59.2519599 108.7206485
   4.4229648  59.1904055 108.9376447   5.4489532  58.7295552 107.9243126
  20.9931795  63.9316220 117.9958885  21.1867685  64.8362030 118.2418160
  20.8932414  63.4723639 118.8297470  12.2168724  70.7814636 107.6670106
  12.3920480  70.3102679 108.4815729  11.5301512  71.4080402 107.8951367
  13.1725787  65.0587142 113.7133407  12.8375620  65.0187912 114.6091057
  12.6729733  64.3931858 113.2403817  16.1084979  62.4043177 103.9870467
  15.4914150  61.6790005 103.8903520  15.6401467  63.1652537 103.6437541
   7.8983525  56.6228601 103.1091771   7.0212991  56.5017402 102.7454018
   8.3741278  55.8314679 102.8570660  11.0847451  68.9754891 110.3554292
  10.3014973  69.5176572 110.4492516  11.7840196  69.4928871 110.7548533
  22.2473858  60.4889886 114.6406789  22.2363735  61.3714602 114.2700722
  21.3791238  60.1361437 114.4461326  15.4773882  63.5421208 110.5726920
  14.5430160  63.6622671 110.4031625  15.6550550  62.6393675 110.3086930
  18.8646433  59.3838527 111.1076955  19.3306885  60.2166519 111.0337257
  19.3153934  58.9183509 111.8122213  16.9322664  65.7282349 108.1063107
  17.2082508  65.6138943 109.0156981  16.0627163  65.3299834 108.0675280
  13.5676728  69.9768700 111.7495920  13.7499123  69.1590355 112.2123673
  14.3909714  70.1936392 111.3120810  13.9018894  68.9036885 109.0110969
  14.4306660  68.3929339 108.3981131  14.1647113  68.5879415 109.8756502
   2.6262219  58.2170456 108.5504677   2.9215660  57.3081135 108.4971730
   1.7250255  58.1958196 108.2285679  14.5348298  69.9377720 115.3555085
  14.4099437  69.1367460 114.8466031  15.1927389  70.4323914 114.8669055
  16.5983206  67.7386740 116.9834635  15.6513541  67.6192092 116.9112962
  16.9465979  66.8509239 117.0660897  13.6029639  67.5339457 113.1838987
  13.4554602  66.6056164 113.3646558  14.4283133  67.5559547 112.6996063
   7.4691884  56.1857524 109.0419480   7.8087956  56.7143445 108.3198088
   7.9164004  56.5237930 109.8178046  17.2063761  68.3568015 114.2703860
  18.1310309  68.1510877 114.1328311  17.0379064  68.1084417 115.1793202
   9.4560031  54.6832145 107.2412772  10.1768393  55.0613398 106.7376489
   8.8325335  55.4021022 107.3447750  13.5991154  55.3877294 108.1771105
  13.8154768  56.2701932 107.8759933  13.1185221  54.9963508 107.4476747
  16.9959077  68.8753683 109.6265952  17.1695955  68.3100105 108.8739804
  17.4887969  69.6754578 109.4445442  22.8498468  61.6390106 111.2456251
  23.2929614  60.8897431 110.8475375  21.9724979  61.6300242 110.8629983
  17.9834250  68.1920447 106.7262850  18.6785154  68.8127140 106.9450165
  18.3257400  67.3415798 107.0015228  19.8825673  65.6420153 108.2550181
  20.4076997  65.9807426 107.5299501  19.7948025  64.7067168 108.0713315
   8.5753713  65.8034069 108.1626196   8.7241833  66.4869533 107.5092869
   9.3820156  65.7839159 108.6775652  22.3931333  63.1095344 113.6378699
  23.2278225  63.5485148 113.8016259  22.5290462  62.6333997 112.8186945
   6.3306346  61.8299246 109.1687265   6.0852388  60.9261576 109.3667475
   6.5002260  61.8316397 108.2266743   5.6001993  57.5627604 106.6673426
   4.9071238  57.6371959 106.0113462   5.3553745  56.7987947 107.1894943
  12.0749118  68.2982199 105.6337944  11.5023085  68.9172386 105.1808415
  12.6481912  68.8481561 106.1677865  15.2946378  68.5819349 106.7646526
  16.2277051  68.5164911 106.9679401  15.2069591  69.4175616 106.3061058
  17.9234395  67.8985219 103.7250473  17.8448026  67.5645083 104.6186231
  18.7444061  68.3906987 103.7241946  20.6212586  60.7646959 116.9326792
  20.5888906  59.8262959 117.1186476  21.2313210  60.8430995 116.1992617
  12.4595917  59.6343012 102.9753996  13.4055021  59.5049220 103.0442414
  12.0810162  58.8957674 103.4523424  26.4389136  61.8262966 116.0732829
  27.1692524  61.5648254 116.6340532  25.8296081  61.0891688 116.1134897
  24.5204433  59.9670828 116.6707280  23.7937596  59.8326793 116.0623772
  24.1051720  60.2747657 117.4763998  10.6438834  57.5592988 102.9108881
   9.7370289  57.2626101 102.9871595  10.9214815  57.2622806 102.0443167
  12.2600900  52.1029878 109.0653123  11.4501628  51.7576963 109.4408369
  12.9485317  51.7937422 109.6540734   9.4137618  54.4179923 103.0520860
  10.2756782  54.7434822 103.3116678   9.5987963  53.6311419 102.5393926
  17.5670255  53.2908450 110.1956083  16.9868924  53.9493254 109.8134136
  17.3006188  52.4685794 109.7843501  16.3495133  55.4508540 109.2512432
  15.4620988  55.7358191 109.0332626  16.7649122  55.2902304 108.4039709
  19.7009669  55.4755061 112.9666771  20.4770059  55.9651514 113.2391388
  18.9757803  55.9013115 113.4238640  22.1382228  56.1882680 114.0240712
  22.7326719  55.9478416 113.3134020  22.2108811  55.4689811 114.6514248
  15.4938346  65.2153215 103.3460452  16.1974197  65.4203217 103.9618107
  14.7700995  65.7829977 103.6109535  16.3236157  60.9663076 109.4662722
  16.2671358  61.4231628 108.6270354  16.8764499  60.2053761 109.2885565
  20.1340963  56.7552808 110.2912841  19.8777897  56.3549444 111.1221049
  19.5093831  57.4696602 110.1662981  24.4453300  59.4948881 112.7984133
  23.8852858  59.5642071 113.5715695  23.8396804  59.3189866 112.0783629
  17.4025044  65.6535744 105.3958912  18.2370648  65.2216943 105.2136387
  17.2409387  65.4817758 106.3235806  17.0570936  62.1567857 106.7615251
  17.0019740  61.9912129 105.8203695  16.4316991  62.8643890 106.9177441
  10.3667062  51.6575966 106.3400569  10.3545731  52.6017806 106.4968840
  11.2590483  51.4746112 106.0460031  26.0309319  76.1705395 115.4914089
  26.6687729  76.0512142 114.7877429  25.9130162  77.1186239 115.5502041
  22.8399025  76.1232823 115.4275613  22.5017537  76.0073888 114.5396148
  23.7088793  75.7223988 115.4076619  18.6985841  77.9768300 111.4172504
  18.1350706  77.8858237 110.6488792  18.5838236  77.1568204 111.8974997
  24.2785400  81.6439267 106.7286969  23.6273379  82.2293348 106.3420983
  25.0729762  82.1745462 106.7882007  18.2041027  78.7328405 107.1274103
  18.9771903  78.1857392 106.9886979  18.5566426  79.5972654 107.3388565
  20.9682276  77.4381635 116.9242362  21.5645848  77.2137658 116.2099325
  21.0257248  76.6966381 117.5267810  20.5407305  74.8921071 104.7592553
  20.7932825  74.3702592 103.9976016  19.6031864  74.7287216 104.8619237
  25.5850587  73.8956849 112.5667297  26.3713677  73.4776272 112.2157714
  25.8489292  74.8002941 112.7348945  25.7560665  79.3329699 107.2655953
  25.1206498  79.4064326 107.9776858  25.4258071  79.9223298 106.5875033
  30.9859015  73.8332082 113.4700275  31.7184187  73.2631299 113.7038105
  30.2298370  73.4453683 113.9106781  20.2603593  76.7949177 106.9616928
  20.1439851  76.1194080 107.6298013  20.3705853  76.3081551 106.1449081
  22.6035134  76.2559324 110.6663618  22.2393342  75.7289945 111.3776539
  23.4602250  75.8657793 110.4930103  28.5084435  67.5453656 117.9294884
  28.1767760  68.4149067 117.7056099  27.9130048  67.2289940 118.6088914
  22.2440621  71.2849223 105.6624966  22.4115024  72.1529460 106.0295437
  22.0537790  71.4476505 104.7386255  25.0015954  79.7466202 117.3290796
  24.7016678  80.6491241 117.2206604  24.6567014  79.4798385 118.1811949
  18.4528436  76.1979999 113.3627501  17.5278932  76.0656213 113.5705193
  18.7012849  76.9774218 113.8597443  28.4013098  72.2648742 115.0088234
  27.4929976  72.1964151 114.7146995  28.3500694  72.7420687 115.8370059
  22.2229842  73.7406881 106.6471633  22.1029467  74.1863932 107.4857113
  21.5282431  74.0892199 106.0885171  19.9836734  86.5110523 110.2961764
  19.9060764  87.4618348 110.3750245  19.3798378  86.1656395 110.9536690
  30.2674745  70.4665181 116.7866108  29.6249125  70.7597714 116.1405902
  29.7629673  70.3518101 117.5919304  27.9214908  74.2128354 107.4751967
  28.8332764  74.4455741 107.2999664  27.4124555  74.7965398 106.9127046
  22.5586746  73.5725589 118.4846816  23.4047941  73.9965002 118.6281465
  22.4985384  72.9159213 119.1785380  26.5284491  79.1954173 114.8665548
  25.8993353  79.3599887 114.1641616  26.1410153  79.6095782 115.6376512
  30.4073723  80.1308610 112.2209912  29.7224761  80.5107512 111.6706945
  30.4917572  80.7403937 112.9541860  25.7086191  71.2329957 120.1427990
  25.4647123  71.9872018 119.6062266  25.9846122  71.6115305 120.9775237
  27.6624654  77.7768569 118.8205256  27.8741549  78.4200329 118.1439637
  27.6154402  76.9430886 118.3527186  25.2650883  70.3886390 115.7241828
  24.4035362  70.6867644 116.0158565  25.2913318  70.6056789 114.7922860
  22.0812452  78.9328581 112.1315633  22.5450798  79.2116284 111.3420256
  21.8169251  78.0312025 111.9488724  18.9736534  78.4800062 115.0695397
  19.5437891  78.9087331 114.4312881  19.5644645  78.1982647 115.7679582
  21.0181339  75.0551733 108.9405199  21.7205382  75.5072777 109.4079125
  20.6861967  74.4135552 109.5685092  14.7606672  73.3135286 114.2422332
  13.9705726  73.5692814 113.7662443  15.2517920  74.1283623 114.3474373
  28.7770482  80.6540525 116.9927613  29.5987926  80.2520712 116.7110295
  28.7732885  80.5508759 117.9443729  16.7121418  73.6779865 111.2005809
  15.9152581  73.7898559 111.7189305  16.4847010  74.0166517 110.3346699
  36.8676475  76.9979273 113.3412584  36.1140183  76.4286671 113.1856589
  37.0024016  76.9641938 114.2883219  22.2575103  81.8692676 109.0167304
  22.1220778  82.7144211 109.4452152  22.7984916  82.0711953 108.2533238
  15.7104501  79.3868114 109.5895229  16.2229021  80.1811364 109.7400794
  16.3627213  78.6894404 109.5228830  17.5199385  82.5033870 111.6717982
  17.6966014  83.4251835 111.4838966  18.3156219  82.1892289 112.1012362
  25.6067567  65.3923237 117.5466197  25.2631836  66.2824879 117.4705308
  25.9746529  65.2024895 116.6835782  13.6753417  77.7156768 110.3654799
  14.5128639  78.1253776 110.1488507  13.8531685  76.7756210 110.3354993
  25.5717849  75.3831849 106.0538632  25.0564473  76.1536453 106.2927020
  25.2995158  74.7096985 106.6771694  23.1564960  70.2281549 111.1123871
  22.3006557  69.8388400 110.9329509  23.5691912  70.3073510 110.2523656
  24.6864107  67.7627893 115.5115431  24.1828903  67.7258028 114.6983236
  24.9794714  68.6720635 115.5712087  20.9306993  67.8466622 114.5181612
  21.7959990  67.6509431 114.1587502  20.9984502  67.6176974 115.4450969
  30.5452124  78.1364203 107.9891806  29.7681566  77.7975363 107.5446968
  31.2243605  78.1416826 107.3146771  25.3604153  73.2558941 107.8798414
  25.0554288  73.5705090 108.7308557  26.3134595  73.3340361 107.9225747
  23.8050584  79.4149164 109.5291368  23.2771946  78.6801924 109.2164605
  23.3038087  80.1923840 109.2831336  28.7843430  77.6098184 114.6458414
  28.1267105  78.2997446 114.7338542  29.5883830  77.9994616 114.9892400
  18.5369312  70.0768830 111.8897979  19.1113064  69.8544012 111.1571172
  19.1240295  70.1457525 112.6426580  27.5948889  75.9642557 112.6962356
  28.1080771  76.5972549 113.1984065  28.2450113  75.3643753 112.3305716
  18.8638899  72.1073291 105.9093864  18.0276211  72.4447978 106.2303139
  18.7243669  71.9722271 104.9721001  20.8391980  66.9510079 110.6173048
  20.1856392  66.6359096 109.9929663  20.7972454  66.3285820 111.3432871
  21.9503185  77.2329374 102.5326341  21.0430246  77.0018628 102.7317490
  22.4474217  76.4366994 102.7200322  24.8571264  85.9426881 105.4523027
  24.1832962  86.2458578 106.0607985  25.2437085  86.7455962 105.1028484
  24.0729720  73.4392013 114.9420696  23.1552282  73.6606960 114.7842384
  24.4889864  73.5138323 114.0832403  24.8564768  74.8383428 110.0723376
  25.6036587  75.3504826 109.7630498  25.1256357  74.5167481 110.9327770
  23.1291418  77.3341969 107.0550331  22.2202637  77.0501002 107.1522800
  23.1586502  77.7541048 106.1953638  28.3610685  80.9448559 110.8241498
  27.9073013  80.1039469 110.8806689  27.7304652  81.5809957 111.1616278
  27.3043605  71.8740545 112.0542166  26.5666362  71.3617931 112.3852408
  27.5570379  71.4340926 111.2425443  26.8043625  82.7825055 111.7591316
  27.0966599  83.3430112 111.0403682  27.3142245  83.0753616 112.5144475
  27.4055232  64.6516797 112.6483935  27.7114109  63.7914160 112.3609850
  28.1307837  65.2434417 112.4482929  13.6979588  75.0547483 111.0365533
  13.5003988  74.4616844 110.3116599  13.1426252  74.7499693 111.7541472
  21.6776312  74.9470590 113.1560126  21.7324922  73.9944426 113.0802603
  20.8667514  75.1030029 113.6401424  22.8267506  78.8750713 104.3938409
  22.3886936  78.1586572 103.9344047  23.5677947  79.1026828 103.8323501
  19.6168672  73.5647649 110.9150505  18.8036538  73.8641820 111.3215697
  20.1127666  73.1703338 111.6324987  21.7677250  83.5605406 112.8484770
  21.7253429  83.7866253 111.9193302  22.6839949  83.3268781 112.9970571
  25.2142884  74.0289474 119.7465399  25.5692271  74.2560947 120.6059865
  25.8615015  74.3607851 119.1242654  30.9440621  77.1507910 110.4514728
  30.8058519  77.3409506 109.5235917  30.5876839  77.9127293 110.9082779
  19.1082747  71.1366005 116.5311740  19.7482126  70.9954764 115.8334703
  18.2760277  70.8500518 116.1550342  30.9710000  79.2184437 115.4625999
  31.4046507  79.1259726 116.3109053  31.6841581  79.1941937 114.8246015
  19.8843051  80.4368435 112.6446732  20.6783649  79.9418756 112.4429307
  19.1734743  79.9086299 112.2814438  16.1925814  74.5811517 108.7206485
  15.2623402  74.5195973 108.9376447  16.2883286  74.0587470 107.9243126
  16.1111363  71.1066330 111.3084727  16.3718181  72.0211663 111.1993887
  16.9328536  70.6390773 111.4581339  31.8325550  79.2608137 117.9958885
  32.0261440  80.1653948 118.2418160  31.7326168  78.8015557 118.8297470
  23.4861861  69.1466028 120.4949212  22.8389776  69.8455978 120.4013688
  24.2562876  69.5802172 120.8625460  23.6625995  76.9846793 118.5546032
  24.5918055  77.1357953 118.3814999  23.2417025  77.0730814 117.6994678
  23.0562479  86.1106554 107.6670106  23.2314234  85.6394597 108.4815729
  22.3695267  86.7372320 107.8951367  24.0119542  80.3879060 113.7133407
  23.6769374  80.3479830 114.6091057  23.5123488  79.7223776 113.2403817
  26.9478733  77.7335094 103.9870467  26.3307904  77.0081923 103.8903520
  26.4795222  78.4944455 103.6437541  18.7377279  71.9520519 103.1091771
  17.8606746  71.8309320 102.7454018  19.2135032  71.1606597 102.8570660
  28.6050272  80.4073587 119.8790227  27.7177051  80.0699509 120.0016626
  29.1748823  79.6756618 120.1158992  21.9241205  84.3046809 110.3554292
  21.1408727  84.8468489 110.4492516  22.6233951  84.8220789 110.7548533
  25.2337856  70.1141439 112.9988497  25.7306555  69.3611401 112.6789567
  24.4624837  70.1505755 112.4331706  33.0867613  75.8181804 114.6406789
  33.0757489  76.7006520 114.2700722  32.2184992  75.4653355 114.4461326
  26.3167636  78.8713126 110.5726920  25.3823915  78.9914588 110.4031625
  26.4944305  77.9685593 110.3086930  21.8172824  72.2558822 112.7260182
  21.4470612  71.7029862 113.4141087  22.3131917  71.6516955 112.1735182
  29.7040188  74.7130445 111.1076955  30.1700640  75.5458437 111.0337257
  30.1547688  74.2475427 111.8122213  27.7716419  81.0574266 108.1063107
  28.0476263  80.9430861 109.0156981  26.9020917  80.6591751 108.0675280
  27.6756850  67.0811032 115.1467856  26.7619930  67.3115259 115.3150063
  28.1049952  67.1649476 115.9981888  27.4463309  75.2700924 117.6467750
  26.7934759  75.5176831 116.9920203  27.8243689  74.4565062 117.3130227
  24.4070483  85.3060617 111.7495920  24.5892877  84.4882273 112.2123673
  25.2303469  85.5228309 111.3120810  24.7412648  84.2328802 109.0110969
  25.2700415  83.7221257 108.3981131  25.0040868  83.9171333 109.8756502
  17.2138158  69.6662812 118.9713288  17.2779484  70.5277643 118.5590685
  17.1505278  69.0536814 118.2385646  13.4655973  73.5462374 108.5504677
  13.7609414  72.6373052 108.4971730  12.5644009  73.5250113 108.2285679
  25.3742052  85.2669638 115.3555085  25.2493191  84.4659378 114.8466031
  26.0321143  85.7615831 114.8669055  16.9950220  71.6218371 114.5332225
  16.2736806  72.2354338 114.3939699  17.7843476  72.1576135 114.4548871
  27.4376960  83.0678658 116.9834635  26.4907296  82.9484009 116.9112962
  27.7859734  82.1801156 117.0660897  19.7976534  68.9572797 120.8072877
  20.3210936  69.2035094 121.5699186  19.5788867  69.7892832 120.3876014
  15.1943815  71.2276472 108.6744002  14.8656521  70.3473851 108.4919108
  15.5483186  71.1724140 109.5620391  24.4423394  82.8631374 113.1838987
  24.2948356  81.9348082 113.3646558  25.2676887  82.8851465 112.6996063
  18.3085638  71.5149441 109.0419480  18.6481710  72.0435363 108.3198088
  18.7557758  71.8529848 109.8178046  28.0457516  83.6859933 114.2703860
  28.9704063  83.4802794 114.1328311  27.8772819  83.4376334 115.1793202
  21.0029079  69.8986492 118.4922548  20.6625899  69.0994305 118.8943228
  20.2968085  70.1988203 117.9199381  21.6545551  66.9835805 116.9449871
  22.4771620  66.5096283 116.8228761  21.8983614  67.7626288 117.4448557
  20.2953785  70.0124063 107.2412772  21.0162148  70.3905316 106.7376489
  19.6719089  70.7312940 107.3447750  24.4384908  70.7169212 108.1771105
  24.6548522  71.5993850 107.8759933  23.9578975  70.3255425 107.4476747
  19.1784129  73.6754925 114.7541849  19.0328710  73.9895228 115.6466131
  18.7009333  74.2939826 114.2012748  21.0380512  70.6657473 114.8022739
  21.0242081  69.7698567 114.4655037  21.7552940  70.6728137 115.4361025
  22.8906643  71.0994813 116.8475866  22.6324421  72.0211884 116.8460197
  22.3591683  70.7025248 117.5376330  27.8352832  84.2045601 109.6265952
  28.0089709  83.6392023 108.8739804  28.3281723  85.0046495 109.4445442
  20.4417408  69.5471853 110.0710309  20.5633319  68.6188500 110.2701196
  20.1519451  69.5610539 109.1588624  23.3108599  67.2326764 113.2077029
  23.3330295  67.2966097 112.2529008  23.7276658  66.3931273 113.4017535
  33.6892223  76.9682023 111.2456251  34.1323369  76.2189349 110.8475375
  32.8118733  76.9592160 110.8629983  28.8228004  83.5212365 106.7262850
  29.5178909  84.1419058 106.9450165  29.1651154  82.6707716 107.0015228
  30.7219427  80.9712070 108.2550181  31.2470751  81.3099343 107.5299501
  30.6341780  80.0359086 108.0713315  30.5311208  78.4537440 120.8734107
  30.5809213  78.2887448 121.8149630  30.4225132  77.5864700 120.4831988
  19.4147467  81.1325986 108.1626196  19.5635588  81.8161451 107.5092869
  20.2213911  81.1131076 108.6775652  27.8214971  74.4368369 122.1893414
  28.7224834  74.2974833 121.8977412  27.8962945  74.6022823 123.1291591
  22.1557776  71.8135223 121.0346600  21.2861086  72.1068789 120.7629189
  22.3917257  72.3975668 121.7553864  32.0329405  80.8734382 121.1176129
  31.7414214  81.2364363 121.9539590  31.4201537  80.1601390 120.9389461
  33.2325088  78.4387262 113.6378699  34.0671979  78.8777066 113.8016259
  33.3684216  77.9625915 112.8186945  30.2816594  75.9966997 119.5856187
  30.7570715  76.1894643 118.7775038  29.3582159  76.0526182 119.3399570
  17.1700100  77.1591164 109.1687265  16.9246142  76.2553494 109.3667475
  17.3396015  77.1608314 108.2266743  24.8596810  68.0314840 118.5512021
  25.3778754  68.7675867 118.2258509  24.5051943  68.3378833 119.3858780
  16.4395748  72.8919521 106.6673426  15.7464993  72.9663876 106.0113462
  16.1947500  72.1279865 107.1894943  25.1109404  64.4515123 114.0712917
  25.3911158  63.7838312 114.6973344  25.8960011  64.6444218 113.5587581
  22.9142873  83.6274117 105.6337944  22.3416840  84.2464304 105.1808415
  23.4875666  84.1773478 106.1677865  28.9818263  72.8732757 117.8184492
  29.9335685  72.9730854 117.8396716  28.8121713  72.0811025 118.3282577
  27.0032642  69.9588340 118.0043893  26.4082574  70.2393353 117.3090382
  26.7182339  70.4482241 118.7760634  26.1340132  83.9111267 106.7646526
  27.0670806  83.8456828 106.9679401  26.0463345  84.7467534 106.3061058
  28.7628149  83.2277137 103.7250473  28.6841781  82.8937001 104.6186231
  29.5837816  83.7198905 103.7241946  31.4606340  76.0938876 116.9326792
  31.4282660  75.1554877 117.1186476  32.0706964  76.1722913 116.1992617
  23.2989671  74.9634929 102.9753996  24.2448776  74.8341137 103.0442414
  22.9203916  74.2249591 103.4523424  31.6100829  72.8849920 116.9785075
  31.0939877  72.1008376 116.7915004  32.4940777  72.5568636 117.1431595
  29.2711556  66.6290935 112.9380888  29.0736377  66.3206024 113.8224220
  29.8811261  67.3552574 113.0678818  37.2782890  77.1554883 116.0732829
  38.0086279  76.8940171 116.6340532  36.6689836  76.4183605 116.1134897
  35.3598187  75.2962746 116.6707280  34.6331351  75.1618711 116.0623772
  34.9445474  75.6039574 117.4763998  21.4832588  72.8884906 102.9108881
  20.5764044  72.5918018 102.9871595  21.7608569  72.5914724 102.0443167
  23.0994654  67.4321795 109.0653123  22.2895382  67.0868880 109.4408369
  23.7879071  67.1229339 109.6540734  25.0285202  66.5099842 110.6877419
  25.5816241  66.9295296 111.3467442  25.2655289  65.5835590 110.7300375
  20.2531373  69.7471841 103.0520860  21.1150537  70.0726739 103.3116678
  20.4381717  68.9603337 102.5393926  28.4064009  68.6200367 110.1956083
  27.8262679  69.2785171 109.8134136  28.1399942  67.7977712 109.7843501
  26.8567576  68.0205425 112.3977404  27.3567354  68.1321960 111.5891723
  27.5003184  67.7166478 113.0378212  27.1888887  70.7800458 109.2512432
  26.3014742  71.0650108 109.0332626  27.6042877  70.6194221 108.4039709
  30.5403424  70.8046979 112.9666771  31.3163814  71.2943431 113.2391388
  29.8151558  71.2305033 113.4238640  32.9775982  71.5174598 114.0240712
  33.5720473  71.2770334 113.3134020  33.0502566  70.7981729 114.6514248
  26.3332101  80.5445132 103.3460452  27.0367951  80.7495135 103.9618107
  25.6094750  81.1121894 103.6109535  27.1629911  76.2954994 109.4662722
  27.1065113  76.7523545 108.6270354  27.7158254  75.5345678 109.2885565
  30.9734717  72.0844726 110.2912841  30.7171651  71.6841361 111.1221049
  30.3487585  72.7988520 110.1662981  35.2847055  74.8240799 112.7984133
  34.7246613  74.8933988 113.5715695  34.6790558  74.6481783 112.0783629
  28.2418798  80.9827662 105.3958912  29.0764402  80.5508860 105.2136387
  28.0803141  80.8109675 106.3235806  27.8964691  77.4859775 106.7615251
  27.8413494  77.3204046 105.8203695  27.2710746  78.1935808 106.9177441
  21.2060816  66.9867884 106.3400569  21.1939486  67.9309724 106.4968840
  22.0984238  66.8038029 106.0460031  25.0212935  63.5810661 110.5946506
  24.2545331  63.0269147 110.7403189  25.4323640  63.6532529 111.4560658
  36.8703073  91.4997313 115.4914089  37.5081483  91.3804060 114.7877429
  36.7523916  92.4478157 115.5502041  33.6792780  91.4524741 115.4275613
  33.3411291  91.3365806 114.5396148  34.5482548  91.0515906 115.4076619
  29.5379595  93.3060217 111.4172504  28.9744461  93.2150154 110.6488792
  29.4231990  92.4860122 111.8974997  35.1179154  96.9731185 106.7286969
  34.4667134  97.5585265 106.3420983  35.9123517  97.5037380 106.7882007
  29.0434781  94.0620322 107.1274103  29.8165657  93.5149309 106.9886979
  29.3960180  94.9264572 107.3388565  31.8076031  92.7673553 116.9242362
  32.4039603  92.5429575 116.2099325  31.8651002  92.0258298 117.5267810
  31.3801059  90.2212988 104.7592553  31.6326580  89.6994510 103.9976016
  30.4425618  90.0579134 104.8619237  36.4244342  89.2248767 112.5667297
  37.2107431  88.8068190 112.2157714  36.6883046  90.1294859 112.7348945
  36.5954419  94.6621617 107.2655953  35.9600252  94.7356243 107.9776858
  36.2651826  95.2515216 106.5875033  41.8252769  89.1624000 113.4700275
  42.5577941  88.5923217 113.7038105  41.0692125  88.7745600 113.9106781
  31.0997348  92.1241094 106.9616928  30.9833606  91.4485998 107.6298013
  31.2099608  91.6373468 106.1449081  33.4428889  91.5851241 110.6663618
  33.0787096  91.0581862 111.3776539  34.2996005  91.1949710 110.4930103
  39.3478189  82.8745574 117.9294884  39.0161514  83.7440985 117.7056099
  38.7523803  82.5581858 118.6088914  33.0834376  86.6141141 105.6624966
  33.2508778  87.4821377 106.0295437  32.8931545  86.7768423 104.7386255
  35.8409709  95.0758120 117.3290796  35.5410432  95.9783159 117.2206604
  35.4960768  94.8090303 118.1811949  29.2922190  91.5271917 113.3627501
  28.3672687  91.3948131 113.5705193  29.5406604  92.3066136 113.8597443
  39.2406853  87.5940660 115.0088234  38.3323730  87.5256069 114.7146995
  39.1894449  88.0712605 115.8370059  33.0623597  89.0698799 106.6471633
  32.9423222  89.5155849 107.4857113  32.3676185  89.4184116 106.0885171
  30.8230489 101.8402440 110.2961764  30.7454518 102.7910265 110.3750245
  30.2192132 101.4948313 110.9536690  41.1068499  85.7957099 116.7866108
  40.4642879  86.0889632 116.1405902  40.6023428  85.6810019 117.5919304
  38.7608663  89.5420272 107.4751967  39.6726519  89.7747658 107.2999664
  38.2518310  90.1257316 106.9127046  33.3980500  88.9017506 118.4846816
  34.2441696  89.3256920 118.6281465  33.3379138  88.2451131 119.1785380
  37.3678245  94.5246090 114.8665548  36.7387108  94.6891804 114.1641616
  36.9803907  94.9387700 115.6376512  41.2467477  95.4600528 112.2209912
  40.5618515  95.8399429 111.6706945  41.3311326  96.0695855 112.9541860
  36.5479946  86.5621875 120.1427990  36.3040878  87.3163935 119.6062266
  36.8239876  86.9407222 120.9775237  38.5018409  93.1060487 118.8205256
  38.7135304  93.7492247 118.1439637  38.4548157  92.2722804 118.3527186
  36.1044638  85.7178308 115.7241828  35.2429117  86.0159561 116.0158565
  36.1307072  85.9348707 114.7922860  32.9206207  94.2620498 112.1315633
  33.3844553  94.5408201 111.3420256  32.6563005  93.3603943 111.9488724
  29.8130288  93.8091980 115.0695397  30.3831645  94.2379248 114.4312881
  30.4038400  93.5274565 115.7679582  31.8575093  90.3843651 108.9405199
  32.5599136  90.8364694 109.4079125  31.5255722  89.7427470 109.5685092
  25.6000427  88.6427203 114.2422332  24.8099481  88.8984732 113.7662443
  26.0911674  89.4575541 114.3474373  39.6164237  95.9832442 116.9927613
  40.4381680  95.5812630 116.7110295  39.6126639  95.8800677 117.9443729
  27.5515172  89.0071783 111.2005809  26.7546336  89.1190477 111.7189305
  27.3240765  89.3458435 110.3346699  47.7070230  92.3271191 113.3412584
  46.9533938  91.7578589 113.1856589  47.8417771  92.2933855 114.2883219
  33.0968858  97.1984593 109.0167304  32.9614532  98.0436129 109.4452152
  33.6378670  97.4003871 108.2533238  26.5498255  94.7160031 109.5895229
  27.0622776  95.5103282 109.7400794  27.2020968  94.0186322 109.5228830
  28.3593140  97.8325788 111.6717982  28.5359768  98.7543752 111.4838966
  29.1549973  97.5184207 112.1012362  36.4461321  80.7215155 117.5466197
  36.1025591  81.6116797 117.4705308  36.8140284  80.5316813 116.6835782
  24.5147172  93.0448686 110.3654799  25.3522394  93.4545694 110.1488507
  24.6925440  92.1048128 110.3354993  36.4111604  90.7123766 106.0538632
  35.8958227  91.4828371 106.2927020  36.1388912  90.0388902 106.6771694
  33.9958715  85.5573467 111.1123871  33.1400311  85.1680317 110.9329509
  34.4085667  85.6365428 110.2523656  35.5257862  83.0919810 115.5115431
  35.0222657  83.0549945 114.6983236  35.8188468  84.0012553 115.5712087
  31.7700747  83.1758540 114.5181612  32.6353744  82.9801349 114.1587502
  31.8378256  82.9468892 115.4450969  41.3845878  93.4656121 107.9891806
  40.6075321  93.1267280 107.5446968  42.0637359  93.4708744 107.3146771
  36.1997907  88.5850858 107.8798414  35.8948043  88.8997008 108.7308557
  37.1528349  88.6632278 107.9225747  34.6444339  94.7441082 109.5291368
  34.1165701  94.0093841 109.2164605  34.1431842  95.5215758 109.2831336
  39.6237185  92.9390102 114.6458414  38.9660859  93.6289364 114.7338542
  40.4277584  93.3286534 114.9892400  29.3763067  85.4060748 111.8897979
  29.9506818  85.1835929 111.1571172  29.9634049  85.4749442 112.6426580
  38.4342644  91.2934475 112.6962356  38.9474526  91.9264467 113.1984065
  39.0843868  90.6935670 112.3305716  29.7032654  87.4365209 105.9093864
  28.8669966  87.7739896 106.2303139  29.5637423  87.3014189 104.9721001
  31.6785734  82.2801997 110.6173048  31.0250147  81.9651014 109.9929663
  31.6366208  81.6577737 111.3432871  32.7896939  92.5621292 102.5326341
  31.8824001  92.3310545 102.7317490  33.2867971  91.7658911 102.7200322
  35.6965018 101.2718799 105.4523027  35.0226717 101.5750496 106.0607985
  36.0830840 102.0747879 105.1028484  34.9123475  88.7683930 114.9420696
  33.9946036  88.9898877 114.7842384  35.3283618  88.8430241 114.0832403
  35.6958522  90.1675346 110.0723376  36.4430341  90.6796743 109.7630498
  35.9650112  89.8459399 110.9327770  33.9685173  92.6633887 107.0550331
  33.0596392  92.3792920 107.1522800  33.9980256  93.0832965 106.1953638
  39.2004440  96.2740476 110.8241498  38.7466767  95.4331386 110.8806689
  38.5698407  96.9101875 111.1616278  38.1437360  87.2032462 112.0542166
  37.4060116  86.6909849 112.3852408  38.3964133  86.7632844 111.2425443
  37.6437379  98.1116973 111.7591316  37.9360354  98.6722030 111.0403682
  38.1536000  98.4045534 112.5144475  38.2448987  79.9808714 112.6483935
  38.5507864  79.1206078 112.3609850  38.9701592  80.5726335 112.4482929
  24.5373343  90.3839401 111.0365533  24.3397743  89.7908762 110.3116599
  23.9820007  90.0791611 111.7541472  32.5170067  90.2762507 113.1560126
  32.5718676  89.3236344 113.0802603  31.7061269  90.4321946 113.6401424
  33.6661260  94.2042630 104.3938409  33.2280690  93.4878489 103.9344047
  34.4071701  94.4318745 103.8323501  30.4562427  88.8939567 110.9150505
  29.6430292  89.1933738 111.3215697  30.9521421  88.4995256 111.6324987
  32.6071004  98.8897324 112.8484770  32.5647183  99.1158170 111.9193302
  33.5233703  98.6560699 112.9970571  36.0536638  89.3581392 119.7465399
  36.4086026  89.5852865 120.6059865  36.7008769  89.6899768 119.1242654
  41.7834375  92.4799828 110.4514728  41.6452274  92.6701423 109.5235917
  41.4270594  93.2419210 110.9082779  29.9476501  86.4657923 116.5311740
  30.5875881  86.3246682 115.8334703  29.1154032  86.1792436 116.1550342
  41.8103755  94.5476355 115.4625999  42.2440261  94.4551644 116.3109053
  42.5235335  94.5233855 114.8246015  30.7236805  95.7660353 112.6446732
  31.5177404  95.2710673 112.4429307  30.0128498  95.2378216 112.2814438
  27.0319569  89.9103435 108.7206485  26.1017157  89.8487890 108.9376447
  27.1277041  89.3879388 107.9243126  26.9505118  86.4358248 111.3084727
  27.2111935  87.3503581 111.1993887  27.7722290  85.9682690 111.4581339
  42.6719304  94.5900055 117.9958885  42.8655194  95.4945866 118.2418160
  42.5719922  94.1307474 118.8297470  34.3255615  84.4757946 120.4949212
  33.6783530  85.1747895 120.4013688  35.0956630  84.9094090 120.8625460
  34.5019749  92.3138711 118.5546032  35.4311809  92.4649870 118.3814999
  34.0810779  92.4022731 117.6994678  33.8956233 101.4398472 107.6670106
  34.0707989 100.9686515 108.4815729  33.2089021 102.0664238 107.8951367
  34.8513296  95.7170978 113.7133407  34.5163129  95.6771748 114.6091057
  34.3517242  95.0515694 113.2403817  37.7872488  93.0627012 103.9870467
  37.1701659  92.3373840 103.8903520  37.3188976  93.8236372 103.6437541
  29.5771034  87.2812436 103.1091771  28.7000500  87.1601237 102.7454018
  30.0528787  86.4898515 102.8570660  39.4444027  95.7365504 119.8790227
  38.5570806  95.3991426 120.0016626  40.0142578  95.0048536 120.1158992
  32.7634960  99.6338727 110.3554292  31.9802482 100.1760407 110.4492516
  33.4627705 100.1512706 110.7548533  36.0731610  85.4433356 112.9988497
  36.5700310  84.6903319 112.6789567  35.3018592  85.4797673 112.4331706
  43.9261367  91.1473722 114.6406789  43.9151244  92.0298437 114.2700722
  43.0578747  90.7945273 114.4461326  37.1561391  94.2005043 110.5726920
  36.2217669  94.3206506 110.4031625  37.3338059  93.2977510 110.3086930
  32.6566579  87.5850739 112.7260182  32.2864366  87.0321780 113.4141087
  33.1525671  86.9808873 112.1735182  40.5433942  90.0422363 111.1076955
  41.0094394  90.8750354 111.0337257  40.9941443  89.5767344 111.8122213
  38.6110173  96.3866184 108.1063107  38.8870017  96.2722779 109.0156981
  37.7414672  95.9883669 108.0675280  38.5150605  82.4102950 115.1467856
  37.6013685  82.6407177 115.3150063  38.9443706  82.4941394 115.9981888
  38.2857063  90.5992842 117.6467750  37.6328514  90.8468749 116.9920203
  38.6637443  89.7856980 117.3130227  35.2464237 100.6352535 111.7495920
  35.4286632  99.8174191 112.2123673  36.0697223 100.8520227 111.3120810
  35.5806403  99.5620720 109.0110969  36.1094169  99.0513175 108.3981131
  35.8434622  99.2463250 109.8756502  28.0531912  84.9954730 118.9713288
  28.1173239  85.8569561 118.5590685  27.9899033  84.3828732 118.2385646
  24.3049728  88.8754292 108.5504677  24.6003169  87.9664970 108.4971730
  23.4037764  88.8542031 108.2285679  36.2135807 100.5961556 115.3555085
  36.0886946  99.7951296 114.8466031  36.8714898 101.0907749 114.8669055
  27.8343975  86.9510288 114.5332225  27.1130560  87.5646256 114.3939699
  28.6237231  87.4868053 114.4548871  38.2770715  98.3970576 116.9834635
  37.3301050  98.2775927 116.9112962  38.6253488  97.5093074 117.0660897
  30.6370288  84.2864715 120.8072877  31.1604690  84.5327011 121.5699186
  30.4182622  85.1184750 120.3876014  26.0337569  86.5568389 108.6744002
  25.7050275  85.6765768 108.4919108  26.3876940  86.5016058 109.5620391
  35.2817148  98.1923292 113.1838987  35.1342111  97.2639999 113.3646558
  36.1070642  98.2143383 112.6996063  29.1479392  86.8441359 109.0419480
  29.4875465  87.3727280 108.3198088  29.5951513  87.1821765 109.8178046
  38.8851270  99.0151851 114.2703860  39.8097818  98.8094712 114.1328311
  38.7166573  98.7668252 115.1793202  31.8422833  85.2278410 118.4922548
  31.5019654  84.4286223 118.8943228  31.1361840  85.5280121 117.9199381
  32.4939305  82.3127722 116.9449871  33.3165374  81.8388200 116.8228761
  32.7377369  83.0918206 117.4448557  31.1347540  85.3415981 107.2412772
  31.8555902  85.7197233 106.7376489  30.5112844  86.0604858 107.3447750
  35.2778663  86.0461130 108.1771105  35.4942277  86.9285768 107.8759933
  34.7972730  85.6547343 107.4476747  30.0177884  89.0046843 114.7541849
  29.8722465  89.3187146 115.6466131  29.5403088  89.6231743 114.2012748
  31.8774267  85.9949391 114.8022739  31.8635836  85.0990484 114.4655037
  32.5946695  86.0020055 115.4361025  33.7300397  86.4286731 116.8475866
  33.4718175  87.3503802 116.8460197  33.1985438  86.0317166 117.5376330
  38.6746586  99.5337518 109.6265952  38.8483464  98.9683941 108.8739804
  39.1675477 100.3338413 109.4445442  31.2811163  84.8763771 110.0710309
  31.4027074  83.9480417 110.2701196  30.9913205  84.8902457 109.1588624
  34.1502353  82.5618682 113.2077029  34.1724050  82.6258015 112.2529008
  34.5670412  81.7223190 113.4017535  44.5285977  92.2973941 111.2456251
  44.9717123  91.5481266 110.8475375  43.6512488  92.2884078 110.8629983
  39.6621759  98.8504283 106.7262850  40.3572663  99.4710975 106.9450165
  40.0044909  97.9999634 107.0015228  41.5613182  96.3003988 108.2550181
  42.0864506  96.6391261 107.5299501  41.4735534  95.3651003 108.0713315
  41.3704963  93.7829358 120.8734107  41.4202968  93.6179366 121.8149630
  41.2618886  92.9156617 120.4831988  30.2541222  96.4617904 108.1626196
  30.4029342  97.1453368 107.5092869  31.0607665  96.4422994 108.6775652
  38.6608725  89.7660286 122.1893414  39.5618588  89.6266751 121.8977412
  38.7356700  89.9314741 123.1291591  32.9951531  87.1427141 121.0346600
  32.1254840  87.4360707 120.7629189  33.2311011  87.7267586 121.7553864
  42.8723160  96.2026300 121.1176129  42.5807968  96.5656280 121.9539590
  42.2595291  95.4893308 120.9389461  44.0718842  93.7679179 113.6378699
  44.9065734  94.2068984 113.8016259  44.2077971  93.2917833 112.8186945
  41.1210348  91.3258914 119.5856187  41.5964470  91.5186561 118.7775038
  40.1975913  91.3818100 119.3399570  28.0093855  92.4883081 109.1687265
  27.7639897  91.5845411 109.3667475  28.1789769  92.4900232 108.2266743
  35.6990565  83.3606758 118.5512021  36.2172508  84.0967785 118.2258509
  35.3445697  83.6670751 119.3858780  27.2789502  88.2211439 106.6673426
  26.5858747  88.2955794 106.0113462  27.0341254  87.4571783 107.1894943
  35.9503159  79.7807040 114.0712917  36.2304912  79.1130229 114.6973344
  36.7353766  79.9736136 113.5587581  33.7536627  98.9566034 105.6337944
  33.1810594  99.5756221 105.1808415  34.3269421  99.5065396 106.1677865
  39.8212017  88.2024674 117.8184492  40.7729440  88.3022772 117.8396716
  39.6515467  87.4102943 118.3282577  37.8426397  85.2880258 118.0043893
  37.2476329  85.5685270 117.3090382  37.5576093  85.7774159 118.7760634
  36.9733887  99.2403184 106.7646526  37.9064560  99.1748746 106.9679401
  36.8857100 100.0759451 106.3061058  39.6021904  98.5569055 103.7250473
  39.5235535  98.2228918 104.6186231  40.4231570  99.0490823 103.7241946
  42.3000095  91.4230794 116.9326792  42.2676415  90.4846795 117.1186476
  42.9100718  91.5014831 116.1992617  34.1383426  90.2926847 102.9753996
  35.0842530  90.1633055 103.0442414  33.7597671  89.5541509 103.4523424
  42.4494583  88.2141838 116.9785075  41.9333632  87.4300294 116.7915004
  43.3334532  87.8860554 117.1431595  40.1105310  81.9582853 112.9380888
  39.9130131  81.6497941 113.8224220  40.7205016  82.6844492 113.0678818
  48.1176645  92.4846801 116.0732829  48.8480033  92.2232089 116.6340532
  47.5083590  91.7475523 116.1134897  46.1991942  90.6254664 116.6707280
  45.4725105  90.4910628 116.0623772  45.7839229  90.9331492 117.4763998
  32.3226343  88.2176823 102.9108881  31.4157798  87.9209936 102.9871595
  32.6002324  87.9206642 102.0443167  33.9388409  82.7613713 109.0653123
  33.1289137  82.4160798 109.4408369  34.6272826  82.4521257 109.6540734
  35.8678957  81.8391760 110.6877419  36.4209995  82.2587213 111.3467442
  36.1049043  80.9127508 110.7300375  31.0925127  85.0763759 103.0520860
  31.9544291  85.4018657 103.3116678  31.2775472  84.2895255 102.5393926
  39.2457764  83.9492285 110.1956083  38.6656433  84.6077089 109.8134136
  38.9793697  83.1269630 109.7843501  37.6961330  83.3497343 112.3977404
  38.1961109  83.4613877 111.5891723  38.3396938  83.0458396 113.0378212
  38.0282642  86.1092376 109.2512432  37.1408497  86.3942026 109.0332626
  38.4436631  85.9486139 108.4039709  41.3797178  86.1338896 112.9666771
  42.1557568  86.6235349 113.2391388  40.6545312  86.5596951 113.4238640
  43.8169737  86.8466516 114.0240712  44.4114228  86.6062252 113.3134020
  43.8896320  86.1273646 114.6514248  37.1725855  95.8737050 103.3460452
  37.8761706  96.0787053 103.9618107  36.4488504  96.4413812 103.6109535
  38.0023666  91.6246911 109.4662722  37.9458867  92.0815463 108.6270354
  38.5552008  90.8637596 109.2885565  41.8128472  87.4136643 110.2912841
  41.5565406  87.0133279 111.1221049  41.1881340  88.1280437 110.1662981
  46.1240809  90.1532717 112.7984133  45.5640367  90.2225906 113.5715695
  45.5184313  89.9773701 112.0783629  39.0812553  96.3119579 105.3958912
  39.9158157  95.8800778 105.2136387  38.9196896  96.1401593 106.3235806
  38.7358445  92.8151693 106.7615251  38.6807249  92.6495964 105.8203695
  38.1104500  93.5227726 106.9177441  32.0454570  82.3159802 106.3400569
  32.0333240  83.2601642 106.4968840  32.9377992  82.1329947 106.0460031
  35.8606690  78.9102578 110.5946506  35.0939086  78.3561065 110.7403189
  36.2717395  78.9824447 111.4560658  40.3773350 108.6352135 111.4172504
  39.8138215 108.5442072 110.6488792  40.2625745 107.8152039 111.8974997
  45.9572909 112.3023103 106.7286969  45.3060888 112.8877183 106.3420983
  46.7517271 112.8329298 106.7882007  39.8828536 109.3912240 107.1274103
  40.6559412 108.8441227 106.9886979  40.2353935 110.2556489 107.3388565
  42.2194814 105.5504906 104.7592553  42.4720334 105.0286427 103.9976016
  41.2819373 105.3871051 104.8619237  47.2638096 104.5540684 112.5667297
  48.0501186 104.1360108 112.2157714  47.5276801 105.4586777 112.7348945
  47.4348174 109.9913535 107.2655953  46.7994007 110.0648161 107.9776858
  47.1045580 110.5807133 106.5875033  41.9391102 107.4533012 106.9616928
  41.8227360 106.7777915 107.6298013  42.0493362 106.9665386 106.1449081
  44.2822643 106.9143159 110.6663618  43.9180850 106.3873780 111.3776539
  45.1389759 106.5241628 110.4930103  43.9228130 101.9433059 105.6624966
  44.0902533 102.8113295 106.0295437  43.7325299 102.1060340 104.7386255
  40.1315945 106.8563834 113.3627501  39.2066441 106.7240049 113.5705193
  40.3800358 107.6358054 113.8597443  43.9017351 104.3990716 106.6471633
  43.7816976 104.8447767 107.4857113  43.2069939 104.7476034 106.0885171
  49.6002417 104.8712189 107.4751967  50.5120273 105.1039576 107.2999664
  49.0912064 105.4549234 106.9127046  46.9438392 101.0470225 115.7241828
  46.0822871 101.3451479 116.0158565  46.9700827 101.2640624 114.7922860
  43.7599961 109.5912416 112.1315633  44.2238307 109.8700119 111.3420256
  43.4956760 108.6895861 111.9488724  42.6968848 105.7135568 108.9405199
  43.3992891 106.1656612 109.4079125  42.3649476 105.0719387 109.5685092
  36.4394181 103.9719121 114.2422332  35.6493235 104.2276650 113.7662443
  36.9305429 104.7867459 114.3474373  38.3908927 104.3363700 111.2005809
  37.5940090 104.4482394 111.7189305  38.1634519 104.6750352 110.3346699
  43.9362612 112.5276511 109.0167304  43.8008287 113.3728047 109.4452152
  44.4772425 112.7295789 108.2533238  37.3892010 110.0451949 109.5895229
  37.9016530 110.8395199 109.7400794  38.0414722 109.3478239 109.5228830
  39.1986894 113.1617705 111.6717982  39.3753523 114.0835670 111.4838966
  39.9943728 112.8476124 112.1012362  47.2855076  96.0507073 117.5466197
  46.9419345  96.9408715 117.4705308  47.6534038  95.8608730 116.6835782
  35.3540926 108.3740603 110.3654799  36.1916148 108.7837612 110.1488507
  35.5319194 107.4340045 110.3354993  47.2505358 106.0415684 106.0538632
  46.7351982 106.8120289 106.2927020  46.9782667 105.3680820 106.6771694
  44.8352469 100.8865385 111.1123871  43.9794066 100.4972235 110.9329509
  45.2479421 100.9657346 110.2523656  46.3651616  98.4211728 115.5115431
  45.8616412  98.3841863 114.6983236  46.6582223  99.3304471 115.5712087
  42.6094502  98.5050458 114.5181612  43.4747499  98.3093266 114.1587502
  42.6772011  98.2760809 115.4450969  52.2239633 108.7948039 107.9891806
  51.4469075 108.4559198 107.5446968  52.9031114 108.8000662 107.3146771
  47.0391662 103.9142776 107.8798414  46.7341797 104.2288925 108.7308557
  47.9922104 103.9924196 107.9225747  45.4838093 110.0732999 109.5291368
  44.9559455 109.3385759 109.2164605  44.9825596 110.8507676 109.2831336
  40.2156821 100.7352666 111.8897979  40.7900573 100.5127847 111.1571172
  40.8027803 100.8041360 112.6426580  40.5426408 102.7657127 105.9093864
  39.7063720 103.1031813 106.2303139  40.4031178 102.6306106 104.9721001
  42.5179489  97.6093915 110.6173048  41.8643901  97.2942932 109.9929663
  42.4759963  96.9869655 111.3432871  43.6290694 107.8913210 102.5326341
  42.7217755 107.6602463 102.7317490  44.1261726 107.0950829 102.7200322
  46.5358773 116.6010717 105.4523027  45.8620471 116.9042414 106.0607985
  46.9224594 117.4039797 105.1028484  45.7517229 104.0975848 114.9420696
  44.8339791 104.3190795 114.7842384  46.1677373 104.1722159 114.0832403
  46.5352277 105.4967264 110.0723376  47.2824096 106.0088661 109.7630498
  46.8043866 105.1751316 110.9327770  44.8078927 107.9925804 107.0550331
  43.8990146 107.7084837 107.1522800  44.8374011 108.4124883 106.1953638
  48.9831114 102.5324380 112.0542166  48.2453871 102.0201766 112.3852408
  49.2357888 102.0924762 111.2425443  49.0842741  95.3100632 112.6483935
  49.3901618  94.4497995 112.3609850  49.8095346  95.9018252 112.4482929
  35.3767097 105.7131319 111.0365533  35.1791497 105.1200679 110.3116599
  34.8213761 105.4083529 111.7541472  43.3563821 105.6054425 113.1560126
  43.4112431 104.6528261 113.0802603  42.5455023 105.7613864 113.6401424
  44.5055015 109.5334548 104.3938409  44.0674445 108.8170407 103.9344047
  45.2465456 109.7610663 103.8323501  41.2956181 104.2231485 110.9150505
  40.4824047 104.5225655 111.3215697  41.7915175 103.8287174 111.6324987
  52.6228130 107.8091745 110.4514728  52.4846028 107.9993341 109.5235917
  52.2664348 108.5711128 110.9082779  40.7870256 101.7949840 116.5311740
  41.4269635 101.6538599 115.8334703  39.9547786 101.5084354 116.1550342
  41.5630560 111.0952271 112.6446732  42.3571158 110.6002591 112.4429307
  40.8522252 110.5670134 112.2814438  37.8713323 105.2395353 108.7206485
  36.9410911 105.1779808 108.9376447  37.9670795 104.7171305 107.9243126
  37.7898872 101.7650165 111.3084727  38.0505690 102.6795499 111.1993887
  38.6116045 101.2974608 111.4581339  44.7349988 116.7690389 107.6670106
  44.9101743 116.2978432 108.4815729  44.0482776 117.3956155 107.8951367
  48.6266242 108.3918930 103.9870467  48.0095413 107.6665758 103.8903520
  48.1582731 109.1528290 103.6437541  40.4164788 102.6104354 103.1091771
  39.5394255 102.4893155 102.7454018  40.8922541 101.8190432 102.8570660
  46.9125365 100.7725274 112.9988497  47.4094064 100.0195236 112.6789567
  46.1412346 100.8089591 112.4331706  47.9955145 109.5296961 110.5726920
  47.0611424 109.6498424 110.4031625  48.1731814 108.6269428 110.3086930
  43.4960333 102.9142657 112.7260182  43.1258121 102.3613697 113.4141087
  43.9919426 102.3100790 112.1735182  51.3827697 105.3714280 111.1076955
  51.8488149 106.2042272 111.0337257  51.8335197 104.9059262 111.8122213
  49.4503928 111.7158102 108.1063107  49.7263772 111.6014696 109.0156981
  48.5808426 111.3175587 108.0675280  49.3544359  97.7394867 115.1467856
  48.4407439  97.9699094 115.3150063  49.7837461  97.8233311 115.9981888
  46.4200157 114.8912638 109.0110969  46.9487924 114.3805092 108.3981131
  46.6828377 114.5755168 109.8756502  38.8925667 100.3246648 118.9713288
  38.9566993 101.1861479 118.5590685  38.8292787  99.7120649 118.2385646
  35.1443482 104.2046209 108.5504677  35.4396923 103.2956888 108.4971730
  34.2431518 104.1833949 108.2285679  38.6737729 102.2802206 114.5332225
  37.9524315 102.8938174 114.3939699  39.4630985 102.8159971 114.4548871
  36.8731324 101.8860307 108.6744002  36.5444030 101.0057686 108.4919108
  37.2270695 101.8307976 109.5620391  39.9873147 102.1733277 109.0419480
  40.3269219 102.7019198 108.3198088  40.4345267 102.5113683 109.8178046
  42.6816588 100.5570328 118.4922548  42.3413408  99.7578141 118.8943228
  41.9755594 100.8572038 117.9199381  43.3333060  97.6419640 116.9449871
  44.1559129  97.1680118 116.8228761  43.5771123  98.4210124 117.4448557
  41.9741294 100.6707898 107.2412772  42.6949657 101.0489151 106.7376489
  41.3506598 101.3896775 107.3447750  46.1172417 101.3753047 108.1771105
  46.3336031 102.2577685 107.8759933  45.6366484 100.9839261 107.4476747
  40.8571638 104.3338761 114.7541849  40.7116219 104.6479064 115.6466131
  40.3796842 104.9523661 114.2012748  42.7168021 101.3241309 114.8022739
  42.7029590 100.4282402 114.4655037  43.4340449 101.3311972 115.4361025
  44.5694152 101.7578649 116.8475866  44.3111930 102.6795719 116.8460197
  44.0379192 101.3609083 117.5376330  42.1204917 100.2055689 110.0710309
  42.2420828  99.2772335 110.2701196  41.8306960 100.2194375 109.1588624
  44.9896108  97.8910599 113.2077029  45.0117804  97.9549932 112.2529008
  45.4064167  97.0515108 113.4017535  50.5015513 114.1796200 106.7262850
  51.1966418 114.8002893 106.9450165  50.8438663 113.3291552 107.0015228
  52.4006936 111.6295906 108.2550181  52.9258260 111.9683179 107.5299501
  52.3129289 110.6942921 108.0713315  41.0934976 111.7909822 108.1626196
  41.2423097 112.4745286 107.5092869  41.9001420 111.7714912 108.6775652
  38.8487609 107.8174999 109.1687265  38.6033651 106.9137329 109.3667475
  39.0183524 107.8192150 108.2266743  38.1183257 103.5503357 106.6673426
  37.4252502 103.6247712 106.0113462  37.8735009 102.7863700 107.1894943
  46.7896913  95.1098958 114.0712917  47.0698667  94.4422147 114.6973344
  47.5747520  95.3028054 113.5587581  44.5930382 114.2857952 105.6337944
  44.0204349 114.9048139 105.1808415  45.1663175 114.8357314 106.1677865
  47.8127641 114.5695102 106.7646526  48.7458315 114.5040664 106.9679401
  47.7250854 115.4051369 106.3061058  50.4415658 113.8860972 103.7250473
  50.3629290 113.5520836 104.6186231  51.2625325 114.3782740 103.7241946
  44.9777180 105.6218765 102.9753996  45.9236285 105.4924973 103.0442414
  44.5991425 104.8833427 103.4523424  50.9499065  97.2874771 112.9380888
  50.7523886  96.9789859 113.8224220  51.5598770  98.0136410 113.0678818
  43.1620097 103.5468741 102.9108881  42.2551553 103.2501854 102.9871595
  43.4396078 103.2498559 102.0443167  44.7782163  98.0905631 109.0653123
  43.9682891  97.7452716 109.4408369  45.4666580  97.7813175 109.6540734
  46.7072711  97.1683678 110.6877419  47.2603750  97.5879131 111.3467442
  46.9442798  96.2419426 110.7300375  41.9318882 100.4055676 103.0520860
  42.7938046 100.7310575 103.3116678  42.1169226  99.6187172 102.5393926
  50.0851518  99.2784203 110.1956083  49.5050187  99.9369007 109.8134136
  49.8187451  98.4561547 109.7843501  48.5355085  98.6789261 112.3977404
  49.0354863  98.7905795 111.5891723  49.1790693  98.3750313 113.0378212
  48.8676396 101.4384293 109.2512432  47.9802251 101.7233944 109.0332626
  49.2830386 101.2778057 108.4039709  52.2190933 101.4630814 112.9666771
  52.9951323 101.9527267 113.2391388  51.4939067 101.8888868 113.4238640
  48.0119610 111.2028968 103.3460452  48.7155460 111.4078970 103.9618107
  47.2882259 111.7705730 103.6109535  48.8417420 106.9538829 109.4662722
  48.7852622 107.4107381 108.6270354  49.3945763 106.1929514 109.2885565
  52.6522226 102.7428561 110.2912841  52.3959160 102.3425197 111.1221049
  52.0275094 103.4572355 110.1662981  49.9206307 111.6411497 105.3958912
  50.7551911 111.2092696 105.2136387  49.7590650 111.4693511 106.3235806
  49.5752200 108.1443610 106.7615251  49.5201003 107.9787882 105.8203695
  48.9498255 108.8519643 106.9177441  42.8848325  97.6451719 106.3400569
  42.8726995  98.5893559 106.4968840  43.7771747  97.4621865 106.0460031
  46.7000444  94.2394496 110.5946506  45.9332840  93.6852983 110.7403189
  47.1111149  94.3116365 111.4560658  51.3820163 118.0949044 105.9093864
  50.5457475 118.4323731 106.2303139  51.2424932 117.9598024 104.9721001
  51.2558543 117.9396272 103.1091771  50.3788009 117.8185073 102.7454018
  51.7316296 117.1482350 102.8570660  48.9577011 118.8795274 106.6673426
  48.2646256 118.9539629 106.0113462  48.7128763 118.1155618 107.1894943
  54.0013852 118.8760659 102.9108881  53.0945307 118.5793772 102.9871595
  54.2789833 118.5790477 102.0443167  52.7712636 115.7347594 103.0520860
  53.6331800 116.0602492 103.3116678  52.9562981 114.9479090 102.5393926
  53.7242079 112.9743637 106.3400569  53.7120749 113.9185477 106.4968840
  54.6165501 112.7913782 106.0460031   3.1783756  32.2905169  92.1768333
   2.5045455  32.5936865  92.7853291   3.5649578  33.0934249  91.8273790
   7.1440497  29.8690652  93.4508157   7.8391401  30.4897345  93.6695471
   7.4863647  29.0186003  93.7260534   1.2355365  29.9752404  92.3583250
   0.6629332  30.5942591  91.9053722   1.8088159  30.5251766  92.8923172
   4.4552625  30.2589554  93.4891832   5.3883298  30.1935116  93.6924708
   4.3675838  31.0945821  93.0306365   7.0840641  29.5755424  90.4495780
   7.0054273  29.2415288  91.3431538   7.9050308  30.0677192  90.4487252
   4.6544593  26.8923420  90.0705758   5.3580443  27.0973422  90.6863414
   3.9307242  27.4600182  90.3354842   6.5631291  27.3305949  92.1204218
   7.3976895  26.8987147  91.9381693   6.4015634  27.1587963  93.0481113
  15.1915566  37.8475600 102.2159395  15.8293976  37.7282347 101.5122735
  15.0736409  38.7956444 102.2747347   7.8592088  39.6538505  98.1417811
   7.2956953  39.5628442  97.3734099   7.7444483  38.8338409  98.6220303
  13.4391646  43.3209472  93.4532276  12.7879626  43.9063553  93.0666289
  14.2336009  43.8515667  93.5127313   7.3647274  40.4098609  93.8519410
   8.1378150  39.8627597  93.7132286   7.7172672  41.2742859  94.0633871
   9.7013551  36.5691276  91.4837860   9.9539072  36.0472797  90.7221323
   8.7638110  36.4057421  91.5864544  14.7456834  35.5727054  99.2912603
  15.5319923  35.1546477  98.9403020  15.0095539  36.4773146  99.4594252
  14.9166912  41.0099904  93.9901260  14.2812745  41.0834531  94.7022165
  14.5864318  41.5993503  93.3120339  20.1465261  35.5102287 100.1945582
  20.8790433  34.9401504 100.4283411  19.3904617  35.1223888 100.6352087
   9.4209840  38.4719382  93.6862235   9.3046098  37.7964285  94.3543319
   9.5312100  37.9851755  92.8694388  11.7641381  37.9329529  97.3908924
  11.3999588  37.4060150  98.1021846  12.6208497  37.5427998  97.2175410
  11.4046868  32.9619428  92.3870273  11.5721270  33.8299665  92.7540744
  11.2144037  33.1246710  91.4631562  11.3836089  35.4177086  93.3716939
  11.2635714  35.8634137  94.2102420  10.6888677  35.7662403  92.8130478
   9.1442981  48.1880728  97.0207071   9.0667011  49.1388553  97.0995551
   8.5404625  47.8426600  97.6781997  17.0821155  35.8898559  94.1997274
  17.9939011  36.1225946  94.0244971  16.5730802  36.4735603  93.6372352
  15.6890737  40.8724377 101.5910855  15.0599600  41.0370092 100.8886923
  15.3016399  41.2865987 102.3621819  19.5679969  41.8078815  98.9455219
  18.8831007  42.1877717  98.3952252  19.6523819  42.4174142  99.6787167
  11.2418699  40.6098786  98.8560940  11.7057045  40.8886489  98.0665563
  10.9775497  39.7082230  98.6734031  10.1787585  36.7321938  95.6650505
  10.8811629  37.1842982  96.1324432   9.8468214  36.0905757  96.2930398
  17.9376729  42.3310730 103.7172920  18.7594173  41.9290917 103.4355601
  17.9339132  42.2278964 104.6689035  26.0282722  38.6749478 100.0657891
  25.2746430  38.1056876  99.9101896  26.1630263  38.6412143 101.0128526
  11.4181350  43.5462881  95.7412610  11.2827025  44.3914416  96.1697458
  11.9591162  43.7482158  94.9778544   4.8710747  41.0638319  96.3140536
   5.3835268  41.8581569  96.4646100   5.5233460  40.3664609  96.2474137
   6.6805632  44.1804075  98.3963289   6.8572260  45.1022040  98.2084273
   7.4762466  43.8662494  98.8257668   7.8036947  45.6982249 104.3973631
   8.3544373  45.5699312 103.6250625   6.9648423  45.9977138 104.0468524
   2.8359664  39.3926973  97.0900106   3.6734886  39.8023981  96.8733814
   3.0137932  38.4526415  97.0600300  14.7324096  37.0602053  92.7783939
  14.2170720  37.8306658  93.0172326  14.4601405  36.3867190  93.4017000
  12.3171207  31.9051754  97.8369177  11.4612804  31.5158605  97.6574816
  12.7298159  31.9843715  96.9768963  19.7058370  39.8134408  94.7137113
  18.9287813  39.4745568  94.2692275  20.3849851  39.8187031  94.0392078
  14.5210399  34.9329146  94.6043720  14.2160535  35.2475295  95.4553863
  15.4740842  35.0110565  94.6471053  12.9656831  41.0919369  96.2536674
  12.4378193  40.3572128  95.9409912  12.4644334  41.8694045  96.0076643
  17.9449677  39.2868389 101.3703720  17.2873352  39.9767651 101.4583849
  18.7490076  39.6764821 101.7137707  16.7555136  37.6412762  99.4207662
  17.2687018  38.2742754  99.9229372  17.4056360  37.0413958  99.0551022
   8.0245146  33.7843496  92.6339171   7.1882458  34.1218183  92.9548446
   7.8849916  33.6492476  91.6966308  11.1109431  38.9099579  89.2571647
  10.2036493  38.6788833  89.4562796  11.6080463  38.1137198  89.4445629
  14.0177510  47.6197086  92.1768333  13.3439209  47.9228783  92.7853291
  14.4043332  48.4226167  91.8273790  14.0171015  36.5153633  96.7968683
  14.7642834  37.0275031  96.4875805  14.2862604  36.1937686  97.6573077
  12.2897665  39.0112174  93.7795637  11.3808884  38.7271207  93.8768107
  12.3192749  39.4311253  92.9198944  17.5216932  42.6218764  97.5486805
  17.0679259  41.7809673  97.6051995  16.8910899  43.2580162  97.8861585
  16.4649852  33.5510750  98.7787472  15.7272609  33.0388136  99.1097715
  16.7176625  33.1111131  97.9670749  15.9649872  44.4595260  98.4836623
  16.2572846  45.0200317  97.7648989  16.4748492  44.7523821  99.2389782
  10.8382559  36.6240795  99.8805433  10.8931169  35.6714631  99.8047909
  10.0273761  36.7800234 100.3646731  11.9873753  40.5520918  91.1183716
  11.5493183  39.8356777  90.6589353  12.7284194  40.7797033  90.5568807
   8.7774919  35.2417854  97.6395812   7.9642784  35.5412025  98.0461004
   9.2733913  34.8473543  98.3570294  10.9283497  45.2375611  99.5730076
  10.8859675  45.4636458  98.6438608  11.8446196  45.0038986  99.7215877
  20.1046867  38.8278115  97.1760034  19.9664766  39.0179711  96.2481224
  19.7483086  39.5897498  97.6328086  20.1316247  40.8954642 102.1871306
  20.5652754  40.8029931 103.0354360  20.8447828  40.8712142 101.5491322
   9.0449297  42.1138640  99.3692039   9.8389896  41.6188960  99.1674614
   8.3340990  41.5856503  99.0059745  13.8644142  44.4956736 103.7204407
  13.9181164  45.0647672 104.4882122  12.9958923  44.6658621 103.3558444
   5.3532061  36.2581722  95.4451792   4.4229649  36.1966178  95.6621754
   5.4489533  35.7357675  94.6488433  20.9931797  40.9378342 104.7204191
  21.1867687  41.8424153 104.9663466  20.8932415  40.4785761 105.5542776
  11.6220573  42.6867662 103.0489876  11.4831659  42.3186447 103.9215814
  10.8335170  43.2015302 102.8773834  12.2168725  47.7876759  94.3915413
  12.3920481  47.3164802  95.2061035  11.5301513  48.4142525  94.6196673
  13.1725789  42.0649265 100.4378714  12.8375621  42.0250035 101.3336364
  12.6729734  41.3993981  99.9649124  16.1084980  39.4105299  90.7115773
  15.4914151  38.6852128  90.6148826  15.6401469  40.1714660  90.3682848
   6.7829811  50.9366122 101.1655273   7.0226409  51.5684646 101.8434291
   5.9399007  50.5854162 101.4520632   7.8983526  33.6290724  89.8337078
   7.0212992  33.5079524  89.4699324   8.3741279  32.8376802  89.5815966
  11.2957673  46.7445244 103.5696777  11.2227844  47.5500215 104.0816081
  10.8535066  46.9437210 102.7444798  11.0847452  45.9817014  97.0799598
  10.3014974  46.5238694  97.1737823  11.7840197  46.4990994  97.4793839
  22.2473860  37.4952009 101.3652095  22.2363736  38.3776724 100.9946028
  21.3791239  37.1423560 101.1706632  13.7556356  46.6432078 105.7254935
  14.4684328  47.2779543 105.6530837  13.2646385  46.7395944 104.9094937
  15.4773883  40.5483331  97.2972227  14.5430162  40.6684793  97.1276931
  15.6550551  39.6455797  97.0332237  18.8646434  36.3900650  97.8322261
  19.3306887  37.2228642  97.7582564  19.3153935  35.9245632  98.5367520
  16.9322665  42.7344471  94.8308413  17.2082509  42.6201066  95.7402287
  16.0627164  42.3361956  94.7920586  13.5676729  46.9830822  98.4741227
  13.7499124  46.1652478  98.9368979  14.3909716  47.1998514  98.0366117
  13.9018895  45.9099007  95.7356275  14.4306661  45.3991462  95.1226437
  14.1647115  45.5941537  96.6001808   7.2574643  46.9614124  98.4954051
   6.5885018  47.4460252  98.0118091   7.1187513  47.2083344  99.4097430
  11.3979912  48.9957867 105.0936710  11.9498220  49.1589489 105.8585795
  11.7386105  49.5862305 104.4216734   2.6262220  35.2232579  95.2749983
   2.9215661  34.3143257  95.2217037   1.7250256  35.2020318  94.9530986
  14.5348299  46.9439843 102.0800392  14.4099438  46.1429583 101.5711337
  15.1927390  47.4386036 101.5914362  16.5983207  44.7448863 103.7079942
  15.6513543  44.6254214 103.6358269  16.9465980  43.8571361 103.7906203
  13.6029640  44.5401579  99.9084294  13.4554603  43.6118287 100.0891864
  14.4283134  44.5621670  99.4241369   7.4691885  33.1919646  95.7664786
   7.8087957  33.7205568  95.0443395   7.9164005  33.5300052  96.5423353
  17.2063762  45.3630138 100.9949167  18.1310310  45.1572999 100.8573618
  17.0379066  45.1146539 101.9038508   9.4560032  31.6894268  93.9658079
  10.1768394  32.0675521  93.4621796   8.8325336  32.4083145  94.0693057
  13.5991155  32.3939417  94.9016411  13.8154769  33.2764055  94.6005239
  13.1185222  32.0025630  94.1722053  16.9959079  45.8815805  96.3511258
  17.1695956  45.3162228  95.5985111  17.4887970  46.6816700  96.1690748
  22.8498470  38.6452228  97.9701558  23.2929616  37.8959554  97.5720681
  21.9724980  38.6362365  97.5875290  17.9834251  45.1982570  93.4508157
  18.6785156  45.8189263  93.6695471  18.3257401  44.3477921  93.7260534
  19.8825674  42.6482275  94.9795487  20.4076998  42.9869548  94.2544807
  19.7948027  41.7129291  94.7958622  11.5666335  48.7154259  99.3390741
  11.1271325  48.2230637 100.0323597  12.3174452  48.1727226  99.0982816
   4.0458674  44.9065800  99.3415369   4.8716694  44.6069571  98.9614012
   3.6952726  44.1373422  99.7905157   9.0140207  44.2592268 101.4113042
   8.3920216  43.5962973 101.1115270   9.6845074  44.2853400 100.7286690
   8.5753714  42.8096191  94.8871503   8.7241834  43.4931655  94.2338175
   9.3820157  42.7901281  95.4020958  22.3931334  40.1157467 100.3624006
  23.2278226  40.5547271 100.5261566  22.5290463  39.6396120  99.5432251
   6.3306347  38.8361369  95.8932572   6.0852389  37.9323699  96.0912782
   6.5002261  38.8378519  94.9512050   5.6001994  34.5689726  93.3918733
   4.9071239  34.6434081  92.7358769   5.3553746  33.8050070  93.9140250
  12.0749119  45.3044322  92.3583250  11.5023087  45.9234509  91.9053722
  12.6481913  45.8543683  92.8923172  15.2946379  45.5881472  93.4891832
  16.2277052  45.5227033  93.6924708  15.2069592  46.4237739  93.0306365
  17.9234396  44.9047342  90.4495780  17.8448027  44.5707206  91.3431538
  18.7444063  45.3969110  90.4487252  20.6212587  37.7709081 103.6572099
  20.5888907  36.8325082 103.8431782  21.2313211  37.8493118 102.9237924
  12.4595918  36.6405134  89.6999303  13.4055023  36.5111342  89.7687721
  12.0810163  35.9019796  90.1768731  26.4389137  38.8325088 102.7978135
  27.1692525  38.5710376 103.3585839  25.8296082  38.0953810 102.8380203
  24.5204434  36.9732951 103.3952587  23.7937598  36.8388916 102.7869078
  24.1051721  37.2809779 104.2009305  10.6438835  34.5655111  89.6354188
   9.7370291  34.2688223  89.7116901  10.9214816  34.2684929  88.7688474
  12.2600901  29.1092000  95.7898429  11.4501629  28.7639085  96.1653675
  12.9485318  28.7999544  96.3786041   9.4137620  31.4242046  89.7766167
  10.2756784  31.7496944  90.0361984   9.5987964  30.6373542  89.2639233
  17.5670256  30.2970572  96.9201390  16.9868925  30.9555376  96.5379442
  17.3006189  29.4747917  96.5088808  16.3495134  32.4570663  95.9757738
  15.4620989  32.7420313  95.7577933  16.7649123  32.2964426  95.1285015
  19.7009670  32.4817184  99.6912078  20.4770060  32.9713636  99.9636694
  18.9757805  32.9075238 100.1483947  22.1382229  33.1944803 100.7486018
  22.7326720  32.9540539 100.0379326  22.2108813  32.4751934 101.3759555
   4.3579385  47.0378414 101.0629183   4.2233853  46.2778815 100.4967181
   3.9411447  47.7619314 100.5957972  15.4938348  42.2215337  90.0705758
  16.1974198  42.4265340  90.6863414  14.7700996  42.7892099  90.3354842
  16.3236158  37.9725199  96.1908028  16.2671359  38.4293750  95.3515661
  16.8764500  37.2115883  96.0130871  20.1340964  33.7614931  97.0158148
  19.8777898  33.3611566  97.8466356  19.5093832  34.4758724  96.8908287
  24.4453302  36.5011004  99.5229439  23.8852860  36.5704193 100.2961001
  23.8396805  36.3251988  98.8028936   7.5148511  47.9347731 101.2747626
   7.3980895  48.8793163 101.1726316   6.6940957  47.6321292 101.6633425
  17.4025045  42.6597867  92.1204218  18.2370649  42.2279065  91.9381693
  17.2409388  42.4879880  93.0481113  17.0570937  39.1629980  93.4860558
  17.0019741  38.9974251  92.5449002  16.4316993  39.8706013  93.6422747
  10.3667063  28.6638089  93.0645876  10.3545733  29.6079929  93.2214147
  11.2590485  28.4808234  92.7705337   8.5403025  48.5875993 104.4903554
   9.4430271  48.6199603 104.8070049   8.3140395  47.6576444 104.5049890
  10.2956627  47.3406979 101.1513633   9.3452258  47.3408841 101.0378005
  10.5989113  46.5939714 100.6349667  26.0309320  53.1767518 102.2159395
  26.6687730  53.0574265 101.5122735  25.9130163  54.1248362 102.2747347
  22.8399026  53.1294946 102.1520920  22.5017538  53.0136011 101.2641455
  23.7088795  52.7286111 102.1321926  18.6985842  54.9830422  98.1417811
  18.1350707  54.8920359  97.3734099  18.5838237  54.1630327  98.6220303
  23.3218809  54.2829798 108.1107125  23.3107450  53.8882596 107.2387629
  23.4839449  53.5495870 108.7040897  16.2450274  56.4781614 100.9802031
  17.0371566  56.1372438 100.5648331  16.4846924  56.5876589 101.9004185
  24.2785401  58.6501390  93.4532276  23.6273381  59.2355470  93.0666289
  25.0729764  59.1807585  93.5127313  18.2041028  55.7390527  93.8519410
  18.9771904  55.1919514  93.7132286  18.5566427  56.6034776  94.0633871
  20.0426071  57.0666909 107.0586309  19.7515937  57.9712540 106.9432976
  20.6783055  57.1083437 107.7730379  20.9682277  54.4443758 103.6487669
  21.5645850  54.2199780 102.9344632  21.0257249  53.7028503 104.2513117
  20.5407306  51.8983193  91.4837860  20.7932827  51.3764714  90.7221323
  19.6031865  51.7349339  91.5864544  25.5850589  50.9018972  99.2912603
  26.3713678  50.4838395  98.9403020  25.8489293  51.8065064  99.4594252
  25.7560666  56.3391822  93.9901260  25.1206499  56.4126448  94.7022165
  25.4258072  56.9285421  93.3120339  20.2603595  53.8011299  93.6862235
  20.1439853  53.1256203  94.3543319  20.3705855  53.3143673  92.8694388
  22.6035136  53.2621446  97.3908924  22.2393343  52.7352067  98.1021846
  23.4602251  52.8719915  97.2175410  28.5084436  44.5515779 104.6540190
  28.1767761  45.4211190 104.4301405  27.9130050  44.2352063 105.3334221
  22.2440623  48.2911346  92.3870273  22.4115025  49.1591582  92.7540744
  22.0537792  48.4538628  91.4631562  25.0015956  56.7528325 104.0536103
  24.7016679  57.6553364 103.9451910  24.6567015  56.4860508 104.9057256
  18.4528437  53.2042122 100.0872807  17.5278934  53.0718336 100.2950499
  18.7012850  53.9836341 100.5842750  28.4013099  49.2710865 101.7333540
  27.4929977  49.2026273 101.4392301  28.3500695  49.7482810 102.5615366
  22.2229843  50.7469003  93.3716939  22.1029469  51.1926054  94.2102420
  21.5282432  51.0954321  92.8130478  15.8137248  52.8475395 100.9216597
  15.9429629  53.1009874 101.8356008  15.1334700  53.4403103 100.6021252
  19.9836736  63.5172645  97.0207071  19.9060765  64.4680470  97.0995551
  19.3798379  63.1718518  97.6781997  22.4753965  50.6900511 109.6768438
  21.6987299  51.2494431 109.6671302  23.1144528  51.1757294 110.1983308
  30.2674746  47.4727303 103.5111414  29.6249126  47.7659837 102.8651209
  29.7629674  47.3580224 104.3164611  27.9214910  51.2190477  94.1997274
  28.8332766  51.4517863  94.0244971  27.4124557  51.8027521  93.6372352
  20.7300338  53.4985964 109.2386405  21.4715022  54.0371008 108.9621228
  20.0237323  54.1252253 109.3957956  26.2055677  55.6415104 107.8358566
  26.6139033  55.1997515 107.0913198  25.4832939  55.0667732 108.0892759
  22.5586747  50.5787711 105.2092123  23.4047942  51.0027125 105.3526772
  22.4985385  49.9221336 105.9030686  26.5284492  56.2016295 101.5910855
  25.8993354  56.3662009 100.8886923  26.1410154  56.6157905 102.3621819
  30.4073724  57.1370733  98.9455219  29.7224762  57.5169634  98.3952252
  30.4917573  57.7466060  99.6787167  25.7086193  48.2392080 106.8673297
  25.4647124  48.9934140 106.3307572  25.9846123  48.6177427 107.7020544
  27.6624655  54.7830692 105.5450562  27.8741551  55.4262452 104.8684943
  27.6154404  53.9493009 105.0772492  25.2650884  47.3948513 102.4487134
  24.4035363  47.6929766 102.7403872  25.2913319  47.6118912 101.5168167
  22.0812454  55.9390703  98.8560940  22.5450799  56.2178406  98.0665563
  21.8169252  55.0374148  98.6734031  18.9736535  55.4862185 101.7940703
  19.5437892  55.9149453 101.1558188  19.5644647  55.2044769 102.4924889
  21.0181340  52.0613856  95.6650505  21.7205383  52.5134899  96.1324432
  20.6861968  51.4197674  96.2930398  19.4661701  50.6525612 110.0401715
  18.8360362  51.3341893 110.2737111  19.3597789  50.5408694 109.0954853
  14.7606674  50.3197408 100.9667639  13.9705728  50.5754937 100.4907749
  15.2517921  51.1345746 101.0719679  28.7770483  57.6602647 103.7172920
  29.5987927  57.2582835 103.4355601  28.7732886  57.5570882 104.6689035
  16.7121419  50.6841987  97.9251115  15.9152582  50.7960682  98.4434611
  16.4847011  51.0228640  97.0592006  22.5427087  57.2086691 105.8733630
  22.6071519  57.6707098 106.7091802  21.8338011  56.5784056 106.0015940
  13.0444377  50.5727899 103.3982630  13.2952415  51.4574909 103.6640206
  13.5803925  50.3932500 102.6257721  22.2575104  58.8754798  95.7412610
  22.1220779  59.7206334  96.1697458  22.7984917  59.0774076  94.9778544
  15.7104502  56.3930236  96.3140536  16.2229022  57.1873486  96.4646100
  16.3627215  55.6956527  96.2474137  17.5199387  59.5095993  98.3963289
  17.6966015  60.4313957  98.2084273  18.3156220  59.1954412  98.8257668
  21.6610405  46.3704257 109.9947222  22.4020118  46.9711410 109.9151685
  21.8928328  45.6281895 109.4365265  16.8051743  51.5560624 108.2725452
  16.6905258  50.6545882 108.5732551  15.9496261  51.8024321 107.9210268
  23.8843581  59.4978365 109.8712953  23.4407435  58.7114743 109.5533857
  24.5460794  59.6857515 109.2056843  18.6430702  61.0274166 104.3973631
  19.1938127  60.8991230 103.6250625  17.8042178  61.3269055 104.0468524
  25.9824819  59.7781165 107.8994354  25.9643294  60.5990046 107.4074623
  26.9044739  59.6535240 108.1244495  22.4397873  57.2925294 108.7417862
  22.9726210  56.5313582 108.5117170  21.9111954  56.9998946 109.4842017
  25.6067568  42.3985360 104.2711504  25.2631837  43.2887002 104.1950615
  25.9746531  42.2087018 103.4081089  13.6753419  54.7218891  97.0900106
  14.5128641  55.1315899  96.8733814  13.8531686  53.7818333  97.0600300
  25.5717851  52.3893971  92.7783939  25.0564474  53.1598576  93.0172326
  25.2995159  51.7159107  93.4017000  23.1564962  47.2343672  97.8369177
  22.3006558  46.8450522  97.6574816  23.5691914  47.3135633  96.9768963
  24.6864108  44.7690015 102.2360737  24.1828904  44.7320150 101.4228542
  24.9794715  45.6782758 102.2957394  20.9306994  44.8528745 101.2426919
  21.7959991  44.6571554 100.8832808  20.9984503  44.6239097 102.1696276
  25.3604154  50.2621063  94.6043720  25.0554289  50.5767212  95.4553863
  26.3134596  50.3402483  94.6471053  23.8050586  56.4211287  96.2536674
  23.2771947  55.6864046  95.9409912  23.3038088  57.1985963  96.0076643
  28.7843432  54.6160307 101.3703720  28.1267106  55.3059568 101.4583849
  29.5883831  55.0056739 101.7137707  18.5369313  47.0830953  98.6143286
  19.1113065  46.8606134  97.8816479  19.1240296  47.1519647  99.3671887
  27.5948891  52.9704680  99.4207662  28.1080772  53.6034672  99.9229372
  28.2450114  52.3705875  99.0551022  18.8638900  49.1135414  92.6339171
  18.0276213  49.4510100  92.9548446  18.7243670  48.9784394  91.6966308
  20.8391981  43.9572202  97.3418355  20.1856393  43.6421219  96.7174970
  20.7972455  43.3347942  98.0678178  21.9503186  54.2391497  89.2571647
  21.0430248  54.0080750  89.4562796  22.4474218  53.4429116  89.4445629
  24.8571265  62.9489004  92.1768333  24.1832964  63.2520701  92.7853291
  25.2437087  63.7518084  91.8273790  24.0729721  50.4454135 101.6666003
  23.1552283  50.6669082 101.5087691  24.4889865  50.5200446 100.8077710
  24.8564769  51.8445551  96.7968683  25.6036588  52.3566948  96.4875805
  25.1256359  51.5229604  97.6573077  23.1291419  54.3404092  93.7795637
  22.2202639  54.0563125  93.8768107  23.1586503  54.7603170  92.9198944
  28.3610687  57.9510681  97.5486805  27.9073014  57.1101591  97.6051995
  27.7304653  58.5872080  97.8861585  27.3043606  48.8802667  98.7787472
  26.5666363  48.3680053  99.1097715  27.5570380  48.4403049  97.9670749
  26.8043626  59.7887178  98.4836623  27.0966600  60.3492235  97.7648989
  27.3142247  60.0815739  99.2389782  27.4055234  41.6578919  99.3729242
  27.7114110  40.7976283  99.0855157  28.1307838  42.2496539  99.1728235
  13.6979590  52.0609606  97.7610840  13.5003990  51.4678967  97.0361906
  13.1426254  51.7561816  98.4786778  21.6776313  51.9532712  99.8805433
  21.7324923  51.0006549  99.8047909  20.8667515  52.1092151 100.3646731
  22.8267507  55.8812835  91.1183716  22.3886937  55.1648694  90.6589353
  23.5677948  56.1088950  90.5568807  19.6168673  50.5709772  97.6395812
  18.8036539  50.8703943  98.0461004  20.1127667  50.1765461  98.3570294
  21.7677251  60.5667529  99.5730076  21.7253430  60.7928375  98.6438608
  22.6839950  60.3330904  99.7215877  25.2142885  51.0351597 106.4710705
  25.5692273  51.2623070 107.3305171  25.8615016  51.3669973 105.8487961
  19.1082748  48.1428128 103.2557046  19.7482127  48.0016887 102.5580010
  18.2760279  47.8562641 102.8795648  30.9710002  56.2246559 102.1871306
  31.4046508  56.1321849 103.0354360  31.6841582  56.2004060 101.5491322
  19.8843052  57.4430558  99.3692039  20.6783650  56.9480878  99.1674614
  19.1734744  56.9148421  99.0059745  24.7037896  59.8248654 103.7204407
  24.7574919  60.3939590 104.4882122  23.8352678  59.9950539 103.3558444
  16.1925815  51.5873640  95.4451792  15.2623404  51.5258095  95.6621754
  16.2883287  51.0649593  94.6488433  16.1111364  48.1128453  98.0330033
  16.3718182  49.0273786  97.9239194  16.9328537  47.6452895  98.1826646
  17.5836290  49.5266210 105.2028858  18.2559343  49.3183572 104.5541507
  16.7566076  49.3288296 104.7634090  31.8325551  56.2670260 104.7204191
  32.0261441  57.1716071 104.9663466  31.7326169  55.8077679 105.5542776
  23.4861862  46.1528151 107.2194519  22.8389777  46.8518100 107.1258995
  24.2562877  46.5864295 107.5870767  26.8940660  56.4177003 110.2945072
  26.7426166  56.1887555 109.3775156  26.8845339  57.3747604 110.3076417
  23.6625996  53.9908916 105.2791338  24.5918056  54.1420075 105.1060306
  23.2417026  54.0792936 104.4239985  22.4614328  58.0159580 103.0489876
  22.3225414  57.6478364 103.9215814  21.6728924  58.5307219 102.8773834
  23.0562480  63.1168676  94.3915413  23.2314236  62.6456720  95.2061035
  22.3695268  63.7434443  94.6196673  24.0119543  57.3941183 100.4378714
  23.6769376  57.3541953 101.3336364  23.5123489  56.7285899  99.9649124
  17.9863787  52.8008813 105.9631295  17.8483585  52.0689052 106.5642834
  18.8968711  52.7117713 105.6815483  20.6146088  52.5128772 105.4514975
  21.3245706  51.8721964 105.4101593  20.5715396  52.7641667 106.3741155
  28.6032866  59.4496125 108.3721554  28.5445413  58.7655346 107.7052137
  29.0052385  60.1915115 107.9202180  19.3275022  49.4993990 107.2710614
  18.7912379  49.0484728 107.9232210  18.7391730  49.6339899 106.5281078
  17.6223565  66.2658039 101.1655273  17.8620163  66.8976563 101.8434291
  16.7792762  65.9146079 101.4520632  18.7377281  48.9582641  89.8337078
  17.8606747  48.8371442  89.4699324  19.2135034  48.1668720  89.5815966
  28.6050274  57.4135709 106.6035534  27.7177052  57.0761631 106.7261932
  29.1748825  56.6818741 106.8404299  10.2579421  53.7459801  99.9278585
  10.9450461  53.4321531  99.3399600  10.1027549  54.6501166  99.6545836
  15.0614143  48.6349998 104.3563609  14.9772332  48.0275667 103.6214019
  14.2396849  49.1259016 104.3573105  22.1351427  62.0737162 103.5696777
  22.0621599  62.8792133 104.0816081  21.6928820  62.2729127 102.7444798
  21.9241207  61.3108932  97.0799598  21.1408729  61.8530612  97.1737823
  22.6233952  61.8282911  97.4793839  25.2337857  47.1203561  99.7233804
  25.7306556  46.3673523  99.4034874  24.4624838  47.1567878  99.1577013
  24.5950111  61.9723996 105.7254935  25.3078083  62.6071461 105.6530837
  24.1040139  62.0687862 104.9094937  26.3167638  55.8775248  97.2972227
  25.3823916  55.9976711  97.1276931  26.4944306  54.9747715  97.0332237
  21.8172826  49.2620944  99.4505488  21.4470613  48.7091985 100.1386394
  22.3131918  48.6579078  98.8980488  19.6462024  59.7218439 106.5460506
  20.3471484  60.3554922 106.6989900  19.1757139  60.0633171 105.7856145
  27.6756852  44.0873155 101.8713163  26.7619931  44.3177381 102.0395369
  28.1049953  44.1711599 102.7227195  27.4463310  52.2763047 104.3713057
  26.7934760  52.5238954 103.7165509  27.8243690  51.4627185 104.0375534
  24.4070484  62.3122740  98.4741227  24.5892879  61.4944396  98.9368979
  25.2303470  62.5290432  98.0366117  24.7412649  61.2390925  95.7356275
  25.2700416  60.7283380  95.1226437  25.0040869  60.9233455  96.6001808
  23.4950883  53.0182858 110.8579094  22.8191520  52.9176987 111.5281469
  24.3178517  52.8622071 111.3215091  15.2429742  59.2554794 103.4791609
  15.8283179  58.5098482 103.6119513  15.0454581  59.5658751 104.3628273
  18.0968397  62.2906042  98.4954051  17.4278773  62.7752169  98.0118091
  17.9581267  62.5375262  99.4097430   9.8347397  51.8260394 102.1996052
   9.8731496  51.2923985 102.9933170   9.3287690  51.2995600 101.5807029
  22.2373666  64.3249785 105.0936710  22.7891974  64.4881407 105.8585795
  22.5779859  64.9154223 104.4216734  17.2138159  46.6724935 105.6958594
  17.2779486  47.5339766 105.2835992  17.1505279  46.0598937 104.9630953
  27.0884540  59.1511043 110.9485364  27.6324444  59.7641001 110.4540319
  26.5071385  59.7090621 111.4652377  13.4655975  50.5524497  95.2749983
  13.7609416  49.6435175  95.2217037  12.5644010  50.5312236  94.9530986
  25.3742053  62.2731761 102.0800392  25.2493193  61.4721500 101.5711337
  26.0321144  62.7677954 101.5914362  16.9950222  48.6280493 101.2577532
  16.2736807  49.2416461 101.1185005  17.7843477  49.1638258 101.1794178
  19.7976535  45.9634920 107.5318184  20.3210937  46.2097216 108.2944493
  19.5788868  46.7954954 107.1121321  15.1943816  48.2338594  95.3989309
  14.8656522  47.3535973  95.2164414  15.5483187  48.1786263  96.2865698
  24.4423395  59.8693497  99.9084294  24.2948357  58.9410204 100.0891864
  25.2676888  59.8913588  99.4241369  18.3085639  48.5211564  95.7664786
  18.6481712  49.0497485  95.0443395  18.7557760  48.8591970  96.5423353
  28.0457517  60.6922056 100.9949167  28.9704064  60.4864917 100.8573618
  27.8772820  60.4438457 101.9038508  21.0029080  46.9048615 105.2167854
  20.6625900  46.1056428 105.6188534  20.2968086  47.2050326 104.6444687
  21.6545552  43.9897927 103.6695177  22.4771621  43.5158405 103.5474068
  21.8983615  44.7688411 104.1693864  20.2953786  47.0186186  93.9658079
  21.0162149  47.3967438  93.4621796  19.6719091  47.7375062  94.0693057
  24.4384909  47.7231335  94.9016411  24.6548524  48.6055972  94.6005239
  23.9578976  47.3317548  94.1722053  19.1784131  50.6817048 101.4787156
  19.0328711  50.9957351 102.3711437  18.7009334  51.3001948 100.9258055
  21.0380514  47.6719596 101.5268045  21.0242082  46.7760689 101.1900343
  21.7552942  47.6790260 102.1606332  22.8906644  48.1056936 103.5721173
  22.6324422  49.0274007 103.5705503  22.3591685  47.7087371 104.2621637
  27.8352833  61.2107723  96.3511258  28.0089711  60.6454146  95.5985111
  28.3281724  62.0108618  96.1690748  13.6529793  53.2222392 104.4174817
  13.1083261  53.9982200 104.5495091  14.5309143  53.5693197 104.2593939
  20.4417409  46.5533976  96.7955616  20.5633321  45.6250622  96.9946503
  20.1519452  46.5672662  95.8833931  23.3108600  44.2388887  99.9322335
  23.3330297  44.3028220  98.9774315  23.7276659  43.3993395 100.1262842
  14.4395815  52.3492288 107.3104974  13.6977551  52.4974924 107.8969604
  14.1188559  52.6100554 106.4471723  22.3839477  61.8908267 107.1085364
  22.6926604  61.6457413 107.9808064  23.1814959  62.0954905 106.6204234
  22.4060089  64.0446176  99.3390741  21.9665080  63.5522555 100.0323597
  23.1568206  63.5019144  99.0982816  14.8852428  60.2357717  99.3415369
  15.7110448  59.9361489  98.9614012  14.5346480  59.4665340  99.7905157
  19.8533962  59.5884185 101.4113042  19.2313971  58.9254890 101.1115270
  20.5238828  59.6145317 100.7286690  13.0861033  58.1544044 100.3004302
  12.2492942  57.7266218 100.1188303  13.0584679  58.3476487 101.2375093
  30.4113335  58.6107097 110.2846685  29.6208878  58.5931236 109.7451185
  30.1746689  59.1495390 111.0395722  30.5311210  55.4599563 107.5979414
  30.5809215  55.2949571 108.5394937  30.4225133  54.5926822 107.2077295
  19.4147468  58.1388109  94.8871503  19.5635589  58.8223573  94.2338175
  20.2213912  58.1193199  95.4020958  27.8214972  51.4430491 108.9138721
  28.7224835  51.3036956 108.6222718  27.8962947  51.6084946 109.8536898
  22.1557777  48.8197346 107.7591907  21.2861087  49.1130912 107.4874495
  22.3917258  49.4037791 108.4799171  32.0329407  57.8796505 107.8421435
  31.7414215  58.2426485 108.6784896  31.4201538  57.1663513 107.6634767
  30.2816595  53.0029119 106.3101493  30.7570716  53.1956766 105.5020345
  29.3582160  53.0588305 106.0644877  17.1700101  54.1653286  95.8932572
  16.9246143  53.2615616  96.0912782  17.3396016  54.1670437  94.9512050
  24.8596811  45.0376963 105.2757327  25.3778755  45.7737990 104.9503816
  24.5051944  45.3440956 106.1104086  16.4395749  49.8981644  93.3918733
  15.7464994  49.9725999  92.7358769  16.1947501  49.1341988  93.9140250
  25.1109405  41.4577245 100.7958224  25.3911159  40.7900434 101.4218650
  25.8960012  41.6506341 100.2832888  22.9142874  60.6336239  92.3583250
  22.3416841  61.2526426  91.9053722  23.4875668  61.1835601  92.8923172
  28.9818264  49.8794879 104.5429799  29.9335687  49.9792977 104.5642023
  28.8121714  49.0873148 105.0527883  27.0032643  46.9650463 104.7289200
  26.4082575  47.2455475 104.0335689  26.7182340  47.4544363 105.5005941
  26.1340134  60.9173389  93.4891832  27.0670807  60.8518951  93.6924708
  26.0463347  61.7529656  93.0306365  28.7628150  60.2339260  90.4495780
  28.6841782  59.8999123  91.3431538  29.5837817  60.7261028  90.4487252
  31.4606342  53.1000999 103.6572099  31.4282662  52.1617000 103.8431782
  32.0706965  53.1785036 102.9237924  23.2989672  51.9697052  89.6999303
  24.2448777  51.8403260  89.7687721  22.9203917  51.2311714  90.1768731
  31.6100830  49.8912042 103.7030382  31.0939879  49.1070499 103.5160311
  32.4940779  49.5630759 103.8676901  29.2711557  43.6353058  99.6626194
  29.0736378  43.3268146 100.5469526  29.8811263  44.3614697  99.7924124
  35.3598189  52.3024868 103.3952587  34.6331352  52.1680833 102.7869078
  34.9445475  52.6101697 104.2009305  23.1828365  56.0214798 111.1599960
  24.1031374  56.1993397 111.3540006  23.1477948  55.0770843 111.0079659
  21.4832590  49.8947028  89.6354188  20.5764045  49.5980141  89.7116901
  21.7608571  49.5976846  88.7688474  12.4010530  51.2153392 100.0853234
  12.0813314  50.3618700  99.7927608  11.8543958  51.4301970 100.8411202
  16.1790438  53.9315833 103.8022741  16.3976447  54.8632941 103.8210775
  16.5916211  53.5723807 104.5877545  23.0994655  44.4383918  95.7898429
  22.2895384  44.0931003  96.1653675  23.7879072  44.1291462  96.3786041
  25.0285204  43.5161965  97.4122726  25.5816242  43.9357418  98.0712749
  25.2655290  42.5897713  97.4545682  20.2531374  46.7533964  89.7766167
  21.1150538  47.0788862  90.0361984  20.4381718  45.9665459  89.2639233
  12.2698790  54.8356303 102.0546356  11.5762261  54.4210256 101.5416310
  13.0171781  54.8776840 101.4579775  28.4064011  45.6262490  96.9201390
  27.8262680  46.2847294  96.5379442  28.1399943  44.8039835  96.5088808
  26.8567577  45.0267548  99.1222710  27.3567355  45.1384082  98.3137029
  27.5003185  44.7228601  99.7623519  20.9149573  52.9346177 112.0090551
  20.4316655  53.7346537 112.2154440  21.0010512  52.9454122 111.0557995
  14.1835533  54.7674557  99.9312371  14.1606221  54.8662244  98.9794254
  14.4936169  55.6139708 100.2529537  16.8422910  56.8250712 104.0458985
  17.7966164  56.7934654 103.9788917  16.6435434  56.3641336 104.8609211
  17.4322293  55.3951828 106.6129783  18.2515182  55.8895907 106.6364620
  17.7059100  54.4783796 106.5847350  27.1888889  47.7862580  95.9757738
  26.3014744  48.0712231  95.7577933  27.6042878  47.6256344  95.1285015
  15.1973139  62.3670332 101.0629183  15.0627607  61.6070732 100.4967181
  14.7805201  63.0911231 100.5957972  27.1629912  53.3017116  96.1908028
  27.1065114  53.7585668  95.3515661  27.7158255  52.5407801  96.0130871
  18.3542265  63.2639649 101.2747626  18.2374649  64.2085081 101.1726316
  17.5334711  62.9613210 101.6633425  27.8964692  54.4921898  93.4860558
  27.8413496  54.3266169  92.5449002  27.2710747  55.1997931  93.6422747
  12.6857207  49.7289962 107.3121980  13.3316070  49.2188916 107.8009205
  12.4774358  50.4658644 107.8865405  25.2110599  56.7970809 112.8114120
  26.0801759  56.9711462 112.4500755  24.7317350  57.6165226 112.6889850
  21.2060817  43.9930007  93.0645876  21.1939487  44.9371847  93.2214147
  22.0984239  43.8100152  92.7705337  19.3796779  63.9167910 104.4903554
  20.2824026  63.9491521 104.8070049  19.1534149  62.9868361 104.5049890
  21.1350381  62.6698897 101.1513633  20.1846012  62.6700759 101.0378005
  21.4382867  61.9231632 100.6349667  25.0212937  40.5872783  97.3191813
  24.2545333  40.0331270  97.4648495  25.4323642  40.6594652  98.1805965
  27.0844029  71.8073532 100.9802031  27.8765321  71.4664356 100.5648331
  27.3240679  71.9168507 101.9004185  26.6531003  68.1767313 100.9216597
  26.7823384  68.4301792 101.8356008  25.9728454  68.7695021 100.6021252
  33.3147720  66.0192428 109.6768438  32.5381054  66.5786348 109.6671302
  33.9538283  66.5049211 110.1983308  31.5694092  68.8277882 109.2386405
  32.3108776  69.3662926 108.9621228  30.8631078  69.4544170 109.3957956
  36.5479947  63.5683997 106.8673297  36.3040879  64.3226058 106.3307572
  36.8239878  63.9469345 107.7020544  30.3055456  65.9817530 110.0401715
  29.6754116  66.6633811 110.2737111  30.1991544  65.8700611 109.0954853
  25.6000428  65.6489326 100.9667639  24.8099482  65.9046854 100.4907749
  26.0911676  66.4637664 101.0719679  23.8838131  65.9019816 103.3982630
  24.1346170  66.7866826 103.6640206  24.4197680  65.7224418 102.6257721
  29.5836199  60.2838296 112.4026966  29.1903144  59.7304494 113.0774610
  30.4002339  60.5948874 112.7933483  28.3593141  74.8387910  98.3963289
  28.5359769  75.7605875  98.2084273  29.1549975  74.5246329  98.8257668
  32.5004160  61.6996175 109.9947222  33.2413873  62.3003328 109.9151685
  32.7322082  60.9573813 109.4365265  27.6445498  66.8852542 108.2725452
  27.5299013  65.9837799 108.5732551  26.7890015  67.1316239 107.9210268
  33.2791628  72.6217212 108.7417862  33.8119964  71.8605500 108.5117170
  32.7505709  72.3290864 109.4842017  24.5147173  70.0510808  97.0900106
  25.3522395  70.4607817  96.8733814  24.6925441  69.1110250  97.0600300
  24.5373344  67.3901524  97.7610840  24.3397744  66.7970884  97.0361906
  23.9820008  67.0853734  98.4786778  27.0319570  66.9165557  95.4451792
  26.1017158  66.8550013  95.6621754  27.1277042  66.3941510  94.6488433
  26.9505119  63.4420370  98.0330033  27.2111936  64.3565704  97.9239194
  27.7722291  62.9744813  98.1826646  28.4230044  64.8558127 105.2028858
  29.0953098  64.6475490 104.5541507  27.5959831  64.6580213 104.7634090
  34.3255616  61.4820068 107.2194519  33.6783531  62.1810018 107.1258995
  35.0956632  61.9156212 107.5870767  28.8257542  68.1300730 105.9631295
  28.6877339  67.3980969 106.5642834  29.7362465  68.0409631 105.6815483
  30.1668776  64.8285908 107.2710614  29.6306133  64.3776646 107.9232210
  29.5785485  64.9631816 106.5281078  28.4617320  81.5949957 101.1655273
  28.7013918  82.2268481 101.8434291  27.6186516  81.2437997 101.4520632
  29.5771035  64.2874559  89.8337078  28.7000501  64.1663360  89.4699324
  30.0528788  63.4960637  89.5815966  21.0973175  69.0751719  99.9278585
  21.7844215  68.7613449  99.3399600  20.9421304  69.9793083  99.6545836
  25.9007897  63.9641915 104.3563609  25.8166086  63.3567585 103.6214019
  25.0790604  64.4550934 104.3573105  34.3344638  68.3474775 110.8579094
  33.6585275  68.2468905 111.5281469  35.1572272  68.1913989 111.3215091
  26.0823497  74.5846712 103.4791609  26.6676934  73.8390400 103.6119513
  25.8848335  74.8950669 104.3628273  20.6741151  67.1552312 102.1996052
  20.7125251  66.6215903 102.9933170  20.1681444  66.6287518 101.5807029
  27.5284186  64.0739985 109.3431629  28.1556225  63.6917062 109.9569153
  26.6712105  63.8554187 109.7087321  24.3049729  65.8816414  95.2749983
  24.6003170  64.9727093  95.2217037  23.4037765  65.8604154  94.9530986
  30.6370290  61.2926837 107.5318184  31.1604691  61.5389134 108.2944493
  30.4182623  62.1246872 107.1121321  26.0337571  63.5630512  95.3989309
  25.7050277  62.6827891  95.2164414  26.3876941  63.5078181  96.2865698
  24.4923547  68.5514310 104.4174817  23.9477015  69.3274118 104.5495091
  25.3702897  68.8985114 104.2593939  25.2789569  67.6784206 107.3104974
  24.5371305  67.8266842 107.8969604  24.9582313  67.9392472 106.4471723
  25.7246183  75.5649635  99.3415369  26.5504203  75.2653407  98.9614012
  25.3740235  74.7957257  99.7905157  23.9254788  73.4835961 100.3004302
  23.0886696  73.0558136 100.1188303  23.8978433  73.6768405 101.2375093
  30.7652244  63.3957891 111.0045548  30.8140399  64.2720014 110.6223318
  31.3074758  62.8535284 110.4317191  32.9951532  64.1489264 107.7591907
  32.1254841  64.4422830 107.4874495  33.2311012  64.7329709 108.4799171
  35.6990566  60.3668880 105.2757327  36.2172510  61.1029907 104.9503816
  35.3445699  60.6732874 106.1104086  27.2789503  65.2273562  93.3918733
  26.5858748  65.3017917  92.7358769  27.0341255  64.4633905  93.9140250
  34.0222119  71.3506716 111.1599960  34.9425129  71.5285315 111.3540006
  33.9871703  70.4062761 111.0079659  23.2404284  66.5445309 100.0853234
  22.9207069  65.6910618  99.7927608  22.6937713  66.7593888 100.8411202
  27.0184192  69.2607750 103.8022741  27.2370202  70.1924858 103.8210775
  27.4309966  68.9015725 104.5877545  31.8912057  64.8340956 113.1925490
  31.7908784  65.7835313 113.1237581  31.6733599  64.5059195 112.3201560
  31.0925129  62.0825881  89.7766167  31.9544293  62.4080780  90.0361984
  31.2775473  61.2957377  89.2639233  23.1092544  70.1648221 102.0546356
  22.4156016  69.7502174 101.5416310  23.8565535  70.2068757 101.4579775
  31.7543327  68.2638095 112.0090551  31.2710409  69.0638455 112.2154440
  31.8404266  68.2746040 111.0557995  25.0229287  70.0966475  99.9312371
  24.9999975  70.1954162  98.9794254  25.3329924  70.9431626 100.2529537
  27.6816665  72.1542630 104.0458985  28.6359918  72.1226572 103.9788917
  27.4829188  71.6933253 104.8609211  28.2716047  70.7243746 106.6129783
  29.0908936  71.2187824 106.6364620  28.5452855  69.8075714 106.5847350
  26.0366894  77.6962249 101.0629183  25.9021362  76.9362650 100.4967181
  25.6198956  78.4203149 100.5957972  29.1936020  78.5931566 101.2747626
  29.0768404  79.5376999 101.1726316  28.3728466  78.2905128 101.6633425
  23.5250961  65.0581880 107.3121980  24.1709825  64.5480834 107.8009205
  23.3168112  65.7950561 107.8865405  36.0504353  72.1262727 112.8114120
  36.9195513  72.3003379 112.4500755  35.5711105  72.9457144 112.6889850
  30.2190534  79.2459828 104.4903554  31.1217780  79.2783438 104.8070049
  29.9927904  78.3160279 104.5049890  27.8648452  62.2049497 111.4096994
  28.7279914  61.8486302 111.6200319  27.2913863  61.8663392 112.0972398
  47.7096829  83.8351353 102.2159395  48.3475239  83.7158100 101.5122735
  47.5917672  84.7832197 102.2747347  44.5186535  83.7878781 102.1520920
  44.1805047  83.6719846 101.2641455  45.3876304  83.3869946 102.1321926
  40.3773351  85.6414258  98.1417811  39.8138216  85.5504195  97.3734099
  40.2625746  84.8214162  98.6220303  45.0006318  84.9413633 108.1107125
  44.9894959  84.5466431 107.2387629  45.1626958  84.2079706 108.7040897
  37.9237783  87.1365449 100.9802031  38.7159075  86.7956274 100.5648331
  38.1634433  87.2460424 101.9004185  45.9572910  89.3085225  93.4532276
  45.3060890  89.8939306  93.0666289  46.7517273  89.8391420  93.5127313
  39.8828537  86.3974362  93.8519410  40.6559413  85.8503350  93.7132286
  40.2353936  87.2618612  94.0633871  41.7213580  87.7250745 107.0586309
  41.4303446  88.6296376 106.9432976  42.3570564  87.7667272 107.7730379
  42.6469786  85.1027593 103.6487669  43.2433359  84.8783616 102.9344632
  42.7044758  84.3612339 104.2513117  42.2194815  82.5567029  91.4837860
  42.4720336  82.0348550  90.7221323  41.2819374  82.3933174  91.5864544
  47.2638098  81.5602807  99.2912603  48.0501187  81.1422230  98.9403020
  47.5276802  82.4648899  99.4594252  47.4348175  86.9975657  93.9901260
  46.7994008  87.0710284  94.7022165  47.1045581  87.5869256  93.3120339
  52.6646525  81.4978040 100.1945582  53.3971697  80.9277257 100.4283411
  51.9085881  81.1099641 100.6352087  41.9391104  84.4595135  93.6862235
  41.8227362  83.7840038  94.3543319  42.0493363  83.9727508  92.8694388
  44.2822645  83.9205282  97.3908924  43.9180852  83.3935903  98.1021846
  45.1389760  83.5303751  97.2175410  50.1871945  75.2099614 104.6540190
  49.8555270  76.0795025 104.4301405  49.5917559  74.8935898 105.3334221
  43.9228132  78.9495181  92.3870273  44.0902534  79.8175418  92.7540744
  43.7325301  79.1122463  91.4631562  46.6803465  87.4112160 104.0536103
  46.3804188  88.3137199 103.9451910  46.3354524  87.1444343 104.9057256
  40.1315946  83.8625957 100.0872807  39.2066443  83.7302171 100.2950499
  40.3800359  84.6420176 100.5842750  50.0800608  79.9294700 101.7333540
  49.1717486  79.8610109 101.4392301  50.0288204  80.4066645 102.5615366
  43.9017352  81.4052839  93.3716939  43.7816978  81.8509890  94.2102420
  43.2069941  81.7538157  92.8130478  37.4924757  83.5059231 100.9216597
  37.6217138  83.7593710 101.8356008  36.8122209  84.0986939 100.6021252
  41.6624244  94.1756481  97.0207071  41.5848274  95.1264306  97.0995551
  41.0585888  93.8302353  97.6781997  44.1541474  81.3484346 109.6768438
  43.3774808  81.9078266 109.6671302  44.7932037  81.8341129 110.1983308
  51.9462255  78.1311139 103.5111414  51.3036635  78.4243672 102.8651209
  51.4417183  78.0164059 104.3164611  49.6002419  81.8774312  94.1997274
  50.5120275  82.1101699  94.0244971  49.0912066  82.4611356  93.6372352
  42.4087847  84.1569799 109.2386405  43.1502531  84.6954843 108.9621228
  41.7024832  84.7836088 109.3957956  47.8843186  86.2998940 107.8358566
  48.2926542  85.8581350 107.0913198  47.1620448  85.7251567 108.0892759
  44.2374256  81.2371547 105.2092123  45.0835451  81.6610960 105.3526772
  44.1772894  80.5805171 105.9030686  48.2072001  86.8600130 101.5910855
  47.5780863  87.0245845 100.8886923  47.8197663  87.2741740 102.3621819
  52.0861233  87.7954568  98.9455219  51.4012271  88.1753470  98.3952252
  52.1705082  88.4049895  99.6787167  47.3873702  78.8975915 106.8673297
  47.1434633  79.6517975 106.3307572  47.6633632  79.2761263 107.7020544
  49.3412164  85.4414527 105.5450562  49.5529060  86.0846287 104.8684943
  49.2941913  84.6076844 105.0772492  43.7599963  86.5974539  98.8560940
  44.2238308  86.8762242  98.0665563  43.4956761  85.6957983  98.6734031
  40.6524044  86.1446020 101.7940703  41.2225401  86.5733288 101.1558188
  41.2432156  85.8628605 102.4924889  42.6968849  82.7197691  95.6650505
  43.3992892  83.1718735  96.1324432  42.3649477  82.0781510  96.2930398
  41.1449210  81.3109448 110.0401715  40.5147871  81.9925728 110.2737111
  41.0385298  81.1992529 109.0954853  50.4557992  88.3186483 103.7172920
  51.2775436  87.9166670 103.4355601  50.4520395  88.2154717 104.6689035
  38.3908928  81.3425823  97.9251115  37.5940091  81.4544517  98.4434611
  38.1634520  81.6812475  97.0592006  44.2214596  87.8670526 105.8733630
  44.2859028  88.3290933 106.7091802  43.5125520  87.2367891 106.0015940
  58.5463985  84.6625231 100.0657891  57.7927694  84.0932629  99.9101896
  58.6811527  84.6287896 101.0128526  43.9362613  89.5338634  95.7412610
  43.8008288  90.3790169  96.1697458  44.4772426  89.7357911  94.9778544
  37.3892011  87.0514072  96.3140536  37.9016531  87.8457322  96.4646100
  38.0414724  86.3540362  96.2474137  39.1986895  90.1679828  98.3963289
  39.3753524  91.0897793  98.2084273  39.9943729  89.8538247  98.8257668
  43.3397914  77.0288092 109.9947222  44.0807627  77.6295246 109.9151685
  43.5715837  76.2865730 109.4365265  38.4839252  82.2144460 108.2725452
  38.3692767  81.3129717 108.5732551  37.6283770  82.4608157 107.9210268
  45.5631090  90.1562200 109.8712953  45.1194944  89.3698579 109.5533857
  46.2248303  90.3441351 109.2056843  40.3218211  91.6858002 104.3973631
  40.8725636  91.5575065 103.6250625  39.4829687  91.9852891 104.0468524
  47.6612328  90.4365000 107.8994354  47.6430803  91.2573881 107.4074623
  48.5832248  90.3119075 108.1244495  44.1185382  87.9509129 108.7417862
  44.6513719  87.1897418 108.5117170  43.5899463  87.6582781 109.4842017
  35.3540928  85.3802726  97.0900106  36.1916150  85.7899734  96.8733814
  35.5319195  84.4402168  97.0600300  47.2505360  83.0477807  92.7783939
  46.7351983  83.8182411  93.0172326  46.9782668  82.3742943  93.4017000
  52.2239634  85.8010161  94.7137113  51.4469077  85.4621321  94.2692275
  52.9031115  85.8062784  94.0392078  47.0391663  80.9204899  94.6043720
  46.7341798  81.2351048  95.4553863  47.9922105  80.9986319  94.6471053
  45.4838095  87.0795122  96.2536674  44.9559456  86.3447882  95.9409912
  44.9825597  87.8569798  96.0076643  50.4630941  85.2744142 101.3703720
  49.8054615  85.9643404 101.4583849  51.2671340  85.6640574 101.7137707
  49.2736400  83.6288515  99.4207662  49.7868281  84.2618507  99.9229372
  49.9237623  83.0289711  99.0551022  40.5426409  79.7719249  92.6339171
  39.7063722  80.1093936  92.9548446  40.4031179  79.6368229  91.6966308
  43.6290695  84.8975332  89.2571647  42.7217757  84.6664586  89.4562796
  44.1261727  84.1012951  89.4445629  46.5358774  93.6072839  92.1768333
  45.8620473  93.9104536  92.7853291  46.9224596  94.4101920  91.8273790
  46.5352278  82.5029386  96.7968683  47.2824097  83.0150784  96.4875805
  46.8043868  82.1813439  97.6573077  44.8078928  84.9987927  93.7795637
  43.8990148  84.7146960  93.8768107  44.8374012  85.4187006  92.9198944
  50.0398196  88.6094517  97.5486805  49.5860523  87.7685426  97.6051995
  49.4092162  89.2455915  97.8861585  48.9831115  79.5386503  98.7787472
  48.2453872  79.0263889  99.1097715  49.2357889  79.0986884  97.9670749
  48.4831135  90.4471013  98.4836623  48.7754109  91.0076070  97.7648989
  48.9929756  90.7399574  99.2389782  44.5055016  86.5396671  91.1183716
  44.0674446  85.8232530  90.6589353  45.2465457  86.7672786  90.5568807
  41.2956182  81.2293607  97.6395812  40.4824048  81.5287778  98.0461004
  41.7915176  80.8349296  98.3570294  43.4464760  91.2251364  99.5730076
  43.4040939  91.4512211  98.6438608  44.3627459  90.9914739  99.7215877
  46.8930394  81.6935432 106.4710705  47.2479782  81.9206905 107.3305171
  47.5402525  82.0253809 105.8487961  52.6228131  84.8153868  97.1760034
  52.4846030  85.0055464  96.2481224  52.2664350  85.5773251  97.6328086
  52.6497511  86.8830395 102.1871306  53.0834017  86.7905684 103.0354360
  53.3629091  86.8587895 101.5491322  41.5630561  88.1014393  99.3692039
  42.3571159  87.6064714  99.1674614  40.8522253  87.5732256  99.0059745
  46.3825405  90.4832489 103.7204407  46.4362428  91.0523425 104.4882122
  45.5140187  90.6534374 103.3558444  37.8713324  82.2457475  95.4451792
  36.9410913  82.1841931  95.6621754  37.9670796  81.7233428  94.6488433
  53.5113060  86.9254095 104.7204191  53.7048950  87.8299906 104.9663466
  53.4113678  86.4661515 105.5542776  48.5728169  87.0760838 110.2945072
  48.4213675  86.8471390 109.3775156  48.5632848  88.0331440 110.3076417
  45.3413505  84.6492751 105.2791338  46.2705565  84.8003911 105.1060306
  44.9204535  84.7376772 104.4239985  44.1401837  88.6743415 103.0489876
  44.0012923  88.3062200 103.9215814  43.3516433  89.1891055 102.8773834
  44.7349989  93.7752512  94.3915413  44.9101745  93.3040555  95.2061035
  44.0482777  94.4018278  94.6196673  45.6907052  88.0525018 100.4378714
  45.3556885  88.0125788 101.3336364  45.1910998  87.3869734  99.9649124
  39.6651296  83.4592648 105.9631295  39.5271094  82.7272887 106.5642834
  40.5756220  83.3701548 105.6815483  48.6266244  85.3981052  90.7115773
  48.0095414  84.6727881  90.6148826  48.1582732  86.1590413  90.3682848
  42.2933597  83.1712607 105.4514975  43.0033215  82.5305800 105.4101593
  42.2502905  83.4225502 106.3741155  50.2820375  90.1079961 108.3721554
  50.2232922  89.4239181 107.7052137  50.6839894  90.8498951 107.9202180
  41.0062531  80.1577825 107.2710614  40.4699888  79.7068564 107.9232210
  40.4179239  80.2923734 106.5281078  39.3011074  96.9241875 101.1655273
  39.5407672  97.5560399 101.8434291  38.4580271  96.5729915 101.4520632
  40.4164790  79.6166477  89.8337078  39.5394256  79.4955277  89.4699324
  40.8922543  78.8252555  89.5815966  50.2837783  88.0719545 106.6035534
  49.3964561  87.7345466 106.7261932  50.8536334  87.3402576 106.8404299
  31.9366930  84.4043636  99.9278585  32.6237970  84.0905366  99.3399600
  31.7815058  85.3085001  99.6545836  43.8138936  92.7320997 103.5696777
  43.7409108  93.5375969 104.0816081  43.3716329  92.9312963 102.7444798
  43.6028716  91.9692767  97.0799598  42.8196238  92.5114447  97.1737823
  44.3021461  92.4866747  97.4793839  54.7655123  83.4827762 101.3652095
  54.7544999  84.3652477 100.9946028  53.8972503  83.1299313 101.1706632
  46.2737620  92.6307831 105.7254935  46.9865592  93.2655296 105.6530837
  45.7827648  92.7271697 104.9094937  47.9955146  86.5359084  97.2972227
  47.0611425  86.6560546  97.1276931  48.1731815  85.6331551  97.0332237
  51.3827698  82.3776403  97.8322261  51.8488150  83.2104395  97.7582564
  51.8335198  81.9121385  98.5367520  41.3249533  90.3802275 106.5460506
  42.0258993  91.0138757 106.6989900  40.8544648  90.7217006 105.7856145
  49.4503929  88.7220224  94.8308413  49.7263773  88.6076819  95.7402287
  48.5808428  88.3237709  94.7920586  49.1250819  82.9346882 104.3713057
  48.4722269  83.1822789 103.7165509  49.5031199  82.1211020 104.0375534
  46.0857993  92.9706575  98.4741227  46.2680387  92.1528231  98.9368979
  46.9090979  93.1874267  98.0366117  46.4200158  91.8974760  95.7356275
  46.9487925  91.3867215  95.1226437  46.6828378  91.5817290  96.6001808
  45.1738392  83.6766693 110.8579094  44.4979029  83.5760822 111.5281469
  45.9966026  83.5205907 111.3215091  36.9217251  89.9138630 103.4791609
  37.5070688  89.1682317 103.6119513  36.7242090  90.2242586 104.3628273
  39.7755906  92.9489877  98.4954051  39.1066282  93.4336005  98.0118091
  39.6368776  93.1959097  99.4097430  31.5134906  82.4844230 102.1996052
  31.5519005  81.9507820 102.9933170  31.0075199  81.9579435 101.5807029
  43.9161175  94.9833620 105.0936710  44.4679483  95.1465242 105.8585795
  44.2567368  95.5738058 104.4216734  38.3677941  79.4031903 109.3431629
  38.9949980  79.0208980 109.9569153  37.5105860  79.1846105 109.7087321
  48.7672049  89.8094878 110.9485364  49.3111953  90.4224836 110.4540319
  48.1858894  90.3674456 111.4652377  47.0529562  92.9315596 102.0800392
  46.9280702  92.1305336 101.5711337  47.7108653  93.4261789 101.5914362
  49.1164471  90.7324616 103.7079942  48.1694806  90.6129967 103.6358269
  49.4647244  89.8447114 103.7906203  46.1210904  90.5277332  99.9084294
  45.9735866  89.5994040 100.0891864  46.9464397  90.5497423  99.4241369
  39.9873148  79.1795399  95.7664786  40.3269221  79.7081321  95.0443395
  40.4345269  79.5175806  96.5423353  49.7245026  91.3505891 100.9949167
  50.6491573  91.1448752 100.8573618  49.5560329  91.1022292 101.9038508
  46.1172418  78.3815170  94.9016411  46.3336033  79.2639808  94.6005239
  45.6366485  77.9901383  94.1722053  49.5140342  91.8691558  96.3511258
  49.6877220  91.3037981  95.5985111  50.0069233  92.6692453  96.1690748
  35.3317302  83.8806228 104.4174817  34.7870770  84.6566036 104.5495091
  36.2096652  84.2277032 104.2593939  55.3679733  84.6327981  97.9701558
  55.8110879  83.8835307  97.5720681  54.4906243  84.6238118  97.5875290
  50.5015514  91.1858323  93.4508157  51.1966419  91.8065016  93.6695471
  50.8438665  90.3353674  93.7260534  36.1183324  83.0076124 107.3104974
  35.3765060  83.1558759 107.8969604  35.7976068  83.2684389 106.4471723
  52.4006938  88.6358028  94.9795487  52.9258262  88.9745301  94.2544807
  52.3129290  87.7005044  94.7958622  44.0626986  92.5492102 107.1085364
  44.3714113  92.3041249 107.9808064  44.8602468  92.7538741 106.6204234
  44.0847598  94.7030012  99.3390741  43.6452589  94.2106390 100.0323597
  44.8355715  94.1602979  99.0982816  36.5639937  90.8941553  99.3415369
  37.3897957  90.5945324  98.9614012  36.2133989  90.1249175  99.7905157
  41.5321471  90.2468021 101.4113042  40.9101480  89.5838726 101.1115270
  42.2026337  90.2729153 100.7286690  34.7648542  88.8127879 100.3004302
  33.9280451  88.3850053 100.1188303  34.7372188  89.0060322 101.2375093
  41.6045998  78.7249809 111.0045548  41.6534153  79.6011932 110.6223318
  42.1468512  78.1827202 110.4317191  52.0900844  89.2690932 110.2846685
  51.2996387  89.2515071 109.7451185  51.8534198  89.8079226 111.0395722
  52.2098719  86.1183398 107.5979414  52.2596724  85.9533406 108.5394937
  52.1012642  85.2510657 107.2077295  41.0934977  88.7971944  94.8871503
  41.2423098  89.4807409  94.2338175  41.9001421  88.7777034  95.4020958
  49.5002481  82.1014326 108.9138721  50.4012344  81.9620791 108.6222718
  49.5750456  82.2668781 109.8536898  43.8345286  79.4781181 107.7591907
  42.9648596  79.7714747 107.4874495  44.0704767  80.0621626 108.4799171
  53.7116916  88.5380340 107.8421435  53.4201724  88.9010321 108.6784896
  53.0989047  87.8247348 107.6634767  54.9112598  86.1033220 100.3624006
  55.7459489  86.5423024 100.5261566  55.0471727  85.6271873  99.5432251
  51.9604104  83.6612955 106.3101493  52.4358225  83.8540601 105.5020345
  51.0369669  83.7172140 106.0644877  38.8487610  84.8237122  95.8932572
  38.6033652  83.9199452  96.0912782  39.0183525  84.8254272  94.9512050
  44.5930383  91.2920075  92.3583250  44.0204350  91.9110262  91.9053722
  45.1663177  91.8419436  92.8923172  50.6605773  80.5378715 104.5429799
  51.6123196  80.6376812 104.5642023  50.4909223  79.7456983 105.0527883
  48.6820152  77.6234298 104.7289200  48.0870084  77.9039311 104.0335689
  48.3969849  78.1128199 105.5005941  47.8127643  91.5757225  93.4891832
  48.7458316  91.5102786  93.6924708  47.7250856  92.4113492  93.0306365
  50.4415659  90.8923095  90.4495780  50.3629291  90.5582959  91.3431538
  51.2625326  91.3844863  90.4487252  53.1393851  83.7584834 103.6572099
  53.1070171  82.8200835 103.8431782  53.7494474  83.8368871 102.9237924
  44.9777181  82.6280887  89.6999303  45.9236286  82.4987095  89.7687721
  44.5991426  81.8895549  90.1768731  53.2888339  80.5495878 103.7030382
  52.7727388  79.7654334 103.5160311  54.1728288  80.2214594 103.8676901
  58.9570400  84.8200841 102.7978135  59.6873789  84.5586129 103.3585839
  58.3477346  84.0829563 102.8380203  57.0385698  82.9608704 103.3952587
  56.3118861  82.8264669 102.7869078  56.6232984  83.2685532 104.2009305
  44.8615874  86.6798633 111.1599960  45.7818883  86.8577232 111.3540006
  44.8265457  85.7354679 111.0079659  43.1620099  80.5530864  89.6354188
  42.2551554  80.2563976  89.7116901  43.4396080  80.2560682  88.7688474
  37.8577947  84.5899668 103.8022741  38.0763956  85.5216776 103.8210775
  38.2703720  84.2307643 104.5877545  42.7305812  80.1632874 113.1925490
  42.6302539  81.1127231 113.1237581  42.5127354  79.8351113 112.3201560
  41.9318883  77.4117799  89.7766167  42.7938047  77.7372697  90.0361984
  42.1169227  76.6249295  89.2639233  33.9486299  85.4940139 102.0546356
  33.2549770  85.0794091 101.5416310  34.6959290  85.5360675 101.4579775
  42.5937082  83.5930013 112.0090551  42.1104164  84.3930373 112.2154440
  42.6798021  83.6037958 111.0557995  35.8623041  85.4258392  99.9312371
  35.8393730  85.5246080  98.9794254  36.1723678  86.2723543 100.2529537
  38.5210419  87.4834547 104.0458985  39.4753673  87.4518490 103.9788917
  38.3222943  87.0225171 104.8609211  39.1109802  86.0535663 106.6129783
  39.9302690  86.5479742 106.6364620  39.3846609  85.1367632 106.5847350
  52.2190934  78.4692937  99.6912078  52.9951324  78.9589389  99.9636694
  51.4939068  78.8950991 100.1483947  54.6563492  79.1820556 100.7486018
  55.2507983  78.9416292 100.0379326  54.7290076  78.4627687 101.3759555
  36.8760648  93.0254167 101.0629183  36.7415116  92.2654568 100.4967181
  36.4592710  93.7495067 100.5957972  48.0119611  88.2091090  90.0705758
  48.7155461  88.4141093  90.6863414  47.2882260  88.7767852  90.3354842
  48.8417421  83.9600952  96.1908028  48.7852623  84.4169503  95.3515661
  49.3945764  83.1991636  96.0130871  52.6522227  79.7490684  97.0158148
  52.3959162  79.3487319  97.8466356  52.0275095  80.4634478  96.8908287
  56.9634565  82.4886757  99.5229439  56.4034123  82.5579946 100.2961001
  56.3578069  82.3127741  98.8028936  40.0329774  93.9223484 101.2747626
  39.9162158  94.8668916 101.1726316  39.2122220  93.6197045 101.6633425
  49.9206309  88.6473620  92.1204218  50.7551913  88.2154818  91.9381693
  49.7590652  88.4755633  93.0481113  49.5752201  85.1505733  93.4860558
  49.5201005  84.9850004  92.5449002  48.9498256  85.8581766  93.6422747
  34.3644716  80.3873797 107.3121980  35.0103579  79.8772751 107.8009205
  34.1561867  81.1242479 107.8865405  46.8898108  87.4554645 112.8114120
  47.7589268  87.6295297 112.4500755  46.4104859  88.2749062 112.6889850
  41.0584288  94.5751746 104.4903554  41.9611535  94.6075356 104.8070049
  40.8321658  93.6452197 104.5049890  42.8137890  93.3282732 101.1513633
  41.8633521  93.3284594 101.0378005  43.1170376  92.5815467 100.6349667
  58.5490584  99.1643271 102.2159395  59.1868994  99.0450018 101.5122735
  58.4311427 100.1124115 102.2747347  55.3580290  99.1170699 102.1520920
  55.0198801  99.0011764 101.2641455  56.2270058  98.7161864 102.1321926
  51.2167106 100.9706175  98.1417811  50.6531971 100.8796112  97.3734099
  51.1019501 100.1506080  98.6220303  55.8400073 100.2705551 108.1107125
  55.8288714  99.8758349 107.2387629  56.0020712  99.5371623 108.7040897
  48.7631538 102.4657367 100.9802031  49.5552830 102.1248192 100.5648331
  49.0028188 102.5752342 101.9004185  56.7966664 104.6377143  93.4532276
  56.1454644 105.2231223  93.0666289  57.5911027 105.1683338  93.5127313
  50.7222292 101.7266280  93.8519410  51.4953168 101.1795267  93.7132286
  51.0747690 102.5910529  94.0633871  52.5607334 103.0542662 107.0586309
  52.2697200 103.9588293 106.9432976  53.1964318 103.0959190 107.7730379
  53.4863541 100.4319511 103.6487669  54.0827113 100.2075533 102.9344632
  53.5438512  99.6904256 104.2513117  53.0588569  97.8858946  91.4837860
  53.3114090  97.3640468  90.7221323  52.1213128  97.7225092  91.5864544
  58.1031852  96.8894725  99.2912603  58.8894941  96.4714148  98.9403020
  58.3670556  97.7940817  99.4594252  58.2741930 102.3267575  93.9901260
  57.6387762 102.4002201  94.7022165  57.9439336 102.9161174  93.3120339
  63.5040279  96.8269958 100.1945582  64.2365451  96.2569175 100.4283411
  62.7479635  96.4391558 100.6352087  52.7784858  99.7887052  93.6862235
  52.6621116  99.1131956  94.3543319  52.8887118  99.3019426  92.8694388
  55.1216399  99.2497199  97.3908924  54.7574606  98.7227820  98.1021846
  55.9783515  98.8595668  97.2175410  61.0265700  90.5391532 104.6540190
  60.6949024  91.4086943 104.4301405  60.4311313  90.2227816 105.3334221
  54.7621886  94.2787099  92.3870273  54.9296288  95.1467335  92.7540744
  54.5719055  94.4414381  91.4631562  57.5197219 102.7404078 104.0536103
  57.2197942 103.6429117 103.9451910  57.1748279 102.4736261 104.9057256
  50.9709701  99.1917875 100.0872807  50.0460197  99.0594089 100.2950499
  51.2194114  99.9712094 100.5842750  60.9194363  95.2586618 101.7333540
  60.0111240  95.1902027 101.4392301  60.8681959  95.7358563 102.5615366
  54.7411107  96.7344757  93.3716939  54.6210732  97.1801807  94.2102420
  54.0463695  97.0830074  92.8130478  48.3318512  98.8351148 100.9216597
  48.4610893  99.0885627 101.8356008  47.6515963  99.4278856 100.6021252
  52.5017999 109.5048398  97.0207071  52.4242029 110.4556223  97.0995551
  51.8979643 109.1594271  97.6781997  54.9935229  96.6776264 109.6768438
  54.2168563  97.2370184 109.6671302  55.6325792  97.1633047 110.1983308
  62.7856009  93.4603056 103.5111414  62.1430390  93.7535590 102.8651209
  62.2810938  93.3455977 104.3164611  60.4396173  97.2066230  94.1997274
  61.3514029  97.4393616  94.0244971  59.9305820  97.7903274  93.6372352
  53.2481601  99.4861717 109.2386405  53.9896285 100.0246761 108.9621228
  52.5418587 100.1128006 109.3957956  58.7236941 101.6290858 107.8358566
  59.1320297 101.1873268 107.0913198  58.0014202 101.0543485 108.0892759
  55.0768011  96.5663464 105.2092123  55.9229206  96.9902878 105.3526772
  55.0166648  95.9097089 105.9030686  59.0465755 102.1892048 101.5910855
  58.4174618 102.3537762 100.8886923  58.6591417 102.6033658 102.3621819
  62.9254987 103.1246486  98.9455219  62.2406025 103.5045387  98.3952252
  63.0098837 103.7341813  99.6787167  58.2267456  94.2267833 106.8673297
  57.9828388  94.9809893 106.3307572  58.5027387  94.6053180 107.7020544
  60.1805919 100.7706445 105.5450562  60.3922814 101.4138205 104.8684943
  60.1335667  99.9368762 105.0772492  57.7832148  93.3824266 102.4487134
  56.9216627  93.6805519 102.7403872  57.8094582  93.5994665 101.5168167
  54.5993717 101.9266456  98.8560940  55.0632063 102.2054159  98.0665563
  54.3350515 101.0249901  98.6734031  51.4917798 101.4737938 101.7940703
  52.0619155 101.9025206 101.1558188  52.0825910 101.1920522 102.4924889
  53.5362603  98.0489609  95.6650505  54.2386647  98.5010652  96.1324432
  53.2043232  97.4073427  96.2930398  51.9842965  96.6401365 110.0401715
  51.3541625  97.3217646 110.2737111  51.8779053  96.5284447 109.0954853
  47.2787937  96.3073161 100.9667639  46.4886991  96.5630690 100.4907749
  47.7699185  97.1221499 101.0719679  61.2951747 103.6478400 103.7172920
  62.1169191 103.2458588 103.4355601  61.2914150 103.5446635 104.6689035
  49.2302683  96.6717741  97.9251115  48.4333846  96.7836435  98.4434611
  49.0028275  97.0104393  97.0592006  55.0608350 103.1962444 105.8733630
  55.1252783 103.6582851 106.7091802  54.3519274 102.5659809 106.0015940
  45.5625640  96.5603652 103.3982630  45.8133679  97.4450662 103.6640206
  46.0985189  96.3808253 102.6257721  69.3857740  99.9917149 100.0657891
  68.6321448  99.4224547  99.9101896  69.5205281  99.9579813 101.0128526
  54.7756368 104.8630551  95.7412610  54.6402043 105.7082087  96.1697458
  55.3166180 105.0649829  94.9778544  51.2623708  90.9422131 112.4026966
  50.8690653  90.3888330 113.0774610  52.0789848  91.2532710 112.7933483
  48.2285765 102.3805989  96.3140536  48.7410286 103.1749240  96.4646100
  48.8808478 101.6832280  96.2474137  50.0380650 105.4971746  98.3963289
  50.2147278 106.4189710  98.2084273  50.8337484 105.1830165  98.8257668
  54.1791669  92.3580010 109.9947222  54.9201382  92.9587163 109.9151685
  54.4109591  91.6157648 109.4365265  49.3233007  97.5436377 108.2725452
  49.2086522  96.6421635 108.5732551  48.4677524  97.7900074 107.9210268
  56.4024844 105.4854118 109.8712953  55.9588698 104.6990496 109.5533857
  57.0642058 105.6733268 109.2056843  51.1611965 107.0149919 104.3973631
  51.7119391 106.8866983 103.6250625  50.3223441 107.3144808 104.0468524
  58.5006082 105.7656918 107.8994354  58.4824558 106.5865799 107.4074623
  59.4226002 105.6410993 108.1244495  54.9579136 103.2801047 108.7417862
  55.4907473 102.5189335 108.5117170  54.4293218 102.9874699 109.4842017
  58.1248831  88.3861113 104.2711504  57.7813101  89.2762755 104.1950615
  58.4927794  88.1962771 103.4081089  46.1934682 100.7094644  97.0900106
  47.0309904 101.1191652  96.8733814  46.3712950  99.7694086  97.0600300
  58.0899114  98.3769724  92.7783939  57.5745738  99.1474329  93.0172326
  57.8176423  97.7034860  93.4017000  55.6746225  93.2219425  97.8369177
  54.8187822  92.8326275  97.6574816  56.0873177  93.3011386  96.9768963
  57.2045372  90.7565768 102.2360737  56.7010167  90.7195903 101.4228542
  57.4975979  91.6658511 102.2957394  53.4488258  90.8404498 101.2426919
  54.3141255  90.6447307 100.8832808  53.5165767  90.6114850 102.1696276
  63.0633388 101.1302079  94.7137113  62.2862831 100.7913238  94.2692275
  63.7424869 101.1354702  94.0392078  57.8785417  96.2496816  94.6043720
  57.5735553  96.5642965  95.4553863  58.8315859  96.3278236  94.6471053
  56.3231849 102.4087040  96.2536674  55.7953211 101.6739799  95.9409912
  55.8219352 103.1861716  96.0076643  61.3024695 100.6036060 101.3703720
  60.6448370 101.2935321 101.4583849  62.1065094 100.9932492 101.7137707
  51.0550577  93.0706706  98.6143286  51.6294329  92.8481887  97.8816479
  51.6421559  93.1395400  99.3671887  60.1130154  98.9580433  99.4207662
  60.6262036  99.5910425  99.9229372  60.7631378  98.3581628  99.0551022
  51.3820164  95.1011167  92.6339171  50.5457476  95.4385853  92.9548446
  51.2424934  94.9660147  91.6966308  53.3573245  89.9447955  97.3418355
  52.7037657  89.6296972  96.7174970  53.3153719  89.3223695  98.0678178
  54.4684449 100.2267250  89.2571647  53.5611511  99.9956503  89.4562796
  54.9655481  99.4304869  89.4445629  57.3752528 108.9364757  92.1768333
  56.7014227 109.2396454  92.7853291  57.7618350 109.7393837  91.8273790
  56.5910985  96.4329888 101.6666003  55.6733546  96.6544835 101.5087691
  57.0071129  96.5076199 100.8077710  57.3746033  97.8321304  96.7968683
  58.1217852  98.3442701  96.4875805  57.6437622  97.5105357  97.6573077
  55.6472683 100.3279845  93.7795637  54.7383902 100.0438878  93.8768107
  55.6767767 100.7478923  92.9198944  60.8791950 103.9386434  97.5486805
  60.4254277 103.0977344  97.6051995  60.2485917 104.5747833  97.8861585
  59.8224870  94.8678420  98.7787472  59.0847627  94.3555806  99.1097715
  60.0751643  94.4278802  97.9670749  59.3224889 105.7762931  98.4836623
  59.6147864 106.3367988  97.7648989  59.8323510 106.0691492  99.2389782
  59.9236497  87.6454672  99.3729242  60.2295374  86.7852036  99.0855157
  60.6489102  88.2372292  99.1728235  46.2160853  98.0485359  97.7610840
  46.0185253  97.4554720  97.0361906  45.6607517  97.7437569  98.4786778
  54.1957577  97.9408465  99.8805433  54.2506187  96.9882302  99.8047909
  53.3848779  98.0967904 100.3646731  55.3448771 101.8688588  91.1183716
  54.9068201 101.1524447  90.6589353  56.0859211 102.0964703  90.5568807
  52.1349937  96.5585525  97.6395812  51.3217802  96.8579696  98.0461004
  52.6308931  96.1641214  98.3570294  54.2858515 106.5543282  99.5730076
  54.2434693 106.7804128  98.6438608  55.2021214 106.3206657  99.7215877
  57.7324148  97.0227350 106.4710705  58.0873536  97.2498823 107.3305171
  58.3796280  97.3545726 105.8487961  63.4621885 100.1445785  97.1760034
  63.3239784 100.3347381  96.2481224  63.1058104 100.9065168  97.6328086
  51.6264012  94.1303881 103.2557046  52.2663391  93.9892640 102.5580010
  50.7941542  93.8438394 102.8795648  63.4891265 102.2122312 102.1871306
  63.9227772 102.1197602 103.0354360  64.2022846 102.1879813 101.5491322
  52.4024315 103.4306311  99.3692039  53.1964914 102.9356631  99.1674614
  51.6916008 102.9024174  99.0059745  57.2219160 105.8124407 103.7204407
  57.2756182 106.3815343 104.4882122  56.3533941 105.9826292 103.3558444
  48.7107079  97.5749393  95.4451792  47.7804667  97.5133848  95.6621754
  48.8064551  97.0525346  94.6488433  48.6292628  94.1004206  98.0330033
  48.8899445  95.0149539  97.9239194  49.4509800  93.6328648  98.1826646
  50.1017553  95.5141963 105.2028858  50.7740607  95.3059325 104.5541507
  49.2747340  95.3164049 104.7634090  64.3506815 102.2546013 104.7204191
  64.5442705 103.1591824 104.9663466  64.2507433 101.7953432 105.5542776
  56.0043125  92.1403904 107.2194519  55.3571040  92.8393853 107.1258995
  56.7744141  92.5740048 107.5870767  59.4121923 102.4052756 110.2945072
  59.2607430 102.1763308 109.3775156  59.4026603 103.3623357 110.3076417
  56.1807260  99.9784669 105.2791338  57.1099320 100.1295828 105.1060306
  55.7598290 100.0668689 104.4239985  54.9795591 104.0035333 103.0489876
  54.8406677 103.6354117 103.9215814  54.1910188 104.5182972 102.8773834
  55.5743743 109.1044429  94.3915413  55.7495499 108.6332473  95.2061035
  54.8876531 109.7310196  94.6196673  56.5300807 103.3816936 100.4378714
  56.1950639 103.3417706 101.3336364  56.0304752 102.7161652  99.9649124
  50.5045051  98.7884566 105.9631295  50.3664848  98.0564805 106.5642834
  51.4149974  98.6993466 105.6815483  59.4659998 100.7272970  90.7115773
  58.8489169 100.0019798  90.6148826  58.9976487 101.4882330  90.3682848
  53.1327351  98.5004525 105.4514975  53.8426970  97.8597717 105.4101593
  53.0896659  98.7517420 106.3741155  61.1214130 105.4371878 108.3721554
  61.0626676 104.7531099 107.7052137  61.5233648 106.1790868 107.9202180
  51.8456285  95.4869743 107.2710614  51.3093642  95.0360481 107.9232210
  51.2572994  95.6215652 106.5281078  50.1404829 112.2533792 101.1655273
  50.3801427 112.8852316 101.8434291  49.2974025 111.9021832 101.4520632
  51.2558544  94.9458394  89.8337078  50.3788010  94.8247195  89.4699324
  51.7316297  94.1544473  89.5815966  61.1231537 103.4011462 106.6035534
  60.2358316 103.0637384 106.7261932  61.6930088 102.6694494 106.8404299
  42.7760684  99.7335554  99.9278585  43.4631724  99.4197284  99.3399600
  42.6208813 100.6376919  99.6545836  47.5795406  94.6225751 104.3563609
  47.4953595  94.0151420 103.6214019  46.7578113  95.1134769 104.3573105
  54.6532691 108.0612915 103.5696777  54.5802862 108.8667886 104.0816081
  54.2110084 108.2604881 102.7444798  54.4422470 107.2984685  97.0799598
  53.6589992 107.8406365  97.1737823  55.1415215 107.8158664  97.4793839
  57.7519120  93.1079314  99.7233804  58.2487820  92.3549277  99.4034874
  56.9806102  93.1443631  99.1577013  65.6048878  98.8119680 101.3652095
  65.5938754  99.6944395 100.9946028  64.7366257  98.4591231 101.1706632
  57.1131374 107.9599749 105.7254935  57.8259346 108.5947214 105.6530837
  56.6221403 108.0563615 104.9094937  58.8348901 101.8651001  97.2972227
  57.9005180 101.9852464  97.1276931  59.0125569 100.9623468  97.0332237
  54.3354089  95.2496697  99.4505488  53.9651877  94.6967738 100.1386394
  54.8313181  94.6454831  98.8980488  62.2221452  97.7068321  97.8322261
  62.6881905  98.5396312  97.7582564  62.6728953  97.2413302  98.5367520
  52.1643288 105.7094192 106.5460506  52.8652747 106.3430675 106.6989900
  51.6938403 106.0508924 105.7856145  60.2897683 104.0512142  94.8308413
  60.5657527 103.9368737  95.7402287  59.4202182 103.6529627  94.7920586
  60.1938115  90.0748908 101.8713163  59.2801195  90.3053135 102.0395369
  60.6231217  90.1587352 102.7227195  59.9644574  98.2638800 104.3713057
  59.3116024  98.5114707 103.7165509  60.3424953  97.4502938 104.0375534
  56.9251747 108.2998493  98.4741227  57.1074142 107.4820149  98.9368979
  57.7484733 108.5166185  98.0366117  57.2593913 107.2266678  95.7356275
  57.7881679 106.7159133  95.1226437  57.5222133 106.9109208  96.6001808
  56.0132147  99.0058611 110.8579094  55.3372784  98.9052740 111.5281469
  56.8359780  98.8497824 111.3215091  47.7611006 105.2430547 103.4791609
  48.3464442 104.4974235 103.6119513  47.5635844 105.5534504 104.3628273
  50.6149661 108.2781795  98.4954051  49.9460036 108.7627922  98.0118091
  50.4762531 108.5251015  99.4097430  42.3528660  97.8136147 102.1996052
  42.3912760  97.2799738 102.9933170  41.8468953  97.2871353 101.5807029
  54.7554929 110.3125538 105.0936710  55.3073238 110.4757160 105.8585795
  55.0961123 110.9029976 104.4216734  49.7319423  92.6600688 105.6958594
  49.7960749  93.5215519 105.2835992  49.6686543  92.0474690 104.9630953
  49.2071695  94.7323820 109.3431629  49.8343734  94.3500898 109.9569153
  48.3499614  94.5138022 109.7087321  45.9837238  96.5400250  95.2749983
  46.2790679  95.6310928  95.2217037  45.0825274  96.5187989  94.9530986
  57.8923317 108.2607514 102.0800392  57.7674456 107.4597254 101.5711337
  58.5502408 108.7553707 101.5914362  49.5131485  94.6156246 101.2577532
  48.7918071  95.2292214 101.1185005  50.3024741  95.1514011 101.1794178
  59.9558225 106.0616534 103.7079942  59.0088561 105.9421885 103.6358269
  60.3040998 105.1739032 103.7906203  52.3157799  91.9510673 107.5318184
  52.8392200  92.1972969 108.2944493  52.0970132  92.7830707 107.1121321
  47.7125080  94.2214347  95.3989309  47.3837786  93.3411726  95.2164414
  48.0664450  94.1662016  96.2865698  56.9604658 105.8569250  99.9084294
  56.8129621 104.9285957 100.0891864  57.7858152 105.8789341  99.4241369
  50.8266903  94.5087317  95.7664786  51.1662975  95.0373238  95.0443395
  51.2739023  94.8467723  96.5423353  60.5638780 106.6797809 100.9949167
  61.4885328 106.4740670 100.8573618  60.3954084 106.4314210 101.9038508
  53.5210344  92.8924368 105.2167854  53.1807164  92.0932181 105.6188534
  52.8149350  93.1926079 104.6444687  54.1726815  89.9773680 103.6695177
  54.9952885  89.5034158 103.5474068  54.4164879  90.7564164 104.1693864
  52.8135050  93.0061939  93.9658079  53.5343412  93.3843191  93.4621796
  52.1900354  93.7250815  94.0693057  56.9566173  93.7107088  94.9016411
  57.1729787  94.5931726  94.6005239  56.4760240  93.3193301  94.1722053
  51.6965394  96.6692801 101.4787156  51.5509975  96.9833104 102.3711437
  51.2190598  97.2877701 100.9258055  53.5561777  93.6595349 101.5268045
  53.5423346  92.7636442 101.1900343  54.2734205  93.6666013 102.1606332
  55.4087908  94.0932689 103.5721173  55.1505686  95.0149760 103.5705503
  54.8772948  93.6963124 104.2621637  60.3534096 107.1983476  96.3511258
  60.5270974 106.6329899  95.5985111  60.8462988 107.9984371  96.1690748
  46.1711056  99.2098145 104.4174817  45.6264524  99.9857953 104.5495091
  47.0490406  99.5568950 104.2593939  52.9598673  92.5409729  96.7955616
  53.0814584  91.6126375  96.9946503  52.6700715  92.5548415  95.8833931
  55.8289863  90.2264640  99.9322335  55.8511560  90.2903973  98.9774315
  56.2457922  89.3869148 100.1262842  66.2073488  99.9619899  97.9701558
  66.6504634  99.2127224  97.5720681  65.3299998  99.9530035  97.5875290
  61.3409269 106.5150241  93.4508157  62.0360174 107.1356933  93.6695471
  61.6832419 105.6645592  93.7260534  46.9577078  98.3368042 107.3104974
  46.2158814  98.4850677 107.8969604  46.6369822  98.5976307 106.4471723
  63.2400692 103.9649946  94.9795487  63.7652016 104.3037219  94.2544807
  63.1523045 103.0296961  94.7958622  54.9020741 107.8784020 107.1085364
  55.2107867 107.6333167 107.9808064  55.6996223 108.0830658 106.6204234
  54.9241353 110.0321929  99.3390741  54.4846343 109.5398308 100.0323597
  55.6749470 109.4894897  99.0982816  47.4033692 106.2233470  99.3415369
  48.2291712 105.9237242  98.9614012  47.0527744 105.4541093  99.7905157
  52.3715225 105.5759938 101.4113042  51.7495234 104.9130643 101.1115270
  53.0420092 105.6021070 100.7286690  45.6042297 104.1419797 100.3004302
  44.7674205 103.7141971 100.1188303  45.5765942 104.3352240 101.2375093
  52.4439752  94.0541726 111.0045548  52.4927908  94.9303849 110.6223318
  52.9862267  93.5119120 110.4317191  63.0492473 101.4475316 107.5979414
  63.0990478 101.2825324 108.5394937  62.9406397 100.5802575 107.2077295
  51.9328732 104.1263862  94.8871503  52.0816852 104.8099326  94.2338175
  52.7395175 104.1068952  95.4020958  60.3396236  97.4306244 108.9138721
  61.2406098  97.2912709 108.6222718  60.4144210  97.5960699 109.8536898
  54.6739041  94.8073099 107.7591907  53.8042350  95.1006665 107.4874495
  54.9098521  95.3913544 108.4799171  64.5510670 103.8672258 107.8421435
  64.2595478 104.2302238 108.6784896  63.9382801 103.1539266 107.6634767
  65.7506352 101.4325137 100.3624006  66.5853244 101.8714941 100.5261566
  65.8865481 100.9563791  99.5432251  62.7997858  98.9904872 106.3101493
  63.2751980  99.1832519 105.5020345  61.8763424  99.0464058 106.0644877
  49.6881365 100.1529039  95.8932572  49.4427407  99.2491369  96.0912782
  49.8577279 100.1546190  94.9512050  57.3778075  91.0252716 105.2757327
  57.8960019  91.7613743 104.9503816  57.0233208  91.3316709 106.1104086
  48.9577012  95.8857397  93.3918733  48.2646257  95.9601752  92.7358769
  48.7128764  95.1217741  93.9140250  57.6290669  87.4452998 100.7958224
  57.9092423  86.7776187 101.4218650  58.4141276  87.6382094 100.2832888
  55.4324137 106.6211992  92.3583250  54.8598105 107.2402179  91.9053722
  56.0056931 107.1711354  92.8923172  61.4999527  95.8670632 104.5429799
  62.4516950  95.9668730 104.5642023  61.3302978  95.0748901 105.0527883
  59.5213907  92.9526216 104.7289200  58.9263839  93.2331228 104.0335689
  59.2363603  93.4420116 105.5005941  58.6521397 106.9049142  93.4891832
  59.5852070 106.8394704  93.6924708  58.5644610 107.7405409  93.0306365
  61.2809414 106.2215013  90.4495780  61.2023045 105.8874876  91.3431538
  62.1019081 106.7136781  90.4487252  63.9787605  99.0876752 103.6572099
  63.9463925  98.1492753 103.8431782  64.5888229  99.1660789 102.9237924
  55.8170936  97.9572805  89.6999303  56.7630041  97.8279013  89.7687721
  55.4385181  97.2187467  90.1768731  64.1282094  95.8787795 103.7030382
  63.6121142  95.0946252 103.5160311  65.0122042  95.5506512 103.8676901
  61.7892820  89.6228811  99.6626194  61.5917642  89.3143899 100.5469526
  62.3992526  90.3490450  99.7924124  69.7964155 100.1492759 102.7978135
  70.5267543  99.8878047 103.3585839  69.1871100  99.4121481 102.8380203
  67.8779452  98.2900621 103.3952587  67.1512616  98.1556586 102.7869078
  67.4626739  98.5977450 104.2009305  55.7009628 102.0090551 111.1599960
  56.6212638 102.1869150 111.3540006  55.6659212 101.0646596 111.0079659
  54.0013853  95.8822781  89.6354188  53.0945308  95.5855894  89.7116901
  54.2789834  95.5852599  88.7688474  44.9191793  97.2029145 100.0853234
  44.5994578  96.3494453  99.7927608  44.3725222  97.4177723 100.8411202
  48.6971701  99.9191586 103.8022741  48.9157711 100.8508694 103.8210775
  49.1097475  99.5599560 104.5877545  55.6175919  90.4259671  95.7898429
  54.8076647  90.0806756  96.1653675  56.3060336  90.1167215  96.3786041
  57.5466467  89.5037718  97.4122726  58.0997506  89.9233171  98.0712749
  57.7836553  88.5773466  97.4545682  53.5699566  95.4924792 113.1925490
  53.4696293  96.4419149 113.1237581  53.3521108  95.1643030 112.3201560
  52.7712638  92.7409717  89.7766167  53.6331802  93.0664615  90.0361984
  52.9562982  91.9541213  89.2639233  44.7880053 100.8232056 102.0546356
  44.0943525 100.4086009 101.5416310  45.5353044 100.8652593 101.4579775
  60.9245274  91.6138243  96.9201390  60.3443943  92.2723047  96.5379442
  60.6581207  90.7915588  96.5088808  59.3748841  91.0143301  99.1222710
  59.8748619  91.1259835  98.3137029  60.0184448  90.7104354  99.7623519
  53.4330836  98.9221930 112.0090551  52.9497918  99.7222291 112.2154440
  53.5191775  98.9329875 111.0557995  46.7016796 100.7550310  99.9312371
  46.6787484 100.8537997  98.9794254  47.0117432 101.6015461 100.2529537
  49.3604174 102.8126465 104.0458985  50.3147427 102.7810407 103.9788917
  49.1616697 102.3517089 104.8609211  49.9503556 101.3827581 106.6129783
  50.7696445 101.8771660 106.6364620  50.2240364 100.4659549 106.5847350
  59.7070152  93.7738333  95.9757738  58.8196007  94.0587984  95.7577933
  60.1224141  93.6132097  95.1285015  63.0584688  93.7984854  99.6912078
  63.8345078  94.2881307  99.9636694  62.3332823  94.2242909 100.1483947
  65.4957247  94.5112474 100.7486018  66.0901738  94.2708210 100.0379326
  65.5683831  93.7919604 101.3759555  47.7154403 108.3546085 101.0629183
  47.5808871 107.5946485 100.4967181  47.2986465 109.0786984 100.5957972
  58.8513366 103.5383008  90.0705758  59.5549216 103.7433011  90.6863414
  58.1276014 104.1059770  90.3354842  59.6811176  99.2892869  96.1908028
  59.6246377  99.7461421  95.3515661  60.2339518  98.5283554  96.0130871
  63.4915982  95.0782601  97.0158148  63.2352916  94.6779237  97.8466356
  62.8668850  95.7926395  96.8908287  67.8028320  97.8178674  99.5229439
  67.2427878  97.8871864 100.2961001  67.1971823  97.6419659  98.8028936
  50.8723529 109.2515402 101.2747626  50.7555913 110.1960834 101.1726316
  50.0515975 108.9488963 101.6633425  60.7600063 103.9765537  92.1204218
  61.5945667 103.5446736  91.9381693  60.5984406 103.8047551  93.0481113
  60.4145955 100.4797651  93.4860558  60.3594759 100.3141922  92.5449002
  59.7892011 101.1873684  93.6422747  45.2038470  95.7165715 107.3121980
  45.8497334  95.2064669 107.8009205  44.9955621  96.4534397 107.8865405
  53.7242081  89.9805760  93.0645876  53.7120751  90.9247600  93.2214147
  54.6165503  89.7975905  92.7705337  51.8978043 109.9043663 104.4903554
  52.8005289 109.9367274 104.8070049  51.6715413 108.9744114 104.5049890
  53.6531645 108.6574650 101.1513633  52.7027276 108.6576512 101.0378005
  53.9564131 107.9107385 100.6349667  57.5394200  86.5748536  97.3191813
  56.7726596  86.0207023  97.4648495  57.9504905  86.6470405  98.1805965
  49.5435961  92.8633332 111.4096994  50.4067423  92.5070137 111.6200319
  48.9701372  92.5247227 112.0972398  62.0560860 116.2998093  98.1417811
  61.4925725 116.2088030  97.3734099  61.9413255 115.4797997  98.6220303
  59.6025292 117.7949285 100.9802031  60.3946584 117.4540109 100.5648331
  59.8421942 117.9044260 101.9004185  67.6360419 119.9669061  93.4532276
  66.9848399 120.5523141  93.0666289  68.4304782 120.4975256  93.5127313
  61.5616046 117.0558198  93.8519410  62.3346922 116.5087185  93.7132286
  61.9141445 117.9202447  94.0633871  63.8982324 113.2150864  91.4837860
  64.1507845 112.6932385  90.7221323  62.9606883 113.0517009  91.5864544
  68.9425607 112.2186642  99.2912603  69.7288696 111.8006065  98.9403020
  69.2064311 113.1232734  99.4594252  69.1135684 117.6559493  93.9901260
  68.4781517 117.7294119  94.7022165  68.7833090 118.2453091  93.3120339
  63.6178613 115.1178970  93.6862235  63.5014871 114.4423873  94.3543319
  63.7280872 114.6311344  92.8694388  65.9610154 114.5789117  97.3908924
  65.5968361 114.0519738  98.1021846  66.8177269 114.1887586  97.2175410
  65.6015640 109.6079017  92.3870273  65.7690043 110.4759253  92.7540744
  65.4112810 109.7706298  91.4631562  61.8103455 114.5209792 100.0872807
  60.8853952 114.3886007 100.2950499  62.0587868 115.3004012 100.5842750
  65.5804861 112.0636674  93.3716939  65.4604487 112.5093725  94.2102420
  64.8857450 112.4121992  92.8130478  59.1712266 114.1643066 100.9216597
  59.3004647 114.4177545 101.8356008  58.4909717 114.7570774 100.6021252
  71.2789928 112.5358147  94.1997274  72.1907784 112.7685534  94.0244971
  70.7699575 113.1195192  93.6372352  68.6225902 108.7116183 102.4487134
  67.7610381 109.0097437 102.7403872  68.6488337 108.9286582 101.5168167
  65.4387472 117.2558374  98.8560940  65.9025817 117.5346077  98.0665563
  65.1744270 116.3541818  98.6734031  64.3756358 113.3781526  95.6650505
  65.0780401 113.8302570  96.1324432  64.0436986 112.7365345  96.2930398
  58.1181692 111.6365079 100.9667639  57.3280746 111.8922607 100.4907749
  58.6092939 112.4513417 101.0719679  60.0696437 112.0009658  97.9251115
  59.2727600 112.1128352  98.4434611  59.8422029 112.3396310  97.0592006
  56.4019395 111.8895569 103.3982630  56.6527433 112.7742579 103.6640206
  56.9378943 111.7100171 102.6257721  65.6150122 120.1922469  95.7412610
  65.4795797 121.0374005  96.1697458  66.1559935 120.3941747  94.9778544
  59.0679520 117.7097907  96.3140536  59.5804040 118.5041157  96.4646100
  59.7202233 117.0124197  96.2474137  60.8774404 120.8263663  98.3963289
  61.0541033 121.7481628  98.2084273  61.6731238 120.5122082  98.8257668
  68.9642586 103.7153031 104.2711504  68.6206855 104.6054672 104.1950615
  69.3321549 103.5254688 103.4081089  57.0328437 116.0386561  97.0900106
  57.8703659 116.4483570  96.8733814  57.2106704 115.0986003  97.0600300
  68.9292869 113.7061642  92.7783939  68.4139492 114.4766247  93.0172326
  68.6570177 113.0326778  93.4017000  66.5139980 108.5511343  97.8369177
  65.6581576 108.1618193  97.6574816  66.9266931 108.6303303  96.9768963
  68.0439126 106.0857686 102.2360737  67.5403922 106.0487821 101.4228542
  68.3369733 106.9950429 102.2957394  64.2882012 106.1696416 101.2426919
  65.1535009 105.9739224 100.8832808  64.3559521 105.9406767 102.1696276
  73.9027143 116.4593997  94.7137113  73.1256586 116.1205156  94.2692275
  74.5818624 116.4646620  94.0392078  68.7179172 111.5788734  94.6043720
  68.4129307 111.8934883  95.4553863  69.6709614 111.6570154  94.6471053
  67.1625604 117.7378957  96.2536674  66.6346965 117.0031717  95.9409912
  66.6613106 118.5153634  96.0076643  61.8944331 108.3998624  98.6143286
  62.4688083 108.1773805  97.8816479  62.4815314 108.4687318  99.3671887
  62.2213918 110.4303085  92.6339171  61.3851231 110.7677771  92.9548446
  62.0818688 110.2952064  91.6966308  64.1966999 105.2739872  97.3418355
  63.5431411 104.9588890  96.7174970  64.1547473 104.6515613  98.0678178
  65.3078204 115.5559168  89.2571647  64.4005266 115.3248421  89.4562796
  65.8049236 114.7596787  89.4445629  68.2146283 124.2656675  92.1768333
  67.5407982 124.5688371  92.7853291  68.6012105 125.0685755  91.8273790
  67.4304739 111.7621806 101.6666003  66.5127301 111.9836753 101.5087691
  67.8464883 111.8368116 100.8077710  68.2139787 113.1613222  96.7968683
  68.9611606 113.6734619  96.4875805  68.4831377 112.8397274  97.6573077
  66.4866437 115.6571762  93.7795637  65.5777657 115.3730795  93.8768107
  66.5161521 116.0770841  92.9198944  70.6618624 110.1970338  98.7787472
  69.9241381 109.6847724  99.1097715  70.9145398 109.7570720  97.9670749
  70.7630252 102.9746590  99.3729242  71.0689128 102.1143953  99.0855157
  71.4882856 103.5664210  99.1728235  57.0554608 113.3777277  97.7610840
  56.8579008 112.7846637  97.0361906  56.5001272 113.0729487  98.4786778
  65.0351331 113.2700383  99.8805433  65.0899941 112.3174219  99.8047909
  64.2242533 113.4259822 100.3646731  66.1842525 117.1980506  91.1183716
  65.7461955 116.4816365  90.6589353  66.9252966 117.4256621  90.5568807
  62.9743691 111.8877443  97.6395812  62.1611557 112.1871613  98.0461004
  63.4702685 111.4933132  98.3570294  74.3015640 115.4737703  97.1760034
  74.1633538 115.6639299  96.2481224  73.9451859 116.2357086  97.6328086
  62.4657766 109.4595798 103.2557046  63.1057145 109.3184557 102.5580010
  61.6335297 109.1730312 102.8795648  63.2418070 118.7598229  99.3692039
  64.0358668 118.2648549  99.1674614  62.5309762 118.2316092  99.0059745
  59.5500833 112.9041310  95.4451792  58.6198421 112.8425766  95.6621754
  59.6458305 112.3817263  94.6488433  59.4686382 109.4296123  98.0330033
  59.7293200 110.3441457  97.9239194  60.2903555 108.9620566  98.1826646
  60.9411308 110.8433880 105.2028858  61.6134361 110.6351243 104.5541507
  60.1141094 110.6455966 104.7634090  66.4137498 124.4336347  94.3915413
  66.5889254 123.9624390  95.2061035  65.7270286 125.0602113  94.6196673
  70.3053753 116.0564888  90.7115773  69.6882923 115.3311716  90.6148826
  69.8370241 116.8174248  90.3682848  62.0952299 110.2750312  89.8337078
  61.2181765 110.1539113  89.4699324  62.5710052 109.4836390  89.5815966
  53.6154439 115.0627472  99.9278585  54.3025479 114.7489202  99.3399600
  53.4602567 115.9668836  99.6545836  58.4189161 109.9517668 104.3563609
  58.3347350 109.3443338 103.6214019  57.5971867 110.4426687 104.3573105
  68.5912875 108.4371232  99.7233804  69.0881574 107.6841194  99.4034874
  67.8199856 108.4735549  99.1577013  69.6742655 117.1942919  97.2972227
  68.7398934 117.3144382  97.1276931  69.8519324 116.2915386  97.0332237
  65.1747844 110.5788615  99.4505488  64.8045631 110.0259655 100.1386394
  65.6706936 109.9746748  98.8980488  73.0615207 113.0360238  97.8322261
  73.5275659 113.8688230  97.7582564  73.5122707 112.5705220  98.5367520
  71.1291438 119.3804060  94.8308413  71.4051282 119.2660654  95.7402287
  70.2595937 118.9821545  94.7920586  71.0331870 105.4040825 101.8713163
  70.1194949 105.6345052 102.0395369  71.4624971 105.4879269 102.7227195
  68.0987667 122.5558596  95.7356275  68.6275434 122.0451050  95.1226437
  68.3615887 122.2401126  96.6001808  53.1922415 113.1428065 102.1996052
  53.2306514 112.6091656 102.9933170  52.6862708 112.6163271 101.5807029
  60.5713177 107.9892606 105.6958594  60.6354504 108.8507437 105.2835992
  60.5080297 107.3766607 104.9630953  56.8230992 111.8692167  95.2749983
  57.1184434 110.9602846  95.2217037  55.9219028 111.8479907  94.9530986
  60.3525239 109.9448164 101.2577532  59.6311825 110.5584132 101.1185005
  61.1418495 110.4805929 101.1794178  58.5518834 109.5506265  95.3989309
  58.2231540 108.6703644  95.2164414  58.9058205 109.4953934  96.2865698
  61.6660657 109.8379235  95.7664786  62.0056730 110.3665156  95.0443395
  62.1132778 110.1759641  96.5423353  64.3604098 108.2216285 105.2167854
  64.0200918 107.4224099 105.6188534  63.6543104 108.5217996 104.6444687
  65.0120570 105.3065598 103.6695177  65.8346639 104.8326076 103.5474068
  65.2558633 106.0856082 104.1693864  63.6528804 108.3353856  93.9658079
  64.3737167 108.7135109  93.4621796  63.0294108 109.0542733  94.0693057
  67.7959927 109.0399005  94.9016411  68.0123542 109.9223643  94.6005239
  67.3153994 108.6485219  94.1722053  62.5359149 111.9984719 101.4787156
  62.3903729 112.3125022 102.3711437  62.0584352 112.6169619 100.9258055
  64.3955532 108.9887267 101.5268045  64.3817100 108.0928360 101.1900343
  65.1127960 108.9957930 102.1606332  66.2481662 109.4224607 103.5721173
  65.9899440 110.3441677 103.5705503  65.7166703 109.0255041 104.2621637
  57.0104811 114.5390063 104.4174817  56.4658279 115.3149871 104.5495091
  57.8884161 114.8860867 104.2593939  63.7992427 107.8701647  96.7955616
  63.9208339 106.9418293  96.9946503  63.5094470 107.8840333  95.8833931
  66.6683618 105.5556557  99.9322335  66.6905315 105.6195890  98.9774315
  67.0851677 104.7161066 100.1262842  72.1803023 121.8442158  93.4508157
  72.8753928 122.4648851  93.6695471  72.5226174 120.9937509  93.7260534
  74.0794447 119.2941864  94.9795487  74.6045771 119.6329137  94.2544807
  73.9916799 118.3588879  94.7958622  58.2427446 121.5525388  99.3415369
  59.0685466 121.2529160  98.9614012  57.8921498 120.7833010  99.7905157
  56.4436051 119.4711714 100.3004302  55.6067960 119.0433889 100.1188303
  56.4159697 119.6644158 101.2375093  62.7722486 119.4555779  94.8871503
  62.9210607 120.1391244  94.2338175  63.5788930 119.4360870  95.4020958
  60.5275119 115.4820957  95.8932572  60.2821161 114.5783287  96.0912782
  60.6971034 115.4838108  94.9512050  59.7970767 111.2149315  93.3918733
  59.1040012 111.2893670  92.7358769  59.5522519 110.4509658  93.9140250
  68.4684423 102.7744916 100.7958224  68.7486177 102.1068105 101.4218650
  69.2535030 102.9674012 100.2832888  66.2717892 121.9503910  92.3583250
  65.6991859 122.5694097  91.9053722  66.8450686 122.5003272  92.8923172
  69.4915152 122.2341060  93.4891832  70.4245825 122.1686622  93.6924708
  69.4038365 123.0697327  93.0306365  72.1203168 121.5506930  90.4495780
  72.0416800 121.2166794  91.3431538  72.9412835 122.0428698  90.4487252
  66.6564690 113.2864723  89.6999303  67.6023795 113.1570931  89.7687721
  66.2778935 112.5479385  90.1768731  72.6286575 104.9520729  99.6626194
  72.4311396 104.6435817 100.5469526  73.2386281 105.6782368  99.7924124
  64.8407608 111.2114699  89.6354188  63.9339063 110.9147812  89.7116901
  65.1183589 110.9144517  88.7688474  55.7585548 112.5321062 100.0853234
  55.4388332 111.6786371  99.7927608  55.2118976 112.7469641 100.8411202
  66.4569673 105.7551589  95.7898429  65.6470402 105.4098674  96.1653675
  67.1454090 105.4459133  96.3786041  68.3860222 104.8329636  97.4122726
  68.9391260 105.2525089  98.0712749  68.6230308 103.9065384  97.4545682
  63.6106392 108.0701634  89.7766167  64.4725556 108.3956533  90.0361984
  63.7956736 107.2833130  89.2639233  55.6273808 116.1523974 102.0546356
  54.9337279 115.7377927 101.5416310  56.3746799 116.1944510 101.4579775
  71.7639029 106.9430161  96.9201390  71.1837698 107.6014965  96.5379442
  71.4974961 106.1207505  96.5088808  70.2142595 106.3435218  99.1222710
  70.7142373 106.4551753  98.3137029  70.8578203 106.0396271  99.7623519
  57.5410550 116.0842228  99.9312371  57.5181239 116.1829915  98.9794254
  57.8511187 116.9307379 100.2529537  70.5463907 109.1030251  95.9757738
  69.6589762 109.3879902  95.7577933  70.9617896 108.9424015  95.1285015
  73.8978443 109.1276772  99.6912078  74.6738833 109.6173225  99.9636694
  73.1726577 109.5534826 100.1483947  69.6907120 118.8674926  90.0705758
  70.3942970 119.0724928  90.6863414  68.9669769 119.4351688  90.3354842
  70.5204930 114.6184787  96.1908028  70.4640132 115.0753338  95.3515661
  71.0733273 113.8575472  96.0130871  74.3309736 110.4074519  97.0158148
  74.0746671 110.0071155  97.8466356  73.7062604 111.1218313  96.8908287
  71.5993818 119.3057455  92.1204218  72.4339421 118.8738653  91.9381693
  71.4378160 119.1339469  93.0481113  71.2539710 115.8089568  93.4860558
  71.1988514 115.6433840  92.5449002  70.6285765 116.5165601  93.6422747
  56.0432225 111.0457633 107.3121980  56.6891088 110.5356587 107.8009205
  55.8349376 111.7826314 107.8865405  64.5635835 105.3097677  93.0645876
  64.5514505 106.2539517  93.2214147  65.4559257 105.1267823  92.7705337
  68.3787955 101.9040454  97.3191813  67.6120350 101.3498941  97.4648495
  68.7898660 101.9762323  98.1805965  73.0607673 125.7595002  92.6339171
  72.2244985 126.0969689  92.9548446  72.9212443 125.6243982  91.6966308
  72.9346053 125.6042230  89.8337078  72.0575519 125.4831031  89.4699324
  73.4103806 124.8128308  89.5815966  70.6364521 126.5441232  93.3918733
  69.9433766 126.6185587  92.7358769  70.3916273 125.7801576  93.9140250
  75.6801362 126.5406617  89.6354188  74.7732817 126.2439729  89.7116901
  75.9577343 126.2436435  88.7688474  74.4500147 123.3993552  89.7766167
  75.3119311 123.7248450  90.0361984  74.6350491 122.6125048  89.2639233
  75.4029590 120.6389595  93.0645876  75.3908260 121.5831435  93.2214147
  76.2953012 120.4559740  92.7705337  15.1915567  14.8537723  88.9404702
  15.8293977  14.7344470  88.2368042  15.0736410  15.8018567  88.9992654
   7.8592089  16.6600627  84.8663117   7.2956954  16.5690564  84.0979405
   7.7444484  15.8400532  85.3465610  13.4391648  20.3271595  80.1777582
  12.7879627  20.9125675  79.7911596  14.2336010  20.8577790  80.2372620
   7.3647275  17.4160732  80.5764717   8.1378151  16.8689719  80.4377592
   7.7172674  18.2804981  80.7879178   9.7013553  13.5753398  78.2083167
   9.9539073  13.0534919  77.4466630   8.7638112  13.4119544  78.3109850
  14.7456835  12.5789176  86.0157910  15.5319925  12.1608600  85.6648327
  15.0095540  13.4835269  86.1839558  14.9166913  18.0162027  80.7146567
  14.2812746  18.0896653  81.4267471  14.5864319  18.6055626  80.0365646
  20.1465263  12.5164410  86.9190888  20.8790435  11.9463627  87.1528718
  19.3904618  12.1286010  87.3597394   9.4209841  15.4781504  80.4107542
   9.3046099  14.8026407  81.0788626   9.5312101  14.9913878  79.5939695
  11.7641382  14.9391651  84.1154231  11.3999590  14.4122272  84.8267152
  12.6208498  14.5490120  83.9420716  11.3836090  12.4239208  80.0962246
  11.2635715  12.8696259  80.9347726  10.6888679  12.7724526  79.5375784
   9.1442982  25.1942850  83.7452377   9.0667012  26.1450675  83.8240858
   8.5404626  24.8488723  84.4027304  17.0821156  12.8960682  80.9242580
  17.9939012  13.1288068  80.7490278  16.5730803  13.4797726  80.3617659
  15.6890739  17.8786500  88.3156162  15.0599601  18.0432214  87.6132229
  15.3016401  18.2928110  89.0867126  19.5679971  18.8140938  85.6700525
  18.8831009  19.1939839  85.1197559  19.6523820  19.4236265  86.4032473
  11.2418701  17.6160908  85.5806247  11.7057046  17.8948611  84.7910869
  10.9775499  16.7144353  85.3979337  10.1787587  13.7384060  82.3895812
  10.8811630  14.1905104  82.8569738   9.8468215  13.0967879  83.0175705
  17.9376730  19.3372852  90.4418226  18.7594174  18.9353040  90.1600908
  17.9339133  19.2341086  91.3934342  26.0282723  15.6811601  86.7903198
  25.2746432  15.1118999  86.6347202  26.1630264  15.6474265  87.7373832
  11.4181351  20.5525003  82.4657917  11.2827026  21.3976539  82.8942765
  11.9591164  20.7544281  81.7023851   4.8710749  18.0700441  83.0385842
   5.3835269  18.8643691  83.1891407   5.5233461  17.3726732  82.9719444
   6.6805633  21.1866197  85.1208595   6.8572262  22.1084162  84.9329579
   7.4762467  20.8724617  85.5502975   7.8036949  22.7044371  91.1218938
   8.3544374  22.5761435  90.3495932   6.9648425  23.0039260  90.7713830
  14.7324097  14.0664176  79.5029246  14.2170721  14.8368781  79.7417633
  14.4601406  13.3929312  80.1262307  19.7058372  16.8196531  81.4382419
  18.9287814  16.4807690  80.9937581  20.3849853  16.8249154  80.7637384
  14.5210401  11.9391268  81.3289027  14.2160536  12.2537417  82.1799170
  15.4740843  12.0172688  81.3716360  12.9656832  18.0981492  82.9781981
  12.4378194  17.3634251  82.6655218  12.4644335  18.8756168  82.7321949
  17.9449679  16.2930512  88.0949027  17.2873353  16.9829773  88.1829156
  18.7490078  16.6826944  88.4383013  16.7555137  14.6474885  86.1452969
  17.2687019  15.2804877  86.6474679  17.4056361  14.0476080  85.7796329
  11.1109433  15.9161702  75.9816954  10.2036494  15.6850955  76.1808103
  11.6080465  15.1199321  76.1690935  14.0177512  24.6259209  78.9013640
  13.3439210  24.9290906  79.5098598  14.4043334  25.4288289  78.5519097
  14.0171016  13.5215756  83.5213990  14.7642835  14.0337153  83.2121112
  14.2862605  13.1999809  84.3818383  12.2897666  16.0174297  80.5040944
  11.3808885  15.7333329  80.6013414  12.3192750  16.4373375  79.6444251
  17.5216934  19.6280886  84.2732112  17.0679261  18.7871796  84.3297302
  16.8910900  20.2642285  84.6106892  16.4649853  10.5572872  85.5032779
  15.7272610  10.0450258  85.8343022  16.7176627  10.1173254  84.6916056
  15.9649873  21.4657383  85.2081930  16.2572847  22.0262440  84.4894295
  16.4748493  21.7585944  85.9635089  10.8382560  13.6302917  86.6050739
  10.8931170  12.6776754  86.5293216  10.0273762  13.7862356  87.0892038
  11.9873754  17.5583040  77.8429023  11.5493184  16.8418899  77.3834660
  12.7284195  17.7859155  77.2814114  10.9283498  22.2437734  86.2975383
  10.8859677  22.4698580  85.3683915  11.8446197  22.0101109  86.4461184
  20.1046869  15.8340237  83.9005341  19.9664767  16.0241833  82.9726530
  19.7483088  16.5959620  84.3573392  20.1316248  17.9016764  88.9116613
  20.5652755  17.8092053  89.7599667  20.8447829  17.8774265  88.2736629
   9.0449299  19.1200763  86.0937346   9.8389897  18.6251083  85.8919921
   8.3340991  18.5918626  85.7305051  13.8644143  21.5018858  90.4449713
  13.9181165  22.0709795  91.2127429  12.9958925  21.6720743  90.0803750
  20.9931798  17.9440465  91.4449498  21.1867688  18.8486276  91.6908773
  20.8932416  17.4847884  92.2788083  11.6220575  19.6929785  89.7735183
  11.4831660  19.3248569  90.6461121  10.8335171  20.2077424  89.6019140
  12.2168727  24.7938881  81.1160719  12.3920482  24.3226925  81.9306342
  11.5301515  25.4204648  81.3441980  13.1725790  19.0711388  87.1624020
  12.8375622  19.0312158  88.0581670  12.6729736  18.4056104  86.6894431
  16.1084982  16.4167422  77.4361080  15.4914152  15.6914250  77.3394133
  15.6401470  17.1776782  77.0928154   6.7829812  27.9428244  87.8900579
   7.0226410  28.5746768  88.5679598   5.9399008  27.5916284  88.1765939
  11.2957674  23.7507367  90.2942083  11.2227845  24.5562338  90.8061388
  10.8535067  23.9499332  89.4690105  11.0847453  22.9879137  83.8044905
  10.3014975  23.5300817  83.8983129  11.7840199  23.5053116  84.2039146
  22.2473861  14.5014132  88.0897402  22.2363737  15.3838847  87.7191335
  21.3791240  14.1485682  87.8951939  13.7556357  23.6494201  92.4500242
  14.4684330  24.2841665  92.3776143  13.2646386  23.7458067  91.6340244
  15.4773884  17.5545453  84.0217534  14.5430163  17.6746916  83.8522238
  15.6550553  16.6517920  83.7577544  18.8646436  13.3962773  84.5567568
  19.3306888  14.2290764  84.4827870  19.3153936  12.9307754  85.2612826
  16.9322667  19.7406594  81.5553720  17.2082511  19.6263188  82.4647594
  16.0627165  19.3424079  81.5165893  13.5676731  23.9892945  85.1986533
  13.7499125  23.1714601  85.6614286  14.3909717  24.2060637  84.7611423
  13.9018896  22.9161130  82.4601582  14.4306663  22.4053584  81.8471744
  14.1647116  22.6003660  83.3247115   7.2574644  23.9676247  85.2199358
   6.5885019  24.4522374  84.7363398   7.1187514  24.2145467  86.1342736
  11.3979913  26.0019990  91.8182016  11.9498221  26.1651612  92.5831101
  11.7386106  26.5924428  91.1462041  14.5348300  23.9501966  88.8045698
  14.4099439  23.1491705  88.2956644  15.1927391  24.4448159  88.3159668
  16.5983208  21.7510986  90.4325249  15.6513544  21.6316337  90.3603575
  16.9465982  20.8633484  90.5151510  13.6029642  21.5463702  86.6329601
  13.4554604  20.6180409  86.8137171  14.4283135  21.5683793  86.1486676
  17.2063764  22.3692261  87.7194473  18.1310311  22.1635122  87.5818925
  17.0379067  22.1208662  88.6283815  16.9959080  22.8877928  83.0756565
  17.1695957  22.3224351  82.3230417  17.4887971  23.6878823  82.8936055
  22.8498471  15.6514351  84.6946865  23.2929617  14.9021676  84.2965988
  21.9724981  15.6424487  84.3120597  17.9834252  22.2044692  80.1753463
  18.6785157  22.8251385  80.3940778  18.3257402  21.3540044  80.4505841
  19.8825675  19.6544398  81.7040794  20.4076999  19.9931671  80.9790114
  19.7948028  18.7191413  81.5203929  11.5666336  25.7216381  86.0636047
  11.1271326  25.2292760  86.7568904  12.3174453  25.1789349  85.8228122
   4.0458675  21.9127922  86.0660675   4.8716695  21.6131694  85.6859319
   3.6952727  21.1435545  86.5150464   9.0140208  21.2654390  88.1358349
   8.3920218  20.6025095  87.8360577   9.6845075  21.2915522  87.4531997
   8.5753715  19.8158314  81.6116809   8.7241836  20.4993778  80.9583482
   9.3820159  19.7963404  82.1266265  22.3931336  17.1219589  87.0869312
  23.2278227  17.5609393  87.2506873  22.5290464  16.6458243  86.2677558
   6.3306348  15.8423491  82.6177878   6.0852390  14.9385821  82.8158088
   6.5002263  15.8440642  81.6757356  12.0749121  22.3106444  79.0828557
  11.5023088  22.9296631  78.6299029  12.6481914  22.8605806  79.6168479
  15.2946381  22.5943594  80.2137139  16.2277054  22.5289156  80.4170015
  15.2069593  23.4299861  79.7551672  17.9234397  21.9109465  77.1741087
  17.8448029  21.5769328  78.0676845  18.7444064  22.4031233  77.1732559
  20.6212588  14.7771204  90.3817405  20.5888908  13.8387205  90.5677089
  21.2313212  14.8555241  89.6483230  12.4595919  13.6467257  76.4244609
  13.4055024  13.5173465  76.4933027  12.0810164  12.9081919  76.9014037
  26.4389138  15.8387211  89.5223442  27.1692527  15.5772499  90.0831145
  25.8296084  15.1015933  89.5625510  24.5204435  13.9795073  90.1197893
  23.7937599  13.8451038  89.5114385  24.1051722  14.2871902  90.9254611
  17.5670257   7.3032695  83.6446697  16.9868927   7.9617499  83.2624749
  17.3006190   6.4810040  83.2334114  16.3495135   9.4632785  82.7003045
  15.4620991   9.7482436  82.4823240  16.7649125   9.3026549  81.8530322
  19.7009672   9.4879306  86.4157384  20.4770062   9.9775759  86.6882001
  18.9757806   9.9137361  86.8729254  22.1382230  10.2006926  87.4731325
  22.7326721   9.9602662  86.7624633  22.2108814   9.4814056  88.1004861
   4.3579386  24.0440536  87.7874490   4.2233854  23.2840937  87.2212488
   3.9411448  24.7681436  87.3203279  15.4938349  19.2277460  76.7951065
  16.1974199  19.4327463  77.4108721  14.7700998  19.7954222  77.0600148
  16.3236159  14.9787321  82.9153335  16.2671361  15.4355873  82.0760968
  16.8764502  14.2178006  82.7376178  20.1340965  10.7677053  83.7403455
  19.8777899  10.3673689  84.5711662  19.5093833  11.4820847  83.6153594
  24.4453303  13.5073126  86.2474746  23.8852861  13.5766316  87.0206308
  23.8396806  13.3314111  85.5274242   7.5148512  24.9409854  87.9992932
   7.3980896  25.8855286  87.8971623   6.6940958  24.6383415  88.3878732
  17.4025046  19.6659989  78.8449525  18.2370650  19.2341188  78.6627000
  17.2409389  19.4942003  79.7726420  17.0570939  16.1692103  80.2105864
  17.0019742  16.0036374  79.2694308  16.4316994  16.8768135  80.3668054
   8.5403026  25.5938115  91.2148861   9.4430273  25.6261726  91.5315356
   8.3140396  24.6638566  91.2295197  10.2956628  24.3469102  87.8758939
   9.3452259  24.3470964  87.7623312  10.5989114  23.6001837  87.3594974
  26.0309321  30.1829640  88.9404702  26.6687731  30.0636388  88.2368042
  25.9130164  31.1310484  88.9992654  22.8399028  30.1357068  88.8766226
  22.5017539  30.0198133  87.9886761  23.7088796  29.7348234  88.8567233
  18.6985843  31.9892545  84.8663117  18.1350709  31.8982482  84.0979405
  18.5838238  31.1692449  85.3465610  23.3218811  31.2891920  94.8352432
  23.3107452  30.8944718  93.9632936  23.4839450  30.5557993  95.4286203
  16.2450275  33.4843736  87.7047338  17.0371567  33.1434561  87.2893637
  16.4846926  33.5938711  88.6249491  24.2785402  35.6563513  80.1777582
  23.6273382  36.2417593  79.7911596  25.0729765  36.1869707  80.2372620
  18.2041029  32.7452650  80.5764717  18.9771905  32.1981637  80.4377592
  18.5566428  33.6096899  80.7879178  20.0426072  34.0729032  93.7831616
  19.7515938  34.9774663  93.6678282  20.6783056  34.1145560  94.4975686
  20.9682279  31.4505880  90.3732976  21.5645851  31.2261903  89.6589939
  21.0257250  30.7090626  90.9758423  20.5407307  28.9045316  78.2083167
  20.7932828  28.3826837  77.4466630  19.6031866  28.7411461  78.3109850
  25.5850590  27.9081094  86.0157910  26.3713679  27.4900517  85.6648327
  25.8489294  28.8127186  86.1839558  25.7560667  33.3453944  80.7146567
  25.1206500  33.4188571  81.4267471  25.4258074  33.9347543  80.0365646
  30.9859017  27.8456327  86.9190888  31.7184189  27.2755544  87.1528718
  30.2298373  27.4577928  87.3597394  20.2603596  30.8073422  80.4107542
  20.1439854  30.1318325  81.0788626  20.3705856  30.3205796  79.5939695
  22.6035137  30.2683569  84.1154231  22.2393344  29.7414190  84.8267152
  23.4602253  29.8782038  83.9420716  28.5084437  21.5577901  91.3785497
  28.1767762  22.4273312  91.1546712  27.9130051  21.2414185  92.0579527
  22.2440624  25.2973469  79.1115579  22.4115026  26.1653705  79.4786050
  22.0537793  25.4600750  78.1876869  25.0015957  33.7590447  90.7781410
  24.7016680  34.6615486  90.6697217  24.6567016  33.4922631  91.6302563
  18.4528438  30.2104244  86.8118114  17.5278935  30.0780458  87.0195806
  18.7012852  30.9898464  87.3088056  28.4013101  26.2772988  88.4578847
  27.4929978  26.2088396  88.1637608  28.3500697  26.7544933  89.2860672
  22.2229845  27.7531126  80.0962246  22.1029470  28.1988177  80.9347726
  21.5282433  28.1016444  79.5375784  15.8137249  29.8537518  87.6461903
  15.9429631  30.1071997  88.5601315  15.1334701  30.4465226  87.3266558
  19.9836737  40.5234768  83.7452377  19.9060766  41.4742593  83.8240858
  19.3798380  40.1780640  84.4027304  22.4753967  27.6962633  96.4013744
  21.6987301  28.2556553  96.3916609  23.1144530  28.1819416  96.9228614
  30.2674747  24.4789426  90.2356721  29.6249127  24.7721959  89.5896515
  29.7629676  24.3642346  91.0409918  27.9214911  28.2252599  80.9242580
  28.8332767  28.4579986  80.7490278  27.4124558  28.8089643  80.3617659
  20.7300339  30.5048087  95.9631711  21.4715023  31.0433131  95.6866535
  20.0237324  31.1314375  96.1203263  26.2055678  32.6477227  94.5603873
  26.6139035  32.2059638  93.8158505  25.4832940  32.0729855  94.8138066
  22.5586749  27.5849834  91.9337430  23.4047944  28.0089247  92.0772079
  22.4985386  26.9283458  92.6275993  26.5284493  33.2078418  88.3156162
  25.8993356  33.3724132  87.6132229  26.1410155  33.6220027  89.0867126
  30.4073725  34.1432856  85.6700525  29.7224763  34.5231757  85.1197559
  30.4917574  34.7528182  86.4032473  25.7086194  25.2454202  93.5918603
  25.4647126  25.9996263  93.0552879  25.9846124  25.6239550  94.4265850
  27.6624657  31.7892815  92.2695869  27.8741552  32.4324574  91.5930250
  27.6154405  30.9555131  91.8017799  25.2650886  24.4010635  89.1732441
  24.4035365  24.6991889  89.4649179  25.2913320  24.6181034  88.2413474
  22.0812455  32.9452826  85.5806247  22.5450801  33.2240529  84.7910869
  21.8169253  32.0436270  85.3979337  18.9736536  32.4924307  88.5186010
  19.5437893  32.9211576  87.8803494  19.5644648  32.2106892  89.2170196
  21.0181341  29.0675978  82.3895812  21.7205384  29.5197022  82.8569738
  20.6861970  28.4259797  83.0175705  19.4661703  27.6587735  96.7647021
  18.8360363  28.3404016  96.9982418  19.3597790  27.5470816  95.8200160
  14.7606675  27.3259531  87.6912945  13.9705729  27.5817059  87.2153056
  15.2517922  28.1407869  87.7964986  28.7770485  34.6664770  90.4418226
  29.5987928  34.2644957  90.1600908  28.7732887  34.5633004  91.3934342
  16.7121420  27.6904110  84.6496422  15.9152584  27.8022804  85.1679918
  16.4847013  28.0290762  83.7837313  22.5427088  34.2148813  92.5978937
  22.6071521  34.6769221  93.4337109  21.8338012  33.5846178  92.7261247
  13.0444378  27.5790021  90.1227936  13.2952416  28.4637031  90.3885512
  13.5803926  27.3994623  89.3503028  36.8676478  31.0103518  86.7903198
  36.1140186  30.4410917  86.6347202  37.0024019  30.9766183  87.7373832
  22.2575106  35.8816921  82.4657917  22.1220780  36.7268457  82.8942765
  22.7984918  36.0836198  81.7023851  15.7104503  33.3992359  83.0385842
  16.2229024  34.1935609  83.1891407  16.3627216  32.7018649  82.9719444
  17.5199388  36.5158115  85.1208595  17.6966016  37.4376080  84.9329579
  18.3156221  36.2016534  85.5502975  21.6610406  23.3766380  96.7192529
  22.4020120  23.9773533  96.6396991  21.8928329  22.6344018  96.1610571
  16.8051744  28.5622747  94.9970759  16.6905259  27.6608004  95.2977857
  15.9496262  28.8086444  94.6455575  23.8843582  36.5040487  96.5958259
  23.4407436  35.7176866  96.2779164  24.5460796  36.6919638  95.9302150
  18.6430703  38.0336289  91.1218938  19.1938128  37.9053352  90.3495932
  17.8042179  38.3331178  90.7713830  25.9824820  36.7843287  94.6239660
  25.9643295  37.6052168  94.1319930  26.9044740  36.6597362  94.8489802
  22.4397874  34.2987417  95.4663169  22.9726211  33.5375705  95.2362477
  21.9111955  34.0061069  96.2087323  25.6067569  19.4047483  90.9956811
  25.2631839  20.2949124  90.9195921  25.9746532  19.2149140  90.1326396
  13.6753420  31.7281013  83.8145413  14.5128642  32.1378021  83.5979120
  13.8531688  30.7880455  83.7845607  25.5717852  29.3956094  79.5029246
  25.0564475  30.1660698  79.7417633  25.2995160  28.7221230  80.1262307
  23.1564963  24.2405795  84.5614484  22.3006559  23.8512645  84.3820123
  23.5691915  24.3197755  83.7014270  24.6864110  21.7752138  88.9606044
  24.1828905  21.7382273  88.1473849  24.9794716  22.6844881  89.0202700
  20.9306996  21.8590868  87.9672226  21.7959992  21.6633676  87.6078115
  20.9984504  21.6301219  88.8941582  30.5452126  32.1488448  81.4382419
  29.7681569  31.8099608  80.9937581  31.2243607  32.1541072  80.7637384
  25.3604155  27.2683186  81.3289027  25.0554291  27.5829335  82.1799170
  26.3134597  27.3464606  81.3716360  23.8050587  33.4273409  82.9781981
  23.2771949  32.6926169  82.6655218  23.3038090  34.2048086  82.7321949
  28.7843433  31.6222430  88.0949027  28.1267107  32.3121691  88.1829156
  29.5883832  32.0118862  88.4383013  18.5369315  24.0893075  85.3388592
  19.1113066  23.8668257  84.6061785  19.1240297  24.1581770  86.0917194
  27.5948892  29.9766802  86.1452969  28.1080774  30.6096794  86.6474679
  28.2450116  29.3767998  85.7796329  18.8638902  26.1197536  79.3584478
  18.0276214  26.4572223  79.6793752  18.7243671  25.9846516  78.4211615
  20.8391982  20.9634324  84.0663662  20.1856395  20.6483342  83.4420277
  20.7972456  20.3410065  84.7923485  21.9503187  31.2453619  75.9816954
  21.0430249  31.0142873  76.1808103  22.4474219  30.4491239  76.1690935
  24.8571266  39.9551127  78.9013640  24.1832965  40.2582823  79.5098598
  25.2437088  40.7580207  78.5519097  24.0729723  27.4516258  88.3911309
  23.1552284  27.6731205  88.2332997  24.4889866  27.5262568  87.5323017
  24.8564770  28.8507674  83.5213990  25.6036589  29.3629071  83.2121112
  25.1256360  28.5291726  84.3818383  23.1291421  31.3466214  80.5040944
  22.2202640  31.0625247  80.6013414  23.1586504  31.7665293  79.6444251
  28.3610688  34.9572804  84.2732112  27.9073015  34.1163714  84.3297302
  27.7304655  35.5934202  84.6106892  27.3043608  25.8864790  85.5032779
  26.5666364  25.3742176  85.8343022  27.5570381  25.4465171  84.6916056
  26.8043627  36.7949301  85.2081930  27.0966602  37.3554358  84.4894295
  27.3142248  37.0877862  85.9635089  27.4055235  18.6641042  86.0974548
  27.7114112  17.8038405  85.8100463  28.1307840  19.2558662  85.8973542
  13.6979591  29.0671728  84.4856146  13.5003991  28.4741089  83.7607213
  13.1426255  28.7623939  85.2032085  21.6776315  28.9594835  86.6050739
  21.7324924  28.0068671  86.5293216  20.8667517  29.1154274  87.0892038
  22.8267508  32.8874958  77.8429023  22.3886938  32.1710817  77.3834660
  23.5677949  33.1151073  77.2814114  19.6168675  27.5771895  84.3641118
  18.8036540  27.8766065  84.7706310  20.1127669  27.1827583  85.0815600
  21.7677252  37.5729652  86.2975383  21.7253431  37.7990498  85.3683915
  22.6839951  37.3393026  86.4461184  25.2142886  28.0413719  93.1956012
  25.5692274  28.2685192  94.0550478  25.8615017  28.3732096  92.5733267
  30.9440623  31.1632155  83.9005341  30.8058522  31.3533751  82.9726530
  30.5876842  31.9251538  84.3573392  19.1082749  25.1490250  89.9802353
  19.7482129  25.0079009  89.2825316  18.2760280  24.8624764  89.6040955
  30.9710003  33.2308682  88.9116613  31.4046509  33.1383971  89.7599667
  31.6841583  33.2066182  88.2736629  19.8843053  34.4492681  86.0937346
  20.6783652  33.9543001  85.8919921  19.1734746  33.9210544  85.7305051
  24.7037898  36.8310776  90.4449713  24.7574920  37.4001712  91.2127429
  23.8352679  37.0012661  90.0803750  16.1925817  28.5935762  82.1697098
  15.2623405  28.5320218  82.3867060  16.2883289  28.0711715  81.3733740
  16.1111366  25.1190575  84.7575340  16.3718183  26.0335908  84.6484500
  16.9328538  24.6515018  84.9071953  17.5836291  26.5328332  91.9274164
  18.2559344  26.3245694  91.2786813  16.7566078  26.3350418  91.4879397
  31.8325552  33.2732383  91.4449498  32.0261442  34.1778193  91.6908773
  31.7326171  32.8139802  92.2788083  23.4861863  23.1590273  93.9439825
  22.8389778  23.8580223  93.8504302  24.2562878  23.5926417  94.3116074
  26.8940661  33.4239125  97.0190379  26.7426167  33.1949677  96.1020462
  26.8845340  34.3809727  97.0321724  23.6625997  30.9971038  92.0036645
  24.5918057  31.1482198  91.8305612  23.2417027  31.0855059  91.1485292
  22.4614329  35.0221703  89.7735183  22.3225415  34.6540487  90.6461121
  21.6728925  35.5369342  89.6019140  23.0562481  40.1230799  81.1160719
  23.2314237  39.6518842  81.9306342  22.3695269  40.7496565  81.3441980
  24.0119544  34.4003305  87.1624020  23.6769377  34.3604075  88.0581670
  23.5123490  33.7348021  86.6894431  17.9863788  29.8070935  92.6876602
  17.8483586  29.0751174  93.2888141  18.8968712  29.7179835  92.4060789
  26.9478736  31.7459340  77.4361080  26.3307907  31.0206168  77.3394133
  26.4795224  32.5068700  77.0928154  20.6146089  29.5190895  92.1760281
  21.3245708  28.8784087  92.1346900  20.5715397  29.7703789  93.0986462
  28.6032868  36.4558248  95.0966860  28.5445414  35.7717468  94.4297443
  29.0052386  37.1977238  94.6447486  19.3275023  26.5056113  93.9955921
  18.7912380  26.0546851  94.6477517  18.7391731  26.6402021  93.2526385
  17.6223566  43.2720162  87.8900579  17.8620165  43.9038686  88.5679598
  16.7792763  42.9208202  88.1765939  18.7377282  25.9644764  76.5582384
  17.8606748  25.8433565  76.1944631  19.2135035  25.1730842  76.3061273
  28.6050275  34.4197832  93.3280840  27.7177054  34.0823754  93.4507239
  29.1748826  33.6880863  93.5649606  10.2579422  30.7521924  86.6523892
  10.9450462  30.4383654  86.0644907  10.1027551  31.6563288  86.3791143
  15.0614144  25.6412120  91.0808915  14.9772333  25.0337790  90.3459325
  14.2396851  26.1321139  91.0818412  22.1351428  39.0799284  90.2942083
  22.0621600  39.8854256  90.8061388  21.6928821  39.2791250  89.4690105
  21.9241208  38.3171054  83.8044905  21.1408730  38.8592734  83.8983129
  22.6233953  38.8345034  84.2039146  25.2337858  24.1265684  86.4479110
  25.7306558  23.3735646  86.1280181  24.4624840  24.1630000  85.8822320
  33.0867615  29.8306049  88.0897402  33.0757492  30.7130765  87.7191335
  32.2184995  29.4777600  87.8951939  24.5950112  38.9786118  92.4500242
  25.3078084  39.6133583  92.3776143  24.1040140  39.0749984  91.6340244
  26.3167639  32.8837371  84.0217534  25.3823917  33.0038833  83.8522238
  26.4944307  31.9809838  83.7577544  21.8172827  26.2683067  86.1750795
  21.4470614  25.7154107  86.8631700  22.3131919  25.6641200  85.6225795
  29.7040190  28.7254690  84.5567568  30.1700642  29.5582682  84.4827870
  30.1547691  28.2599672  85.2612826  19.6462025  36.7280562  93.2705813
  20.3471485  37.3617045  93.4235207  19.1757140  37.0695293  92.5101452
  27.7716421  35.0698512  81.5553720  28.0476265  34.9555106  82.4647594
  26.9020920  34.6715996  81.5165893  27.6756853  21.0935277  88.5958469
  26.7619933  21.3239504  88.7640676  28.1049954  21.1773721  89.4472502
  27.4463311  29.2825169  91.0958363  26.7934762  29.5301077  90.4410816
  27.8243691  28.4689307  90.7620840  24.4070485  39.3184862  85.1986533
  24.5892880  38.5006518  85.6614286  25.2303471  39.5352555  84.7611423
  24.7412651  38.2453048  82.4601582  25.2700417  37.7345502  81.8471744
  25.0040870  37.9295578  83.3247115  23.4950884  30.0244980  97.5824400
  22.8191521  29.9239110  98.2526775  24.3178518  29.8684194  98.0460397
  15.2429743  36.2616917  90.2036916  15.8283180  35.5160605  90.3364820
  15.0454582  36.5720874  91.0873579  18.0968399  39.2968164  85.2199358
  17.4278774  39.7814292  84.7363398  17.9581268  39.5437385  86.1342736
   9.8347398  28.8322517  88.9241359   9.8731498  28.2986108  89.7178477
   9.3287691  28.3057723  88.3052336  22.2373667  41.3311908  91.8182016
  22.7891975  41.4943529  92.5831101  22.5779861  41.9216346  91.1462041
  17.2138160  23.6787058  92.4203901  17.2779487  24.5401888  92.0081299
  17.1505281  23.0661059  91.6876259  27.0884542  36.1573165  97.6730671
  27.6324446  36.7703124  97.1785625  26.5071386  36.7152744  98.1897684
  13.4655976  27.5586619  81.9995290  13.7609417  26.6497298  81.9462344
  12.5644012  27.5374359  81.6776292  25.3742055  39.2793883  88.8045698
  25.2493194  38.4783623  88.2956644  26.0321146  39.7740077  88.3159668
  16.9950223  25.6342616  87.9822839  16.2736809  26.2478583  87.8430312
  17.7843479  26.1700381  87.9039485  27.4376963  37.0802903  90.4325249
  26.4907298  36.9608255  90.3603575  27.7859736  36.1925401  90.5151510
  19.7976536  22.9697042  94.2563490  20.3210938  23.2159339  95.0189800
  19.5788870  23.8017077  93.8366628  15.1943817  25.2400717  82.1234615
  14.8656524  24.3598096  81.9409721  15.5483188  25.1848386  83.0111004
  24.4423396  36.8755620  86.6329601  24.2948359  35.9472327  86.8137171
  25.2676890  36.8975710  86.1486676  18.3085641  25.5273687  82.4910093
  18.6481713  26.0559608  81.7688701  18.7557761  25.8654093  83.2668659
  28.0457518  37.6984178  87.7194473  28.9704066  37.4927040  87.5818925
  27.8772821  37.4500579  88.6283815  21.0029081  23.9110737  91.9413161
  20.6625902  23.1118550  92.3433841  20.2968088  24.2112448  91.3689994
  21.6545553  20.9960050  90.3940484  22.4771622  20.5220528  90.2719374
  21.8983617  21.7750534  90.8939170  20.2953788  24.0248308  80.6903386
  21.0162150  24.4029561  80.1867102  19.6719092  24.7437185  80.7938364
  24.4384911  24.7293457  81.6261718  24.6548525  25.6118095  81.3250546
  23.9578978  24.3379671  80.8967360  19.1784132  27.6879170  88.2032463
  19.0328713  28.0019473  89.0956744  18.7009336  28.3064071  87.6503361
  21.0380515  24.6781718  88.2513352  21.0242084  23.7822812  87.9145650
  21.7552943  24.6852382  88.8851638  22.8906646  25.1119059  90.2966480
  22.6324423  26.0336129  90.2950810  22.3591686  24.7149493  90.9866944
  27.8352834  38.2169846  83.0756565  28.0089712  37.6516268  82.3230417
  28.3281726  39.0170741  82.8936055  13.6529794  30.2284515  91.1420124
  13.1083262  31.0044323  91.2740398  14.5309144  30.5755319  90.9839245
  20.4417411  23.5596099  83.5200922  20.5633322  22.6312745  83.7191810
  20.1519453  23.5734785  82.6079238  23.3108601  21.2451009  86.6567642
  23.3330298  21.3090342  85.7019622  23.7276660  20.4055518  86.8508148
  33.6892225  30.9806269  84.6946865  34.1323371  30.2313594  84.2965988
  32.8118736  30.9716405  84.3120597  28.8228007  37.5336610  80.1753463
  29.5178911  38.1543303  80.3940778  29.1651157  36.6831961  80.4505841
  14.4395816  29.3554411  94.0350281  13.6977552  29.5037046  94.6214911
  14.1188560  29.6162677  93.1717030  30.7219430  34.9836316  81.7040794
  31.2470754  35.3223588  80.9790114  30.6341782  34.0483331  81.5203929
  22.3839479  38.8970389  93.8330671  22.6926605  38.6519536  94.7053370
  23.1814961  39.1017028  93.3449541  22.4060091  41.0508299  86.0636047
  21.9665081  40.5584678  86.7568904  23.1568208  40.5081267  85.8228122
  14.8852430  37.2419840  86.0660675  15.7110450  36.9423612  85.6859319
  14.5346482  36.4727462  86.5150464  19.8533963  36.5946308  88.1358349
  19.2313972  35.9317013  87.8360577  20.5238830  36.6207440  87.4531997
  13.0861035  35.1606166  87.0249609  12.2492943  34.7328341  86.8433610
  13.0584680  35.3538610  87.9620400  30.4113336  35.6169219  97.0091992
  29.6208880  35.5993358  96.4696491  30.1746691  36.1557513  97.7641029
  30.5311211  32.4661686  94.3224720  30.5809216  32.3011693  95.2640243
  30.4225134  31.5988945  93.9322601  19.4147470  35.1450231  81.6116809
  19.5635590  35.8285696  80.9583482  20.2213913  35.1255321  82.1266265
  27.8214973  28.4492614  95.6384027  28.7224836  28.3099079  95.3468025
  27.8962948  28.6147069  96.5782205  22.1557779  25.8259468  94.4837214
  21.2861088  26.1193035  94.2119802  22.3917259  26.4099913  95.2044477
  32.0329408  34.8858627  94.5666742  31.7414216  35.2488608  95.4030203
  31.4201539  34.1725635  94.3880074  33.2325090  32.4511507  87.0869312
  34.0671982  32.8901311  87.2506873  33.3684219  31.9750160  86.2677558
  30.2816596  30.0091242  93.0346800  30.7570718  30.2018888  92.2265651
  29.3582161  30.0650428  92.7890184  17.1700103  31.1715409  82.6177878
  16.9246145  30.2677739  82.8158088  17.3396017  31.1732559  81.6757356
  24.8596813  22.0439085  92.0002634  25.3778756  22.7800112  91.6749122
  24.5051945  22.3503079  92.8349393  16.4395750  26.9043767  80.1164040
  15.7464995  26.9788122  79.4604076  16.1947502  26.1404110  80.6385557
  25.1109407  18.4639368  87.5203531  25.3911160  17.7962557  88.1463957
  25.8960014  18.6568464  87.0078194  22.9142875  37.6398362  79.0828557
  22.3416842  38.2588549  78.6299029  23.4875669  38.1897724  79.6168479
  28.9818265  26.8857002  91.2675106  29.9335688  26.9855100  91.2887330
  28.8121715  26.0935270  91.7773190  27.0032645  23.9712585  91.4534507
  26.4082577  24.2517598  90.7580995  26.7182341  24.4606486  92.2251248
  26.1340135  37.9235512  80.2137139  27.0670808  37.8581074  80.4170015
  26.0463348  38.7591779  79.7551672  28.7628152  37.2401382  77.1741087
  28.6841783  36.9061246  78.0676845  29.5837818  37.7323150  77.1732559
  31.4606343  30.1063122  90.3817405  31.4282663  29.1679122  90.5677089
  32.0706967  30.1847158  89.6483230  23.2989674  28.9759175  76.4244609
  24.2448778  28.8465383  76.4933027  22.9203919  28.2373836  76.9014037
  31.6100831  26.8974165  90.4275688  31.0939880  26.1132622  90.2405617
  32.4940780  26.5692882  90.5922208  29.2711558  20.6415181  86.3871501
  29.0736379  20.3330269  87.2714833  29.8811264  21.3676820  86.5169431
  37.2782893  31.1679128  89.5223442  38.0086281  30.9064417  90.0831145
  36.6689838  30.4307850  89.5625510  35.3598190  29.3086991  90.1197893
  34.6331353  29.1742956  89.5114385  34.9445477  29.6163820  90.9254611
  23.1828366  33.0276921  97.8845266  24.1031376  33.2055520  98.0785313
  23.1477949  32.0832966  97.7324966  21.4832591  26.9009151  76.3599495
  20.5764046  26.6042264  76.4362208  21.7608572  26.6038969  75.4933781
  12.4010531  28.2215514  86.8098541  12.0813316  27.3680823  86.5172915
  11.8543959  28.4364093  87.5656508  16.1790439  30.9377955  90.5268047
  16.3976449  31.8695063  90.5456081  16.5916213  30.5785930  91.3122851
  23.0994657  21.4446041  82.5143736  22.2895385  21.0993126  82.8898982
  23.7879074  21.1353584  83.1031347  25.0285205  20.5224087  84.1368032
  25.5816243  20.9419541  84.7958056  25.2655291  19.5959836  84.1790988
  20.2531375  23.7596086  76.5011474  21.1150539  24.0850984  76.7607291
  20.4381720  22.9727582  75.9884540  12.2698791  31.8418426  88.7791663
  11.5762263  31.4272379  88.2661617  13.0171782  31.8838962  88.1825081
  28.4064012  22.6324613  83.6446697  27.8262681  23.2909417  83.2624749
  28.1399945  21.8101957  83.2334114  26.8567578  22.0329670  85.8468017
  27.3567357  22.1446205  85.0382336  27.5003186  21.7290723  86.4868825
  20.9149574  29.9408300  98.7335858  20.4316656  30.7408660  98.9399747
  21.0010513  29.9516245  97.7803302  14.1835534  31.7736680  86.6557677
  14.1606222  31.8724367  85.7039560  14.4936170  32.6201830  86.9774844
  16.8422912  33.8312835  90.7704292  17.7966165  33.7996777  90.7034223
  16.6435435  33.3703458  91.5854518  17.4322294  32.4013951  93.3375089
  18.2515183  32.8958029  93.3609927  17.7059101  31.4845919  93.3092657
  27.1888890  24.7924703  82.7003045  26.3014745  25.0774354  82.4823240
  27.6042879  24.6318466  81.8530322  30.5403426  24.8171224  86.4157384
  31.3163816  25.3067676  86.6882001  29.8151560  25.2429278  86.8729254
  32.9775985  25.5298843  87.4731325  33.5720476  25.2894579  86.7624633
  33.0502568  24.8105974  88.1004861  15.1973140  39.3732454  87.7874490
  15.0627608  38.6132855  87.2212488  14.7805203  40.0973354  87.3203279
  26.3332103  34.5569378  76.7951065  27.0367954  34.7619380  77.4108721
  25.6094752  35.1246140  77.0600148  27.1629914  30.3079239  82.9153335
  27.1065115  30.7647790  82.0760968  27.7158256  29.5469924  82.7376178
  30.9734720  26.0968971  83.7403455  30.7171654  25.6965606  84.5711662
  30.3487588  26.8112765  83.6153594  35.2847057  28.8365044  86.2474746
  34.7246615  28.9058233  87.0206308  34.6790561  28.6606029  85.5274242
  18.3542266  40.2701771  87.9992932  18.2374650  41.2147204  87.8971623
  17.5334713  39.9675333  88.3878732  28.2418801  34.9951907  78.8449525
  29.0764405  34.5633105  78.6627000  28.0803144  34.8233921  79.7726420
  27.8964693  31.4984020  80.2105864  27.8413497  31.3328292  79.2694308
  27.2710748  32.2060053  80.3668054  12.6857208  26.7352085  94.0367287
  13.3316072  26.2251039  94.5254512  12.4774359  27.4720766  94.6110712
  25.2110600  33.8032932  99.5359427  26.0801760  33.9773584  99.1746062
  24.7317352  34.6227349  99.4135156  21.2060819  20.9992129  79.7891183
  21.1939488  21.9433969  79.9459454  22.0984240  20.8162275  79.4950644
  19.3796780  40.9230033  91.2148861  20.2824027  40.9553643  91.5315356
  19.1534151  39.9930484  91.2295197  21.1350382  39.6761020  87.8758939
  20.1846013  39.6762881  87.7623312  21.4382869  38.9293754  87.3594974
  25.0212938  17.5934906  84.0437120  24.2545334  17.0393393  84.1893802
  25.4323643  17.6656775  84.9051271  36.8703076  45.5121558  88.9404702
  37.5081486  45.3928305  88.2368042  36.7523919  46.4602402  88.9992654
  33.6792782  45.4648986  88.8766226  33.3411294  45.3490051  87.9886761
  34.5482550  45.0640151  88.8567233  29.5379598  47.3184463  84.8663117
  28.9744463  47.2274399  84.0979405  29.4231993  46.4984367  85.3465610
  34.1612565  46.6183838  94.8352432  34.1501206  46.2236636  93.9632936
  34.3233205  45.8849910  95.4286203  27.0844030  48.8135654  87.7047338
  27.8765322  48.4726479  87.2893637  27.3240680  48.9230629  88.6249491
  35.1179157  50.9855430  80.1777582  34.4667136  51.5709511  79.7911596
  35.9123519  51.5161625  80.2372620  29.0434784  48.0744567  80.5764717
  29.8165660  47.5273554  80.4377592  29.3960183  48.9388817  80.7879178
  31.8076033  46.7797798  90.3732976  32.4039605  46.5553821  89.6589939
  31.8651005  46.0382544  90.9758423  31.3801062  44.2337233  78.2083167
  31.6326582  43.7118755  77.4466630  30.4425621  44.0703379  78.3109850
  36.4244344  43.2373012  86.0157910  37.2107434  42.8192435  85.6648327
  36.6883049  44.1419104  86.1839558  36.5954422  48.6745862  80.7146567
  35.9600255  48.7480489  81.4267471  36.2651828  49.2639461  80.0365646
  41.8252772  43.1748245  86.9190888  42.5577944  42.6047462  87.1528718
  41.0692127  42.7869846  87.3597394  31.0997350  46.1365339  80.4107542
  30.9833608  45.4610243  81.0788626  31.2099610  45.6497713  79.5939695
  33.4428891  45.5975487  84.1154231  33.0787099  45.0706108  84.8267152
  34.2996007  45.2073956  83.9420716  39.3478192  36.8869819  91.3785497
  39.0161517  37.7565230  91.1546712  38.7523805  36.5706103  92.0579527
  33.0834378  40.6265386  79.1115579  33.2508781  41.4945623  79.4786050
  32.8931547  40.7892668  78.1876869  29.2922193  45.5396162  86.8118114
  28.3672689  45.4072376  87.0195806  29.5406606  46.3190381  87.3088056
  39.2406855  41.6064905  88.4578847  38.3323733  41.5380314  88.1637608
  39.1894451  42.0836850  89.2860672  33.0623599  43.0823044  80.0962246
  32.9423224  43.5280095  80.9347726  32.3676188  43.4308361  79.5375784
  26.6531004  45.1829436  87.6461903  26.7823385  45.4363914  88.5601315
  25.9728455  45.7757144  87.3266558  30.8230491  55.8526686  83.7452377
  30.7454521  56.8034511  83.8240858  30.2192135  55.5072558  84.4027304
  33.3147721  43.0254551  96.4013744  32.5381055  43.5848471  96.3916609
  33.9538284  43.5111334  96.9228614  41.1068502  39.8081344  90.2356721
  40.4642882  40.1013877  89.5896515  40.6023430  39.6934264  91.0409918
  38.7608665  43.5544517  80.9242580  39.6726521  43.7871904  80.7490278
  38.2518312  44.1381561  80.3617659  31.5694093  45.8340004  95.9631711
  32.3108778  46.3725048  95.6866535  30.8631079  46.4606293  96.1203263
  33.3980503  42.9141752  91.9337430  34.2441698  43.3381165  92.0772079
  33.3379141  42.2575376  92.6275993  41.2467480  49.4724773  85.6700525
  40.5618518  49.8523675  85.1197559  41.3311329  50.0820100  86.4032473
  36.5479948  40.5746120  93.5918603  36.3040880  41.3288180  93.0552879
  36.8239879  40.9531467  94.4265850  36.1044640  39.7302553  89.1732441
  35.2429119  40.0283806  89.4649179  36.1307075  39.9472952  88.2413474
  32.9206209  48.2744743  85.5806247  33.3844555  48.5532446  84.7910869
  32.6563008  47.3728188  85.3979337  29.8130291  47.8216225  88.5186010
  30.3831648  48.2503493  87.8803494  30.4038402  47.5398810  89.2170196
  31.8575096  44.3967896  82.3895812  32.5599139  44.8488940  82.8569738
  31.5255724  43.7551715  83.0175705  30.3055457  42.9879652  96.7647021
  29.6754118  43.6695933  96.9982418  30.1991545  42.8762734  95.8200160
  25.6000429  42.6551448  87.6912945  24.8099483  42.9108977  87.2153056
  26.0911677  43.4699786  87.7964986  27.5515175  43.0196028  84.6496422
  26.7546338  43.1314722  85.1679918  27.3240767  43.3582680  83.7837313
  23.8838132  42.9081939  90.1227936  24.1346171  43.7928949  90.3885512
  24.4197681  42.7286540  89.3503028  33.0968860  51.2108838  82.4657917
  32.9614535  52.0560374  82.8942765  33.6378673  51.4128116  81.7023851
  29.5836200  37.2900418  99.1272272  29.1903145  36.7366617  99.8019917
  30.4002340  37.6010997  99.5178790  26.5498258  48.7284276  83.0385842
  27.0622778  49.5227527  83.1891407  27.2020970  48.0310567  82.9719444
  28.3593142  51.8450033  85.1208595  28.5359771  52.7667997  84.9329579
  29.1549976  51.5308452  85.5502975  32.5004161  38.7058297  96.7192529
  33.2413874  39.3065451  96.6396991  32.7322084  37.9635935  96.1610571
  27.6445499  43.8914665  94.9970759  27.5299014  42.9899922  95.2977857
  26.7890017  44.1378361  94.6455575  36.4461324  34.7339400  90.9956811
  36.1025593  35.6241042  90.9195921  36.8140286  34.5441058  90.1326396
  24.5147174  47.0572931  83.8145413  25.3522396  47.4669939  83.5979120
  24.6925442  46.1172373  83.7845607  36.4111606  44.7248011  79.5029246
  35.8958230  45.4952616  79.7417633  36.1388915  44.0513148  80.1262307
  33.9958717  39.5697712  84.5614484  33.1400314  39.1804563  84.3820123
  34.4085669  39.6489673  83.7014270  35.5257864  37.1044055  88.9606044
  35.0222660  37.0674191  88.1473849  35.8188471  38.0136798  89.0202700
  31.7700750  37.1882785  87.9672226  32.6353747  36.9925594  87.6078115
  31.8378259  36.9593137  88.8941582  36.1997910  42.5975104  81.3289027
  35.8948045  42.9121253  82.1799170  37.1528352  42.6756523  81.3716360
  34.6444341  48.7565327  82.9781981  34.1165703  48.0218086  82.6655218
  34.1431844  49.5340003  82.7321949  29.3763069  39.4184993  85.3388592
  29.9506821  39.1960175  84.6061785  29.9634052  39.4873688  86.0917194
  38.4342646  45.3058720  86.1452969  38.9474528  45.9388712  86.6474679
  39.0843870  44.7059916  85.7796329  29.7032656  41.4489454  79.3584478
  28.8669968  41.7864141  79.6793752  29.5637426  41.3138434  78.4211615
  31.6785737  36.2926242  84.0663662  31.0250149  35.9775259  83.4420277
  31.6366211  35.6701983  84.7923485  32.7896942  46.5745537  75.9816954
  31.8824003  46.3434791  76.1808103  33.2867974  45.7783156  76.1690935
  34.9123477  42.7808176  88.3911309  33.9946039  43.0023123  88.2332997
  35.3283621  42.8554486  87.5323017  35.6958525  44.1799591  83.5213990
  36.4430344  44.6920988  83.2121112  35.9650114  43.8583644  84.3818383
  33.9685175  46.6758132  80.5040944  33.0596394  46.3917165  80.6013414
  33.9980259  47.0957211  79.6444251  39.2004443  50.2864721  84.2732112
  38.7466770  49.4455631  84.3297302  38.5698409  50.9226120  84.6106892
  38.1437362  41.2156708  85.5032779  37.4060119  40.7034094  85.8343022
  38.3964136  40.7757089  84.6916056  37.6437382  52.1241218  85.2081930
  37.9360356  52.6846275  84.4894295  38.1536002  52.4169779  85.9635089
  38.2448989  33.9932960  86.0974548  38.5507866  33.1330323  85.8100463
  38.9701594  34.5850580  85.8973542  24.5373345  44.3963646  84.4856146
  24.3397745  43.8033007  83.7607213  23.9820009  44.0915856  85.2032085
  32.5170069  44.2886753  86.6050739  32.5718679  43.3360589  86.5293216
  31.7061271  44.4446192  87.0892038  33.6661263  48.2166876  77.8429023
  33.2280693  47.5002735  77.3834660  34.4071704  48.4442990  77.2814114
  30.4562429  42.9063812  84.3641118  29.6430295  43.2057983  84.7706310
  30.9521423  42.5119501  85.0815600  36.0536641  43.3705637  93.1956012
  36.4086028  43.5977110  94.0550478  36.7008772  43.7024014  92.5733267
  41.7834378  46.4924073  83.9005341  41.6452276  46.6825669  82.9726530
  41.4270596  47.2543456  84.3573392  29.9476504  40.4782168  89.9802353
  30.5875883  40.3370927  89.2825316  29.1154034  40.1916681  89.6040955
  30.7236808  49.7784598  86.0937346  31.5177406  49.2834918  85.8919921
  30.0128500  49.2502461  85.7305051  27.0319571  43.9227680  82.1697098
  26.1017159  43.8612136  82.3867060  27.1277043  43.4003633  81.3733740
  26.9505120  40.4482493  84.7575340  27.2111938  41.3627826  84.6484500
  27.7722293  39.9806935  84.9071953  28.4230046  41.8620250  91.9274164
  29.0953099  41.6537612  91.2786813  27.5959832  41.6642336  91.4879397
  34.3255618  38.4882191  93.9439825  33.6783533  39.1872141  93.8504302
  35.0956633  38.9218335  94.3116074  37.7334416  48.7531043  97.0190379
  37.5819922  48.5241595  96.1020462  37.7239095  49.7101645  97.0321724
  34.5019752  46.3262956  92.0036645  35.4311812  46.4774115  91.8305612
  34.0810782  46.4146977  91.1485292  28.8257543  45.1362853  92.6876602
  28.6877341  44.4043092  93.2888141  29.7362466  45.0471753  92.4060789
  37.7872491  47.0751257  77.4361080  37.1701661  46.3498085  77.3394133
  37.3188979  47.8360618  77.0928154  31.4539843  44.8482812  92.1760281
  32.1639462  44.2076005  92.1346900  31.4109152  45.0995707  93.0986462
  30.1668777  41.8348030  93.9955921  29.6306134  41.3838769  94.6477517
  29.5785486  41.9693939  93.2526385  28.4617321  58.6012080  87.8900579
  28.7013919  59.2330604  88.5679598  27.6186517  58.2500120  88.1765939
  29.5771036  41.2936682  76.5582384  28.7000503  41.1725482  76.1944631
  30.0528789  40.5022760  76.3061273  21.0973177  46.0813841  86.6523892
  21.7844216  45.7675571  86.0644907  20.9421305  46.9855206  86.3791143
  25.9007899  40.9704038  91.0808915  25.8166087  40.3629707  90.3459325
  25.0790605  41.4613056  91.0818412  32.7634962  53.6462972  83.8044905
  31.9802484  54.1884652  83.8983129  33.4627708  54.1636952  84.2039146
  36.0731613  39.4557601  86.4479110  36.5700312  38.7027564  86.1280181
  35.3018594  39.4921918  85.8822320  37.1561393  48.2129289  84.0217534
  36.2217672  48.3330751  83.8522238  37.3338062  47.3101755  83.7577544
  32.6566581  41.5974984  86.1750795  32.2864369  41.0446025  86.8631700
  33.1525674  40.9933118  85.6225795  40.5433945  44.0546608  84.5567568
  41.0094397  44.8874600  84.4827870  40.9941445  43.5891590  85.2612826
  38.5150607  36.4227195  88.5958469  37.6013687  36.6531422  88.7640676
  38.9443709  36.5065639  89.4472502  38.2857066  44.6117087  91.0958363
  37.6328516  44.8592994  90.4410816  38.6637446  43.7981225  90.7620840
  34.3344639  45.3536898  97.5824400  33.6585276  45.2531027  98.2526775
  35.1572273  45.1976112  98.0460397  26.0823498  51.5908834  90.2036916
  26.6676935  50.8452522  90.3364820  25.8848336  51.9012791  91.0873579
  28.9362153  54.6260082  85.2199358  28.2672528  55.1106210  84.7363398
  28.7975023  54.8729302  86.1342736  20.6741153  44.1614435  88.9241359
  20.7125252  43.6278025  89.7178477  20.1681446  43.6349640  88.3052336
  28.0531915  39.0078975  92.4203901  28.1173241  39.8693806  92.0081299
  27.9899035  38.3952977  91.6876259  27.5284188  41.0802108  96.0676935
  28.1556226  40.6979185  96.6814460  26.6712106  40.8616310  96.4332628
  24.3049730  42.8878537  81.9995290  24.6003171  41.9789215  81.9462344
  23.4037766  42.8666276  81.6776292  27.8343977  40.9634533  87.9822839
  27.1130563  41.5770501  87.8430312  28.6237233  41.4992298  87.9039485
  30.6370291  38.2988960  94.2563490  31.1604693  38.5451256  95.0189800
  30.4182624  39.1308995  93.8366628  26.0337572  40.5692635  82.1234615
  25.7050278  39.6890013  81.9409721  26.3876943  40.5140303  83.0111004
  29.1479395  40.8565604  82.4910093  29.4875468  41.3851526  81.7688701
  29.5951515  41.1946010  83.2668659  31.8422836  39.2402655  91.9413161
  31.5019656  38.4410468  92.3433841  31.1361842  39.5404366  91.3689994
  32.4939308  36.3251967  90.3940484  33.3165377  35.8512446  90.2719374
  32.7377371  37.1042451  90.8939170  31.1347542  39.3540226  80.6903386
  31.8555905  39.7321479  80.1867102  30.5112846  40.0729103  80.7938364
  35.2778665  40.0585375  81.6261718  35.4942279  40.9410013  81.3250546
  34.7972732  39.6671588  80.8967360  30.0177886  43.0171088  88.2032463
  29.8722467  43.3311391  89.0956744  29.5403090  43.6355988  87.6503361
  31.8774269  40.0073636  88.2513352  31.8635838  39.1114729  87.9145650
  32.5946697  40.0144300  88.8851638  33.7300400  40.4410976  90.2966480
  33.4718178  41.3628047  90.2950810  33.1985440  40.0441411  90.9866944
  24.4923549  45.5576432  91.1420124  23.9477017  46.3336240  91.2740398
  25.3702898  45.9047237  90.9839245  31.2811165  38.8888016  83.5200922
  31.4027076  37.9604663  83.7191810  30.9913208  38.9026702  82.6079238
  34.1502356  36.5742927  86.6567642  34.1724052  36.6382260  85.7019622
  34.5670415  35.7347435  86.8508148  44.5285980  46.3098186  84.6946865
  44.9717126  45.5605512  84.2965988  43.6512490  46.3008323  84.3120597
  25.2789570  44.6846329  94.0350281  24.5371306  44.8328964  94.6214911
  24.9582315  44.9454594  93.1717030  25.7246184  52.5711757  86.0660675
  26.5504204  52.2715529  85.6859319  25.3740236  51.8019380  86.5150464
  23.9254789  50.4898084  87.0249609  23.0886697  50.0620258  86.8433610
  23.8978435  50.6830527  87.9620400  30.7652245  40.4020014  97.7290855
  30.8140400  41.2782137  97.3468624  31.3074759  39.8597407  97.1562498
  30.2541224  50.4742149  81.6116809  30.4029345  51.1577613  80.9583482
  31.0607668  50.4547239  82.1266265  38.6608728  43.7784531  95.6384027
  39.5618591  43.6390996  95.3468025  38.7356702  43.9438986  96.5782205
  32.9951533  41.1551386  94.4837214  32.1254843  41.4484952  94.2119802
  33.2311014  41.7391831  95.2044477  28.0093857  46.5007327  82.6177878
  27.7639899  45.5969657  82.8158088  28.1789772  46.5024477  81.6757356
  35.6990567  37.3731003  92.0002634  36.2172511  38.1092030  91.6749122
  35.3445700  37.6794996  92.8349393  27.2789505  42.2335684  80.1164040
  26.5858750  42.3080039  79.4604076  27.0341257  41.4696028  80.6385557
  35.9503161  33.7931286  87.5203531  36.2304915  33.1254475  88.1463957
  36.7353768  33.9860381  87.0078194  33.7536630  52.9690279  79.0828557
  33.1810597  53.5880467  78.6299029  34.3269423  53.5189641  79.6168479
  39.8212020  42.2148920  91.2675106  40.7729442  42.3147017  91.2887330
  39.6515470  41.4227188  91.7773190  37.8426399  39.3004503  91.4534507
  37.2476331  39.5809516  90.7580995  37.5576096  39.7898404  92.2251248
  34.1383428  44.3051092  76.4244609  35.0842533  44.1757300  76.4933027
  33.7597673  43.5665754  76.9014037  42.4494586  42.2266083  90.4275688
  41.9333634  41.4424539  90.2405617  43.3334534  41.8984799  90.5922208
  40.1105313  35.9707098  86.3871501  39.9130134  35.6622186  87.2714833
  40.7205018  36.6968737  86.5169431  32.3226345  42.2301069  76.3599495
  31.4157801  41.9334181  76.4362208  32.6002326  41.9330887  75.4933781
  23.2404286  43.5507432  86.8098541  22.9207070  42.6972740  86.5172915
  22.6937714  43.7656010  87.5656508  27.0184193  46.2669873  90.5268047
  27.2370203  47.1986981  90.5456081  27.4309967  45.9077847  91.3122851
  33.9388411  36.7737958  82.5143736  33.1289139  36.4285043  82.8898982
  34.6272828  36.4645502  83.1031347  35.8678959  35.8516005  84.1368032
  36.4209998  36.2711459  84.7958056  36.1049046  34.9251753  84.1790988
  31.8912059  41.8403079  99.9170796  31.7908785  42.7897436  99.8482887
  31.6733601  41.5121318  99.0446866  31.0925130  39.0888004  76.5011474
  31.9544294  39.4142902  76.7607291  31.2775474  38.3019500  75.9884540
  23.1092546  47.1710344  88.7791663  22.4156017  46.7564296  88.2661617
  23.8565537  47.2130880  88.1825081  39.2457766  37.9616530  83.6446697
  38.6656436  38.6201334  83.2624749  38.9793699  37.1393875  83.2334114
  37.6961333  37.3621588  85.8468017  38.1961111  37.4738123  85.0382336
  38.3396941  37.0582641  86.4868825  31.7543329  45.2700218  98.7335858
  31.2710410  46.0700578  98.9399747  31.8404268  45.2808163  97.7803302
  25.0229288  47.1028597  86.6557677  24.9999976  47.2016285  85.7039560
  25.3329925  47.9493748  86.9774844  27.6816666  49.1604752  90.7704292
  28.6359920  49.1288695  90.7034223  27.4829190  48.6995376  91.5854518
  28.2716048  47.7305868  93.3375089  29.0908937  48.2249947  93.3609927
  28.5452856  46.8137837  93.3092657  38.0282644  40.1216621  82.7003045
  37.1408500  40.4066271  82.4823240  38.4436634  39.9610384  81.8530322
  41.3797181  40.1463142  86.4157384  42.1557571  40.6359594  86.6882001
  40.6545315  40.5721196  86.8729254  43.8169739  40.8590761  87.4731325
  44.4114230  40.6186497  86.7624633  43.8896323  40.1397891  88.1004861
  26.0366895  54.7024372  87.7874490  25.9021363  53.9424773  87.2212488
  25.6198957  55.4265272  87.3203279  37.1725858  49.8861295  76.7951065
  37.8761708  50.0911298  77.4108721  36.4488507  50.4538057  77.0600148
  38.0023668  45.6371157  82.9153335  37.9458870  46.0939708  82.0760968
  38.5552011  44.8761841  82.7376178  41.8128474  41.4260888  83.7403455
  41.5565408  41.0257524  84.5711662  41.1881342  42.1404682  83.6153594
  46.1240812  44.1656962  86.2474746  45.5640370  44.2350151  87.0206308
  45.5184315  43.9897946  85.5274242  38.7358448  46.8275938  80.2105864
  38.6807251  46.6620209  79.2694308  38.1104503  47.5351971  80.3668054
  23.5250963  42.0644002  94.0367287  24.1709826  41.5542956  94.5254512
  23.3168114  42.8012684  94.6110712  32.0454573  36.3284047  79.7891183
  32.0333243  37.2725887  79.9459454  32.9377995  36.1454192  79.4950644
  35.8606692  32.9226824  84.0437120  35.0939088  32.3685310  84.1893802
  36.2717397  32.9948692  84.9051271  27.8648454  39.2111619  98.1342301
  28.7279915  38.8548424  98.3445625  27.2913864  38.8725514  98.8217705
  50.1871946  52.2161737  91.3785497  49.8555271  53.0857148  91.1546712
  49.5917560  51.8998021  92.0579527  50.0800610  56.9356823  88.4578847
  49.1717487  56.8672231  88.1637608  50.0288206  57.4128768  89.2860672
  51.9462256  55.1373261  90.2356721  51.3036636  55.4305795  89.5896515
  51.4417185  55.0226182  91.0409918  58.5463987  61.6687354  86.7903198
  57.7927695  61.0994752  86.6347202  58.6811528  61.6350018  87.7373832
  42.6094504  52.5174703  87.9672226  43.4747501  52.3217512  87.6078115
  42.6772013  52.2885055  88.8941582  49.0842744  49.3224877  86.0974548
  49.3901621  48.4622241  85.8100463  49.8095349  49.9142497  85.8973542
  46.8930395  58.6997554  93.1956012  47.2479783  58.9269028  94.0550478
  47.5402526  59.0315931  92.5733267  53.5113061  63.9316218  91.4449498
  53.7048951  64.8362029  91.6908773  53.4113679  63.4723637  92.2788083
  48.5728170  64.0822961  97.0190379  48.4213676  63.8533512  96.1020462
  48.5632849  65.0393562  97.0321724  50.2820377  67.1142083  95.0966860
  50.2232923  66.4301303  94.4297443  50.6839895  67.8561073  94.6447486
  31.9366931  61.4105759  86.6523892  32.6237971  61.0967489  86.0644907
  31.7815060  62.3147124  86.3791143  49.3544362  51.7519113  88.5958469
  48.4407442  51.9823339  88.7640676  49.7837463  51.8357557  89.4472502
  48.7672051  66.8157001  97.6730671  49.3111955  67.4286959  97.1785625
  48.1858895  67.3736579  98.1897684  44.9896110  51.9034844  86.6567642
  45.0117807  51.9674178  85.7019622  45.4064169  51.0639353  86.8508148
  52.0900845  66.2753055  97.0091992  51.2996389  66.2577194  96.4696491
  51.8534200  66.8141348  97.7641029  52.2098720  63.1245521  94.3224720
  52.2596725  62.9595528  95.2640243  52.1012643  62.2572780  93.9322601
  49.5002482  59.1076449  95.6384027  50.4012345  58.9682914  95.3468025
  49.5750457  59.2730904  96.5782205  53.7116917  65.5442463  94.5666742
  53.4201725  65.9072443  95.4030203  53.0989048  64.8309471  94.3880074
  51.9604105  60.6675077  93.0346800  52.4358227  60.8602723  92.2265651
  51.0369670  60.7234263  92.7890184  50.6605774  57.5440837  91.2675106
  51.6123197  57.6438935  91.2887330  50.4909224  56.7519106  91.7773190
  58.9570402  61.8262964  89.5223442  59.6873790  61.5648252  90.0831145
  58.3477347  61.0891686  89.5625510  57.0385699  59.9670826  90.1197893
  56.3118862  59.8326791  89.5114385  56.6232986  60.2747655  90.9254611
  46.7072714  51.1807923  84.1368032  47.2603752  51.6003376  84.7958056
  46.9442800  50.2543671  84.1790988  33.9486300  62.5002261  88.7791663
  33.2549772  62.0856214  88.2661617  34.6959291  62.5422798  88.1825081
  46.7000447  48.2518741  84.0437120  45.9332843  47.6977228  84.1893802
  47.1111152  48.3240610  84.9051271  55.8400074  77.2767673  94.8352432
  55.8288715  76.8820471  93.9632936  56.0020714  76.5433746  95.4286203
  52.5607335  80.0604785  93.7831616  52.2697201  80.9650416  93.6678282
  53.1964320  80.1021313  94.4975686  61.0265701  67.5453655  91.3785497
  60.6949026  68.4149065  91.1546712  60.4311314  67.2289939  92.0579527
  57.5197220  79.7466201  90.7781410  57.2197944  80.6491239  90.6697217
  57.1748280  79.4798384  91.6302563  60.9194364  72.2648741  88.4578847
  60.0111242  72.1964149  88.1637608  60.8681960  72.7420686  89.2860672
  52.5018000  86.5110521  83.7452377  52.4242030  87.4618346  83.8240858
  51.8979644  86.1656393  84.4027304  54.9935230  73.6838386  96.4013744
  54.2168564  74.2432306  96.3916609  55.6325793  74.1695169  96.9228614
  62.7856011  70.4665179  90.2356721  62.1430391  70.7597712  89.5896515
  62.2810939  70.3518099  91.0409918  58.7236942  78.6352980  94.5603873
  59.1320298  78.1935391  93.8158505  58.0014203  78.0605608  94.8138066
  59.0465757  79.1954171  88.3156162  58.4174619  79.3599885  87.6132229
  58.6591419  79.6095780  89.0867126  58.2267457  71.2329955  93.5918603
  57.9828389  71.9872016  93.0552879  58.5027388  71.6115303  94.4265850
  60.1805920  77.7768568  92.2695869  60.3922815  78.4200327  91.5930250
  60.1335668  76.9430884  91.8017799  61.2951748  80.6540523  90.4418226
  62.1169192  80.2520710  90.1600908  61.2914151  80.5508757  91.3934342
  55.0608351  80.2024566  92.5978937  55.1252784  80.6644974  93.4337109
  54.3519275  79.5721931  92.7261247  54.7756369  81.8692674  82.4657917
  54.6402044  82.7144210  82.8942765  55.3166182  82.0711951  81.7023851
  51.2623709  67.9484254  99.1272272  50.8690654  67.3950452  99.8019917
  52.0789849  68.2594832  99.5178790  50.0380651  82.5033868  85.1208595
  50.2147280  83.4251833  84.9329579  50.8337485  82.1892287  85.5502975
  54.1791670  69.3642133  96.7192529  54.9201383  69.9649286  96.6396991
  54.4109593  68.6219771  96.1610571  56.4024846  82.4916240  96.5958259
  55.9588700  81.7052619  96.2779164  57.0642059  82.6795391  95.9302150
  51.1611967  84.0212042  91.1218938  51.7119392  83.8929105  90.3495932
  50.3223443  84.3206931  90.7713830  58.5006084  82.7719040  94.6239660
  58.4824559  83.5927921  94.1319930  59.4226004  82.6473115  94.8489802
  54.9579138  80.2863170  95.4663169  55.4907475  79.5251458  95.2362477
  54.4293219  79.9936822  96.2087323  58.1248833  65.3923236  90.9956811
  57.7813102  66.2824877  90.9195921  58.4927795  65.2024893  90.1326396
  59.9236498  64.6516795  86.0974548  60.2295375  63.7914158  85.8100463
  60.6489103  65.2434415  85.8973542  54.2858516  83.5605405  86.2975383
  54.2434695  83.7866251  85.3683915  55.2021215  83.3268779  86.4461184
  57.7324150  74.0289472  93.1956012  58.0873537  74.2560945  94.0550478
  58.3796281  74.3607849  92.5733267  63.4891266  79.2184435  88.9116613
  63.9227773  79.1259724  89.7599667  64.2022847  79.1941936  88.2736629
  57.2219161  82.8186529  90.4449713  57.2756183  83.3877465  91.2127429
  56.3533943  82.9888414  90.0803750  64.3506816  79.2608136  91.4449498
  64.5442706  80.1653946  91.6908773  64.2507434  78.8015555  92.2788083
  56.0043127  69.1466026  93.9439825  55.3571042  69.8455976  93.8504302
  56.7744142  69.5802170  94.3116074  59.4121924  79.4114878  97.0190379
  59.2607431  79.1825430  96.1020462  59.4026604  80.3685480  97.0321724
  54.9795593  81.0097456  89.7735183  54.8406678  80.6416240  90.6461121
  54.1910189  81.5245095  89.6019140  55.5743745  86.1106552  81.1160719
  55.7495500  85.6394595  81.9306342  54.8876533  86.7372318  81.3441980
  56.5300808  80.3879058  87.1624020  56.1950640  80.3479828  88.0581670
  56.0304754  79.7223774  86.6894431  61.1214131  82.4434001  95.0966860
  61.0626677  81.7593221  94.4297443  61.5233650  83.1852991  94.6447486
  50.1404830  89.2595915  87.8900579  50.3801428  89.8914439  88.5679598
  49.2974026  88.9083955  88.1765939  61.1231538  80.4073585  93.3280840
  60.2358317  80.0699507  93.4507239  61.6930089  79.6756616  93.5649606
  54.6532692  85.0675037  90.2942083  54.5802863  85.8730009  90.8061388
  54.2110085  85.2667003  89.4690105  54.4422471  84.3046807  83.8044905
  53.6589993  84.8468488  83.8983129  55.1415217  84.8220787  84.2039146
  57.1131375  84.9661871  92.4500242  57.8259348  85.6009336  92.3776143
  56.6221404  85.0625737  91.6340244  52.1643289  82.7156315  93.2705813
  52.8652748  83.3492798  93.4235207  51.6938404  83.0571046  92.5101452
  60.1938116  67.0811030  88.5958469  59.2801196  67.3115257  88.7640676
  60.6231218  67.1649474  89.4472502  59.9644575  75.2700922  91.0958363
  59.3116025  75.5176830  90.4410816  60.3424955  74.4565060  90.7620840
  56.9251749  85.3060615  85.1986533  57.1074143  84.4882271  85.6614286
  57.7484735  85.5228308  84.7611423  57.2593914  84.2328801  82.4601582
  57.7881681  83.7221255  81.8471744  57.5222134  83.9171331  83.3247115
  56.0132148  76.0120733  97.5824400  55.3372785  75.9114863  98.2526775
  56.8359782  75.8559947  98.0460397  47.7611007  82.2492670  90.2036916
  48.3464444  81.5036358  90.3364820  47.5635845  82.5596627  91.0873579
  50.6149662  85.2843917  85.2199358  49.9460037  85.7690045  84.7363398
  50.4762532  85.5313138  86.1342736  54.7554931  87.3187661  91.8182016
  55.3073239  87.4819282  92.5831101  55.0961124  87.9092099  91.1462041
  59.6065805  82.1448918  97.6730671  60.1505709  82.7578877  97.1785625
  59.0252650  82.7028497  98.1897684  57.8923318  85.2669636  88.8045698
  57.7674457  84.4659376  88.2956644  58.5502409  85.7615830  88.3159668
  59.9558226  83.0678656  90.4325249  59.0088562  82.9484008  90.3603575
  60.3041000  82.1801154  90.5151510  52.3157800  68.9572795  94.2563490
  52.8392202  69.2035092  95.0189800  52.0970133  69.7892830  93.8366628
  56.9604660  82.8631373  86.6329601  56.8129622  81.9348080  86.8137171
  57.7858153  82.8851463  86.1486676  53.5210345  69.8986490  91.9413161
  53.1807165  69.0994303  92.3433841  52.8149351  70.1988201  91.3689994
  54.1726817  66.9835803  90.3940484  54.9952886  66.5096281  90.2719374
  54.4164880  67.7626287  90.8939170  54.9020742  84.8846142  93.8330671
  55.2107868  84.6395289  94.7053370  55.6996224  85.0892781  93.3449541
  54.9241354  87.0384052  86.0636047  54.4846344  86.5460431  86.7568904
  55.6749471  86.4957020  85.8228122  47.4033693  83.2295593  86.0660675
  48.2291713  82.9299365  85.6859319  47.0527745  82.4603215  86.5150464
  52.3715226  82.5822061  88.1358349  51.7495236  81.9192766  87.8360577
  53.0420093  82.6083193  87.4531997  45.6042298  81.1481919  87.0249609
  44.7674206  80.7204094  86.8433610  45.5765944  81.3414363  87.9620400
  52.4439754  71.0603849  97.7290855  52.4927909  71.9365972  97.3468624
  52.9862268  70.5181242  97.1562498  62.9294599  81.6044972  97.0091992
  62.1390143  81.5869111  96.4696491  62.6927954  82.1433266  97.7641029
  63.0492474  78.4537439  94.3224720  63.0990479  78.2887446  95.2640243
  62.9406398  77.5864698  93.9322601  51.9328733  81.1325984  81.6116809
  52.0816854  81.8161449  80.9583482  52.7395177  81.1131074  82.1266265
  60.3396237  74.4368367  95.6384027  61.2406100  74.2974832  95.3468025
  60.4144211  74.6022822  96.5782205  54.6739042  71.8135221  94.4837214
  53.8042352  72.1068788  94.2119802  54.9098523  72.3975666  95.2044477
  64.5510671  80.8734380  94.5666742  64.2595480  81.2364361  95.4030203
  63.9382803  80.1601389  94.3880074  62.7997860  75.9966995  93.0346800
  63.2751981  76.1894641  92.2265651  61.8763425  76.0526181  92.7890184
  57.3778076  68.0314838  92.0002634  57.8960020  68.7675865  91.6749122
  57.0233209  68.3378832  92.8349393  61.4999529  72.8732755  91.2675106
  62.4516951  72.9730853  91.2887330  61.3302979  72.0811023  91.7773190
  59.5213908  69.9588338  91.4534507  58.9263840  70.2393351  90.7580995
  59.2363605  70.4482239  92.2251248  63.9787606  76.0938875  90.3817405
  63.9463926  75.1554875  90.5677089  64.5888230  76.1722911  89.6483230
  64.1282095  72.8849918  90.4275688  63.6121143  72.1008375  90.2405617
  65.0122043  72.5568635  90.5922208  61.7892822  66.6290934  86.3871501
  61.5917643  66.3206022  87.2714833  62.3992527  67.3552573  86.5169431
  69.7964156  77.1554881  89.5223442  70.5267545  76.8940170  90.0831145
  69.1871102  76.4183603  89.5625510  55.7009630  79.0152674  97.8845266
  56.6212639  79.1931273  98.0785313  55.6659213  78.0708719  97.7324966
  53.5699568  72.4986914  99.9170796  53.4696294  73.4481271  99.8482887
  53.3521110  72.1705153  99.0446866  60.9245275  68.6200366  83.6446697
  60.3443944  69.2785170  83.2624749  60.6581208  67.7977710  83.2334114
  59.3748842  68.0205423  85.8468017  59.8748620  68.1321958  85.0382336
  60.0184450  67.7166476  86.4868825  53.4330838  75.9284053  98.7335858
  52.9497919  76.7284413  98.9399747  53.5191777  75.9391998  97.7803302
  59.7070153  70.7800456  82.7003045  58.8196008  71.0650107  82.4823240
  60.1224143  70.6194219  81.8530322  63.0584690  70.8046977  86.4157384
  63.8345080  71.2943429  86.6882001  62.3332824  71.2305031  86.8729254
  47.7154404  85.3608207  87.7874490  47.5808872  84.6008608  87.2212488
  47.2986466  86.0849107  87.3203279  50.8723530  86.2577524  87.9992932
  50.7555914  87.2022957  87.8971623  50.0515976  85.9551086  88.3878732
  57.7291864  79.7908685  99.5359427  58.5983023  79.9649337  99.1746062
  57.2498615  80.6103102  99.4135156  51.8978044  86.9105786  91.2148861
  52.8005291  86.9429396  91.5315356  51.6715414  85.9806237  91.2295197
  53.6531646  85.6636773  87.8758939  52.7027277  85.6638634  87.7623312
  53.9564132  84.9169507  87.3594974  69.3884339  91.4997311  88.9404702
  70.0262749  91.3804058  88.2368042  69.2705182  92.4478155  88.9992654
  66.1974046  91.4524739  88.8766226  65.8592557  91.3365804  87.9886761
  67.0663814  91.0515904  88.8567233  62.0560861  93.3060216  84.8663117
  61.4925727  93.2150152  84.0979405  61.9413256  92.4860120  85.3465610
  66.6793829  92.6059591  94.8352432  66.6682469  92.2112389  93.9632936
  66.8414468  91.8725663  95.4286203  59.6025293  94.8011407  87.7047338
  60.3946585  94.4602232  87.2893637  59.8421943  94.9106382  88.6249491
  67.6360420  96.9731183  80.1777582  66.9848400  97.5585264  79.7911596
  68.4304783  97.5037378  80.2372620  61.5616047  94.0620320  80.5764717
  62.3346923  93.5149307  80.4377592  61.9141446  94.9264570  80.7879178
  63.4001090  95.3896703  93.7831616  63.1090956  96.2942334  93.6678282
  64.0358074  95.4313230  94.4975686  64.3257297  92.7673551  90.3732976
  64.9220869  92.5429574  89.6589939  64.3832268  92.0258297  90.9758423
  63.8982325  90.2212987  78.2083167  64.1507846  89.6994508  77.4466630
  62.9606884  90.0579132  78.3109850  68.9425608  89.2248765  86.0157910
  69.7288697  88.8068188  85.6648327  69.2064312  90.1294857  86.1839558
  69.1135685  94.6621615  80.7146567  68.4781518  94.7356242  81.4267471
  68.7833092  95.2515214  80.0365646  74.3434035  89.1623998  86.9190888
  75.0759207  88.5923215  87.1528718  73.5873391  88.7745599  87.3597394
  63.6178614  92.1241092  80.4107542  63.5014872  91.4485996  81.0788626
  63.7280874  91.6373466  79.5939695  65.9610155  91.5851240  84.1154231
  65.5968362  91.0581861  84.8267152  66.8177271  91.1949709  83.9420716
  71.8659455  82.8745572  91.3785497  71.5342780  83.7440983  91.1546712
  71.2705069  82.5581856  92.0579527  68.3590975  95.0758118  90.7781410
  68.0591698  95.9783157  90.6697217  68.0142034  94.8090301  91.6302563
  61.8103456  91.5271915  86.8118114  60.8853953  91.3948129  87.0195806
  62.0587870  92.3066134  87.3088056  71.7588119  87.5940658  88.4578847
  70.8504996  87.5256067  88.1637608  71.7075715  88.0712603  89.2860672
  65.5804863  89.0698797  80.0962246  65.4604488  89.5155848  80.9347726
  64.8857451  89.4184114  79.5375784  59.1712267  91.1705189  87.6461903
  59.3004649  91.4239668  88.5601315  58.4909719  91.7632897  87.3266558
  63.3411755 101.8402439  83.7452377  63.2635784 102.7910264  83.8240858
  62.7373398 101.4948311  84.4027304  65.8328984  89.0130304  96.4013744
  65.0562319  89.5724224  96.3916609  66.4719548  89.4987087  96.9228614
  73.6249765  85.7957097  90.2356721  72.9824145  86.0889630  89.5896515
  73.1204694  85.6810017  91.0409918  71.2789929  89.5420270  80.9242580
  72.1907785  89.7747657  80.7490278  70.7699576  90.1257314  80.3617659
  64.0875357  91.8215757  95.9631711  64.8290041  92.3600801  95.6866535
  63.3812342  92.4482046  96.1203263  69.5630696  93.9644898  94.5603873
  69.9714052  93.5227308  93.8158505  68.8407958  93.3897525  94.8138066
  65.9161766  88.9017505  91.9337430  66.7622962  89.3256918  92.0772079
  65.8560404  88.2451129  92.6275993  69.8859511  94.5246088  88.3156162
  69.2568374  94.6891803  87.6132229  69.4985173  94.9387698  89.0867126
  73.7648743  95.4600526  85.6700525  73.0799781  95.8399428  85.1197559
  73.8492592  96.0695853  86.4032473  69.0661212  86.5621873  93.5918603
  68.8222144  87.3163933  93.0552879  69.3421142  86.9407221  94.4265850
  71.0199675  93.1060485  92.2695869  71.2316570  93.7492245  91.5930250
  70.9729423  92.2722802  91.8017799  68.6225904  85.7178306  89.1732441
  67.7610383  86.0159559  89.4649179  68.6488338  85.9348705  88.2413474
  65.4387473  94.2620496  85.5806247  65.9025818  94.5408199  84.7910869
  65.1744271  93.3603941  85.3979337  62.3311554  93.8091978  88.5186010
  62.9012911  94.2379246  87.8803494  62.9219666  93.5274563  89.2170196
  64.3756359  90.3843649  82.3895812  65.0780402  90.8364693  82.8569738
  64.0436988  89.7427468  83.0175705  62.8236721  88.9755405  96.7647021
  62.1935381  89.6571686  96.9982418  62.7172808  88.8638487  95.8200160
  58.1181693  88.6427202  87.6912945  57.3280747  88.8984730  87.2153056
  58.6092940  89.4575539  87.7964986  72.1345503  95.9832441  90.4418226
  72.9562946  95.5812628  90.1600908  72.1307905  95.8800675  91.3934342
  60.0696438  89.0071781  84.6496422  59.2727602  89.1190475  85.1679918
  59.8422031  89.3458433  83.7837313  65.9002106  95.5316484  92.5978937
  65.9646538  95.9936891  93.4337109  65.1913030  94.9013849  92.7261247
  56.4019396  88.8957692  90.1227936  56.6527434  89.7804702  90.3885512
  56.9378944  88.7162294  89.3503028  80.2251496  92.3271189  86.7903198
  79.4715204  91.7578587  86.6347202  80.3599037  92.2933854  87.7373832
  65.6150124  97.1984591  82.4657917  65.4795798  98.0436127  82.8942765
  66.1559936  97.4003869  81.7023851  62.1017463  83.2776171  99.1272272
  61.7084409  82.7242370  99.8019917  62.9183604  83.5886750  99.5178790
  59.0679521  94.7160030  83.0385842  59.5804042  95.5103280  83.1891407
  59.7202234  94.0186320  82.9719444  60.8774406  97.8325786  85.1208595
  61.0541034  98.7543751  84.9329579  61.6731239  97.5184205  85.5502975
  65.0185424  84.6934050  96.7192529  65.7595138  85.2941204  96.6396991
  65.2503347  83.9511688  96.1610571  60.1626762  89.8790418  94.9970759
  60.0480277  88.9775675  95.2977857  59.3071280  90.1254114  94.6455575
  67.2418600  97.8208158  96.5958259  66.7982454  97.0344537  96.2779164
  67.9035814  98.0087309  95.9302150  62.0005721  99.3503960  91.1218938
  62.5513146  99.2221023  90.3495932  61.1617197  99.6498849  90.7713830
  69.3399838  98.1010958  94.6239660  69.3218313  98.9219839  94.1319930
  70.2619758  97.9765033  94.8489802  65.7972892  95.6155087  95.4663169
  66.3301229  94.8543376  95.2362477  65.2686973  95.3228739  96.2087323
  68.9642587  80.7215153  90.9956811  68.6206857  81.6116795  90.9195921
  69.3321550  80.5316811  90.1326396  57.0328438  93.0448684  83.8145413
  57.8703660  93.4545692  83.5979120  57.2106706  92.1048126  83.7845607
  68.9292870  90.7123764  79.5029246  68.4139493  91.4828369  79.7417633
  68.6570178  90.0388901  80.1262307  66.5139981  85.5573465  84.5614484
  65.6581577  85.1680316  84.3820123  66.9266933  85.6365426  83.7014270
  68.0439128  83.0919809  88.9606044  67.5403923  83.0549944  88.1473849
  68.3369734  84.0012551  89.0202700  64.2882013  83.1758538  87.9672226
  65.1535010  82.9801347  87.6078115  64.3559522  82.9468890  88.8941582
  73.9027144  93.4656119  81.4382419  73.1256587  93.1267279  80.9937581
  74.5818625  93.4708742  80.7637384  68.7179173  88.5850857  81.3289027
  68.4129309  88.8997006  82.1799170  69.6709615  88.6632276  81.3716360
  67.1625605  94.7441080  82.9781981  66.6346967  94.0093839  82.6655218
  66.6613108  95.5215756  82.7321949  72.1418451  92.9390100  88.0949027
  71.4842125  93.6289362  88.1829156  72.9458850  93.3286532  88.4383013
  70.9523910  91.2934473  86.1452969  71.4655792  91.9264465  86.6474679
  71.6025134  90.6935669  85.7796329  65.3078205  92.5621290  75.9816954
  64.4005267  92.3310544  76.1808103  65.8049237  91.7658909  76.1690935
  68.2146284 101.2718797  78.9013640  67.5407983 101.5750494  79.5098598
  68.6012106 102.0747878  78.5519097  67.4304741  88.7683929  88.3911309
  66.5127302  88.9898876  88.2332997  67.8464884  88.8430239  87.5323017
  68.2139788  90.1675344  83.5213990  68.9611607  90.6796742  83.2121112
  68.4831378  89.8459397  84.3818383  66.4866439  92.6633885  80.5040944
  65.5777658  92.3792918  80.6013414  66.5161522  93.0832964  79.6444251
  71.7185706  96.2740475  84.2732112  71.2648033  95.4331384  84.3297302
  71.0879673  96.9101873  84.6106892  70.6618626  87.2032461  85.5032779
  69.9241382  86.6909847  85.8343022  70.9145399  86.7632842  84.6916056
  70.1618645  98.1116971  85.2081930  70.4541620  98.6722028  84.4894295
  70.6717266  98.4045532  85.9635089  70.7630253  79.9808713  86.0974548
  71.0689130  79.1206076  85.8100463  71.4882858  80.5726333  85.8973542
  57.0554609  90.3839399  84.4856146  56.8579009  89.7908760  83.7607213
  56.5001273  90.0791609  85.2032085  65.0351333  90.2762506  86.6050739
  65.0899942  89.3236342  86.5293216  64.2242535  90.4321945  87.0892038
  66.1842526  94.2042629  77.8429023  65.7461956  93.4878488  77.3834660
  66.9252967  94.4318744  77.2814114  62.9743693  88.8939565  84.3641118
  62.1611558  89.1933736  84.7706310  63.4702687  88.4995254  85.0815600
  65.1252270  98.8897322  86.2975383  65.0828449  99.1158169  85.3683915
  66.0414969  98.6560697  86.4461184  68.5717904  89.3581390  93.1956012
  68.9267292  89.5852863  94.0550478  69.2190035  89.6899767  92.5733267
  74.3015641  92.4799826  83.9005341  74.1633540  92.6701422  82.9726530
  73.9451860  93.2419209  84.3573392  62.4657767  86.4657921  89.9802353
  63.1057147  86.3246680  89.2825316  61.6335298  86.1792434  89.6040955
  74.3285021  94.5476353  88.9116613  74.7621527  94.4551642  89.7599667
  75.0416601  94.5233853  88.2736629  63.2418071  95.7660351  86.0937346
  64.0358670  95.2710671  85.8919921  62.5309764  95.2378214  85.7305051
  68.0612916  98.1478447  90.4449713  68.1149938  98.7169383  91.2127429
  67.1927697  98.3180332  90.0803750  59.5500835  89.9103433  82.1697098
  58.6198423  89.8487889  82.3867060  59.6458307  89.3879386  81.3733740
  59.4686384  86.4358246  84.7575340  59.7293201  87.3503579  84.6484500
  60.2903556  85.9682688  84.9071953  60.9411309  87.8496003  91.9274164
  61.6134362  87.6413365  91.2786813  60.1141096  87.6518089  91.4879397
  75.1900570  94.5900053  91.4449498  75.3836460  95.4945864  91.6908773
  75.0901188  94.1307472  92.2788083  66.8436881  84.4757944  93.9439825
  66.1964796  85.1747894  93.8504302  67.6137896  84.9094088  94.3116074
  70.2515679  94.7406796  97.0190379  70.1001185  94.5117348  96.1020462
  70.2420358  95.6977398  97.0321724  67.0201015  92.3138709  92.0036645
  67.9493075  92.4649868  91.8305612  66.5992045  92.4022730  91.1485292
  65.8189347  96.3389373  89.7735183  65.6800433  95.9708158  90.6461121
  65.0303943  96.8537013  89.6019140  66.4137499 101.4398470  81.1160719
  66.5889255 100.9686513  81.9306342  65.7270287 102.0664236  81.3441980
  67.3694562  95.7170976  87.1624020  67.0344395  95.6771746  88.0581670
  66.8698508  95.0515692  86.6894431  61.3438806  91.1238606  92.6876602
  61.2058604  90.3918845  93.2888141  62.2543730  91.0347506  92.4060789
  70.3053754  93.0627010  77.4361080  69.6882925  92.3373838  77.3394133
  69.8370242  93.8236371  77.0928154  63.9721107  90.8358565  92.1760281
  64.6820725  90.1951758  92.1346900  63.9290415  91.0871460  93.0986462
  71.9607886  97.7725919  95.0966860  71.9020432  97.0885139  94.4297443
  72.3627404  98.5144909  94.6447486  62.6850041  87.8223783  93.9955921
  62.1487398  87.3714522  94.6477517  62.0966749  87.9569692  93.2526385
  60.9798584 104.5887833  87.8900579  61.2195183 105.2206357  88.5679598
  60.1367781 104.2375873  88.1765939  71.9625293  95.7365503  93.3280840
  71.0752072  95.3991424  93.4507239  72.5323844  95.0048534  93.5649606
  53.6154440  92.0689594  86.6523892  54.3025480  91.7551324  86.0644907
  53.4602569  92.9730959  86.3791143  58.4189162  86.9579791  91.0808915
  58.3347351  86.3505460  90.3459325  57.5971869  87.4488809  91.0818412
  65.4926446 100.3966955  90.2942083  65.4196618 101.2021926  90.8061388
  65.0503839 100.5958921  89.4690105  65.2816226  99.6338725  83.8044905
  64.4983748 100.1760405  83.8983129  65.9808971 100.1512705  84.2039146
  68.5912876  85.4433354  86.4479110  69.0881576  84.6903317  86.1280181
  67.8199858  85.4797671  85.8822320  76.4442633  91.1473720  88.0897402
  76.4332510  92.0298435  87.7191335  75.5760013  90.7945271  87.8951939
  67.9525130 100.2953789  92.4500242  68.6653102 100.9301254  92.3776143
  67.4615158 100.3917655  91.6340244  69.6742657  94.2005042  84.0217534
  68.7398935  94.3206504  83.8522238  69.8519325  93.2977508  83.7577544
  65.1747845  87.5850737  86.1750795  64.8045632  87.0321778  86.8631700
  65.6706937  86.9808871  85.6225795  73.0615208  90.0422361  84.5567568
  73.5275660  90.8750353  84.4827870  73.5122709  89.5767343  85.2612826
  63.0037043  98.0448232  93.2705813  63.7046503  98.6784715  93.4235207
  62.5332158  98.3862964  92.5101452  71.1291439  96.3866182  81.5553720
  71.4051283  96.2722777  82.4647594  70.2595938  95.9883667  81.5165893
  71.0331871  82.4102948  88.5958469  70.1194951  82.6407175  88.7640676
  71.4624972  82.4941392  89.4472502  70.8038329  90.5992840  91.0958363
  70.1509780  90.8468747  90.4410816  71.1818709  89.7856978  90.7620840
  67.7645503 100.6352533  85.1986533  67.9467898  99.8174189  85.6614286
  68.5878489 100.8520225  84.7611423  68.0987669  99.5620718  82.4601582
  68.6275435  99.0513173  81.8471744  68.3615888  99.2463248  83.3247115
  66.8525902  91.3412651  97.5824400  66.1766539  91.2406780  98.2526775
  67.6753536  91.1851865  98.0460397  58.6004761  97.5784588  90.2036916
  59.1858198  96.8328275  90.3364820  58.4029600  97.8888544  91.0873579
  61.4543417 100.6135835  85.2199358  60.7853792 101.0981963  84.7363398
  61.3156286 100.8605055  86.1342736  53.1922416  90.1490188  88.9241359
  53.2306516  89.6153778  89.7178477  52.6862709  89.6225393  88.3052336
  65.5948685 102.6479578  91.8182016  66.1466993 102.8111200  92.5831101
  65.9354879 103.2384016  91.1462041  60.5713178  84.9954728  92.4203901
  60.6354505  85.8569559  92.0081299  60.5080299  84.3828730  91.6876259
  60.0465451  87.0677861  96.0676935  60.6737490  86.6854938  96.6814460
  59.1893370  86.8492063  96.4332628  70.4459560  97.4740836  97.6730671
  70.9899464  98.0870794  97.1785625  69.8646404  98.0320414  98.1897684
  56.8230994  88.8754290  81.9995290  57.1184435  87.9664968  81.9462344
  55.9219029  88.8542029  81.6776292  68.7317072 100.5961554  88.8045698
  68.6068212  99.7951294  88.2956644  69.3896164 101.0907747  88.3159668
  60.3525241  86.9510286  87.9822839  59.6311826  87.5646254  87.8430312
  61.1418496  87.4868051  87.9039485  70.7951981  98.3970574  90.4325249
  69.8482316  98.2775925  90.3603575  71.1434754  97.5093072  90.5151510
  63.1551554  84.2864713  94.2563490  63.6785956  84.5327009  95.0189800
  62.9363888  85.1184748  93.8366628  58.5518835  86.5568388  82.1234615
  58.2231541  85.6765766  81.9409721  58.9058206  86.5016056  83.0111004
  67.7998414  98.1923290  86.6329601  67.6523377  97.2639998  86.8137171
  68.6251908  98.2143381  86.1486676  61.6660658  86.8441357  82.4910093
  62.0056731  87.3727279  81.7688701  62.1132779  87.1821763  83.2668659
  71.4032536  99.0151849  87.7194473  72.3279083  98.8094710  87.5818925
  71.2347839  98.7668250  88.6283815  64.3604099  85.2278408  91.9413161
  64.0200920  84.4286221  92.3433841  63.6543106  85.5280119  91.3689994
  65.0120571  82.3127720  90.3940484  65.8346640  81.8388199  90.2719374
  65.2558635  83.0918204  90.8939170  62.5359150  89.0046841  88.2032463
  62.3903731  89.3187144  89.0956744  62.0584354  89.6231741  87.6503361
  64.3955533  85.9949389  88.2513352  64.3817102  85.0990482  87.9145650
  65.1127961  86.0020053  88.8851638  66.2481663  86.4286729  90.2966480
  65.9899441  87.3503800  90.2950810  65.7166704  86.0317164  90.9866944
  71.1927852  99.5337516  83.0756565  71.3664730  98.9683939  82.3230417
  71.6856743 100.3338411  82.8936055  57.0104812  91.5452186  91.1420124
  56.4658280  92.3211993  91.2740398  57.8884162  91.8922990  90.9839245
  66.6683619  82.5618680  86.6567642  66.6905316  82.6258013  85.7019622
  67.0851678  81.7223188  86.8508148  77.0467243  92.2973939  84.6946865
  77.4898389  91.5481265  84.2965988  76.1693754  92.2884076  84.3120597
  72.1803025  98.8504281  80.1753463  72.8753929  99.4710974  80.3940778
  72.5226175  97.9999632  80.4505841  57.7970834  90.6722082  94.0350281
  57.0552570  90.8204717  94.6214911  57.4763578  90.9330347  93.1717030
  74.0794448  96.3003986  81.7040794  74.6045772  96.6391259  80.9790114
  73.9916800  95.3651002  81.5203929  65.7414497 100.2138060  93.8330671
  66.0501623  99.9687207  94.7053370  66.5389979 100.4184698  93.3449541
  65.7635109 102.3675970  86.0636047  65.3240099 101.8752348  86.7568904
  66.5143226 101.8248937  85.8228122  58.2427448  98.5587511  86.0660675
  59.0685467  98.2591282  85.6859319  57.8921500  97.7895133  86.5150464
  63.2108981  97.9113979  88.1358349  62.5888990  97.2484684  87.8360577
  63.8813848  97.9375111  87.4531997  56.4436053  96.4773837  87.0249609
  55.6067961  96.0496011  86.8433610  56.4159698  96.6706280  87.9620400
  63.2833508  86.3895767  97.7290855  63.3321664  87.2657890  97.3468624
  63.8256022  85.8473160  97.1562498  73.7688354  96.9336890  97.0091992
  72.9783898  96.9161029  96.4696491  73.5321708  97.4725184  97.7641029
  73.8886229  93.7829356  94.3224720  73.9384234  93.6179364  95.2640243
  73.7800152  92.9156615  93.9322601  62.7722488  96.4617902  81.6116809
  62.9210608  97.1453366  80.9583482  63.5788931  96.4422992  82.1266265
  71.1789991  89.7660284  95.6384027  72.0799854  89.6266749  95.3468025
  71.2537966  89.9314739  96.5782205  65.5132797  87.1427139  94.4837214
  64.6436106  87.4360705  94.2119802  65.7492277  87.7267584  95.2044477
  75.3904426  96.2026298  94.5666742  75.0989234  96.5656278  95.4030203
  74.7776557  95.4893306  94.3880074  76.5900108  93.7679178  87.0869312
  77.4246999  94.2068982  87.2506873  76.7259237  93.2917831  86.2677558
  73.6391614  91.3258913  93.0346800  74.1145736  91.5186559  92.2265651
  72.7157179  91.3818098  92.7890184  60.5275121  92.4883080  82.6177878
  60.2821163  91.5845410  82.8158088  60.6971035  92.4900230  81.6757356
  68.2171831  83.3606756  92.0002634  68.7353774  84.0967783  91.6749122
  67.8626963  83.6670749  92.8349393  59.7970768  88.2211437  80.1164040
  59.1040013  88.2955792  79.4604076  59.5522520  87.4571781  80.6385557
  68.4684425  79.7807039  87.5203531  68.7486178  79.1130228  88.1463957
  69.2535032  79.9736134  87.0078194  66.2717893  98.9566033  79.0828557
  65.6991860  99.5756220  78.6299029  66.8450687  99.5065394  79.6168479
  72.3393283  88.2024673  91.2675106  73.2910706  88.3022770  91.2887330
  72.1696733  87.4102941  91.7773190  70.3607662  85.2880256  91.4534507
  69.7657595  85.5685269  90.7580995  70.0757359  85.7774157  92.2251248
  69.4915153  99.2403183  80.2137139  70.4245826  99.1748744  80.4170015
  69.4038366 100.0759450  79.7551672  72.1203170  98.5569053  77.1741087
  72.0416801  98.2228917  78.0676845  72.9412836  99.0490821  77.1732559
  74.8181361  91.4230792  90.3817405  74.7857681  90.4846793  90.5677089
  75.4281984  91.5014829  89.6483230  66.6564692  90.2926845  76.4244609
  67.6023796  90.1633053  76.4933027  66.2778937  89.5541507  76.9014037
  74.9675849  88.2141836  90.4275688  74.4514898  87.4300292  90.2405617
  75.8515798  87.8860552  90.5922208  72.6286576  81.9582851  86.3871501
  72.4311397  81.6497939  87.2714833  73.2386282  82.6844490  86.5169431
  80.6357911  92.4846799  89.5223442  81.3661299  92.2232087  90.0831145
  80.0264856  91.7475521  89.5625510  78.7173208  90.6254662  90.1197893
  77.9906371  90.4910627  89.5114385  78.3020495  90.9331490  90.9254611
  66.5403384  94.3444591  97.8845266  67.4606394  94.5223190  98.0785313
  66.5052967  93.4000637  97.7324966  55.7585549  89.5383185  86.8098541
  55.4388334  88.6848493  86.5172915  55.2118977  89.7531763  87.5656508
  59.5365457  92.2545626  90.5268047  59.7551467  93.1862734  90.5456081
  59.9491231  91.8953600  91.3122851  64.4093322  87.8278832  99.9170796
  64.3090049  88.7773189  99.8482887  64.1914864  87.4997071  99.0446866
  55.6273809  93.1586097  88.7791663  54.9337281  92.7440049  88.2661617
  56.3746800  93.2006633  88.1825081  71.7639030  83.9492283  83.6446697
  71.1837699  84.6077087  83.2624749  71.4974963  83.1269628  83.2334114
  70.2142596  83.3497341  85.8468017  70.7142375  83.4613876  85.0382336
  70.8578204  83.0458394  86.4868825  64.2724592  91.2575971  98.7335858
  63.7891674  92.0576331  98.9399747  64.3585531  91.2683916  97.7803302
  57.5410552  93.0904350  86.6557677  57.5181240  93.1892038  85.7039560
  57.8511188  93.9369501  86.9774844  60.1997930  95.1480505  90.7704292
  61.1541183  95.1164448  90.7034223  60.0010453  94.6871129  91.5854518
  60.7897312  93.7181621  93.3375089  61.6090201  94.2125700  93.3609927
  61.0634119  92.8013590  93.3092657  70.5463908  86.1092374  82.7003045
  69.6589763  86.3942024  82.4823240  70.9617897  85.9486137  81.8530322
  73.8978444  86.1338895  86.4157384  74.6738834  86.6235347  86.6882001
  73.1726578  86.5596949  86.8729254  76.3351003  86.8466514  87.4731325
  76.9295494  86.6062250  86.7624633  76.4077586  86.1273644  88.1004861
  58.5548158 100.6900125  87.7874490  58.4202626  99.9300526  87.2212488
  58.1380221 101.4141025  87.3203279  69.6907121  95.8737048  76.7951065
  70.3942972  96.0787051  77.4108721  68.9669770  96.4413810  77.0600148
  70.5204932  91.6246910  82.9153335  70.4640133  92.0815461  82.0760968
  71.0733274  90.8637594  82.7376178  74.3309738  87.4136642  83.7403455
  74.0746672  87.0133277  84.5711662  73.7062606  88.1280435  83.6153594
  78.6422075  90.1532715  86.2474746  78.0821633  90.2225904  87.0206308
  78.0365579  89.9773699  85.5274242  61.7117284 101.5869442  87.9992932
  61.5949668 102.5314874  87.8971623  60.8909731 101.2843003  88.3878732
  71.5993819  96.3119578  78.8449525  72.4339423  95.8800776  78.6627000
  71.4378162  96.1401591  79.7726420  71.2539711  92.8151691  80.2105864
  71.1988515  92.6495962  79.2694308  70.6285766  93.5227724  80.3668054
  56.0432226  88.0519755  94.0367287  56.6891090  87.5418709  94.5254512
  55.8349377  88.7888437  94.6110712  68.5685618  95.1200603  99.5359427
  69.4376778  95.2941255  99.1746062  68.0892370  95.9395020  99.4135156
  62.7371798 102.2397704  91.2148861  63.6399045 102.2721314  91.5315356
  62.5109168 101.3098155  91.2295197  64.4925400 100.9928690  87.8758939
  63.5421031 100.9930552  87.7623312  64.7957887 100.2461425  87.3594974
  60.3829717  85.1987372  98.1342301  61.2461179  84.8424177  98.3445625
  59.8095128  84.8601267  98.8217705  80.2278094 106.8289229  88.9404702
  80.8656504 106.7095976  88.2368042  80.1098937 107.7770073  88.9992654
  77.0367800 106.7816657  88.8766226  76.6986312 106.6657722  87.9886761
  77.9057568 106.3807822  88.8567233  72.8954616 108.6352133  84.8663117
  72.3319481 108.5442070  84.0979405  72.7807011 107.8152038  85.3465610
  77.5187583 107.9351509  94.8352432  77.5076224 107.5404307  93.9632936
  77.6808223 107.2017581  95.4286203  70.4419048 110.1303325  87.7047338
  71.2340340 109.7894149  87.2893637  70.6815698 110.2398300  88.6249491
  78.4754175 112.3023101  80.1777582  77.8242154 112.8877181  79.7911596
  79.2698537 112.8329296  80.2372620  72.4009802 109.3912238  80.5764717
  73.1740678 108.8441225  80.4377592  72.7535201 110.2556487  80.7879178
  74.2394844 110.7188620  93.7831616  73.9484710 111.6234251  93.6678282
  74.8751829 110.7605148  94.4975686  75.1651051 108.0965469  90.3732976
  75.7614623 107.8721491  89.6589939  75.2226023 107.3550214  90.9758423
  74.7376080 105.5504904  78.2083167  74.9901600 105.0286425  77.4466630
  73.8000639 105.3871050  78.3109850  79.7819362 104.5540683  86.0157910
  80.5682452 104.1360106  85.6648327  80.0458067 105.4586775  86.1839558
  79.9529440 109.9913533  80.7146567  79.3175273 110.0648159  81.4267471
  79.6226846 110.5807132  80.0365646  85.1827790 104.4915916  86.9190888
  85.9152961 103.9215133  87.1528718  84.4267145 104.1037516  87.3597394
  74.4572368 107.4533010  80.4107542  74.3408626 106.7777914  81.0788626
  74.5674628 106.9665384  79.5939695  76.8003909 106.9143157  84.1154231
  76.4362116 106.3873778  84.8267152  77.6571025 106.5241626  83.9420716
  82.7053210  98.2037490  91.3785497  82.3736535  99.0732901  91.1546712
  82.1098823  97.8873774  92.0579527  76.4409396 101.9433057  79.1115579
  76.6083799 102.8113293  79.4786050  76.2506565 102.1060339  78.1876869
  79.1984729 110.4050036  90.7781410  78.8985452 111.3075075  90.6697217
  78.8535789 110.1382219  91.6302563  72.6497211 106.8563833  86.8118114
  71.7247707 106.7240047  87.0195806  72.8981624 107.6358052  87.3088056
  82.5981873 102.9232576  88.4578847  81.6898751 102.8547984  88.1637608
  82.5469469 103.4004521  89.2860672  76.4198617 104.3990714  80.0962246
  76.2998242 104.8447765  80.9347726  75.7251205 104.7476032  79.5375784
  70.0106022 106.4997106  87.6461903  70.1398403 106.7531585  88.5601315
  69.3303473 107.0924814  87.3266558  74.1805509 117.1694356  83.7452377
  74.1029539 118.1202181  83.8240858  73.5767153 116.8240229  84.4027304
  76.6722739 104.3422222  96.4013744  75.8956073 104.9016142  96.3916609
  77.3113302 104.8279005  96.9228614  84.4643520 101.1249014  90.2356721
  83.8217900 101.4181548  89.5896515  83.9598448 101.0101935  91.0409918
  82.1183683 104.8712188  80.9242580  83.0301539 105.1039574  80.7490278
  81.6093330 105.4549232  80.3617659  74.9269111 107.1507675  95.9631711
  75.6683796 107.6892719  95.6866535  74.2206097 107.7773964  96.1203263
  80.4024451 109.2936815  94.5603873  80.8107807 108.8519226  93.8158505
  79.6801712 108.7189443  94.8138066  76.7555521 104.2309422  91.9337430
  77.6016716 104.6548836  92.0772079  76.6954159 103.5743047  92.6275993
  80.7253266 109.8538006  88.3156162  80.0962128 110.0183720  87.6132229
  80.3378928 110.2679616  89.0867126  84.6042497 110.7892444  85.6700525
  83.9193536 111.1691345  85.1197559  84.6886347 111.3987771  86.4032473
  79.9054966 101.8913791  93.5918603  79.6615898 102.6455851  93.0552879
  80.1814897 102.2699138  94.4265850  81.8593429 108.4352403  92.2695869
  82.0710324 109.0784163  91.5930250  81.8123177 107.6014720  91.8017799
  79.4619658 101.0470224  89.1732441  78.6004137 101.3451477  89.4649179
  79.4882093 101.2640623  88.2413474  76.2781227 109.5912414  85.5806247
  76.7419573 109.8700117  84.7910869  76.0138026 108.6895859  85.3979337
  73.1705309 109.1383896  88.5186010  73.7406666 109.5671164  87.8803494
  73.7613420 108.8566480  89.2170196  75.2150114 105.7135567  82.3895812
  75.9174157 106.1656610  82.8569738  74.8830742 105.0719385  83.0175705
  73.6630475 104.3047323  96.7647021  73.0329136 104.9863604  96.9982418
  73.5566563 104.1930405  95.8200160  68.9575447 103.9719119  87.6912945
  68.1674501 104.2276648  87.2153056  69.4486695 104.7867457  87.7964986
  82.9739257 111.3124358  90.4418226  83.7956701 110.9104546  90.1600908
  82.9701660 111.2092593  91.3934342  70.9090193 104.3363698  84.6496422
  70.1121356 104.4482393  85.1679918  70.6815785 104.6750351  83.7837313
  76.7395860 110.8608402  92.5978937  76.8040293 111.3228809  93.4337109
  76.0306784 110.2305767  92.7261247  67.2413150 104.2249610  90.1227936
  67.4921189 105.1096620  90.3885512  67.7772699 104.0454211  89.3503028
  91.0645250 107.6563107  86.7903198  90.3108958 107.0870505  86.6347202
  91.1992791 107.6225771  87.7373832  76.4543878 112.5276509  82.4657917
  76.3189553 113.3728045  82.8942765  76.9953691 112.7295787  81.7023851
  72.9411218  98.6068089  99.1272272  72.5478163  98.0534288  99.8019917
  73.7577358  98.9178667  99.5178790  69.9073276 110.0451947  83.0385842
  70.4197796 110.8395197  83.1891407  70.5595988 109.3478238  82.9719444
  71.7168160 113.1617703  85.1208595  71.8934789 114.0835668  84.9329579
  72.5124994 112.8476123  85.5502975  75.8579179 100.0225968  96.7192529
  76.5988892 100.6233121  96.6396991  76.0897102  99.2803606  96.1610571
  71.0020517 105.2082335  94.9970759  70.8874032 104.3067593  95.2977857
  70.1465035 105.4546032  94.6455575  78.0812355 113.1500076  96.5958259
  77.6376209 112.3636454  96.2779164  78.7429568 113.3379226  95.9302150
  72.8399476 114.6795877  91.1218938  73.3906901 114.5512941  90.3495932
  72.0010952 114.9790766  90.7713830  80.1793593 113.4302876  94.6239660
  80.1612068 114.2511757  94.1319930  81.1013513 113.3056951  94.8489802
  76.6366647 110.9447005  95.4663169  77.1694984 110.1835293  95.2362477
  76.1080728 110.6520657  96.2087323  79.8036342  96.0507071  90.9956811
  79.4600611  96.9408713  90.9195921  80.1715304  95.8608729  90.1326396
  67.8722192 108.3740602  83.8145413  68.7097414 108.7837610  83.5979120
  68.0500460 107.4340044  83.7845607  79.7686624 106.0415682  79.5029246
  79.2533248 106.8120287  79.7417633  79.4963933 105.3680818  80.1262307
  77.3533735 100.8865383  84.5614484  76.4975332 100.4972233  84.3820123
  77.7660687 100.9657344  83.7014270  78.8832882  98.4211726  88.9606044
  78.3797678  98.3841861  88.1473849  79.1763489  99.3304469  89.0202700
  75.1275768  98.5050456  87.9672226  75.9928765  98.3093265  87.6078115
  75.1953277  98.2760808  88.8941582  84.7420899 108.7948037  81.4382419
  83.9650341 108.4559196  80.9937581  85.4212380 108.8000660  80.7637384
  79.5572928 103.9142774  81.3289027  79.2523063 104.2288923  82.1799170
  80.5103370 103.9924194  81.3716360  78.0019359 110.0732998  82.9781981
  77.4740721 109.3385757  82.6655218  77.5006862 110.8507674  82.7321949
  82.9812205 108.2682018  88.0949027  82.3235880 108.9581279  88.1829156
  83.7852605 108.6578450  88.4383013  72.7338087 100.7352664  85.3388592
  73.3081839 100.5127845  84.6061785  73.3209069 100.8041358  86.0917194
  81.7917664 106.6226391  86.1452969  82.3049546 107.2556383  86.6474679
  82.4418888 106.0227586  85.7796329  73.0607674 102.7657125  79.3584478
  72.2244986 103.1031811  79.6793752  72.9212444 102.6306105  78.4211615
  75.0360755  97.6093913  84.0663662  74.3825167  97.2942930  83.4420277
  74.9941229  96.9869653  84.7923485  76.1471960 107.8913208  75.9816954
  75.2399021 107.6602461  76.1808103  76.6442992 107.0950827  76.1690935
  79.0540038 116.6010715  78.9013640  78.3801737 116.9042412  79.5098598
  79.4405860 117.4039795  78.5519097  78.2698495 104.0975846  88.3911309
  77.3521056 104.3190793  88.2332997  78.6858639 104.1722157  87.5323017
  79.0533543 105.4967262  83.5213990  79.8005362 106.0088659  83.2121112
  79.3225132 105.1751315  84.3818383  77.3260193 107.9925803  80.5040944
  76.4171412 107.7084836  80.6013414  77.3555277 108.4124881  79.6444251
  82.5579460 111.6032392  84.2732112  82.1041788 110.7623302  84.3297302
  81.9273427 112.2393791  84.6106892  81.5012380 102.5324378  85.5032779
  80.7635137 102.0201764  85.8343022  81.7539154 102.0924760  84.6916056
  81.0012400 113.4408889  85.2081930  81.2935374 114.0013946  84.4894295
  81.5111020 113.7337450  85.9635089  81.6024007  95.3100630  86.0974548
  81.9082884  94.4497994  85.8100463  82.3276612  95.9018250  85.8973542
  67.8948363 105.7131317  84.4856146  67.6972763 105.1200678  83.7607213
  67.3395027 105.4083527  85.2032085  75.8745087 105.6054423  86.6050739
  75.9293697 104.6528260  86.5293216  75.0636289 105.7613862  87.0892038
  77.0236281 109.5334546  77.8429023  76.5855711 108.8170405  77.3834660
  77.7646722 109.7610661  77.2814114  73.8137447 104.2231483  84.3641118
  73.0005313 104.5225654  84.7706310  74.3096441 103.8287172  85.0815600
  75.9646025 114.2189240  86.2975383  75.9222204 114.4450086  85.3683915
  76.8808724 113.9852615  86.4461184  79.4111659 104.6873308  93.1956012
  79.7661046 104.9144781  94.0550478  80.0583790 105.0191684  92.5733267
  85.1409396 107.8091743  83.9005341  85.0027294 107.9993339  82.9726530
  84.7845614 108.5711126  84.3573392  73.3051522 101.7949839  89.9802353
  73.9450901 101.6538598  89.2825316  72.4729052 101.5084352  89.6040955
  85.1678775 109.8768270  88.9116613  85.6015282 109.7843560  89.7599667
  85.8810356 109.8525771  88.2736629  74.0811826 111.0952269  86.0937346
  74.8752424 110.6002589  85.8919921  73.3703518 110.5670132  85.7305051
  78.9006670 113.4770365  90.4449713  78.9543692 114.0461301  91.2127429
  78.0321452 113.6472250  90.0803750  70.3894589 105.2395351  82.1697098
  69.4592177 105.1779806  82.3867060  70.4852061 104.7171303  81.3733740
  70.3080138 101.7650164  84.7575340  70.5686955 102.6795497  84.6484500
  71.1297311 101.2974606  84.9071953  71.7805064 103.1787921  91.9274164
  72.4528117 102.9705283  91.2786813  70.9534850 102.9810007  91.4879397
  86.0294325 109.9191971  91.4449498  86.2230215 110.8237782  91.6908773
  85.9294943 109.4599390  92.2788083  77.6830636  99.8049862  93.9439825
  77.0358551 100.5039811  93.8504302  78.4531651 100.2386006  94.3116074
  81.0909433 110.0698714  97.0190379  80.9394940 109.8409266  96.1020462
  81.0814113 111.0269315  97.0321724  77.8594770 107.6430627  92.0036645
  78.7886830 107.7941786  91.8305612  77.4385800 107.7314647  91.1485292
  76.6583102 111.6681291  89.7735183  76.5194187 111.3000075  90.6461121
  75.8697698 112.1828930  89.6019140  77.2531254 116.7690387  81.1160719
  77.4283009 116.2978431  81.9306342  76.5664042 117.3956154  81.3441980
  78.2088317 111.0462894  87.1624020  77.8738149 111.0063664  88.0581670
  77.7092262 110.3807610  86.6894431  72.1832561 106.4530524  92.6876602
  72.0452359 105.7210763  93.2888141  73.0937484 106.3639424  92.4060789
  81.1447508 108.3918928  77.4361080  80.5276679 107.6665756  77.3394133
  80.6763997 109.1528288  77.0928154  74.8114861 106.1650483  92.1760281
  75.5214480 105.5243675  92.1346900  74.7684170 106.4163378  93.0986462
  82.8001640 113.1017836  95.0966860  82.7414186 112.4177056  94.4297443
  83.2021159 113.8436826  94.6447486  73.5243795 103.1515701  93.9955921
  72.9881152 102.7006439  94.6477517  72.9360504 103.2861610  93.2526385
  71.8192339 119.9179750  87.8900579  72.0588937 120.5498274  88.5679598
  70.9761535 119.5667790  88.1765939  72.9346054 102.6104352  76.5582384
  72.0575521 102.4893153  76.1944631  73.4103807 101.8190431  76.3061273
  82.8019047 111.0657420  93.3280840  81.9145826 110.7283342  93.4507239
  83.3717598 110.3340452  93.5649606  64.4548195 107.3981512  86.6523892
  65.1419234 107.0843242  86.0644907  64.2996323 108.3022877  86.3791143
  69.2582917 102.2871709  91.0808915  69.1741105 101.6797378  90.3459325
  68.4365623 102.7780727  91.0818412  76.3320201 115.7258873  90.2942083
  76.2590372 116.5313844  90.8061388  75.8897594 115.9250838  89.4690105
  76.1209980 114.9630643  83.8044905  75.3377502 115.5052323  83.8983129
  76.8202726 115.4804622  84.2039146  79.4306631 100.7725272  86.4479110
  79.9275330 100.0195234  86.1280181  78.6593612 100.8089589  85.8822320
  87.2836388 106.4765638  88.0897402  87.2726264 107.3590353  87.7191335
  86.4153767 106.1237188  87.8951939  78.7918884 115.6245707  92.4500242
  79.5046857 116.2593172  92.3776143  78.3008913 115.7209573  91.6340244
  80.5136411 109.5296959  84.0217534  79.5792690 109.6498422  83.8522238
  80.6913080 108.6269426  83.7577544  76.0141599 102.9142655  86.1750795
  75.6439387 102.3613696  86.8631700  76.5100692 102.3100789  85.6225795
  83.9008963 105.3714279  84.5567568  84.3669415 106.2042270  84.4827870
  84.3516463 104.9059260  85.2612826  73.8430798 113.3740150  93.2705813
  74.5440257 114.0076633  93.4235207  73.3725913 113.7154882  92.5101452
  81.9685194 111.7158100  81.5553720  82.2445038 111.6014695  82.4647594
  81.0989692 111.3175585  81.5165893  81.8725625  97.7394866  88.5958469
  80.9588705  97.9699092  88.7640676  82.3018727  97.8233310  89.4472502
  81.6432084 105.9284758  91.0958363  80.9903534 106.1760665  90.4410816
  82.0212464 105.1148896  90.7620840  78.6039258 115.9644451  85.1986533
  78.7861652 115.1466107  85.6614286  79.4272244 116.1812143  84.7611423
  78.9381423 114.8912636  82.4601582  79.4669190 114.3805090  81.8471744
  79.2009643 114.5755166  83.3247115  77.6919657 106.6704569  97.5824400
  77.0160294 106.5698698  98.2526775  78.5147291 106.5143782  98.0460397
  69.4398516 112.9076505  90.2036916  70.0251953 112.1620193  90.3364820
  69.2423354 113.2180462  91.0873579  72.2937171 115.9427753  85.2199358
  71.6247546 116.4273880  84.7363398  72.1550041 116.1896973  86.1342736
  64.0316171 105.4782105  88.9241359  64.0700270 104.9445696  89.7178477
  63.5256463 104.9517311  88.3052336  76.4342440 117.9771496  91.8182016
  76.9860748 118.1403118  92.5831101  76.7748633 118.5675934  91.1462041
  71.4106933 100.3246646  92.4203901  71.4748259 101.1861477  92.0081299
  71.3474053  99.7120648  91.6876259  70.8859205 102.3969778  96.0676935
  71.5131244 102.0146856  96.6814460  70.0287124 102.1783980  96.4332628
  67.6624748 104.2046208  81.9995290  67.9578189 103.2956886  81.9462344
  66.7612784 104.1833947  81.6776292  79.5710827 115.9253472  88.8045698
  79.4461966 115.1243211  88.2956644  80.2289918 116.4199665  88.3159668
  71.1918995 102.2802204  87.9822839  70.4705581 102.8938172  87.8430312
  71.9812251 102.8159969  87.9039485  81.6345735 113.7262492  90.4325249
  80.6876071 113.6067843  90.3603575  81.9828508 112.8384990  90.5151510
  73.9945309  99.6156631  94.2563490  74.5179711  99.8618927  95.0189800
  73.7757642 100.4476665  93.8366628  69.3912590 101.8860305  82.1234615
  69.0625296 101.0057684  81.9409721  69.7451960 101.8307974  83.0111004
  78.6392169 113.5215208  86.6329601  78.4917131 112.5931915  86.8137171
  79.4645662 113.5435299  86.1486676  72.5054413 102.1733275  82.4910093
  72.8450485 102.7019196  81.7688701  72.9526533 102.5113681  83.2668659
  82.2426291 114.3443767  87.7194473  83.1672838 114.1386628  87.5818925
  82.0741594 114.0960168  88.6283815  75.1997854 100.5570326  91.9413161
  74.8594674  99.7578139  92.3433841  74.4936860 100.8572037  91.3689994
  75.8514326  97.6419638  90.3940484  76.6740395  97.1680116  90.2719374
  76.0952389  98.4210122  90.8939170  74.4922560 100.6707897  80.6903386
  75.2130923 101.0489149  80.1867102  73.8687864 101.3896773  80.7938364
  78.6353683 101.3753046  81.6261718  78.8517297 102.2577683  81.3250546
  78.1547750 100.9839259  80.8967360  73.3752904 104.3338759  88.2032463
  73.2297485 104.6479062  89.0956744  72.8978108 104.9523659  87.6503361
  75.2349287 101.3241307  88.2513352  75.2210856 100.4282400  87.9145650
  75.9521715 101.3311971  88.8851638  77.0875418 101.7578647  90.2966480
  76.8293196 102.6795718  90.2950810  76.5560458 101.3609082  90.9866944
  82.0321607 114.8629434  83.0756565  82.2058484 114.2975857  82.3230417
  82.5250498 115.6630329  82.8936055  67.8498567 106.8744103  91.1420124
  67.3052035 107.6503911  91.2740398  68.7277916 107.2214908  90.9839245
  74.6386183 100.2055687  83.5200922  74.7602094  99.2772333  83.7191810
  74.3488226 100.2194373  82.6079238  77.5077374  97.8910598  86.6567642
  77.5299070  97.9549931  85.7019622  77.9245433  97.0515106  86.8508148
  87.8860998 107.6265857  84.6946865  88.3292144 106.8773182  84.2965988
  87.0087508 107.6175993  84.3120597  83.0196779 114.1796199  80.1753463
  83.7147684 114.8002891  80.3940778  83.3619929 113.3291550  80.4505841
  68.6364588 106.0013999  94.0350281  67.8946324 106.1496635  94.6214911
  68.3157333 106.2622265  93.1717030  84.9188202 111.6295904  81.7040794
  85.4439526 111.9683177  80.9790114  84.8310555 110.6942919  81.5203929
  76.5808251 115.5429978  93.8330671  76.8895377 115.2979124  94.7053370
  77.3783733 115.7476616  93.3449541  76.6028863 117.6967887  86.0636047
  76.1633853 117.2044266  86.7568904  77.3536980 117.1540855  85.8228122
  69.0821202 113.8879428  86.0660675  69.9079222 113.5883200  85.6859319
  68.7315254 113.1187051  86.5150464  74.0502735 113.2405896  88.1358349
  73.4282745 112.5776601  87.8360577  74.7207602 113.2667028  87.4531997
  67.2829807 111.8065755  87.0249609  66.4461715 111.3787929  86.8433610
  67.2553453 111.9998198  87.9620400  74.1227263 101.7187684  97.7290855
  74.1715418 102.5949807  97.3468624  74.6649777 101.1765077  97.1562498
  84.7279983 109.1121274  94.3224720  84.7777988 108.9471282  95.2640243
  84.6193907 108.2448533  93.9322601  73.6116242 111.7909820  81.6116809
  73.7604363 112.4745284  80.9583482  74.4182686 111.7714910  82.1266265
  82.0183746 105.0952202  95.6384027  82.9193609 104.9558667  95.3468025
  82.0931720 105.2606657  96.5782205  76.3526551 102.4719057  94.4837214
  75.4829861 102.7652623  94.2119802  76.5886032 103.0559502  95.2044477
  86.2298180 111.5318216  94.5666742  85.9382989 111.8948196  95.4030203
  85.6170312 110.8185224  94.3880074  87.4293863 109.0971095  87.0869312
  88.2640754 109.5360899  87.2506873  87.5652991 108.6209749  86.2677558
  84.4785369 106.6550830  93.0346800  84.9539490 106.8478477  92.2265651
  83.5550934 106.7110016  92.7890184  71.3668875 107.8174997  82.6177878
  71.1214917 106.9137327  82.8158088  71.5364790 107.8192148  81.6757356
  79.0565585  98.6898674  92.0002634  79.5747529  99.4259701  91.6749122
  78.7020718  98.9962667  92.8349393  70.6364523 103.5503355  80.1164040
  69.9433768 103.6247710  79.4604076  70.3916275 102.7863699  80.6385557
  79.3078179  95.1098956  87.5203531  79.5879933  94.4422145  88.1463957
  80.0928786  95.3028052  87.0078194  77.1111648 114.2857950  79.0828557
  76.5385615 114.9048137  78.6299029  77.6844441 114.8357312  79.6168479
  83.1787038 103.5316590  91.2675106  84.1304460 103.6314688  91.2887330
  83.0090488 102.7394859  91.7773190  81.2001417 100.6172174  91.4534507
  80.6051349 100.8977186  90.7580995  80.9151114 101.1066074  92.2251248
  80.3308907 114.5695100  80.2137139  81.2639581 114.5040662  80.4170015
  80.2432120 115.4051367  79.7551672  82.9596924 113.8860971  77.1741087
  82.8810556 113.5520834  78.0676845  83.7806591 114.3782739  77.1732559
  85.6575115 106.7522710  90.3817405  85.6251435 105.8138711  90.5677089
  86.2675739 106.8306747  89.6483230  77.4958446 105.6218763  76.4244609
  78.4417551 105.4924971  76.4933027  77.1172691 104.8833425  76.9014037
  85.8069604 103.5433753  90.4275688  85.2908652 102.7592210  90.2405617
  86.6909552 103.2152470  90.5922208  83.4680331  97.2874769  86.3871501
  83.2705152  96.9789857  87.2714833  84.0780036  98.0136408  86.5169431
  91.4751665 107.8138717  89.5223442  92.2055054 107.5524005  90.0831145
  90.8658611 107.0767439  89.5625510  89.5566962 105.9546579  90.1197893
  88.8300126 105.8202544  89.5114385  89.1414249 106.2623408  90.9254611
  77.3797139 109.6736509  97.8845266  78.3000148 109.8515108  98.0785313
  77.3446722 108.7292554  97.7324966  75.6801363 103.5468739  76.3599495
  74.7732819 103.2501852  76.4362208  75.9577344 103.2498557  75.4933781
  66.5979304 104.8675103  86.8098541  66.2782088 104.0140411  86.5172915
  66.0512732 105.0823681  87.5656508  70.3759211 107.5837544  90.5268047
  70.5945221 108.5154652  90.5456081  70.7884985 107.2245518  91.3122851
  77.2963429  98.0905629  82.5143736  76.4864157  97.7452714  82.8898982
  77.9847846  97.7813173  83.1031347  79.2253977  97.1683676  84.1368032
  79.7785016  97.5879129  84.7958056  79.4624064  96.2419424  84.1790988
  75.2487077 103.1570750  99.9170796  75.1483803 104.1065106  99.8482887
  75.0308619 102.8288988  99.0446866  74.4500148 100.4055675  76.5011474
  75.3119312 100.7310573  76.7607291  74.6350492  99.6187170  75.9884540
  66.4667564 108.4878014  88.7791663  65.7731035 108.0731967  88.2661617
  67.2140555 108.5298551  88.1825081  82.6032784  99.2784201  83.6446697
  82.0231453  99.9369005  83.2624749  82.3368717  98.4561546  83.2334114
  81.0536351  98.6789259  85.8468017  81.5536129  98.7905793  85.0382336
  81.6971959  98.3750312  86.4868825  75.1118347 106.5867888  98.7335858
  74.6285428 107.3868248  98.9399747  75.1979286 106.5975833  97.7803302
  68.3804306 108.4196268  86.6557677  68.3574994 108.5183955  85.7039560
  68.6904943 109.2661419  86.9774844  71.0391684 110.4772423  90.7704292
  71.9934938 110.4456365  90.7034223  70.8404208 110.0163047  91.5854518
  71.6291066 109.0473539  93.3375089  72.4483955 109.5417618  93.3609927
  71.9027874 108.1305507  93.3092657  81.3857662 101.4384291  82.7003045
  80.4983517 101.7233942  82.4823240  81.8011652 101.2778055  81.8530322
  84.7372199 101.4630812  86.4157384  85.5132589 101.9527265  86.6882001
  84.0120333 101.8888867  86.8729254  87.1744757 102.1758432  87.4731325
  87.7689248 101.9354168  86.7624633  87.2471341 101.4565562  88.1004861
  69.3941913 116.0192043  87.7874490  69.2596381 115.2592443  87.2212488
  68.9773975 116.7432942  87.3203279  80.5300876 111.2028966  76.7951065
  81.2336726 111.4078969  77.4108721  79.8063525 111.7705728  77.0600148
  81.3598686 106.9538827  82.9153335  81.3033888 107.4107379  82.0760968
  81.9127029 106.1929512  82.7376178  85.1703492 102.7428559  83.7403455
  84.9140426 102.3425195  84.5711662  84.5456360 103.4572353  83.6153594
  89.4815830 105.4824632  86.2474746  88.9215388 105.5517822  87.0206308
  88.8759333 105.3065617  85.5274242  72.5511039 116.9161360  87.9992932
  72.4343423 117.8606792  87.8971623  71.7303485 116.6134921  88.3878732
  82.4387573 111.6411495  78.8449525  83.2733177 111.2092694  78.6627000
  82.2771916 111.4693509  79.7726420  82.0933465 108.1443609  80.2105864
  82.0382269 107.9787880  79.2694308  81.4679521 108.8519641  80.3668054
  66.8825980 103.3811673  94.0367287  67.5284844 102.8710627  94.5254512
  66.6743132 104.1180355  94.6110712  75.4029591  97.6451718  79.7891183
  75.3908261  98.5893558  79.9459454  76.2953013  97.4621863  79.4950644
  73.5765553 117.5689621  91.2148861  74.4792800 117.6013232  91.5315356
  73.3502923 116.6390072  91.2295197  75.3319155 116.3220608  87.8758939
  74.3814786 116.3222470  87.7623312  75.6351641 115.5753343  87.3594974
  79.2181710  94.2394494  84.0437120  78.4514106  93.6852981  84.1893802
  79.6292415  94.3116363  84.9051271  71.2223471 100.5279290  98.1342301
  72.0854933 100.1716095  98.3445625  70.6488882 100.1893185  98.8217705
  83.7348370 123.9644051  84.8663117  83.1713236 123.8733988  84.0979405
  83.6200765 123.1443955  85.3465610  81.2812802 125.4595243  87.7047338
  82.0734094 125.1186067  87.2893637  81.5209452 125.5690218  88.6249491
  83.2403556 124.7204156  80.5764717  84.0134432 124.1733143  80.4377592
  83.5928955 125.5848405  80.7879178  85.5769834 120.8796822  78.2083167
  85.8295355 120.3578343  77.4466630  84.6394393 120.7162967  78.3109850
  90.6213117 119.8832600  86.0157910  91.4076206 119.4652023  85.6648327
  90.8851821 120.7878692  86.1839558  85.2966123 122.7824928  80.4107542
  85.1802381 122.1069831  81.0788626  85.4068383 122.2957302  79.5939695
  87.6397664 122.2435075  84.1154231  87.2755871 121.7165696  84.8267152
  88.4964780 121.8533544  83.9420716  87.2803151 117.2724975  79.1115579
  87.4477553 118.1405211  79.4786050  87.0900320 117.4352256  78.1876869
  83.4890965 122.1855750  86.8118114  82.5641462 122.0531964  87.0195806
  83.7375379 122.9649970  87.3088056  87.2592372 119.7282632  80.0962246
  87.1391997 120.1739683  80.9347726  86.5644960 120.0767950  79.5375784
  80.8499776 121.8289024  87.6461903  80.9792158 122.0823503  88.5601315
  80.1697228 122.4216732  87.3266558  92.9577438 120.2004105  80.9242580
  93.8695294 120.4331492  80.7490278  92.4487085 120.7841150  80.3617659
  90.3013413 116.3762141  89.1732441  89.4397892 116.6743395  89.4649179
  90.3275847 116.5932540  88.2413474  87.1174982 124.9204332  85.5806247
  87.5813327 125.1992035  84.7910869  86.8531780 124.0187776  85.3979337
  86.0543868 121.0427484  82.3895812  86.7567911 121.4948528  82.8569738
  85.7224496 120.4011303  83.0175705  79.7969202 119.3011037  87.6912945
  79.0068256 119.5568565  87.2153056  80.2880449 120.1159375  87.7964986
  81.7483947 119.6655616  84.6496422  80.9515111 119.7774310  85.1679918
  81.5209540 120.0042268  83.7837313  78.0806905 119.5541527  90.1227936
  78.3314943 120.4388537  90.3885512  78.6166453 119.3746129  89.3503028
  80.7467030 125.3743865  83.0385842  81.2591551 126.1687115  83.1891407
  81.3989743 124.6770155  82.9719444  82.5561915 128.4909621  85.1208595
  82.7328543 129.4127586  84.9329579  83.3518748 128.1768040  85.5502975
  90.6430096 111.3798989  90.9956811  90.2994366 112.2700630  90.9195921
  91.0109059 111.1900646  90.1326396  78.7115947 123.7032519  83.8145413
  79.5491169 124.1129528  83.5979120  78.8894214 122.7631961  83.7845607
  90.6080379 121.3707600  79.5029246  90.0927002 122.1412204  79.7417633
  90.3357687 120.6972736  80.1262307  88.1927490 116.2157301  84.5614484
  87.3369086 115.8264151  84.3820123  88.6054442 116.2949261  83.7014270
  89.7226637 113.7503644  88.9606044  89.2191432 113.7133779  88.1473849
  90.0157243 114.6596387  89.0202700  85.9669522 113.8342374  87.9672226
  86.8322519 113.6385182  87.6078115  86.0347031 113.6052725  88.8941582
  90.3966682 119.2434692  81.3289027  90.0916818 119.5580841  82.1799170
  91.3497124 119.3216112  81.3716360  88.8413114 125.4024915  82.9781981
  88.3134475 124.6677675  82.6655218  88.3400617 126.1799592  82.7321949
  83.5731842 116.0644582  85.3388592  84.1475593 115.8419763  84.6061785
  84.1602824 116.1333276  86.0917194  83.9001429 118.0949043  79.3584478
  83.0638741 118.4323729  79.6793752  83.7606198 117.9598022  78.4211615
  85.8754509 112.9385830  84.0663662  85.2218922 112.6234848  83.4420277
  85.8334983 112.3161571  84.7923485  86.9865714 123.2205126  75.9816954
  86.0792776 122.9894379  76.1808103  87.4836746 122.4242745  76.1690935
  89.1092250 119.4267764  88.3911309  88.1914811 119.6482711  88.2332997
  89.5252393 119.5014074  87.5323017  89.8927297 120.8259180  83.5213990
  90.6399116 121.3380577  83.2121112  90.1618887 120.5043232  84.3818383
  88.1653948 123.3217720  80.5040944  87.2565167 123.0376753  80.6013414
  88.1949031 123.7416799  79.6444251  92.3406135 117.8616296  85.5032779
  91.6028891 117.3493682  85.8343022  92.5932908 117.4216678  84.6916056
  92.4417762 110.6392548  86.0974548  92.7476639 109.7789911  85.8100463
  93.1670367 111.2310168  85.8973542  78.7342118 121.0423234  84.4856146
  78.5366518 120.4492595  83.7607213  78.1788782 120.7375445  85.2032085
  86.7138842 120.9346341  86.6050739  86.7687451 119.9820177  86.5293216
  85.9030044 121.0905780  87.0892038  87.8630035 124.8626464  77.8429023
  87.4249465 124.1462323  77.3834660  88.6040476 125.0902579  77.2814114
  84.6531202 119.5523401  84.3641118  83.8399067 119.8517571  84.7706310
  85.1490196 119.1579089  85.0815600  84.1445276 117.1241756  89.9802353
  84.7844656 116.9830515  89.2825316  83.3122807 116.8376270  89.6040955
  84.9205580 126.4244187  86.0937346  85.7146179 125.9294507  85.8919921
  84.2097273 125.8962050  85.7305051  81.2288344 120.5687268  82.1697098
  80.2985932 120.5071724  82.3867060  81.3245816 120.0463221  81.3733740
  81.1473893 117.0942081  84.7575340  81.4080710 118.0087414  84.6484500
  81.9691065 116.6266524  84.9071953  82.6198818 118.5079838  91.9274164
  83.2921871 118.2997201  91.2786813  81.7928605 118.3101924  91.4879397
  91.9841263 123.7210846  77.4361080  91.3670434 122.9957674  77.3394133
  91.5157751 124.4820206  77.0928154  83.7739809 117.9396270  76.5582384
  82.8969275 117.8185071  76.1944631  84.2497562 117.1482348  76.3061273
  75.2941949 122.7273430  86.6523892  75.9812989 122.4135160  86.0644907
  75.1390078 123.6314794  86.3791143  80.0976671 117.6163626  91.0808915
  80.0134860 117.0089296  90.3459325  79.2759378 118.1072645  91.0818412
  90.2700385 116.1017190  86.4479110  90.7669085 115.3487152  86.1280181
  89.4987367 116.1381506  85.8822320  91.3530166 124.8588877  84.0217534
  90.4186444 124.9790339  83.8522238  91.5306834 123.9561344  83.7577544
  86.8535354 118.2434573  86.1750795  86.4833141 117.6905613  86.8631700
  87.3494446 117.6392706  85.6225795  94.7402717 120.7006196  84.5567568
  95.2063169 121.5334188  84.4827870  95.1910218 120.2351178  85.2612826
  92.7119380 113.0686783  88.5958469  91.7982460 113.2991010  88.7640676
  93.1412481 113.1525227  89.4472502  74.8709925 120.8074023  88.9241359
  74.9094025 120.2737614  89.7178477  74.3650218 120.2809229  88.3052336
  82.2500687 115.6538564  92.4203901  82.3142014 116.5153394  92.0081299
  82.1867808 115.0412565  91.6876259  78.5018503 119.5338125  81.9995290
  78.7971944 118.6248804  81.9462344  77.6006538 119.5125865  81.6776292
  82.0312750 117.6094122  87.9822839  81.3099335 118.2230090  87.8430312
  82.8206005 118.1451887  87.9039485  80.2306344 117.2152223  82.1234615
  79.9019050 116.3349602  81.9409721  80.5845715 117.1599892  83.0111004
  83.3448167 117.5025193  82.4910093  83.6844240 118.0311114  81.7688701
  83.7920288 117.8405599  83.2668659  86.0391608 115.8862243  91.9413161
  85.6988429 115.0870056  92.3433841  85.3330615 116.1863954  91.3689994
  86.6908080 112.9711556  90.3940484  87.5134149 112.4972034  90.2719374
  86.9346144 113.7502040  90.8939170  85.3316315 115.9999814  80.6903386
  86.0524677 116.3781067  80.1867102  84.7081619 116.7188691  80.7938364
  89.4747437 116.7044963  81.6261718  89.6911052 117.5869601  81.3250546
  88.9941505 116.3131177  80.8967360  84.2146659 119.6630676  88.2032463
  84.0691240 119.9770980  89.0956744  83.7371862 120.2815577  87.6503361
  86.0743042 116.6533224  88.2513352  86.0604611 115.7574318  87.9145650
  86.7915470 116.6603888  88.8851638  87.9269172 117.0870565  90.2966480
  87.6686950 118.0087635  90.2950810  87.3954213 116.6900999  90.9866944
  78.6892321 122.2036021  91.1420124  78.1445789 122.9795829  91.2740398
  79.5671671 122.5506825  90.9839245  85.4779938 115.5347605  83.5200922
  85.5995849 114.6064251  83.7191810  85.1881980 115.5486291  82.6079238
  88.3471128 113.2202515  86.6567642  88.3692825 113.2841848  85.7019622
  88.7639187 112.3807024  86.8508148  79.9214957 129.2171346  86.0660675
  80.7472976 128.9175118  85.6859319  79.5709009 128.4478968  86.5150464
  78.1223562 127.1357672  87.0249609  77.2855470 126.7079847  86.8433610
  78.0947207 127.3290116  87.9620400  84.4509997 127.1201737  81.6116809
  84.5998117 127.8037202  80.9583482  85.2576440 127.1006827  82.1266265
  82.2062630 123.1466915  82.6177878  81.9608672 122.2429245  82.8158088
  82.3758544 123.1484066  81.6757356  81.4758277 118.8795273  80.1164040
  80.7827522 118.9539628  79.4604076  81.2310029 118.1155616  80.6385557
  90.1471934 110.4390874  87.5203531  90.4273687 109.7714063  88.1463957
  90.9322541 110.6319970  87.0078194  88.3352201 120.9510681  76.4244609
  89.2811305 120.8216889  76.4933027  87.9566446 120.2125343  76.9014037
  94.3074085 112.6166687  86.3871501  94.1098906 112.3081775  87.2714833
  94.9173791 113.3428326  86.5169431  86.5195118 118.8760657  76.3599495
  85.6126573 118.5793770  76.4362208  86.7971099 118.5790475  75.4933781
  77.4373058 120.1967020  86.8098541  77.1175843 119.3432329  86.5172915
  76.8906486 120.4115599  87.5656508  88.1357184 113.4197547  82.5143736
  87.3257912 113.0744632  82.8898982  88.8241600 113.1105090  83.1031347
  90.0647732 112.4975594  84.1368032  90.6178770 112.9171047  84.7958056
  90.3017818 111.5711342  84.1790988  85.2893902 115.7347592  76.5011474
  86.1513066 116.0602491  76.7607291  85.4744247 114.9479088  75.9884540
  77.3061318 123.8169932  88.7791663  76.6124790 123.4023885  88.2661617
  78.0534309 123.8590468  88.1825081  93.4426539 114.6076119  83.6446697
  92.8625208 115.2660923  83.2624749  93.1762472 113.7853463  83.2334114
  91.8930105 114.0081176  85.8468017  92.3929884 114.1197711  85.0382336
  92.5365713 113.7042229  86.4868825  79.2198061 123.7488186  86.6557677
  79.1968749 123.8475873  85.7039560  79.5298697 124.5953336  86.9774844
  92.2251417 116.7676209  82.7003045  91.3377272 117.0525860  82.4823240
  92.6405406 116.6069972  81.8530322  95.5765953 116.7922730  86.4157384
  96.3526343 117.2819183  86.6882001  94.8514087 117.2180784  86.8729254
  92.1992441 122.2830745  82.9153335  92.1427642 122.7399296  82.0760968
  92.7520783 121.5221430  82.7376178  96.0097247 118.0720477  83.7403455
  95.7534181 117.6717113  84.5711662  95.3850115 118.7864271  83.6153594
  92.9327220 123.4735526  80.2105864  92.8776024 123.3079798  79.2694308
  92.3073275 124.1811559  80.3668054  77.7219735 118.7103591  94.0367287
  78.3678599 118.2002545  94.5254512  77.5136886 119.4472272  94.6110712
  86.2423345 112.9743635  79.7891183  86.2302015 113.9185475  79.9459454
  87.1346767 112.7913781  79.4950644  90.0575465 109.5686412  84.0437120
  89.2907861 109.0144899  84.1893802  90.4686170 109.6408281  84.9051271
  26.0309323   7.1891763  75.6650008  26.6687733   7.0698510  74.9613348
  25.9130166   8.1372607  75.7237961  22.8399029   7.1419191  75.6011533
  22.5017541   7.0260256  74.7132068  23.7088797   6.7410356  75.5812539
  18.6985845   8.9954667  71.5908424  18.1350710   8.9044604  70.8224712
  18.5838240   8.1754572  72.0710917  23.3218812   8.2954043  81.5597739
  23.3107453   7.9006841  80.6878242  23.4839451   7.5620115  82.1531510
  16.2450277  10.4905859  74.4292645  17.0371569  10.1496684  74.0138944
  16.4846927  10.6000834  75.3494798  24.2785403  12.6625635  66.9022889
  23.6273383  13.2479716  66.5156903  25.0729766  13.1931830  66.9617926
  18.2041031   9.7514772  67.3010023  18.9771907   9.2043759  67.1622899
  18.5566429  10.6159022  67.5124485  20.0426073  11.0791155  80.5076923
  19.7515939  11.9836785  80.3923589  20.6783057  11.1207682  81.2220992
  20.9682280   8.4568003  77.0978282  21.5645852   8.2324025  76.3835245
  21.0257252   7.7152749  77.7003730  20.5407308   5.9107438  64.9328473
  20.7932829   5.3888960  64.1711936  19.6031867   5.7473584  65.0355157
  25.5850591   4.9143217  72.7403216  26.3713680   4.4962640  72.3893633
  25.8489296   5.8189309  72.9084865  25.7560669  10.3516067  67.4391873
  25.1206502  10.4250694  68.1512778  25.4258075  10.9409666  66.7610953
  30.9859018   4.8518450  73.6436195  31.7184190   4.2817667  73.8774024
  30.2298374   4.4640050  74.0842701  20.2603597   7.8135544  67.1352848
  20.1439855   7.1380448  67.8033932  20.3705857   7.3267918  66.3185001
  22.6035138   7.2745691  70.8399537  22.2393345   6.7476312  71.5512459
  23.4602254   6.8844161  70.6666023  25.0015958  10.7652570  77.5026716
  24.7016681  11.6677609  77.3942524  24.6567018  10.4984753  78.3547869
  18.4528440   7.2166367  73.5363421  17.5278936   7.0842581  73.7441112
  18.7012853   7.9960586  74.0333363  28.4013102   3.2835110  75.1824154
  27.4929979   3.2150519  74.8882915  28.3500698   3.7607055  76.0105979
  22.2229846   4.7593249  66.8207553  22.1029471   5.2050299  67.6593033
  21.5282434   5.1078566  66.2621091  19.9836738  17.5296890  70.4697684
  19.9060768  18.4804716  70.5486165  19.3798382  17.1842763  71.1272610
  22.4753968   4.7024756  83.1259051  21.6987302   5.2618676  83.1161916
  23.1144531   5.1881539  83.6473921  30.2674748   1.4851549  76.9602028
  29.6249129   1.7784082  76.3141822  29.7629677   1.3704469  77.7655224
  27.9214912   5.2314722  67.6487887  28.8332768   5.4642109  67.4735584
  27.4124559   5.8151766  67.0862965  20.7300340   7.5110209  82.6877018
  21.4715024   8.0495253  82.4111842  20.0237326   8.1376498  82.8448570
  26.2055680   9.6539350  81.2849179  26.6139036   9.2121760  80.5403812
  25.4832941   9.0791977  81.5383372  22.5586750   4.5911956  78.6582736
  23.4047945   5.0151370  78.8017385  22.4985387   3.9345581  79.3521299
  26.5284494  10.2140540  75.0401468  25.8993357  10.3786254  74.3377536
  26.1410156  10.6282150  75.8112432  30.4073726  11.1494978  72.3945832
  29.7224764  11.5293880  71.8442865  30.4917576  11.7590305  73.1277780
  25.7086195   2.2516325  80.3163910  25.4647127   3.0058385  79.7798186
  25.9846126   2.6301672  81.1511157  27.6624658   8.7954937  78.9941176
  27.8741553   9.4386697  78.3175557  27.6154406   7.9617254  78.5263106
  25.2650887   1.4072758  75.8977748  24.4035366   1.7054011  76.1894485
  25.2913321   1.6243157  74.9658780  22.0812456   9.9514948  72.3051553
  22.5450802  10.2302651  71.5156176  21.8169254   9.0498393  72.1224644
  18.9736537   9.4986430  75.2431317  19.5437894   9.9273698  74.6048801
  19.5644649   9.2169015  75.9415502  21.0181342   6.0738101  69.1141119
  21.7205386   6.5259144  69.5815045  20.6861971   5.4321920  69.7421012
  28.7770486  11.6726893  77.1663533  29.5987930  11.2707080  76.8846215
  28.7732889  11.5695127  78.1179649  22.5427089  11.2210936  79.3224243
  22.6071522  11.6831343  80.1582415  21.8338013  10.5908301  79.4506553
  36.8676479   8.0165641  73.5148504  36.1140187   7.4473039  73.3592509
  37.0024020   7.9828306  74.4619139  22.2575107  12.8879043  69.1903224
  22.1220782  13.7330579  69.6188072  22.7984919  13.0898321  68.4269158
  15.7104504  10.4054481  69.7631149  16.2229025  11.1997732  69.9136713
  16.3627217   9.7080772  69.6964750  17.5199389  13.5220238  71.8453902
  17.6966017  14.4438202  71.6574886  18.3156223  13.2078657  72.2748282
  23.8843583  13.5102610  83.3203566  23.4407437  12.7238988  83.0024470
  24.5460797  13.6981760  82.6547457  18.6430704  15.0398411  77.8464244
  19.1938130  14.9115475  77.0741238  17.8042180  15.3393300  77.4959137
  25.9824821  13.7905410  81.3484967  25.9643297  14.6114291  80.8565236
  26.9044741  13.6659485  81.5735108  22.4397876  11.3049539  82.1908475
  22.9726212  10.5437827  81.9607783  21.9111957  11.0123191  82.9332630
  25.5717853   6.4018216  66.2274552  25.0564477   7.1722821  66.4662940
  25.2995162   5.7283353  66.8507614  30.5452127   9.1550571  68.1627726
  29.7681570   8.8161731  67.7182888  31.2243608   9.1603194  67.4882691
  25.3604156   4.2745308  68.0534333  25.0554292   4.5891458  68.9044477
  26.3134599   4.3526728  68.0961666  23.8050588  10.4335532  69.7027287
  23.2771950   9.6988291  69.3900525  23.3038091  11.2110208  69.4567256
  28.7843434   8.6284552  74.8194334  28.1267109   9.3183814  74.9074462
  29.5883833   9.0180984  75.1628320  27.5948893   6.9828925  72.8698276
  28.1080775   7.6158917  73.3719985  28.2450117   6.3830120  72.5041636
  21.9503188   8.2515742  62.7062260  21.0430250   8.0204995  62.9053409
  22.4474220   7.4553361  62.8936242  24.8571267  16.9613249  65.6258947
  24.1832966  17.2644946  66.2343904  25.2437089  17.7642330  65.2764404
  24.0729724   4.4578381  75.1156616  23.1552285   4.6793328  74.9578304
  24.4889868   4.5324691  74.2568323  24.8564772   5.8569796  70.2459296
  25.6036591   6.3691193  69.9366418  25.1256361   5.5353849  71.1063690
  23.1291422   8.3528337  67.2286251  22.2202641   8.0687370  67.3258720
  23.1586506   8.7727415  66.3689557  28.3610689  11.9634926  70.9977418
  27.9073016  11.1225836  71.0542609  27.7304656  12.5996325  71.3352198
  27.3043609   2.8926912  72.2278086  26.5666366   2.3804299  72.5588328
  27.5570382   2.4527294  71.4161362  26.8043629  13.8011423  71.9327236
  27.0966603  14.3616480  71.2139602  27.3142249  14.0939984  72.6880395
  21.6776316   5.9656958  73.3296046  21.7324926   5.0130794  73.2538523
  20.8667518   6.1216397  73.8137344  22.8267510   9.8937081  64.5674329
  22.3886940   9.1772940  64.1079967  23.5677951  10.1213195  64.0059421
  21.7677254  14.5791774  73.0220689  21.7253433  14.8052620  72.0929222
  22.6839953  14.3455149  73.1706491  25.2142888   5.0475842  79.9201319
  25.5692275   5.2747315  80.7795784  25.8615019   5.3794219  79.2978574
  30.9440624   8.1694278  70.6250648  30.8058523   8.3595874  69.6971837
  30.5876843   8.9313660  71.0818699  30.9710004  10.2370805  75.6361919
  31.4046511  10.1446094  76.4844973  31.6841585  10.2128305  74.9981935
  19.8843054  11.4554803  72.8182652  20.6783653  10.9605123  72.6165227
  19.1734747  10.9272666  72.4550358  24.7037899  13.8372899  77.1695020
  24.7574921  14.4063835  77.9372736  23.8352680  14.0074784  76.8049057
  31.8325554  10.2794505  78.1694805  32.0261444  11.1840316  78.4154080
  31.7326172   9.8201924  79.0033390  26.8940662  10.4301248  83.7435685
  26.7426169  10.2011800  82.8265769  26.8845342  11.3871849  83.7567030
  23.6625999   8.0033161  78.7281952  24.5918059   8.1544320  78.5550919
  23.2417029   8.0917182  77.8730598  22.4614330  12.0283825  76.4980489
  22.3225416  11.6602610  77.3706427  21.6728927  12.5431465  76.3264447
  23.0562482  17.1292922  67.8406026  23.2314238  16.6580965  68.6551649
  22.3695270  17.7558688  68.0687287  24.0119546  11.4065428  73.8869327
  23.6769378  11.3666198  74.7826977  23.5123491  10.7410144  73.4139737
  17.9863790   6.8133058  79.4121908  17.8483588   6.0813297  80.0133447
  18.8968713   6.7241958  79.1306096  26.9478737   8.7521462  64.1606387
  26.3307908   8.0268290  64.0639439  26.4795226   9.5130823  63.8173461
  20.6146090   6.5253017  78.9005588  21.3245709   5.8846209  78.8592206
  20.5715398   6.7765912  79.8231769  28.6032869  13.4620371  81.8212167
  28.5445415  12.7779591  81.1542750  29.0052387  14.2039361  81.3692793
  17.6223568  20.2782284  74.6145886  17.8620166  20.9100809  75.2924905
  16.7792764  19.9270324  74.9011245  28.6050276  11.4259955  80.0526147
  27.7177055  11.0885876  80.1752546  29.1748827  10.6942986  80.2894912
  22.1351430  16.0861407  77.0187390  22.0621601  16.8916378  77.5306695
  21.6928823  16.2853373  76.1935411  21.9241209  15.3233177  70.5290212
  21.1408731  15.8654857  70.6228436  22.6233954  15.8407157  70.9284453
  25.2337859   1.1327806  73.1724417  25.7306559   0.3797769  72.8525487
  24.4624841   1.1692123  72.6067626  33.0867617   6.8368172  74.8142708
  33.0757493   7.7192887  74.4436642  32.2184996   6.4839723  74.6197245
  24.5950113  15.9848241  79.1745549  25.3078085  16.6195706  79.1021450
  24.1040142  16.0812107  78.3585550  26.3167640   9.8899494  70.7462840
  25.3823919  10.0100956  70.5767545  26.4944308   8.9871960  70.4822850
  29.7040191   5.7316813  71.2812874  30.1700644   6.5644804  71.2073177
  30.1547692   5.2661794  71.9858133  19.6462027  13.7342684  79.9951119
  20.3471486  14.3679167  80.1480514  19.1757142  14.0757416  79.2346759
  27.7716422  12.0760634  68.2799026  28.0476266  11.9617229  69.1892901
  26.9020921  11.6778119  68.2411200  27.4463313   6.2887292  77.8203670
  26.7934763   6.5363199  77.1656123  27.8243693   5.4751430  77.4866147
  24.4070486  16.3246985  71.9231840  24.5892881  15.5068641  72.3859592
  25.2303473  16.5414677  71.4856730  24.7412652  15.2515170  69.1846889
  25.2700418  14.7407625  68.5717051  25.0040872  14.9357700  70.0492422
  23.4950886   7.0307103  84.3069707  22.8191523   6.9301232  84.9772082
  24.3178520   6.8746317  84.7705704  15.2429745  13.2679039  76.9282222
  15.8283182  12.5222727  77.0610126  15.0454583  13.5782996  77.8118886
  18.0968400  16.3030287  71.9444665  17.4278775  16.7876414  71.4608705
  17.9581270  16.5499507  72.8588043  22.2373669  18.3374030  78.5427323
  22.7891977  18.5005652  79.3076408  22.5779862  18.9278468  77.8707348
  27.0884543  13.1635288  84.3975977  27.6324447  13.7765246  83.9030932
  26.5071388  13.7214866  84.9142990  25.3742056  16.2856006  75.5291005
  25.2493195  15.4845746  75.0201951  26.0321147  16.7802199  75.0404975
  27.4376964  14.0865026  77.1570555  26.4907300  13.9670377  77.0848882
  27.7859737  13.1987524  77.2396817  24.4423397  13.8817742  73.3574907
  24.2948360  12.9534450  73.5382477  25.2676891  13.9037833  72.8731983
  28.0457519  14.7046301  74.4439780  28.9704067  14.4989162  74.3064231
  27.8772823  14.4562702  75.3529122  27.8352836  15.2231968  69.8001872
  28.0089713  14.6578391  69.0475724  28.3281727  16.0232863  69.6181362
  33.6892227   7.9868391  71.4192171  34.1323373   7.2375716  71.0211295
  32.8118737   7.9778528  71.0365903  28.8228008  14.5398733  66.8998770
  29.5178913  15.1605425  67.1186085  29.1651158  13.6894084  67.1751148
  30.7219431  11.9898438  68.4286101  31.2470755  12.3285711  67.7035421
  30.6341784  11.0545454  68.2449235  22.3839480  15.9032512  80.5575977
  22.6926606  15.6581659  81.4298677  23.1814962  16.1079150  80.0694847
  22.4060092  18.0570422  72.7881354  21.9665082  17.5646800  73.4814211
  23.1568209  17.5143389  72.5473429  14.8852431  14.2481962  72.7905982
  15.7110451  13.9485734  72.4104625  14.5346483  13.4789585  73.2395771
  19.8533964  13.6008431  74.8603655  19.2313973  12.9379136  74.5605883
  20.5238831  13.6269563  74.1777303  13.0861036  12.1668289  73.7494915
  12.2492944  11.7390463  73.5678917  13.0584681  12.3600732  74.6865707
  30.4113337  12.6231342  83.7337299  29.6208881  12.6055481  83.1941798
  30.1746692  13.1619636  84.4886335  30.5311212   9.4723808  81.0470027
  30.5809217   9.3073816  81.9885550  30.4225136   8.6051067  80.6567908
  19.4147471  12.1512354  68.3362116  19.5635591  12.8347818  67.6828789
  20.2213914  12.1317444  68.8511572  27.8214975   5.4554736  82.3629334
  28.7224837   5.3161201  82.0713332  27.8962949   5.6209191  83.3027511
  32.0329409  11.8920750  81.2912049  31.7414217  12.2550730  82.1275510
  31.4201540  11.1787758  81.1125381  33.2325091   9.4573630  73.8114619
  34.0671983   9.8963434  73.9752179  33.3684220   8.9812283  72.9922865
  30.2816597   7.0153364  79.7592107  30.7570719   7.2081011  78.9510958
  29.3582163   7.0712550  79.5135490  17.1700104   8.1777532  69.3423185
  16.9246146   7.2739862  69.5403395  17.3396018   8.1794682  68.4002663
  22.9142876  14.6460484  65.8073863  22.3416844  15.2650672  65.3544335
  23.4875670  15.1959846  66.3413785  28.9818266   3.8919125  77.9920412
  29.9335689   3.9917222  78.0132636  28.8121717   3.0997393  78.5018497
  27.0032646   0.9774708  78.1779813  26.4082578   1.2579720  77.4826302
  26.7182342   1.4668609  78.9496554  26.1340136  14.9297635  66.9382446
  27.0670809  14.8643196  67.1415321  26.0463349  15.7653901  66.4796978
  28.7628153  14.2463505  63.8986393  28.6841784  13.9123368  64.7922151
  29.5837820  14.7385273  63.8977866  31.4606344   7.1125244  77.1062712
  31.4282664   6.1741245  77.2922396  32.0706968   7.1909281  76.3728537
  23.2989675   5.9821297  63.1489916  24.2448780   5.8527505  63.2178334
  22.9203920   5.2435959  63.6259344  31.6100833   3.9036288  77.1520995
  31.0939881   3.1194744  76.9650924  32.4940781   3.5755004  77.3167515
  37.2782894   8.1741251  76.2468749  38.0086282   7.9126539  76.8076452
  36.6689839   7.4369973  76.2870817  35.3598191   6.3149114  76.8443200
  34.6331355   6.1805079  76.2359691  34.9445478   6.6225942  77.6499918
  23.1828368  10.0339043  84.6090573  24.1031377  10.2117642  84.8030619
  23.1477951   9.0895089  84.4570272  16.1790440   7.9440078  77.2513354
  16.3976450   8.8757186  77.2701388  16.5916214   7.5848052  78.0368158
  28.4064013  -0.3613265  70.3692003  27.8262682   0.2971539  69.9870056
  28.1399946  -1.1835920  69.9579421  20.9149575   6.9470423  85.4581165
  20.4316657   7.7470783  85.6645054  21.0010514   6.9578367  84.5048609
  14.1835535   8.7798802  73.3802984  14.1606223   8.8786490  72.4284867
  14.4936172   9.6263953  73.7020150  16.8422913  10.8374957  77.4949598
  17.7966166  10.8058900  77.4279530  16.6435436  10.3765581  78.3099824
  17.4322295   9.4076073  80.0620396  18.2515184   9.9020152  80.0855233
  17.7059103   8.4908041  80.0337964  27.1888891   1.7986826  69.4248352
  26.3014746   2.0836476  69.2068546  27.6042880   1.6380589  68.5775629
  30.5403427   1.8233347  73.1402691  31.3163817   2.3129799  73.4127308
  29.8151562   2.2491401  73.5974560  32.9775986   2.5360966  74.1976632
  33.5720477   2.2956702  73.4869940  33.0502570   1.8168096  74.8250168
  15.1973142  16.3794577  74.5119796  15.0627610  15.6194978  73.9457794
  14.7805204  17.1035477  74.0448585  26.3332105  11.5631500  63.5196372
  27.0367955  11.7681503  64.1354027  25.6094753  12.1308262  63.7845455
  27.1629915   7.3141362  69.6398642  27.1065116   7.7709913  68.8006274
  27.7158257   6.5532046  69.4621485  30.9734721   3.1031093  70.4648761
  30.7171655   2.7027729  71.2956969  30.3487589   3.8174887  70.3398900
  35.2847059   5.8427167  72.9720053  34.7246617   5.9120356  73.7451615
  34.6790562   5.6668151  72.2519549  18.3542268  17.2763894  74.7238239
  18.2374652  18.2209326  74.6216929  17.5334714  16.9737455  75.1124038
  28.2418802  12.0014029  65.5694832  29.0764406  11.5695228  65.3872306
  28.0803145  11.8296043  66.4971726  27.8964694   8.5046143  66.9351171
  27.8413498   8.3390414  65.9939615  27.2710750   9.2122176  67.0913361
  25.2110601  10.8095055  86.2604734  26.0801761  10.9835707  85.8991369
  24.7317353  11.6289471  86.1380463  19.3796782  17.9292156  77.9394167
  20.2824028  17.9615766  78.2560662  19.1534152  16.9992607  77.9540503
  21.1350384  16.6823142  74.6004246  20.1846015  16.6825004  74.4868618
  21.4382870  15.9355877  74.0840281  36.8703077  22.5183681  75.6650008
  37.5081487  22.3990428  74.9613348  36.7523920  23.4664525  75.7237961
  33.6792783  22.4711109  75.6011533  33.3411295  22.3552173  74.7132068
  34.5482552  22.0702274  75.5812539  29.5379599  24.3246585  71.5908424
  28.9744464  24.2336522  70.8224712  29.4231994  23.5046490  72.0710917
  34.1612566  23.6245960  81.5597739  34.1501207  23.2298759  80.6878242
  34.3233206  22.8912033  82.1531510  27.0844031  25.8197777  74.4292645
  27.8765323  25.4788601  74.0138944  27.3240681  25.9292752  75.3494798
  35.1179158  27.9917553  66.9022889  34.4667138  28.5771633  66.5156903
  35.9123521  28.5223748  66.9617926  29.0434785  25.0806690  67.3010023
  29.8165661  24.5335677  67.1622899  29.3960184  25.9450939  67.5124485
  30.8819828  26.4083072  80.5076923  30.5909694  27.3128703  80.3923589
  31.5176812  26.4499600  81.2220992  31.8076034  23.7859921  77.0978282
  32.4039607  23.5615943  76.3835245  31.8651006  23.0444666  77.7003730
  31.3801063  21.2399356  64.9328473  31.6326584  20.7180877  64.1711936
  30.4425622  21.0765502  65.0355157  36.4244346  20.2435134  72.7403216
  37.2107435  19.8254558  72.3893633  36.6883050  21.1481227  72.9084865
  36.5954423  25.6807985  67.4391873  35.9600256  25.7542611  68.1512778
  36.2651829  26.2701584  66.7610953  41.8252773  20.1810368  73.6436195
  42.5577945  19.6109584  73.8774024  41.0692129  19.7931968  74.0842701
  31.0997352  23.1427462  67.1352848  30.9833610  22.4672365  67.8033932
  31.2099612  22.6559836  66.3185001  33.4428893  22.6037609  70.8399537
  33.0787100  22.0768230  71.5512459  34.2996008  22.2136078  70.6666023
  39.3478193  13.8931942  78.1030804  39.0161518  14.7627353  77.8792019
  38.7523807  13.5768226  78.7824834  33.0834380  17.6327509  65.8360886
  33.2508782  18.5007745  66.2031357  32.8931549  17.7954791  64.9122175
  35.8409713  26.0944488  77.5026716  35.5410436  26.9969527  77.3942524
  35.4960772  25.8276671  78.3547869  29.2922194  22.5458285  73.5363421
  28.3672691  22.4134499  73.7441112  29.5406607  23.3252504  74.0333363
  39.2406857  18.6127028  75.1824154  38.3323734  18.5442436  74.8882915
  39.1894452  19.0898973  76.0105979  33.0623600  20.0885166  66.8207553
  32.9423226  20.5342217  67.6593033  32.3676189  20.4370484  66.2621091
  26.6531005  22.1891558  74.3707210  26.7823386  22.4426037  75.2846622
  25.9728457  22.7819266  74.0511865  30.8230493  32.8588808  70.4697684
  30.7454522  33.8096633  70.5486165  30.2192136  32.5134681  71.1272610
  33.3147722  20.0316674  83.1259051  32.5381056  20.5910594  83.1161916
  33.9538285  20.5173457  83.6473921  41.1068503  16.8143466  76.9602028
  40.4642883  17.1075999  76.3141822  40.6023431  16.6996387  77.7655224
  38.7608667  20.5606640  67.6487887  39.6726523  20.7934026  67.4735584
  38.2518314  21.1443684  67.0862965  31.5694095  22.8402127  82.6877018
  32.3108779  23.3787171  82.4111842  30.8631080  23.4668416  82.8448570
  37.0449434  24.9831267  81.2849179  37.4532790  24.5413678  80.5403812
  36.3226696  24.4083895  81.5383372  33.3980504  19.9203874  78.6582736
  34.2441699  20.3443288  78.8017385  33.3379142  19.2637498  79.3521299
  37.3678249  25.5432458  75.0401468  36.7387111  25.7078172  74.3377536
  36.9803911  25.9574068  75.8112432  41.2467481  26.4786896  72.3945832
  40.5618519  26.8585797  71.8442865  41.3311330  27.0882222  73.1277780
  36.5479950  17.5808242  80.3163910  36.3040881  18.3350303  79.7798186
  36.8239880  17.9593590  81.1511157  38.5018412  24.1246855  78.9941176
  38.7135308  24.7678615  78.3175557  38.4548161  23.2909171  78.5263106
  36.1044641  16.7364675  75.8977748  35.2429120  17.0345929  76.1894485
  36.1307076  16.9535074  74.9658780  32.9206211  25.2806866  72.3051553
  33.3844556  25.5594569  71.5156176  32.6563009  24.3790311  72.1224644
  29.8130292  24.8278348  75.2431317  30.3831649  25.2565616  74.6048801
  30.4038404  24.5460932  75.9415502  31.8575097  21.4030018  69.1141119
  32.5599140  21.8551062  69.5815045  31.5255725  20.7613837  69.7421012
  30.3055458  19.9941775  83.4892328  29.6754119  20.6758056  83.7227725
  30.1991546  19.8824857  82.5445466  25.6000431  19.6613571  74.4158252
  24.8099485  19.9171100  73.9398363  26.0911678  20.4761909  74.5210293
  39.6164240  27.0018810  77.1663533  40.4381684  26.5998998  76.8846215
  39.6126643  26.8987044  78.1179649  27.5515176  20.0258150  71.3741729
  26.7546339  20.1376845  71.8925224  27.3240768  20.3644803  70.5082619
  33.3820844  26.5502854  79.3224243  33.4465276  27.0123261  80.1582415
  32.6731768  25.9200218  79.4506553  23.8838134  19.9144062  76.8473243
  24.1346172  20.7991071  77.1130819  24.4197682  19.7348663  76.0748335
  47.7070233  23.3457559  73.5148504  46.9533942  22.7764957  73.3592509
  47.8417775  23.3120223  74.4619139  33.0968861  28.2170961  69.1903224
  32.9614536  29.0622497  69.6188072  33.6378674  28.4190239  68.4269158
  29.5836201  14.2962541  85.8517579  29.1903147  13.7428739  86.5265223
  30.4002341  14.6073119  86.2424096  26.5498259  25.7346399  69.7631149
  27.0622779  26.5289649  69.9136713  27.2020972  25.0372690  69.6964750
  28.3593144  28.8512155  71.8453902  28.5359772  29.7730120  71.6574886
  29.1549977  28.5370575  72.2748282  32.5004162  15.7120420  83.4437836
  33.2413875  16.3127573  83.3642298  32.7322085  14.9698058  82.8855878
  27.6445500  20.8976787  81.7216065  27.5299015  19.9962044  82.0223164
  26.7890018  21.1440484  81.3700882  34.7237338  28.8394528  83.3203566
  34.2801192  28.0530906  83.0024470  35.3854551  29.0273678  82.6547457
  29.4824459  30.3690329  77.8464244  30.0331884  30.2407393  77.0741238
  28.6435935  30.6685218  77.4959137  36.8218576  29.1197327  81.3484967
  36.8037051  29.9406209  80.8565236  37.7438496  28.9951403  81.5735108
  33.2791630  26.6341457  82.1908475  33.8119967  25.8729745  81.9607783
  32.7505711  26.3415109  82.9332630  36.4461325  11.7401523  77.7202117
  36.1025594  12.6303165  77.6441228  36.8140288  11.5503181  76.8571702
  24.5147176  24.0635053  70.5390719  25.3522398  24.4732062  70.3224427
  24.6925443  23.1234496  70.5090913  36.4111608  21.7310134  66.2274552
  35.8958231  22.5014739  66.4662940  36.1388916  21.0575270  66.8507614
  33.9958719  16.5759835  71.2859791  33.1400315  16.1866685  71.1065429
  34.4085671  16.6551796  70.4259576  35.5257865  14.1106178  75.6851350
  35.0222661  14.0736313  74.8719156  35.8188472  15.0198921  75.7448007
  31.7700751  14.1944908  74.6917532  32.6353748  13.9987716  74.3323422
  31.8378260  13.9655260  75.6186889  41.3845882  24.4842489  68.1627726
  40.6075325  24.1453648  67.7182888  42.0637363  24.4895112  67.4882691
  36.1997911  19.6037226  68.0534333  35.8948046  19.9183375  68.9044477
  37.1528353  19.6818646  68.0961666  34.6444343  25.7627449  69.7027287
  34.1165704  25.0280209  69.3900525  34.1431845  26.5402126  69.4567256
  39.6237189  23.9576470  74.8194334  38.9660863  24.6475731  74.9074462
  40.4277588  24.3472902  75.1628320  29.3763070  16.4247116  72.0633899
  29.9506822  16.2022297  71.3307092  29.9634053  16.4935810  72.8162500
  38.4342648  22.3120843  72.8698276  38.9474529  22.9450834  73.3719985
  39.0843871  21.7122038  72.5041636  29.7032657  18.4551577  66.0829784
  28.8669970  18.7926263  66.4039059  29.5637427  18.3200557  65.1456921
  31.6785738  13.2988365  70.7908968  31.0250150  12.9837382  70.1665583
  31.6366212  12.6764105  71.5168791  32.7896943  23.5807660  62.7062260
  31.8824005  23.3496913  62.9053409  33.2867975  22.7845279  62.8936242
  35.6965022  32.2905167  65.6258947  35.0226721  32.5936864  66.2343904
  36.0830844  33.0934247  65.2764404  34.9123478  19.7870298  75.1156616
  33.9946040  20.0085245  74.9578304  35.3283622  19.8616609  74.2568323
  35.6958526  21.1861714  70.2459296  36.4430345  21.6983111  69.9366418
  35.9650116  20.8645767  71.1063690  33.9685176  23.6820255  67.2286251
  33.0596396  23.3979287  67.3258720  33.9980260  24.1019333  66.3689557
  39.2004444  27.2926844  70.9977418  38.7466771  26.4517754  71.0542609
  38.5698410  27.9288242  71.3352198  38.1437363  18.2218830  72.2278086
  37.4060120  17.7096216  72.5588328  38.3964137  17.7819212  71.4161362
  37.6437383  29.1303341  71.9327236  37.9360357  29.6908398  71.2139602
  38.1536004  29.4231902  72.6880395  38.2448991  10.9995082  72.8219855
  38.5507867  10.1392446  72.5345770  38.9701595  11.5912702  72.6218849
  24.5373347  21.4025769  71.2101453  24.3397747  20.8095129  70.4852519
  23.9820011  21.0977979  71.9277392  32.5170070  21.2948875  73.3296046
  32.5718680  20.3422712  73.2538523  31.7061272  21.4508314  73.8137344
  33.6661264  25.2228998  64.5674329  33.2280694  24.5064857  64.1079967
  34.4071705  25.4505113  64.0059421  30.4562430  19.9125935  71.0886425
  29.6430296  20.2120105  71.4951617  30.9521424  19.5181624  71.8060907
  32.6071008  29.9083692  73.0220689  32.5647187  30.1344538  72.0929222
  33.5233707  29.6747066  73.1706491  36.0536642  20.3767759  79.9201319
  36.4086030  20.6039233  80.7795784  36.7008773  20.7086136  79.2978574
  41.7834379  23.4986195  70.6250648  41.6452278  23.6887791  69.6971837
  41.4270598  24.2605578  71.0818699  29.9476505  17.4844290  76.7047660
  30.5875884  17.3433050  76.0070623  29.1154036  17.1978804  76.3286262
  41.8103759  25.5662722  75.6361919  42.2440265  25.4738011  76.4844973
  42.5235339  25.5420223  74.9981935  30.7236809  26.7846721  72.8182652
  31.5177407  26.2897041  72.6165227  30.0128501  26.2564584  72.4550358
  35.5431653  29.1664816  77.1695020  35.5968676  29.7355753  77.9372736
  34.6746435  29.3366701  76.8049057  27.0319572  20.9289803  68.8942405
  26.1017161  20.8674258  69.1112367  27.1277044  20.4065755  68.0979046
  26.9505121  17.4544615  71.4820647  27.2111939  18.3689949  71.3729807
  27.7722294  16.9869058  71.6317259  28.4230047  18.8682373  78.6519471
  29.0953100  18.6599735  78.0032120  27.5959833  18.6704459  78.2124703
  42.6719308  25.6086423  78.1694805  42.8655198  26.5132233  78.4154080
  42.5719926  25.1493842  79.0033390  34.3255619  15.4944314  80.6685132
  33.6783534  16.1934263  80.5749608  35.0956634  15.9280457  81.0361380
  37.7334417  25.7593166  83.7435685  37.5819923  25.5303717  82.8265769
  37.7239096  26.7163767  83.7567030  34.5019753  23.3325078  78.7281952
  35.4311813  23.4836238  78.5550919  34.0810783  23.4209099  77.8730598
  33.3008085  27.3575743  76.4980489  33.1619171  26.9894527  77.3706427
  32.5122681  27.8723382  76.3264447  33.8956237  32.4584839  67.8406026
  34.0707993  31.9872883  68.6551649  33.2089025  33.0850606  68.0687287
  34.8513300  26.7357346  73.8869327  34.5163133  26.6958116  74.7826977
  34.3517246  26.0702061  73.4139737  28.8257544  22.1424976  79.4121908
  28.6877342  21.4105214  80.0133447  29.7362468  22.0533876  79.1306096
  37.7872492  24.0813380  64.1606387  37.1701662  23.3560208  64.0639439
  37.3188980  24.8422740  63.8173461  31.4539845  21.8544935  78.9005588
  32.1639463  21.2138127  78.8592206  31.4109153  22.1057830  79.8231769
  39.4426623  28.7912288  81.8212167  39.3839170  28.1071508  81.1542750
  39.8446142  29.5331278  81.3692793  30.1668779  18.8410153  80.7201227
  29.6306136  18.3900891  81.3722824  29.5785487  18.9756062  79.9771692
  28.4617322  35.6074202  74.6145886  28.7013920  36.2392726  75.2924905
  27.6186519  35.2562242  74.9011245  29.5771038  18.2998804  63.2827691
  28.7000504  18.1787605  62.9189938  30.0528791  17.5084883  63.0306580
  39.4444031  26.7551872  80.0526147  38.5570809  26.4177794  80.1752546
  40.0142582  26.0234903  80.2894912  21.0973178  23.0875964  73.3769198
  21.7844218  22.7737694  72.7890213  20.9421306  23.9917329  73.1036450
  25.9007900  17.9766160  77.8054222  25.8166089  17.3691830  77.0704632
  25.0790606  18.4675179  77.8063718  32.9745184  31.4153325  77.0187390
  32.9015356  32.2208296  77.5306695  32.5322577  31.6145290  76.1935411
  32.7634964  30.6525095  70.5290212  31.9802486  31.1946775  70.6228436
  33.4627709  31.1699074  70.9284453  36.0731614  16.4619724  73.1724417
  36.5700313  15.7089686  72.8525487  35.3018595  16.4984041  72.6067626
  43.9261371  22.1660090  74.8142708  43.9151247  23.0484805  74.4436642
  43.0578751  21.8131640  74.6197245  35.4343868  31.3140159  79.1745549
  36.1471840  31.9487623  79.1021450  34.9433896  31.4104025  78.3585550
  37.1561395  25.2191411  70.7462840  36.2217673  25.3392874  70.5767545
  37.3338063  24.3163878  70.4822850  32.6566583  18.6037107  72.8996102
  32.2864370  18.0508147  73.5877007  33.1525675  17.9995240  72.3471102
  40.5433946  21.0608731  71.2812874  41.0094398  21.8936722  71.2073177
  40.9941446  20.5953712  71.9858133  30.4855781  29.0634602  79.9951119
  31.1865241  29.6971085  80.1480514  30.0150896  29.4049334  79.2346759
  38.6110177  27.4052552  68.2799026  38.8870021  27.2909146  69.1892901
  37.7414676  27.0070037  68.2411200  38.5150609  13.4289318  75.3203776
  37.6013688  13.6593544  75.4885983  38.9443710  13.5127762  76.1717808
  38.2857067  21.6179209  77.8203670  37.6328517  21.8655117  77.1656123
  38.6637447  20.8043348  77.4866147  35.2464241  31.6538903  71.9231840
  35.4286636  30.8360559  72.3859592  36.0697227  31.8706595  71.4856730
  35.5806406  30.5807088  69.1846889  36.1094173  30.0699542  68.5717051
  35.8434626  30.2649618  70.0492422  34.3344640  22.3599021  84.3069707
  33.6585277  22.2593150  84.9772082  35.1572274  22.2038234  84.7705704
  26.0823499  28.5970957  76.9282222  26.6676936  27.8514645  77.0610126
  25.8848338  28.9074914  77.8118886  28.9362154  31.6322204  71.9444665
  28.2672530  32.1168332  71.4608705  28.7975024  31.8791425  72.8588043
  20.6741154  21.1676557  75.6486665  20.7125253  20.6340148  76.4423783
  20.1681447  20.6411763  75.0297642  33.0767423  33.6665948  78.5427323
  33.6285731  33.8297569  79.3076408  33.4173616  34.2570386  77.8707348
  28.0531916  16.0141098  79.1449208  28.1173243  16.8755929  78.7326605
  27.9899036  15.4015099  78.4121566  27.5284189  18.0864230  82.7922242
  28.1556228  17.7041308  83.4059766  26.6712108  17.8678432  83.1577934
  37.9278297  28.4927206  84.3975977  38.4718201  29.1057164  83.9030932
  37.3465142  29.0506784  84.9142990  24.3049732  19.8940659  68.7240597
  24.6003173  18.9851338  68.6707650  23.4037767  19.8728399  68.4021599
  36.2135810  31.6147924  75.5291005  36.0886950  30.8137663  75.0201951
  36.8714901  32.1094117  75.0404975  27.8343979  17.9696656  74.7068145
  27.1130564  18.5832624  74.5675619  28.6237234  18.5054421  74.6284791
  38.2770719  29.4156944  77.1570555  37.3301054  29.2962295  77.0848882
  38.6253492  28.5279442  77.2396817  30.6370292  15.3051083  80.9808797
  31.1604694  15.5513379  81.7435106  30.4182625  16.1371117  80.5611934
  26.0337573  17.5754757  68.8479922  25.7050279  16.6952136  68.6655028
  26.3876944  17.5202426  69.7356311  35.2817152  29.2109660  73.3574907
  35.1342114  28.2826367  73.5382477  36.1070645  29.2329751  72.8731983
  29.1479396  17.8627727  69.2155400  29.4875469  18.3913648  68.4934008
  29.5951517  18.2008133  69.9913966  38.8851274  30.0338219  74.4439780
  39.8097821  29.8281080  74.3064231  38.7166577  29.7854620  75.3529122
  31.8422837  16.2464778  78.6658468  31.5019657  15.4472591  79.0679147
  31.1361843  16.5466488  78.0935301  32.4939309  13.3314090  77.1185791
  33.3165378  12.8574568  76.9964681  32.7377372  14.1104574  77.6184477
  31.1347543  16.3602348  67.4148692  31.8555906  16.7383601  66.9112409
  30.5112848  17.0791225  67.5183670  35.2778666  17.0647497  68.3507025
  35.4942281  17.9472135  68.0495853  34.7972733  16.6733711  67.6212667
  30.0177888  20.0233211  74.9277769  29.8722468  20.3373514  75.8202051
  29.5403091  20.6418111  74.3748668  31.8774271  17.0135759  74.9758659
  31.8635839  16.1176852  74.6390957  32.5946699  17.0206422  75.6096945
  33.7300401  17.4473099  77.0211786  33.4718179  18.3690170  77.0196117
  33.1985442  17.0503533  77.7112250  38.6746590  30.5523886  69.8001872
  38.8483468  29.9870308  69.0475724  39.1675481  31.3524781  69.6181362
  24.4923550  22.5638555  77.8665430  23.9477018  23.3398363  77.9985705
  25.3702900  22.9109360  77.7084552  31.2811166  15.8950139  70.2446229
  31.4027078  14.9666785  70.4437116  30.9913209  15.9088825  69.3324544
  34.1502357  13.5805049  73.3812949  34.1724054  13.6444382  72.4264928
  34.5670416  12.7409558  73.5753455  44.5285981  23.3160309  71.4192171
  44.9717127  22.5667634  71.0211295  43.6512491  23.3070445  71.0365903
  39.6621763  29.8690650  66.8998770  40.3572667  30.4897343  67.1186085
  40.0044913  29.0186002  67.1751148  25.2789572  21.6908451  80.7595587
  24.5371308  21.8391087  81.3460218  24.9582316  21.9516717  79.8962337
  41.5613186  27.3190356  68.4286101  42.0864510  27.6577629  67.7035421
  41.4735538  26.3837371  68.2449235  33.2233234  31.2324430  80.5575977
  33.5320361  30.9873576  81.4298677  34.0208716  31.4371068  80.0694847
  33.2453846  33.3862339  72.7881354  32.8058837  32.8938718  73.4814211
  33.9961963  32.8435307  72.5473429  25.7246185  29.5773880  72.7905982
  26.5504205  29.2777652  72.4104625  25.3740237  28.8081503  73.2395771
  30.6927719  28.9300348  74.8603655  30.0707728  28.2671053  74.5605883
  31.3632585  28.9561480  74.1777303  23.9254790  27.4960207  73.7494915
  23.0886699  27.0682381  73.5678917  23.8978436  27.6892650  74.6865707
  30.7652246  17.4082136  84.4536162  30.8140401  18.2844259  84.0713931
  31.3074760  16.8659529  83.8807805  41.2507092  27.9523260  83.7337299
  40.4602635  27.9347398  83.1941798  41.0140446  28.4911553  84.4886335
  41.3704967  24.8015726  81.0470027  41.4202972  24.6365733  81.9885550
  41.2618890  23.9342985  80.6567908  30.2541225  27.4804272  68.3362116
  30.4029346  28.1639736  67.6828789  31.0607669  27.4609362  68.8511572
  38.6608729  20.7846654  82.3629334  39.5618592  20.6453119  82.0713332
  38.7356704  20.9501109  83.3027511  32.9951534  18.1613509  81.2082520
  32.1254844  18.4547075  80.9365109  33.2311015  18.7453954  81.9289784
  42.8723164  27.2212667  81.2912049  42.5807972  27.5842648  82.1275510
  42.2595295  26.5079676  81.1125381  44.0718846  24.7865547  73.8114619
  44.9065737  25.2255351  73.9752179  44.2077975  24.3104200  72.9922865
  41.1210352  22.3445282  79.7592107  41.5964473  22.5372928  78.9510958
  40.1975917  22.4004468  79.5135490  28.0093858  23.5069449  69.3423185
  27.7639900  22.6031779  69.5403395  28.1789773  23.5086600  68.4002663
  35.6990568  14.3793126  78.7247941  36.2172512  15.1154153  78.3994429
  35.3445701  14.6857119  79.5594700  27.2789506  19.2397807  66.8409346
  26.5858751  19.3142162  66.1849382  27.0341258  18.4758150  67.3630863
  35.9503162  10.7993408  74.2448837  36.2304916  10.1316597  74.8709264
  36.7353769  10.9922504  73.7323501  33.7536631  29.9752402  65.8073863
  33.1810598  30.5942589  65.3544335  34.3269425  30.5251764  66.3413785
  39.8212021  19.2211042  77.9920412  40.7729444  19.3209140  78.0132636
  39.6515471  18.4289311  78.5018497  37.8426400  16.3066625  78.1779813
  37.2476332  16.5871638  77.4826302  37.5576097  16.7960526  78.9496554
  36.9733891  30.2589552  66.9382446  37.9064564  30.1935114  67.1415321
  36.8857104  31.0945819  66.4796978  39.6021907  29.5755423  63.8986393
  39.5235539  29.2415286  64.7922151  40.4231574  30.0677190  63.8977866
  42.3000099  22.4417162  77.1062712  42.2676419  21.5033163  77.2922396
  42.9100722  22.5201199  76.3728537  34.1383429  21.3113215  63.1489916
  35.0842534  21.1819423  63.2178334  33.7597674  20.5727877  63.6259344
  42.4494587  19.2328205  77.1520995  41.9333636  18.4486662  76.9650924
  43.3334536  18.9046922  77.3167515  40.1105314  12.9769221  73.1116808
  39.9130135  12.6684309  73.9960140  40.7205020  13.7030860  73.2414738
  48.1176648  23.5033169  76.2468749  48.8480037  23.2418457  76.8076452
  47.5083594  22.7661891  76.2870817  46.1991946  21.6441031  76.8443200
  45.4725109  21.5096996  76.2359691  45.7839232  21.9517860  77.6499918
  34.0222122  25.3630961  84.6090573  34.9425131  25.5409560  84.8030619
  33.9871705  24.4187006  84.4570272  32.3226347  19.2363191  63.0844801
  31.4157802  18.9396304  63.1607515  32.6002328  18.9393009  62.2179087
  23.2404287  20.5569555  73.5343848  22.9207071  19.7034863  73.2418222
  22.6937715  20.7718133  74.2901815  27.0184195  23.2731996  77.2513354
  27.2370204  24.2049103  77.2701388  27.4309968  22.9139970  78.0368158
  33.9388412  13.7800081  69.2389042  33.1289141  13.4347166  69.6144289
  34.6272829  13.4707625  69.8276654  35.8678961  12.8578128  70.8613339
  36.4209999  13.2773581  71.5203362  36.1049047  11.9313876  70.9036295
  31.8912060  18.8465201  86.6416103  31.7908787  19.7959558  86.5728194
  31.6733602  18.5183440  85.7692173  31.0925131  16.0950126  63.2256780
  31.9544295  16.4205025  63.4852598  31.2775475  15.3081622  62.7129846
  23.1092547  24.1772466  75.5036969  22.4156018  23.7626419  74.9906924
  23.8565538  24.2193003  74.9070388  39.2457768  14.9678653  70.3692003
  38.6656437  15.6263457  69.9870056  38.9793700  14.1455998  69.9579421
  37.6961334  14.3683711  72.5713324  38.1961112  14.4800245  71.7627643
  38.3396942  14.0644763  73.2114132  31.7543330  22.2762340  85.4581165
  31.2710412  23.0762700  85.6645054  31.8404269  22.2870285  84.5048609
  25.0229290  24.1090720  73.3802984  24.9999978  24.2078407  72.4284867
  25.3329926  24.9555871  73.7020150  27.6816667  26.1666875  77.4949598
  28.6359921  26.1350817  77.4279530  27.4829191  25.7057499  78.3099824
  28.2716050  24.7367991  80.0620396  29.0908939  25.2312070  80.0855233
  28.5452857  23.8199959  80.0337964  38.0282646  17.1278743  69.4248352
  37.1408501  17.4128394  69.2068546  38.4436635  16.9672507  68.5775629
  41.3797182  17.1525264  73.1402691  42.1557572  17.6421717  73.4127308
  40.6545316  17.5783318  73.5974560  43.8169740  17.8652883  74.1976632
  44.4114231  17.6248619  73.4869940  43.8896324  17.1460014  74.8250168
  26.0366896  31.7086494  74.5119796  25.9021364  30.9486895  73.9457794
  25.6198958  32.4327394  74.0448585  37.1725859  26.8923418  63.5196372
  37.8761709  27.0973420  64.1354027  36.4488508  27.4600180  63.7845455
  38.0023669  22.6433279  69.6398642  37.9458871  23.1001831  68.8006274
  38.5552012  21.8823964  69.4621485  41.8128475  18.4323011  70.4648761
  41.5565410  18.0319647  71.2956969  41.1881343  19.1466805  70.3398900
  46.1240813  21.1719084  72.9720053  45.5640371  21.2412274  73.7451615
  45.5184317  20.9960069  72.2519549  29.1936022  32.6055811  74.7238239
  29.0768406  33.5501244  74.6216929  28.3728468  32.3029373  75.1124038
  39.0812557  27.3305947  65.5694832  39.9158161  26.8987146  65.3872306
  38.9196900  27.1587961  66.4971726  38.7358449  23.8338060  66.9351171
  38.6807253  23.6682332  65.9939615  38.1104504  24.5414093  67.0913361
  23.5250964  19.0706125  80.7612593  24.1709827  18.5605079  81.2499818
  23.3168115  19.8074806  81.3356018  36.0504356  26.1386972  86.2604734
  36.9195516  26.3127625  85.8991369  35.5711107  26.9581389  86.1380463
  32.0454574  13.3346169  66.5136489  32.0333244  14.2788009  66.6704760
  32.9377996  13.1516315  66.2195951  30.2190536  33.2584073  77.9394167
  31.1217783  33.2907684  78.2560662  29.9927906  32.3284524  77.9540503
  31.9744138  32.0115060  74.6004246  31.0239769  32.0116921  74.4868618
  32.2776624  31.2647794  74.0840281  35.8606694   9.9288946  70.7682426
  35.0939090   9.3747433  70.9139109  36.2717399  10.0010815  71.6296578
  27.8648455  16.2173742  84.8587607  28.7279916  15.8610547  85.0690932
  27.2913865  15.8787637  85.5463012  47.7096832  37.8475598  75.6650008
  48.3475242  37.7282346  74.9613348  47.5917675  38.7956442  75.7237961
  44.5186538  37.8003026  75.6011533  44.1805050  37.6844091  74.7132068
  45.3876306  37.3994191  75.5812539  40.3773354  39.6538503  71.5908424
  39.8138219  39.5628440  70.8224712  40.2625749  38.8338407  72.0710917
  45.0006321  38.9537878  81.5597739  44.9894962  38.5590676  80.6878242
  45.1626960  38.2203951  82.1531510  37.9237786  41.1489694  74.4292645
  38.7159078  40.8080519  74.0138944  38.1634436  41.2584669  75.3494798
  39.8828540  40.4098608  67.3010023  40.6559416  39.8627595  67.1622899
  40.2353938  41.2742857  67.5124485  41.7213582  41.7374990  80.5076923
  41.4303448  42.6420621  80.3923589  42.3570566  41.7791518  81.2220992
  42.6469789  39.1151838  77.0978282  43.2433361  38.8907861  76.3835245
  42.7044760  38.3736584  77.7003730  42.2194817  36.5691274  64.9328473
  42.4720338  36.0472795  64.1711936  41.2819376  36.4057419  65.0355157
  47.2638100  35.5727052  72.7403216  48.0501189  35.1546475  72.3893633
  47.5276805  36.4773144  72.9084865  52.6646527  35.5102285  73.6436195
  53.3971699  34.9401502  73.8774024  51.9085883  35.1223886  74.0842701
  41.9391106  38.4719380  67.1352848  41.8227364  37.7964283  67.8033932
  42.0493366  37.9851754  66.3185001  44.2822647  37.9329527  70.8399537
  43.9180854  37.4060148  71.5512459  45.1389763  37.5427996  70.6666023
  50.1871948  29.2223859  78.1030804  49.8555272  30.0919270  77.8792019
  49.5917561  28.9060143  78.7824834  43.9228134  32.9619427  65.8360886
  44.0902536  33.8299663  66.2031357  43.7325303  33.1246708  64.9122175
  46.6803467  41.4236405  77.5026716  46.3804190  42.3261444  77.3942524
  46.3354527  41.1568589  78.3547869  40.1315949  37.8750202  73.5363421
  39.2066445  37.7426416  73.7441112  40.3800362  38.6544422  74.0333363
  50.0800611  33.9418946  75.1824154  49.1717488  33.8734354  74.8882915
  50.0288207  34.4190891  76.0105979  43.9017355  35.4177084  66.8207553
  43.7816980  35.8634135  67.6593033  43.2069943  35.7662402  66.2621091
  37.4924760  37.5183476  74.3707210  37.6217141  37.7717955  75.2846622
  36.8122211  38.1111184  74.0511865  44.1541477  35.3608591  83.1259051
  43.3774811  35.9202511  83.1161916  44.7932040  35.8465374  83.6473921
  51.9462257  32.1435384  76.9602028  51.3036638  32.4367917  76.3141822
  51.4417186  32.0288304  77.7655224  49.6002421  35.8898557  67.6487887
  50.5120277  36.1225944  67.4735584  49.0912068  36.4735601  67.0862965
  42.4087849  38.1694045  82.6877018  43.1502533  38.7079089  82.4111842
  41.7024835  38.7960333  82.8448570  47.8843189  40.3123185  81.2849179
  48.2926545  39.8705596  80.5403812  47.1620450  39.7375813  81.5383372
  44.2374259  35.2495792  78.6582736  45.0835454  35.6735205  78.8017385
  44.1772896  34.5929416  79.3521299  48.2072003  40.8724376  75.0401468
  47.5780866  41.0370090  74.3377536  47.8197665  41.2865985  75.8112432
  52.0861235  41.8078814  72.3945832  51.4012273  42.1877715  71.8442865
  52.1705085  42.4174140  73.1277780  47.3873704  32.9100160  80.3163910
  47.1434636  33.6642221  79.7798186  47.6633635  33.2885508  81.1511157
  49.3412167  39.4538773  78.9941176  49.5529062  40.0970532  78.3175557
  49.2941915  38.6201089  78.5263106  46.9438396  32.0656593  75.8977748
  46.0822875  32.3637847  76.1894485  46.9700830  32.2826992  74.9658780
  43.7599965  40.6098784  72.3051553  44.2238311  40.8886487  71.5156176
  43.4956763  39.7082228  72.1224644  40.6524046  40.1570265  75.2431317
  41.2225403  40.5857534  74.6048801  41.2432158  39.8752850  75.9415502
  42.6968851  36.7321936  69.1141119  43.3992895  37.1842980  69.5815045
  42.3649480  36.0905755  69.7421012  41.1449213  35.3233693  83.4892328
  40.5147873  36.0049974  83.7227725  41.0385301  35.2116774  82.5445466
  36.4394185  34.9905489  74.4158252  35.6493239  35.2463017  73.9398363
  36.9305433  35.8053827  74.5210293  50.4557995  42.3310728  77.1663533
  51.2775439  41.9290915  76.8846215  50.4520398  42.2278962  78.1179649
  38.3908931  35.3550068  71.3741729  37.5940094  35.4668762  71.8925224
  38.1634523  35.6936720  70.5082619  44.2214598  41.8794771  79.3224243
  44.2859031  42.3415178  80.1582415  43.5125522  41.2492136  79.4506553
  34.7231888  35.2435979  76.8473243  34.9739927  36.1282989  77.1130819
  35.2591437  35.0640581  76.0748335  58.5463988  38.6749476  73.5148504
  57.7927696  38.1056874  73.3592509  58.6811529  38.6412141  74.4619139
  40.4229956  29.6254459  85.8517579  40.0296901  29.0720657  86.5265223
  41.2396096  29.9365037  86.2424096  37.3892013  41.0638317  69.7631149
  37.9016534  41.8581567  69.9136713  38.0414726  40.3664607  69.6964750
  39.1986898  44.1804073  71.8453902  39.3753526  45.1022038  71.6574886
  39.9943732  43.8662492  72.2748282  43.3397917  31.0412338  83.4437836
  44.0807630  31.6419491  83.3642298  43.5715839  30.2989975  82.8855878
  38.4839255  36.2268705  81.7216065  38.3692770  35.3253962  82.0223164
  37.6283772  36.4732402  81.3700882  45.5631092  44.1686445  83.3203566
  45.1194946  43.3822824  83.0024470  46.2248306  44.3565596  82.6547457
  40.3218213  45.6982247  77.8464244  40.8725639  45.5699310  77.0741238
  39.4829689  45.9977136  77.4959137  47.6612330  44.4489245  81.3484967
  47.6430806  45.2698126  80.8565236  48.5832250  44.3243320  81.5735108
  44.1185385  41.9633375  82.1908475  44.6513721  41.2021663  81.9607783
  43.5899466  41.6707026  82.9332630  47.2855079  27.0693441  77.7202117
  46.9419349  27.9595082  77.6441228  47.6534042  26.8795098  76.8571702
  35.3540930  39.3926971  70.5390719  36.1916152  39.8023979  70.3224427
  35.5319198  38.4526413  70.5090913  44.8352473  31.9051752  71.2859791
  43.9794070  31.5158603  71.1065429  45.2479425  31.9843713  70.4259576
  46.3651620  29.4398096  75.6851350  45.8616415  29.4028231  74.8719156
  46.6582227  30.3490838  75.7448007  42.6094506  29.5236825  74.6917532
  43.4747503  29.3279634  74.3323422  42.6772015  29.2947177  75.6186889
  47.0391665  34.9329144  68.0534333  46.7341801  35.2475293  68.9044477
  47.9922108  35.0110564  68.0961666  50.4630943  39.2868388  74.8194334
  49.8054618  39.9767649  74.9074462  51.2671342  39.6764820  75.1628320
  40.2156825  31.7539033  72.0633899  40.7900577  31.5314215  71.3307092
  40.8027807  31.8227728  72.8162500  49.2736402  37.6412760  72.8698276
  49.7868284  38.2742752  73.3719985  49.9237626  37.0413956  72.5041636
  40.5426412  33.7843494  66.0829784  39.7063724  34.1218181  66.4039059
  40.4031182  33.6492474  65.1456921  42.5179493  28.6280282  70.7908968
  41.8643905  28.3129299  70.1665583  42.4759967  28.0056023  71.5168791
  45.7517233  35.1162216  75.1156616  44.8339794  35.3377163  74.9578304
  46.1677377  35.1908526  74.2568323  46.5352281  36.5153632  70.2459296
  47.2824100  37.0275029  69.9366418  46.8043870  36.1937684  71.1063690
  50.0398198  42.6218762  70.9977418  49.5860525  41.7809672  71.0542609
  49.4092165  43.2580160  71.3352198  48.9831118  33.5510748  72.2278086
  48.2453875  33.0388134  72.5588328  49.2357891  33.1111129  71.4161362
  48.4831137  44.4595258  71.9327236  48.7754112  45.0200316  71.2139602
  48.9929758  44.7523819  72.6880395  49.0842745  26.3287000  72.8219855
  49.3901622  25.4684363  72.5345770  49.8095350  26.9204620  72.6218849
  35.3767101  36.7317686  71.2101453  35.1791501  36.1387047  70.4852519
  34.8213765  36.4269897  71.9277392  43.3563825  36.6240793  73.3296046
  43.4112435  35.6714629  73.2538523  42.5455027  36.7800232  73.8137344
  41.2956185  35.2417853  71.0886425  40.4824050  35.5412023  71.4951617
  41.7915179  34.8473541  71.8060907  46.8930396  35.7059677  79.9201319
  47.2479784  35.9331150  80.7795784  47.5402528  36.0378054  79.2978574
  52.6228133  38.8278113  70.6250648  52.4846032  39.0179709  69.6971837
  52.2664352  39.5897496  71.0818699  40.7870260  32.8136208  76.7047660
  41.4269639  32.6724967  76.0070623  39.9547790  32.5270722  76.3286262
  52.6497513  40.8954640  75.6361919  53.0834020  40.8029929  76.4844973
  53.3629094  40.8712140  74.9981935  37.8713327  36.2581720  68.8942405
  36.9410915  36.1966176  69.1112367  37.9670799  35.7357673  68.0979046
  37.7898876  32.7836533  71.4820647  38.0505693  33.6981866  71.3729807
  38.6116048  32.3160976  71.6317259  39.2623801  34.1974290  78.6519471
  39.9346855  33.9891652  78.0032120  38.4353588  33.9996376  78.2124703
  53.5113063  40.9378341  78.1694805  53.7048953  41.8424151  78.4154080
  53.4113681  40.4785760  79.0033390  45.1649373  30.8236231  80.6685132
  44.5177288  31.5226181  80.5749608  45.9350389  31.2572375  81.0361380
  48.5728171  41.0885083  83.7435685  48.4213678  40.8595635  82.8265769
  48.5632851  42.0455685  83.7567030  45.3413508  38.6616996  78.7281952
  46.2705568  38.8128156  78.5550919  44.9204538  38.7501017  77.8730598
  39.6651299  37.4716893  79.4121908  39.5271097  36.7397132  80.0133447
  40.5756222  37.3825793  79.1306096  42.2933599  37.1836853  78.9005588
  43.0033218  36.5430045  78.8592206  42.2502907  37.4349747  79.8231769
  50.2820378  44.1204206  81.8212167  50.2232924  43.4363426  81.1542750
  50.6839896  44.8623196  81.3692793  41.0062533  34.1702070  80.7201227
  40.4699890  33.7192809  81.3722824  40.4179242  34.3047979  79.9771692
  40.4164792  33.6290722  63.2827691  39.5394258  33.5079523  62.9189938
  40.8922545  32.8376800  63.0306580  50.2837785  42.0843790  80.0526147
  49.3964564  41.7469712  80.1752546  50.8536336  41.3526821  80.2894912
  31.9366932  38.4167882  73.3769198  32.6237972  38.1029612  72.7890213
  31.7815061  39.3209246  73.1036450  36.7401654  33.3058078  77.8054222
  36.6559843  32.6983748  77.0704632  35.9184361  33.7967096  77.8063718
  46.9125368  31.7911642  73.1724417  47.4094068  31.0381604  72.8525487
  46.1412350  31.8275958  72.6067626  54.7655126  37.4952007  74.8142708
  54.7545002  38.3776723  74.4436642  53.8972505  37.1423558  74.6197245
  43.4960337  33.9329025  72.8996102  43.1258125  33.3800065  73.5877007
  43.9919430  33.3287158  72.3471102  51.3827700  36.3900648  71.2812874
  51.8488153  37.2228640  71.2073177  51.8335201  35.9245630  71.9858133
  41.3249536  44.3926520  79.9951119  42.0258995  45.0263003  80.1480514
  40.8544651  44.7341251  79.2346759  49.3544363  28.7581235  75.3203776
  48.4407443  28.9885462  75.4885983  49.7837465  28.8419679  76.1717808
  49.1250822  36.9471127  77.8203670  48.4722272  37.1947035  77.1656123
  49.5031201  36.1335265  77.4866147  45.1738395  37.6890938  84.3069707
  44.4979032  37.5885068  84.9772082  45.9966029  37.5330152  84.7705704
  36.9217254  43.9262875  76.9282222  37.5070691  43.1806563  77.0610126
  36.7242092  44.2366831  77.8118886  31.5134908  36.4968475  75.6486665
  31.5519008  35.9632066  76.4423783  31.0075201  35.9703680  75.0297642
  38.8925671  31.3433015  79.1449208  38.9566997  32.2047846  78.7326605
  38.8292791  30.7307017  78.4121566  38.3677943  33.4156148  82.7922242
  38.9949982  33.0333225  83.4059766  37.5105862  33.1970350  83.1577934
  48.7672052  43.8219123  84.3975977  49.3111956  44.4349081  83.9030932
  48.1858897  44.3798702  84.9142990  35.1443486  35.2232577  68.7240597
  35.4396927  34.3143256  68.6707650  34.2431522  35.2020317  68.4021599
  38.6737733  33.2988574  74.7068145  37.9524319  33.9124541  74.5675619
  39.4630989  33.8346339  74.6284791  49.1164473  44.7448861  77.1570555
  48.1694809  44.6254212  77.0848882  49.4647246  43.8571359  77.2396817
  41.4764047  30.6343000  80.9808797  41.9998448  30.8805297  81.7435106
  41.2576380  31.4663035  80.5611934  36.8731328  32.9046675  68.8479922
  36.5444034  32.0244054  68.6655028  37.2270698  32.8494343  69.7356311
  39.9873151  33.1919645  69.2155400  40.3269223  33.7205566  68.4934008
  40.4345271  33.5300051  69.9913966  49.7245028  45.3630136  74.4439780
  50.6491576  45.1572998  74.3064231  49.5560332  45.1146537  75.3529122
  42.6816592  31.5756695  78.6658468  42.3413412  30.7764508  79.0679147
  41.9755598  31.8758406  78.0935301  43.3333063  28.6606008  77.1185791
  44.1559133  28.1866486  76.9964681  43.5771127  29.4396491  77.6184477
  41.9741298  31.6894266  67.4148692  42.6949660  32.0675519  66.9112409
  41.3506602  32.4083143  67.5183670  46.1172421  32.3939415  68.3507025
  46.3336035  33.2764053  68.0495853  45.6366488  32.0025629  67.6212667
  40.8571642  35.3525128  74.9277769  40.7116223  35.6665431  75.8202051
  40.3796846  35.9710029  74.3748668  42.7168025  32.3427676  74.9758659
  42.7029594  31.4468770  74.6390957  43.4340453  32.3498340  75.6096945
  44.5694156  32.7765017  77.0211786  44.3111934  33.6982087  77.0196117
  44.0379196  32.3795451  77.7112250  35.3317304  37.8930473  77.8665430
  34.7870772  38.6690281  77.9985705  36.2096654  38.2401277  77.7084552
  42.1204921  31.2242057  70.2446229  42.2420832  30.2958703  70.4437116
  41.8306963  31.2380743  69.3324544  44.9896111  28.9096967  73.3812949
  45.0117808  28.9736300  72.4264928  45.4064170  28.0701476  73.5753455
  55.3679736  38.6452227  71.4192171  55.8110882  37.8959552  71.0211295
  54.4906246  38.6362363  71.0365903  36.1183326  37.0200369  80.7595587
  35.3765062  37.1683004  81.3460218  35.7976070  37.2808635  79.8962337
  44.0626989  46.5616347  80.5575977  44.3714115  46.3165494  81.4298677
  44.8602471  46.7662986  80.0694847  36.5639940  44.9065798  72.7905982
  37.3897960  44.6069570  72.4104625  36.2133992  44.1373420  73.2395771
  34.7648545  42.8252124  73.7494915  33.9280453  42.3974299  73.5678917
  34.7372190  43.0184568  74.6865707  41.6046001  32.7374054  84.4536162
  41.6534156  33.6136177  84.0713931  42.1468515  32.1951447  83.8807805
  52.0900846  43.2815177  83.7337299  51.2996390  43.2639316  83.1941798
  51.8534201  43.8203471  84.4886335  52.2098721  40.1307644  81.0470027
  52.2596726  39.9657651  81.9885550  52.1012645  39.2634903  80.6567908
  41.0934980  42.8096189  68.3362116  41.2423100  43.4931654  67.6828789
  41.9001423  42.7901279  68.8511572  49.5002484  36.1138572  82.3629334
  50.4012346  35.9745037  82.0713332  49.5750458  36.2793026  83.3027511
  43.8345289  33.4905426  81.2082520  42.9648598  33.7838992  80.9365109
  44.0704769  34.0745871  81.9289784  53.7116918  42.5504585  81.2912049
  53.4201726  42.9134566  82.1275510  53.0989049  41.8371593  81.1125381
  54.9112600  40.1157465  73.8114619  55.7459492  40.5547269  73.9752179
  55.0471729  39.6396118  72.9922865  51.9604106  37.6737200  79.7592107
  52.4358228  37.8664846  78.9510958  51.0369672  37.7296386  79.5135490
  38.8487613  38.8361367  69.3423185  38.6033655  37.9323697  69.5403395
  39.0183527  38.8378517  68.4002663  46.5384323  29.7085043  78.7247941
  47.0566267  30.4446070  78.3994429  46.1839456  30.0149037  79.5594700
  38.1183260  34.5689725  66.8409346  37.4252505  34.6434080  66.1849382
  37.8735012  33.8050068  67.3630863  46.7896917  26.1285326  74.2448837
  47.0698671  25.4608515  74.8709264  47.5747524  26.3214421  73.7323501
  50.6605775  34.5502960  77.9920412  51.6123198  34.6501058  78.0132636
  50.4909226  33.7581228  78.5018497  48.6820155  31.6358543  78.1779813
  48.0870087  31.9163556  77.4826302  48.3969851  32.1252444  78.9496554
  53.1393853  37.7709080  77.1062712  53.1070173  36.8325080  77.2922396
  53.7494477  37.8493116  76.3728537  44.9777184  36.6405133  63.1489916
  45.9236289  36.5111341  63.2178334  44.5991429  35.9019794  63.6259344
  53.2888342  34.5620123  77.1520995  52.7727390  33.7778580  76.9650924
  54.1728290  34.2338840  77.3167515  50.9499068  28.3061139  73.1116808
  50.7523890  27.9976227  73.9960140  51.5598774  29.0322777  73.2414738
  58.9570403  38.8325086  76.2468749  59.6873791  38.5710375  76.8076452
  58.3477348  38.0953808  76.2870817  57.0385700  36.9732949  76.8443200
  56.3118864  36.8388914  76.2359691  56.6232987  37.2809778  77.6499918
  44.8615876  40.6922879  84.6090573  45.7818886  40.8701478  84.8030619
  44.8265460  39.7478924  84.4570272  43.1620101  34.5655109  63.0844801
  42.2551557  34.2688222  63.1607515  43.4396082  34.2684927  62.2179087
  34.0798041  35.8861472  73.5343848  33.7600826  35.0326781  73.2418222
  33.5331470  36.1010050  74.2901815  37.8577949  38.6023913  77.2513354
  38.0763959  39.5341021  77.2701388  38.2703723  38.2431888  78.0368158
  44.7782167  29.1091999  69.2389042  43.9682895  28.7639084  69.6144289
  45.4666584  28.7999542  69.8276654  46.7072715  28.1870045  70.8613339
  47.2603754  28.6065499  71.5203362  46.9442801  27.2605794  70.9036295
  42.7305814  34.1757119  86.6416103  42.6302541  35.1251476  86.5728194
  42.5127356  33.8475358  85.7692173  41.9318886  31.4242044  63.2256780
  42.7938050  31.7496942  63.4852598  42.1169230  30.6373540  62.7129846
  33.9486301  39.5064384  75.5036969  33.2549773  39.0918337  74.9906924
  34.6959292  39.5484920  74.9070388  50.0851522  30.2970571  70.3692003
  49.5050191  30.9555375  69.9870056  49.8187455  29.4747915  69.9579421
  48.5355089  29.6975628  72.5713324  49.0354867  29.8092163  71.7627643
  49.1790696  29.3936681  73.2114132  42.5937084  37.6054258  85.4581165
  42.1104166  38.4054618  85.6645054  42.6798023  37.6162203  84.5048609
  35.8623044  39.4382638  73.3802984  35.8393732  39.5370325  72.4284867
  36.1723681  40.2847788  73.7020150  38.5210422  41.4958793  77.4949598
  39.4753675  41.4642735  77.4279530  38.3222945  41.0349416  78.3099824
  39.1109804  40.0659909  80.0620396  39.9302693  40.5603987  80.0855233
  39.3846612  39.1491877  80.0337964  48.8676400  32.4570661  69.4248352
  47.9802255  32.7420312  69.2068546  49.2830389  32.2964424  68.5775629
  52.2190936  32.4817182  73.1402691  52.9951326  32.9713634  73.4127308
  51.4939071  32.9075236  73.5974560  54.6563495  33.1944801  74.1976632
  55.2507986  32.9540537  73.4869940  54.7290079  32.4751932  74.8250168
  36.8760651  47.0378412  74.5119796  36.7415119  46.2778813  73.9457794
  36.4592713  47.7619312  74.0448585  48.8417424  37.9725197  69.6398642
  48.7852625  38.4293748  68.8006274  49.3945766  37.2115882  69.4621485
  52.6522230  33.7614929  70.4648761  52.3959164  33.3611564  71.2956969
  52.0275098  34.4758723  70.3398900  56.9634568  36.5011002  72.9720053
  56.4034126  36.5704191  73.7451615  56.3578071  36.3251987  72.2519549
  34.3644718  34.3998043  80.7612593  35.0103582  33.8896997  81.2499818
  34.1561869  35.1366724  81.3356018  46.8898110  41.4678890  86.2604734
  47.7589270  41.6419542  85.8991369  46.4104862  42.2873307  86.1380463
  42.8848329  28.6638087  66.5136489  42.8726999  29.6079927  66.6704760
  43.7771751  28.4808233  66.2195951  46.7000448  25.2580864  70.7682426
  45.9332844  24.7039350  70.9139109  47.1111153  25.3302733  71.6296578
  38.7042209  31.5465660  84.8587607  39.5673671  31.1902464  85.0690932
  38.1307620  31.2079554  85.5463012  63.5040282  50.8394203  73.6436195
  64.2365454  50.2693420  73.8774024  62.7479638  50.4515803  74.0842701
  61.0265702  44.5515777  78.1030804  60.6949027  45.4211188  77.8792019
  60.4311316  44.2352061  78.7824834  57.5197222  56.7528323  77.5026716
  57.2197945  57.6553362  77.3942524  57.1748281  56.4860506  78.3547869
  60.9194365  49.2710863  75.1824154  60.0111243  49.2026272  74.8882915
  60.8681961  49.7482808  76.0105979  48.3318514  52.8475393  74.3707210
  48.4610895  53.1009872  75.2846622  47.6515966  53.4403101  74.0511865
  62.7856012  47.4727302  76.9602028  62.1430392  47.7659835  76.3141822
  62.2810940  47.3580222  77.7655224  58.7236943  55.6415103  81.2849179
  59.1320299  55.1997513  80.5403812  58.0014205  55.0667730  81.5383372
  59.0465758  56.2016293  75.0401468  58.4174620  56.3662007  74.3377536
  58.6591420  56.6157903  75.8112432  58.2267459  48.2392078  80.3163910
  57.9828390  48.9934138  79.7798186  58.5027389  48.6177425  81.1511157
  60.1805921  54.7830690  78.9941176  60.3922817  55.4262450  78.3175557
  60.1335670  53.9493007  78.5263106  57.7832150  47.3948511  75.8977748
  56.9216629  47.6929764  76.1894485  57.8094585  47.6118910  74.9658780
  61.2951749  57.6602646  77.1663533  62.1169193  57.2582833  76.8846215
  61.2914152  57.5570880  78.1179649  51.2623710  44.9546376  85.8517579
  50.8690656  44.4012575  86.5265223  52.0789850  45.2656955  86.2424096
  54.1791671  46.3704255  83.4437836  54.9201384  46.9711408  83.3642298
  54.4109594  45.6281893  82.8855878  58.5006085  59.7781163  81.3484967
  58.4824560  60.5990044  80.8565236  59.4226005  59.6535238  81.5735108
  58.1248834  42.3985358  77.7202117  57.7813103  43.2887000  77.6441228
  58.4927797  42.2087016  76.8571702  57.2045374  44.7690013  75.6851350
  56.7010170  44.7320149  74.8719156  57.4975981  45.6782756  75.7448007
  53.4488260  44.8528743  74.6917532  54.3141257  44.6571552  74.3323422
  53.5165769  44.6239095  75.6186889  61.3024698  54.6160305  74.8194334
  60.6448372  55.3059567  74.9074462  62.1065097  55.0056737  75.1628320
  59.9236500  41.6578917  72.8219855  60.2295376  40.7976281  72.5345770
  60.6489104  42.2496538  72.6218849  57.7324151  51.0351595  79.9201319
  58.0873539  51.2623068  80.7795784  58.3796282  51.3669972  79.2978574
  51.6264014  48.1428126  76.7047660  52.2663393  48.0016885  76.0070623
  50.7941545  47.8562639  76.3286262  63.4891268  56.2246558  75.6361919
  63.9227774  56.1321847  76.4844973  64.2022848  56.2004058  74.9981935
  57.2219162  59.8248652  77.1695020  57.2756185  60.3939588  77.9372736
  56.3533944  59.9950537  76.8049057  64.3506817  56.2670258  78.1694805
  64.5442707  57.1716069  78.4154080  64.2507435  55.8077677  79.0033390
  56.0043128  46.1528149  80.6685132  55.3571043  46.8518099  80.5749608
  56.7744143  46.5864293  81.0361380  59.4121926  56.4177001  83.7435685
  59.2607432  56.1887553  82.8265769  59.4026605  57.3747602  83.7567030
  61.1214132  59.4496124  81.8212167  61.0626679  58.7655344  81.1542750
  61.5233651  60.1915114  81.3692793  61.1231540  57.4135708  80.0526147
  60.2358318  57.0761629  80.1752546  61.6930091  56.6818739  80.2894912
  65.6048880  52.8243925  74.8142708  65.5938756  53.7068640  74.4436642
  64.7366260  52.4715476  74.6197245  60.1938118  44.0873153  75.3203776
  59.2801197  44.3177380  75.4885983  60.6231219  44.1711597  76.1717808
  59.9644576  52.2763045  77.8203670  59.3116026  52.5238952  77.1656123
  60.3424956  51.4627183  77.4866147  59.6065806  59.1511041  84.3975977
  60.1505710  59.7640999  83.9030932  59.0252651  59.7090619  84.9142990
  52.3157801  45.9634918  80.9808797  52.8392203  46.2097214  81.7435106
  52.0970134  46.7954953  80.5611934  53.5210346  46.9048613  78.6658468
  53.1807166  46.1056426  79.0679147  52.8149352  47.2050324  78.0935301
  54.1726818  43.9897925  77.1185791  54.9952887  43.5158404  76.9964681
  54.4164881  44.7688409  77.6184477  55.4087910  48.1056934  77.0211786
  55.1505688  49.0274005  77.0196117  54.8772951  47.7087369  77.7112250
  52.4439755  48.0665972  84.4536162  52.4927910  48.9428094  84.0713931
  52.9862269  47.5243365  83.8807805  62.9294601  58.6107095  83.7337299
  62.1390144  58.5931234  83.1941798  62.6927955  59.1495389  84.4886335
  63.0492476  55.4599561  81.0470027  63.0990481  55.2949569  81.9885550
  62.9406399  54.5926820  80.6567908  60.3396238  51.4430489  82.3629334
  61.2406101  51.3036954  82.0713332  60.4144213  51.6084944  83.3027511
  54.6739043  48.8197344  81.2082520  53.8042353  49.1130910  80.9365109
  54.9098524  49.4037789  81.9289784  64.5510673  57.8796503  81.2912049
  64.2595481  58.2426483  82.1275510  63.9382804  57.1663511  81.1125381
  65.7506355  55.4449383  73.8114619  66.5853246  55.8839187  73.9752179
  65.8865484  54.9688036  72.9922865  62.7997861  53.0029117  79.7592107
  63.2751982  53.1956764  78.9510958  61.8763426  53.0588303  79.5135490
  57.3778077  45.0376961  78.7247941  57.8960021  45.7737988  78.3994429
  57.0233210  45.3440954  79.5594700  57.6290671  41.4577244  74.2448837
  57.9092425  40.7900433  74.8709264  58.4141278  41.6506339  73.7323501
  61.4999530  49.8794878  77.9920412  62.4516953  49.9792975  78.0132636
  61.3302980  49.0873146  78.5018497  59.5213909  46.9650461  78.1779813
  58.9263841  47.2455473  77.4826302  59.2363606  47.4544362  78.9496554
  63.9787608  53.1000997  77.1062712  63.9463928  52.1616998  77.2922396
  64.5888231  53.1785034  76.3728537  64.1282096  49.8912041  77.1520995
  63.6121145  49.1070497  76.9650924  65.0122045  49.5630757  77.3167515
  61.7892823  43.6353056  73.1116808  61.5917644  43.3268144  73.9960140
  62.3992529  44.3614695  73.2414738  69.7964157  54.1617004  76.2468749
  70.5267546  53.9002292  76.8076452  69.1871103  53.4245726  76.2870817
  67.8779455  52.3024867  76.8443200  67.1512618  52.1680832  76.2359691
  67.4626741  52.6101695  77.6499918  53.5699569  49.5049037  86.6416103
  53.4696296  50.4543394  86.5728194  53.3521111  49.1767276  85.7692173
  60.9245277  45.6262488  70.3692003  60.3443946  46.2847292  69.9870056
  60.6581209  44.8039833  69.9579421  63.0584691  47.8109100  73.1402691
  63.8345081  48.3005552  73.4127308  62.3332825  48.2367154  73.5974560
  65.4957249  48.5236719  74.1976632  66.0901740  48.2832455  73.4869940
  65.5683833  47.8043849  74.8250168  67.8028322  51.8302920  72.9720053
  67.2427880  51.8996109  73.7451615  67.1971826  51.6543904  72.2519549
  57.7291865  56.7970808  86.2604734  58.5983025  56.9711460  85.8991369
  57.2498616  57.6165225  86.1380463  57.5394203  40.5872781  70.7682426
  56.7726598  40.0331268  70.9139109  57.9504908  40.6594650  71.6296578
  49.5435964  46.8757577  84.8587607  50.4067425  46.5194382  85.0690932
  48.9701374  46.5371472  85.5463012  62.1017465  60.2838294  85.8517579
  61.7084410  59.7304492  86.5265223  62.9183605  60.5948872  86.2424096
  65.0185426  61.6996173  83.4437836  65.7595139  62.3003326  83.3642298
  65.2503348  60.9573811  82.8855878  60.1626764  66.8852540  81.7216065
  60.0480279  65.9837798  82.0223164  59.3071281  67.1316237  81.3700882
  66.8436882  61.4820067  80.6685132  66.1964797  62.1810016  80.5749608
  67.6137898  61.9156210  81.0361380  62.6850042  64.8285906  80.7201227
  62.1487399  64.3776644  81.3722824  62.0966751  64.9631815  79.9771692
  60.5713180  62.0016851  79.1449208  60.6354506  62.8631682  78.7326605
  60.5080300  61.3890852  78.4121566  63.1551556  61.2926836  80.9808797
  63.6785957  61.5389132  81.7435106  62.9363889  62.1246870  80.5611934
  65.0120572  59.3189843  77.1185791  65.8346642  58.8450321  76.9964681
  65.2558636  60.0980327  77.6184477  63.2833509  63.3957889  84.4536162
  63.3321665  64.2720012  84.0713931  63.8256024  62.8535282  83.8807805
  73.7688355  73.9399013  83.7337299  72.9783899  73.9223151  83.1941798
  73.5321710  74.4787306  84.4886335  73.8886230  70.7891479  81.0470027
  73.9384235  70.6241486  81.9885550  73.7800154  69.9218738  80.6567908
  75.3904427  73.2088420  81.2912049  75.0989235  73.5718401  82.1275510
  74.7776558  72.4955429  81.1125381  64.4093323  64.8340954  86.6416103
  64.3090050  65.7835311  86.5728194  64.1914865  64.5059193  85.7692173
  60.3829718  62.2049495  84.8587607  61.2461180  61.8486300  85.0690932
  59.8095129  61.8663390  85.5463012  80.2278095  83.8351351  75.6650008
  80.8656505  83.7158099  74.9613348  80.1098938  84.7832195  75.7237961
  77.0367801  83.7878779  75.6011533  76.6986313  83.6719844  74.7132068
  77.9057570  83.3869945  75.5812539  77.5187584  84.9413631  81.5597739
  77.5076225  84.5466429  80.6878242  77.6808224  84.2079704  82.1531510
  78.4754176  89.3085224  66.9022889  77.8242156  89.8939304  66.5156903
  79.2698539  89.8391418  66.9617926  74.2394846  87.7250743  80.5076923
  73.9484712  88.6296374  80.3923589  74.8751830  87.7667271  81.2220992
  75.1651052  85.1027591  77.0978282  75.7614625  84.8783614  76.3835245
  75.2226024  84.3612337  77.7003730  79.7819364  81.5602805  72.7403216
  80.5682453  81.1422228  72.3893633  80.0458068  82.4648897  72.9084865
  79.9529441  86.9975655  67.4391873  79.3175274  87.0710282  68.1512778
  79.6226847  87.5869254  66.7610953  85.1827791  81.4978038  73.6436195
  85.9152963  80.9277255  73.8774024  84.4267146  81.1099639  74.0842701
  82.7053211  75.2099612  78.1030804  82.3736536  76.0795023  77.8792019
  82.1098825  74.8935896  78.7824834  79.1984731  87.4112158  77.5026716
  78.8985454  88.3137197  77.3942524  78.8535790  87.1444342  78.3547869
  82.5981874  79.9294699  75.1824154  81.6898752  79.8610107  74.8882915
  82.5469470  80.4066644  76.0105979  74.1805510  94.1756479  70.4697684
  74.1029540  95.1264304  70.5486165  73.5767154  93.8302351  71.1272610
  76.6722740  81.3484344  83.1259051  75.8956074  81.9078264  83.1161916
  77.3113303  81.8341127  83.6473921  84.4643521  78.1311137  76.9602028
  83.8217901  78.4243670  76.3141822  83.9598449  78.0164057  77.7655224
  82.1183685  81.8774310  67.6487887  83.0301541  82.1101697  67.4735584
  81.6093332  82.4611354  67.0862965  74.9269113  84.1569798  82.6877018
  75.6683797  84.6954842  82.4111842  74.2206098  84.7836086  82.8448570
  80.4024452  86.2998938  81.2849179  80.8107808  85.8581349  80.5403812
  79.6801714  85.7251566  81.5383372  76.7555522  81.2371545  78.6582736
  77.6016717  81.6610958  78.8017385  76.6954160  80.5805169  79.3521299
  80.7253267  86.8600129  75.0401468  80.0962129  87.0245843  74.3377536
  80.3378929  87.2741738  75.8112432  84.6042499  87.7954567  72.3945832
  83.9193537  88.1753468  71.8442865  84.6886348  88.4049893  73.1277780
  79.9054968  78.8975913  80.3163910  79.6615899  79.6517974  79.7798186
  80.1814898  79.2761261  81.1511157  81.8593430  85.4414526  78.9941176
  82.0710326  86.0846285  78.3175557  81.8123179  84.6076842  78.5263106
  73.6630476  81.3109446  83.4892328  73.0329137  81.9925727  83.7227725
  73.5566564  81.1992527  82.5445466  82.9739258  88.3186481  77.1663533
  83.7956702  87.9166668  76.8846215  82.9701661  88.2154715  78.1179649
  76.7395862  87.8670524  79.3224243  76.8040294  88.3290932  80.1582415
  76.0306786  87.2367889  79.4506553  91.0645251  84.6625229  73.5148504
  90.3108960  84.0932628  73.3592509  91.1992793  84.6287894  74.4619139
  76.4543879  89.5338632  69.1903224  76.3189554  90.3790167  69.6188072
  76.9953692  89.7357909  68.4269158  72.9411219  75.6130212  85.8517579
  72.5478165  75.0596410  86.5265223  73.7577359  75.9240790  86.2424096
  75.8579180  77.0288091  83.4437836  76.5988893  77.6295244  83.3642298
  76.0897103  76.2865728  82.8855878  78.0812356  90.1562198  83.3203566
  77.6376210  89.3698577  83.0024470  78.7429569  90.3441349  82.6547457
  72.8399477  91.6858000  77.8464244  73.3906902  91.5575063  77.0741238
  72.0010953  91.9852889  77.4959137  80.1793594  90.4364998  81.3484967
  80.1612069  91.2573879  80.8565236  81.1013514  90.3119073  81.5735108
  76.6366648  87.9509128  82.1908475  77.1694985  87.1897416  81.9607783
  76.1080729  87.6582779  82.9332630  79.7686626  83.0477805  66.2274552
  79.2533249  83.8182409  66.4662940  79.4963934  82.3742941  66.8507614
  77.3533737  77.8927506  71.2859791  76.4975333  77.5034356  71.1065429
  77.7660688  77.9719466  70.4259576  84.7420900  85.8010159  68.1627726
  83.9650343  85.4621319  67.7182888  85.4212381  85.8062783  67.4882691
  79.5572929  80.9204897  68.0534333  79.2523064  81.2351046  68.9044477
  80.5103371  80.9986317  68.0961666  82.9812207  85.2744141  74.8194334
  82.3235881  85.9643402  74.9074462  83.7852606  85.6640573  75.1628320
  81.7917666  83.6288513  72.8698276  82.3049547  84.2618505  73.3719985
  82.4418889  83.0289709  72.5041636  79.0540040  93.6072838  65.6258947
  78.3801739  93.9104534  66.2343904  79.4405862  94.4101918  65.2764404
  78.2698496  81.1037969  75.1156616  77.3521058  81.3252916  74.9578304
  78.6858640  81.1784279  74.2568323  79.0533544  82.5029385  70.2459296
  79.8005363  83.0150782  69.9366418  79.3225134  82.1813437  71.1063690
  82.5579462  88.6094515  70.9977418  82.1041789  87.7685425  71.0542609
  81.9273428  89.2455913  71.3352198  81.5012381  79.5386501  72.2278086
  80.7635138  79.0263887  72.5588328  81.7539155  79.0986882  71.4161362
  81.0012401  90.4471011  71.9327236  81.2935375  91.0076069  71.2139602
  81.5111022  90.7399572  72.6880395  77.0236282  86.5396669  64.5674329
  76.5855712  85.8232528  64.1079967  77.7646723  86.7672784  64.0059421
  75.9646026  91.2251363  73.0220689  75.9222205  91.4512209  72.0929222
  76.8808725  90.9914737  73.1706491  79.4111660  81.6935430  79.9201319
  79.7661048  81.9206903  80.7795784  80.0583791  82.0253807  79.2978574
  85.1409397  84.8153866  70.6250648  85.0027295  85.0055462  69.6971837
  84.7845616  85.5773249  71.0818699  85.1678777  86.8830393  75.6361919
  85.6015283  86.7905682  76.4844973  85.8810357  86.8587893  74.9981935
  78.9006671  90.4832487  77.1695020  78.9543694  91.0523423  77.9372736
  78.0321453  90.6534372  76.8049057  86.0294326  86.9254094  78.1694805
  86.2230216  87.8299904  78.4154080  85.9294944  86.4661513  79.0033390
  77.6830637  76.8111984  80.6685132  77.0358552  77.5101934  80.5749608
  78.4531652  77.2448128  81.0361380  81.0909435  87.0760836  83.7435685
  80.9394941  86.8471388  82.8265769  81.0814114  88.0331438  83.7567030
  77.8594771  84.6492749  78.7281952  78.7886831  84.8003909  78.5550919
  77.4385801  84.7376770  77.8730598  76.6583103  88.6743414  76.4980489
  76.5194189  88.3062198  77.3706427  75.8697699  89.1891053  76.3264447
  77.2531255  93.7752510  67.8406026  77.4283011  93.3040553  68.6551649
  76.5664043  94.4018276  68.0687287  78.2088318  88.0525016  73.8869327
  77.8738151  88.0125786  74.7826977  77.7092264  87.3869732  73.4139737
  81.1447510  85.3981051  64.1606387  80.5276680  84.6727879  64.0639439
  80.6763998  86.1590411  63.8173461  74.8114863  83.1712606  78.9005588
  75.5214481  82.5305798  78.8592206  74.7684171  83.4225500  79.8231769
  82.8001641  90.1079959  81.8212167  82.7414188  89.4239179  81.1542750
  83.2021160  90.8498949  81.3692793  71.8192340  96.9241873  74.6145886
  72.0588938  97.5560397  75.2924905  70.9761537  96.5729913  74.9011245
  82.8019049  88.0719543  80.0526147  81.9145827  87.7345465  80.1752546
  83.3717600  87.3402574  80.2894912  76.3320202  92.7320995  77.0187390
  76.2590374  93.5375967  77.5306695  75.8897595  92.9312961  76.1935411
  76.1209982  91.9692765  70.5290212  75.3377504  92.5114445  70.6228436
  76.8202727  92.4866745  70.9284453  87.2836389  83.4827760  74.8142708
  87.2726265  84.3652476  74.4436642  86.4153769  83.1299311  74.6197245
  78.7918886  92.6307829  79.1745549  79.5046858  93.2655294  79.1021450
  78.3008914  92.7271695  78.3585550  80.5136412  86.5359082  70.7462840
  79.5792691  86.6560544  70.5767545  80.6913081  85.6331549  70.4822850
  83.9008964  82.3776401  71.2812874  84.3669416  83.2104393  71.2073177
  84.3516464  81.9121383  71.9858133  73.8430799  90.3802273  79.9951119
  74.5440259  91.0138756  80.1480514  73.3725914  90.7217004  79.2346759
  81.9685195  88.7220223  68.2799026  82.2445039  88.6076817  69.1892901
  81.0989694  88.3237707  68.2411200  81.6432085  82.9346880  77.8203670
  80.9903535  83.1822788  77.1656123  82.0212465  82.1211018  77.4866147
  78.6039259  92.9706573  71.9231840  78.7861653  92.1528229  72.3859592
  79.4272245  93.1874266  71.4856730  78.9381424  91.8974758  69.1846889
  79.4669191  91.3867213  68.5717051  79.2009644  91.5817289  70.0492422
  77.6919658  83.6766691  84.3069707  77.0160295  83.5760821  84.9772082
  78.5147292  83.5205905  84.7705704  72.2937172  92.9489875  71.9444665
  71.6247548  93.4336003  71.4608705  72.1550042  93.1959096  72.8588043
  76.4342441  94.9833619  78.5427323  76.9860749  95.1465240  79.3076408
  76.7748634  95.5738057  77.8707348  81.2853315  89.8094876  84.3975977
  81.8293219  90.4224834  83.9030932  80.7040160  90.3674455  84.9142990
  79.5710828  92.9315594  75.5291005  79.4461968  92.1305334  75.0201951
  80.2289919  93.4261788  75.0404975  81.6345737  90.7324614  77.1570555
  80.6876072  90.6129965  77.0848882  81.9828510  89.8447112  77.2396817
  73.9945310  76.6218753  80.9808797  74.5179712  76.8681050  81.7435106
  73.7757643  77.4538788  80.5611934  78.6392170  90.5277331  73.3574907
  78.4917132  89.5994038  73.5382477  79.4645663  90.5497421  72.8731983
  82.2426292  91.3505889  74.4439780  83.1672839  91.1448751  74.3064231
  82.0741595  91.1022290  75.3529122  75.1997855  77.5632448  78.6658468
  74.8594675  76.7640261  79.0679147  74.4936861  77.8634159  78.0935301
  78.6353684  78.3815168  68.3507025  78.8517299  79.2639806  68.0495853
  78.1547751  77.9901382  67.6212667  75.2349289  78.3303429  74.9758659
  75.2210857  77.4344523  74.6390957  75.9521717  78.3374093  75.6096945
  77.0875419  78.7640770  77.0211786  76.8293197  79.6857840  77.0196117
  76.5560460  78.3671204  77.7112250  82.0321608  91.8691557  69.8001872
  82.2058486  91.3037979  69.0475724  82.5250499  92.6692452  69.6181362
  87.8860999  84.6327980  71.4192171  88.3292145  83.8835305  71.0211295
  87.0087509  84.6238116  71.0365903  83.0196780  91.1858321  66.8998770
  83.7147685  91.8065014  67.1186085  83.3619931  90.3353672  67.1751148
  84.9188204  88.6358027  68.4286101  85.4439528  88.9745299  67.7035421
  84.8310556  87.7005042  68.2449235  76.5808252  92.5492100  80.5575977
  76.8895379  92.3041247  81.4298677  77.3783734  92.7538739  80.0694847
  76.6028864  94.7030010  72.7881354  76.1633855  94.2106389  73.4814211
  77.3536981  94.1602978  72.5473429  74.0502736  90.2468019  74.8603655
  73.4282746  89.5838724  74.5605883  74.7207603  90.2729151  74.1777303
  74.1227264  78.7249807  84.4536162  74.1715419  79.6011930  84.0713931
  74.6649778  78.1827200  83.8807805  84.6082110  89.2690930  83.7337299
  83.8177653  89.2515069  83.1941798  84.3715464  89.8079224  84.4886335
  84.7279985  86.1183397  81.0470027  84.7777990  85.9533404  81.9885550
  84.6193908  85.2510656  80.6567908  82.0183747  82.1014325  82.3629334
  82.9193610  81.9620790  82.0713332  82.0931722  82.2668780  83.3027511
  76.3526552  79.4781179  81.2082520  75.4829862  79.7714745  80.9365109
  76.5886033  80.0621624  81.9289784  86.2298182  88.5380338  81.2912049
  85.9382990  88.9010319  82.1275510  85.6170313  87.8247346  81.1125381
  87.4293864  86.1033218  73.8114619  88.2640755  86.5423022  73.9752179
  87.5652993  85.6271871  72.9922865  84.4785370  83.6612953  79.7592107
  84.9539491  83.8540599  78.9510958  83.5550935  83.7172139  79.5135490
  79.0565586  75.6960796  78.7247941  79.5747530  76.4321823  78.3994429
  78.7020719  76.0024790  79.5594700  77.1111649  91.2920073  65.8073863
  76.5385616  91.9110260  65.3544335  77.6844443  91.8419434  66.3413785
  83.1787039  80.5378713  77.9920412  84.1304462  80.6376811  78.0132636
  83.0090489  79.7456981  78.5018497  81.2001418  77.6234296  78.1779813
  80.6051350  77.9039309  77.4826302  80.9151115  78.1128197  78.9496554
  80.3308909  91.5757223  66.9382446  81.2639582  91.5102785  67.1415321
  80.2432122  92.4113490  66.4796978  82.9596925  90.8923093  63.8986393
  82.8810557  90.5582957  64.7922151  83.7806592  91.3844861  63.8977866
  85.6575117  83.7584833  77.1062712  85.6251437  82.8200833  77.2922396
  86.2675740  83.8368869  76.3728537  85.8069605  80.5495876  77.1520995
  85.2908654  79.7654333  76.9650924  86.6909554  80.2214593  77.3167515
  83.4680332  74.2936892  73.1116808  83.2705153  73.9851980  73.9960140
  84.0780038  75.0198530  73.2414738  91.4751666  84.8200839  76.2468749
  92.2055055  84.5586128  76.8076452  90.8658612  84.0829561  76.2870817
  89.5566964  82.9608702  76.8443200  88.8300127  82.8264667  76.2359691
  89.1414250  83.2685531  77.6499918  77.3797140  86.6798632  84.6090573
  78.3000149  86.8577231  84.8030619  77.3446723  85.7354677  84.4570272
  77.2963430  75.0967752  69.2389042  76.4864159  74.7514837  69.6144289
  77.9847847  74.7875295  69.8276654  75.2487078  80.1632872  86.6416103
  75.1483805  81.1127229  86.5728194  75.0308620  79.8351111  85.7692173
  82.6032786  76.2846324  70.3692003  82.0231455  76.9431128  69.9870056
  82.3368718  75.4623668  69.9579421  75.1118348  83.5930011  85.4581165
  74.6285430  84.3930371  85.6645054  75.1979287  83.6037956  84.5048609
  81.3857664  78.4446414  69.4248352  80.4983519  78.7296065  69.2068546
  81.8011653  78.2840177  68.5775629  84.7372200  78.4692935  73.1402691
  85.5132590  78.9589387  73.4127308  84.0120334  78.8950989  73.5974560
  87.1744758  79.1820554  74.1976632  87.7689249  78.9416290  73.4869940
  87.2471342  78.4627685  74.8250168  69.3941914  93.0254165  74.5119796
  69.2596382  92.2654566  73.9457794  68.9773976  93.7495065  74.0448585
  80.5300877  88.2091089  63.5196372  81.2336727  88.4141091  64.1354027
  79.8063526  88.7767851  63.7845455  81.3598687  83.9600950  69.6398642
  81.3033889  84.4169501  68.8006274  81.9127030  83.1991635  69.4621485
  85.1703493  79.7490682  70.4648761  84.9140428  79.3487317  71.2956969
  84.5456361  80.4634476  70.3398900  89.4815831  82.4886755  72.9720053
  88.9215389  82.5579944  73.7451615  88.8759335  82.3127740  72.2519549
  72.5511040  93.9223482  74.7238239  72.4343424  94.8668915  74.6216929
  71.7303486  93.6197044  75.1124038  82.4387575  88.6473618  65.5694832
  83.2733179  88.2154816  65.3872306  82.2771917  88.4755632  66.4971726
  82.0933467  85.1505731  66.9351171  82.0382271  84.9850003  65.9939615
  81.4679522  85.8581764  67.0913361  79.4079374  87.4554643  86.2604734
  80.2770534  87.6295295  85.8991369  78.9286125  88.2749060  86.1380463
  73.5765554  94.5751744  77.9394167  74.4792801  94.6075354  78.2560662
  73.3502924  93.6452195  77.9540503  75.3319156  93.3282731  74.6004246
  74.3814787  93.3284592  74.4868618  75.6351642  92.5815465  74.0840281
  91.0671850  99.1643269  75.6650008  91.7050260  99.0450016  74.9613348
  90.9492693 100.1124113  75.7237961  87.8761556  99.1170697  75.6011533
  87.5380067  99.0011762  74.7132068  88.7451324  98.7161862  75.5812539
  83.7348372 100.9706174  71.5908424  83.1713237 100.8796110  70.8224712
  83.6200767 100.1506078  72.0710917  88.3581339 100.2705549  81.5597739
  88.3469980  99.8758347  80.6878242  88.5201978  99.5371621  82.1531510
  81.2812804 102.4657365  74.4292645  82.0734095 102.1248190  74.0138944
  81.5209454 102.5752340  75.3494798  89.3147930 104.6377141  66.9022889
  88.6635910 105.2231222  66.5156903  90.1092293 105.1683336  66.9617926
  83.2403558 101.7266278  67.3010023  84.0134434 101.1795265  67.1622899
  83.5928956 102.5910528  67.5124485  85.0788600 103.0542661  80.5076923
  84.7878466 103.9588291  80.3923589  85.7145584 103.0959188  81.2220992
  86.0044807 100.4319509  77.0978282  86.6008379 100.2075532  76.3835245
  86.0619778  99.6904255  77.7003730  85.5769835  97.8858944  64.9328473
  85.8295356  97.3640466  64.1711936  84.6394394  97.7225090  65.0355157
  90.6213118  96.8894723  72.7403216  91.4076207  96.4714146  72.3893633
  90.8851822  97.7940815  72.9084865  90.7923195 102.3267573  67.4391873
  90.1569028 102.4002200  68.1512778  90.4620602 102.9161172  66.7610953
  96.0221545  96.8269956  73.6436195  96.7546717  96.2569173  73.8774024
  95.2660901  96.4391556  74.0842701  85.2966124  99.7887050  67.1352848
  85.1802382  99.1131954  67.8033932  85.4068384  99.3019424  66.3185001
  87.6397665  99.2497198  70.8399537  87.2755872  98.7227819  71.5512459
  88.4964781  98.8595667  70.6666023  93.5446966  90.5391530  78.1030804
  93.2130290  91.4086941  77.8792019  92.9492579  90.2227814  78.7824834
  87.2803152  94.2787097  65.8360886  87.4477554  95.1467334  66.2031357
  87.0900321  94.4414379  64.9122175  90.0378485 102.7404076  77.5026716
  89.7379208 103.6429115  77.3942524  89.6929545 102.4736259  78.3547869
  83.4890967  99.1917873  73.5363421  82.5641463  99.0594087  73.7441112
  83.7375380  99.9712092  74.0333363  93.4375629  95.2586616  75.1824154
  92.5292506  95.1902025  74.8882915  93.3863225  95.7358561  76.0105979
  87.2592373  96.7344755  66.8207553  87.1391998  97.1801805  67.6593033
  86.5644961  97.0830072  66.2621091  80.8499778  98.8351147  74.3707210
  80.9792159  99.0885625  75.2846622  80.1697229  99.4278855  74.0511865
  85.0199265 109.5048396  70.4697684  84.9423295 110.4556222  70.5486165
  84.4160909 109.1594269  71.1272610  87.5116495  96.6776262  83.1259051
  86.7349829  97.2370182  83.1161916  88.1507058  97.1633045  83.6473921
  95.3037275  93.4603055  76.9602028  94.6611656  93.7535588  76.3141822
  94.7992204  93.3455975  77.7655224  92.9577439  97.2066228  67.6487887
  93.8695295  97.4393615  67.4735584  92.4487086  97.7903272  67.0862965
  85.7662867  99.4861715  82.6877018  86.5077551 100.0246759  82.4111842
  85.0599853 100.1128004  82.8448570  91.2418207 101.6290856  81.2849179
  91.6501563 101.1873266  80.5403812  90.5195468 101.0543483  81.5383372
  87.5949277  96.5663462  78.6582736  88.4410472  96.9902876  78.8017385
  87.5347914  95.9097087  79.3521299  91.5647021 102.1892046  75.0401468
  90.9355884 102.3537760  74.3377536  91.1772683 102.6033656  75.8112432
  95.4436253 103.1246484  72.3945832  94.7587291 103.5045386  71.8442865
  95.5280103 103.7341811  73.1277780  90.7448722  94.2267831  80.3163910
  90.5009654  94.9809891  79.7798186  91.0208653  94.6053178  81.1511157
  92.6987185 100.7706443  78.9941176  92.9104080 101.4138203  78.3175557
  92.6516933  99.9368760  78.5263106  90.3013414  93.3824264  75.8977748
  89.4397893  93.6805517  76.1894485  90.3275848  93.5994663  74.9658780
  87.1174983 101.9266454  72.3051553  87.5813329 102.2054157  71.5156176
  86.8531781 101.0249899  72.1224644  84.0099064 101.4737936  75.2431317
  84.5800421 101.9025204  74.6048801  84.6007176 101.1920521  75.9415502
  86.0543869  98.0489607  69.1141119  86.7567913  98.5010650  69.5815045
  85.7224498  97.4073426  69.7421012  84.5024231  96.6401363  83.4892328
  83.8722891  97.3217644  83.7227725  84.3960319  96.5284445  82.5445466
  79.7969203  96.3073159  74.4158252  79.0068257  96.5630688  73.9398363
  80.2880451  97.1221497  74.5210293  93.8133013 103.6478399  77.1663533
  94.6350456 103.2458586  76.8846215  93.8095416 103.5446633  78.1179649
  81.7483949  96.6717739  71.3741729  80.9515112  96.7836433  71.8925224
  81.5209541  97.0104391  70.5082619  87.5789616 103.1962442  79.3224243
  87.6434049 103.6582849  80.1582415  86.8700540 102.5659807  79.4506553
  78.0806906  96.5603650  76.8473243  78.3314945  97.4450660  77.1130819
  78.6166455  96.3808251  76.0748335 101.9039006  99.9917147  73.5148504
 101.1502714  99.4224545  73.3592509 102.0386547  99.9579812  74.4619139
  87.2937634 104.8630549  69.1903224  87.1583309 105.7082085  69.6188072
  87.8347446 105.0649827  68.4269158  83.7804974  90.9422129  85.8517579
  83.3871919  90.3888328  86.5265223  84.5971114  91.2532708  86.2424096
  80.7467031 102.3805987  69.7631149  81.2591552 103.1749238  69.9136713
  81.3989744 101.6832278  69.6964750  82.5561916 105.4971744  71.8453902
  82.7328544 106.4189708  71.6574886  83.3518749 105.1830163  72.2748282
  86.6972935  92.3580008  83.4437836  87.4382648  92.9587162  83.3642298
  86.9290857  91.6157646  82.8855878  81.8414273  97.5436376  81.7216065
  81.7267788  96.6421633  82.0223164  80.9858790  97.7900072  81.3700882
  88.9206110 105.4854116  83.3203566  88.4769964 104.6990495  83.0024470
  89.5823324 105.6733266  82.6547457  83.6793231 107.0149918  77.8464244
  84.2300657 106.8866981  77.0741238  82.8404707 107.3144807  77.4959137
  91.0187348 105.7656916  81.3484967  91.0005824 106.5865797  80.8565236
  91.9407268 105.6410991  81.5735108  87.4760402 103.2801045  82.1908475
  88.0088739 102.5189334  81.9607783  86.9474484 102.9874697  82.9332630
  90.6430097  88.3861111  77.7202117  90.2994367  89.2762753  77.6441228
  91.0109060  88.1962769  76.8571702  78.7115948 100.7094642  70.5390719
  79.5491170 101.1191650  70.3224427  78.8894216  99.7694084  70.5090913
  90.6080380  98.3769722  66.2274552  90.0927004  99.1474327  66.4662940
  90.3357689  97.7034859  66.8507614  88.1927491  93.2219423  71.2859791
  87.3369088  92.8326274  71.1065429  88.6054443  93.3011384  70.4259576
  89.7226638  90.7565766  75.6851350  89.2191433  90.7195902  74.8719156
  90.0157245  91.6658509  75.7448007  85.9669524  90.8404496  74.6917532
  86.8322520  90.6447305  74.3323422  86.0347033  90.6114848  75.6186889
  95.5814654 101.1302077  68.1627726  94.8044097 100.7913237  67.7182888
  96.2606135 101.1354700  67.4882691  90.3966683  96.2496815  68.0534333
  90.0916819  96.5642964  68.9044477  91.3497125  96.3278234  68.0961666
  88.8413115 102.4087038  69.7027287  88.3134477 101.6739797  69.3900525
  88.3400618 103.1861714  69.4567256  93.8205961 100.6036058  74.8194334
  93.1629636 101.2935320  74.9074462  94.6246360 100.9932490  75.1628320
  83.5731843  93.0706704  72.0633899  84.1475595  92.8481886  71.3307092
  84.1602825  93.1395399  72.8162500  92.6311420  98.9580431  72.8698276
  93.1443302  99.5910423  73.3719985  93.2812644  98.3581627  72.5041636
  83.9001430  95.1011165  66.0829784  83.0638742  95.4385852  66.4039059
  83.7606200  94.9660145  65.1456921  85.8754511  89.9447953  70.7908968
  85.2218923  89.6296970  70.1665583  85.8334985  89.3223693  71.5168791
  86.9865715 100.2267248  62.7062260  86.0792777  99.9956502  62.9053409
  87.4836747  99.4304867  62.8936242  89.8933794 108.9364755  65.6258947
  89.2195493 109.2396452  66.2343904  90.2799616 109.7393836  65.2764404
  89.1092251  96.4329887  75.1156616  88.1914812  96.6544834  74.9578304
  89.5252394  96.5076197  74.2568323  89.8927299  97.8321302  70.2459296
  90.6399118  98.3442699  69.9366418  90.1618888  97.5105355  71.1063690
  88.1653949 100.3279843  67.2286251  87.2565168 100.0438876  67.3258720
  88.1949033 100.7478922  66.3689557  93.3973216 103.9386432  70.9977418
  92.9435543 103.0977342  71.0542609  92.7667183 104.5747831  71.3352198
  92.3406136  94.8678419  72.2278086  91.6028893  94.3555805  72.5588328
  92.5932909  94.4278800  71.4161362  91.8406155 105.7762929  71.9327236
  92.1329130 106.3367986  71.2139602  92.3504776 106.0691490  72.6880395
  92.4417763  87.6454671  72.8219855  92.7476640  86.7852034  72.5345770
  93.1670368  88.2372291  72.6218849  78.7342119  98.0485357  71.2101453
  78.5366519  97.4554718  70.4852519  78.1788783  97.7437567  71.9277392
  86.7138843  97.9408464  73.3296046  86.7687453  96.9882300  73.2538523
  85.9030045  98.0967903  73.8137344  87.8630037 101.8688587  64.5674329
  87.4249467 101.1524446  64.1079967  88.6040477 102.0964701  64.0059421
  84.6531203  96.5585523  71.0886425  83.8399068  96.8579694  71.4951617
  85.1490197  96.1641212  71.8060907  86.8039781 106.5543280  73.0220689
  86.7615959 106.7804127  72.0929222  87.7202480 106.3206655  73.1706491
  90.2505414  97.0227348  79.9201319  90.6054802  97.2498821  80.7795784
  90.8977546  97.3545725  79.2978574  95.9803151 100.1445784  70.6250648
  95.8421050 100.3347380  69.6971837  95.6239370 100.9065166  71.0818699
  84.1445278  94.1303879  76.7047660  84.7844657  93.9892638  76.0070623
  83.3122808  93.8438392  76.3286262  96.0072531 102.2122311  75.6361919
  96.4409038 102.1197600  76.4844973  96.7204112 102.1879811  74.9981935
  84.9205581 103.4306309  72.8182652  85.7146180 102.9356629  72.6165227
  84.2097274 102.9024172  72.4550358  89.7400426 105.8124405  77.1695020
  89.7937448 106.3815341  77.9372736  88.8715207 105.9826290  76.8049057
  81.2288345  97.5749391  68.8942405  80.2985933  97.5133846  69.1112367
  81.3245817  97.0525344  68.0979046  81.1473894  94.1004204  71.4820647
  81.4080711  95.0149537  71.3729807  81.9691066  93.6328646  71.6317259
  82.6198819  95.5141961  78.6519471  83.2921873  95.3059323  78.0032120
  81.7928606  95.3164047  78.2124703  96.8688081 102.2546011  78.1694805
  97.0623971 103.1591822  78.4154080  96.7688699 101.7953430  79.0033390
  88.5224391  92.1403902  80.6685132  87.8752306  92.8393852  80.5749608
  89.2925407  92.5740046  81.0361380  91.9303189 102.4052754  83.7435685
  91.7788696 102.1763306  82.8265769  91.9207869 103.3623356  83.7567030
  88.6988526  99.9784667  78.7281952  89.6280586 100.1295826  78.5550919
  88.2779556 100.0668688  77.8730598  87.4976857 104.0035331  76.4980489
  87.3587943 103.6354116  77.3706427  86.7091454 104.5182971  76.3264447
  88.0925009 109.1044428  67.8406026  88.2676765 108.6332471  68.6551649
  87.4057797 109.7310194  68.0687287  89.0482073 103.3816934  73.8869327
  88.7131905 103.3417704  74.7826977  88.5486018 102.7161650  73.4139737
  83.0226317  98.7884564  79.4121908  82.8846114  98.0564803  80.0133447
  83.9331240  98.6993464  79.1306096  91.9841264 100.7272968  64.1606387
  91.3670435 100.0019796  64.0639439  91.5157753 101.4882329  63.8173461
  85.6508617  98.5004523  78.9005588  86.3608236  97.8597715  78.8592206
  85.6077925  98.7517418  79.8231769  93.6395396 105.4371877  81.8212167
  93.5807942 104.7531097  81.1542750  94.0414914 106.1790867  81.3692793
  84.3637551  95.4869741  80.7201227  83.8274908  95.0360480  81.3722824
  83.7754260  95.6215650  79.9771692  82.6586095 112.2533790  74.6145886
  82.8982693 112.8852315  75.2924905  81.8155291 111.9021830  74.9011245
  83.7739810  94.9458393  63.2827691  82.8969276  94.8247193  62.9189938
  84.2497563  94.1544471  63.0306580  93.6412803 103.4011461  80.0526147
  92.7539582 103.0637382  80.1752546  94.2111354 102.6694492  80.2894912
  75.2941950  99.7335552  73.3769198  75.9812990  99.4197282  72.7890213
  75.1390079 100.6376917  73.1036450  80.0976672  94.6225749  77.8054222
  80.0134861  94.0151418  77.0704632  79.2759379  95.1134767  77.8063718
  87.1713957 108.0612913  77.0187390  87.0984128 108.8667884  77.5306695
  86.7291350 108.2604879  76.1935411  86.9603736 107.2984683  70.5290212
  86.1771258 107.8406363  70.6228436  87.6596481 107.8158663  70.9284453
  90.2700386  93.1079312  73.1724417  90.7669086  92.3549275  72.8525487
  89.4987368  93.1443629  72.6067626  98.1230144  98.8119678  74.8142708
  98.1120020  99.6944393  74.4436642  97.2547523  98.4591229  74.6197245
  89.6312640 107.9599747  79.1745549  90.3440612 108.5947212  79.1021450
  89.1402669 108.0563613  78.3585550  91.3530167 101.8651000  70.7462840
  90.4186446 101.9852462  70.5767545  91.5306835 100.9623466  70.4822850
  86.8535355  95.2496695  72.8996102  86.4833143  94.6967736  73.5877007
  87.3494447  94.6454829  72.3471102  94.7402718  97.7068319  71.2812874
  95.2063171  98.5396311  71.2073177  95.1910219  97.2413300  71.9858133
  84.6824554 105.7094190  79.9951119  85.3834013 106.3430673  80.1480514
  84.2119669 106.0508922  79.2346759  92.8078949 104.0512140  68.2799026
  93.0838793 103.9368735  69.1892901  91.9383448 103.6529625  68.2411200
  92.7119381  90.0748906  75.3203776  91.7982461  90.3053133  75.4885983
  93.1412483  90.1587350  76.1717808  92.4825840  98.2638798  77.8203670
  91.8297290  98.5114705  77.1656123  92.8606219  97.4502936  77.4866147
  89.4433013 108.2998491  71.9231840  89.6255408 107.4820147  72.3859592
  90.2665999 108.5166183  71.4856730  89.7775179 107.2266676  69.1846889
  90.3062945 106.7159131  68.5717051  90.0403399 106.9109206  70.0492422
  88.5313413  99.0058609  84.3069707  87.8554050  98.9052738  84.9772082
  89.3541046  98.8497823  84.7705704  80.2792272 105.2430545  76.9282222
  80.8645708 104.4974233  77.0610126  80.0817110 105.5534502  77.8118886
  83.1330927 108.2781793  71.9444665  82.4641302 108.7627920  71.4608705
  82.9943797 108.5251013  72.8588043  74.8709926  97.8136146  75.6486665
  74.9094026  97.2799736  76.4423783  74.3650219  97.2871351  75.0297642
  87.2736195 110.3125536  78.5427323  87.8254503 110.4757158  79.3076408
  87.6142389 110.9029974  77.8707348  82.2500689  92.6600686  79.1449208
  82.3142015  93.5215517  78.7326605  82.1867809  92.0474688  78.4121566
  81.7252961  94.7323819  82.7922242  82.3525000  94.3500896  83.4059766
  80.8680880  94.5138021  83.1577934  92.1247070 105.1386794  84.3975977
  92.6686974 105.7516752  83.9030932  91.5433915 105.6966372  84.9142990
  78.5018504  96.5400248  68.7240597  78.7971945  95.6310926  68.6707650
  77.6006540  96.5187987  68.4021599  90.4104583 108.2607512  75.5291005
  90.2855722 107.4597252  75.0201951  91.0683674 108.7553705  75.0404975
  82.0312751  94.6156244  74.7068145  81.3099337  95.2292212  74.5675619
  82.8206007  95.1514009  74.6284791  92.4739491 106.0616532  77.1570555
  91.5269827 105.9421883  77.0848882  92.8222264 105.1739030  77.2396817
  84.8339064  91.9510671  80.9808797  85.3573466  92.1972967  81.7435106
  84.6151398  92.7830706  80.5611934  80.2306346  94.2214345  68.8479922
  79.9019052  93.3411724  68.6655028  80.5845716  94.1662014  69.7356311
  89.4785924 105.8569248  73.3574907  89.3310887 104.9285956  73.5382477
  90.3039418 105.8789339  72.8731983  83.3448169  94.5087315  69.2155400
  83.6844241  95.0373237  68.4934008  83.7920289  94.8467721  69.9913966
  93.0820046 106.6797807  74.4439780  94.0066594 106.4740668  74.3064231
  92.9135350 106.4314208  75.3529122  86.0391610  92.8924366  78.6658468
  85.6988430  92.0932179  79.0679147  85.3330616  93.1926077  78.0935301
  86.6908081  89.9773678  77.1185791  87.5134151  89.5034157  76.9964681
  86.9346145  90.7564162  77.6184477  85.3316316  93.0061937  67.4148692
  86.0524678  93.3843190  66.9112409  84.7081620  93.7250814  67.5183670
  89.4747439  93.7107086  68.3507025  89.6911053  94.5931724  68.0495853
  88.9941506  93.3193299  67.6212667  84.2146660  96.6692799  74.9277769
  84.0691241  96.9833102  75.8202051  83.7371864  97.2877699  74.3748668
  86.0743043  93.6595347  74.9758659  86.0604612  92.7636440  74.6390957
  86.7915471  93.6666011  75.6096945  87.9269174  94.0932687  77.0211786
  87.6686952  95.0149758  77.0196117  87.3954214  93.6963122  77.7112250
  92.8715362 107.1983474  69.8001872  93.0452240 106.6329897  69.0475724
  93.3644254 107.9984369  69.6181362  78.6892322  99.2098143  77.8665430
  78.1445790  99.9857951  77.9985705  79.5671672  99.5568948  77.7084552
  85.4779939  92.5409727  70.2446229  85.5995850  91.6126374  70.4437116
  85.1881981  92.5548413  69.3324544  88.3471129  90.2264638  73.3812949
  88.3692826  90.2903971  72.4264928  88.7639188  89.3869146  73.5753455
  98.7254754  99.9619897  71.4192171  99.1685900  99.2127223  71.0211295
  97.8481264  99.9530034  71.0365903  93.8590535 106.5150239  66.8998770
  94.5541440 107.1356931  67.1186085  94.2013685 105.6645590  67.1751148
  79.4758344  98.3368040  80.7595587  78.7340080  98.4850675  81.3460218
  79.1551088  98.5976305  79.8962337  95.7581958 103.9649944  68.4286101
  96.2833282 104.3037217  67.7035421  95.6704311 103.0296960  68.2449235
  87.4202007 107.8784018  80.5575977  87.7289133 107.6333165  81.4298677
  88.2177489 108.0830656  80.0694847  87.4422619 110.0321928  72.7881354
  87.0027609 109.5398306  73.4814211  88.1930736 109.4894895  72.5473429
  79.9214958 106.2233468  72.7905982  80.7472978 105.9237240  72.4104625
  79.5709010 105.4541091  73.2395771  84.8896491 105.5759937  74.8603655
  84.2676500 104.9130642  74.5605883  85.5601358 105.6021069  74.1777303
  78.1223563 104.1419795  73.7494915  77.2855471 103.7141969  73.5678917
  78.0947208 104.3352238  74.6865707  84.9621018  94.0541725  84.4536162
  85.0109174  94.9303848  84.0713931  85.5043533  93.5119118  83.8807805
  95.4475864 104.5982848  83.7337299  94.6571408 104.5806987  83.1941798
  95.2109219 105.1371142  84.4886335  95.5673739 101.4475314  81.0470027
  95.6171744 101.2825322  81.9885550  95.4587663 100.5802573  80.6567908
  84.4509998 104.1263860  68.3362116  84.5998118 104.8099324  67.6828789
  85.2576441 104.1068950  68.8511572  92.8577502  97.4306242  82.3629334
  93.7587364  97.2912707  82.0713332  92.9325476  97.5960697  83.3027511
  87.1920307  94.8073097  81.2082520  86.3223616  95.1006663  80.9365109
  87.4279787  95.3913542  81.9289784  97.0691936 103.8672256  81.2912049
  96.7776744 104.2302236  82.1275510  96.4564067 103.1539264  81.1125381
  98.2687618 101.4325136  73.8114619  99.1034510 101.8714940  73.9752179
  98.4046747 100.9563789  72.9922865  95.3179124  98.9904870  79.7592107
  95.7933246  99.1832517  78.9510958  94.3944690  99.0464056  79.5135490
  82.2062631 100.1529038  69.3423185  81.9608673  99.2491368  69.5403395
  82.3758545 100.1546188  68.4002663  89.8959341  91.0252714  78.7247941
  90.4141285  91.7613741  78.3994429  89.5414474  91.3316707  79.5594700
  81.4758278  95.8857395  66.8409346  80.7827523  95.9601750  66.1849382
  81.2310030  95.1217739  67.3630863  90.1471935  87.4452997  74.2448837
  90.4273689  86.7776186  74.8709264  90.9322542  87.6382092  73.7323501
  87.9505403 106.6211990  65.8073863  87.3779371 107.2402178  65.3544335
  88.5238197 107.1711352  66.3413785  94.0180793  95.8670631  77.9920412
  94.9698216  95.9668728  78.0132636  93.8484244  95.0748899  78.5018497
  92.0395173  92.9526214  78.1779813  91.4445105  93.2331226  77.4826302
  91.7544869  93.4420115  78.9496554  91.1702663 106.9049141  66.9382446
  92.1033336 106.8394702  67.1415321  91.0825876 107.7405407  66.4796978
  93.7990680 106.2215011  63.8986393  93.7204311 105.8874875  64.7922151
  94.6200347 106.7136779  63.8977866  96.4968871  99.0876750  77.1062712
  96.4645191  98.1492751  77.2922396  97.1069495  99.1660787  76.3728537
  88.3352202  97.9572803  63.1489916  89.2811307  97.8279011  63.2178334
  87.9566447  97.2187465  63.6259344  96.6463360  95.8787794  77.1520995
  96.1302408  95.0946250  76.9650924  97.5303308  95.5506510  77.3167515
  94.3074086  89.6228809  73.1116808  94.1098908  89.3143897  73.9960140
  94.9173792  90.3490448  73.2414738 102.3145421 100.1492757  76.2468749
 103.0448809  99.8878045  76.8076452 101.7052366  99.4121479  76.2870817
 100.3960718  98.2900620  76.8443200  99.6693882  98.1556585  76.2359691
  99.9808005  98.5977448  77.6499918  88.2190894 102.0090549  84.6090573
  89.1393904 102.1869148  84.8030619  88.1840477 101.0646595  84.4570272
  86.5195119  95.8822780  63.0844801  85.6126574  95.5855892  63.1607515
  86.7971100  95.5852598  62.2179087  77.4373059  97.2029143  73.5343848
  77.1175844  96.3494451  73.2418222  76.8906488  97.4177721  74.2901815
  81.2152967  99.9191584  77.2513354  81.4338977 100.8508692  77.2701388
  81.6278741  99.5599558  78.0368158  88.1357185  90.4259669  69.2389042
  87.3257913  90.0806754  69.6144289  88.8241602  90.1167213  69.8276654
  90.0647733  89.5037716  70.8613339  90.6178772  89.9233170  71.5203362
  90.3017819  88.5773464  70.9036295  86.0880832  95.4924790  86.6416103
  85.9877559  96.4419147  86.5728194  85.8702374  95.1643029  85.7692173
  85.2893904  92.7409715  63.2256780  86.1513068  93.0664613  63.4852598
  85.4744248  91.9541211  62.7129846  77.3061319 100.8232055  75.5036969
  76.6124791 100.4086007  74.9906924  78.0534310 100.8652591  74.9070388
  93.4426540  91.6138241  70.3692003  92.8625209  92.2723045  69.9870056
  93.1762473  90.7915586  69.9579421  91.8930107  91.0143299  72.5713324
  92.3929885  91.1259834  71.7627643  92.5365714  90.7104352  73.2114132
  85.9512102  98.9221929  85.4581165  85.4679184  99.7222289  85.6645054
  86.0373041  98.9329873  84.5048609  79.2198062 100.7550308  73.3802984
  79.1968750 100.8537996  72.4284867  79.5298698 101.6015459  73.7020150
  81.8785440 102.8126463  77.4949598  82.8328693 102.7810406  77.4279530
  81.6797963 102.3517087  78.3099824  82.4684822 101.3827579  80.0620396
  83.2877711 101.8771658  80.0855233  82.7421630 100.4659548  80.0337964
  92.2251418  93.7738332  69.4248352  91.3377273  94.0587982  69.2068546
  92.6405407  93.6132095  68.5775629  95.5765954  93.7984853  73.1402691
  96.3526344  94.2881305  73.4127308  94.8514088  94.2242907  73.5974560
  98.0138513  94.5112472  74.1976632  98.6083004  94.2708208  73.4869940
  98.0865097  93.7919602  74.8250168  80.2335669 108.3546083  74.5119796
  80.0990137 107.5946484  73.9457794  79.8167731 109.0786983  74.0448585
  91.3694632 103.5383006  63.5196372  92.0730482 103.7433009  64.1354027
  90.6457280 104.1059768  63.7845455  92.1992442  99.2892868  69.6398642
  92.1427643  99.7461419  68.8006274  92.7520784  98.5283552  69.4621485
  96.0097248  95.0782599  70.4648761  95.7534182  94.6779235  71.2956969
  95.3850116  95.7926393  70.3398900 100.3209586  97.8178673  72.9720053
  99.7609144  97.8871862  73.7451615  99.7153089  97.6419657  72.2519549
  83.3904795 109.2515400  74.7238239  83.2737179 110.1960832  74.6216929
  82.5697241 108.9488961  75.1124038  93.2781329 103.9765536  65.5694832
  94.1126933 103.5446734  65.3872306  93.1165672 103.8047549  66.4971726
  92.9327221 100.4797649  66.9351171  92.8776025 100.3141920  65.9939615
  92.3073277 101.1873682  67.0913361  77.7219736  95.7165713  80.7612593
  78.3678600  95.2064667  81.2499818  77.5136887  96.4534395  81.3356018
  90.2473128 102.7846561  86.2604734  91.1164288 102.9587213  85.8991369
  89.7679880 103.6040978  86.1380463  86.2423347  89.9805758  66.5136489
  86.2302017  90.9247598  66.6704760  87.1346769  89.7975903  66.2195951
  84.4159309 109.9043662  77.9394167  85.3186555 109.9367272  78.2560662
  84.1896679 108.9744113  77.9540503  86.1712911 108.6574648  74.6004246
  85.2208542 108.6576510  74.4868618  86.4745397 107.9107383  74.0840281
  90.0575466  86.5748534  70.7682426  89.2907862  86.0207021  70.9139109
  90.4686171  86.6470403  71.6296578  82.0617227  92.8633330  84.8587607
  82.9248689  92.5070135  85.0690932  81.4882638  92.5247225  85.5463012
 101.9065604 114.4935187  75.6650008 102.5444014 114.3741934  74.9613348
 101.7886447 115.4416031  75.7237961  98.7155310 114.4462615  75.6011533
  98.3773822 114.3303679  74.7132068  99.5845079 114.0453780  75.5812539
  94.5742126 116.2998091  71.5908424  94.0106991 116.2088028  70.8224712
  94.4594521 115.4797996  72.0710917  99.1975093 115.5997466  81.5597739
  99.1863734 115.2050265  80.6878242  99.3595733 114.8663539  82.1531510
  92.1206558 117.7949283  74.4292645  92.9127850 117.4540107  74.0138944
  92.3603208 117.9044258  75.3494798  94.0797312 117.0558196  67.3010023
  94.8528188 116.5087183  67.1622899  94.4322711 117.9202445  67.5124485
  95.9182355 118.3834578  80.5076923  95.6272221 119.2880209  80.3923589
  96.5539339 118.4251106  81.2220992  96.8438561 115.7611427  77.0978282
  97.4402134 115.5367449  76.3835245  96.9013533 115.0196172  77.7003730
  96.4163590 113.2150862  64.9328473  96.6689111 112.6932383  64.1711936
  95.4788149 113.0517008  65.0355157 101.4606873 112.2186641  72.7403216
 102.2469962 111.8006064  72.3893633 101.7245577 113.1232733  72.9084865
 106.8615300 112.1561874  73.6436195 107.5940472 111.5861091  73.8774024
 106.1054655 111.7683474  74.0842701  96.1359879 115.1178968  67.1352848
  96.0196137 114.4423871  67.8033932  96.2462138 114.6311342  66.3185001
  98.4791419 114.5789115  70.8399537  98.1149627 114.0519736  71.5512459
  99.3358535 114.1887584  70.6666023 104.3840720 105.8683448  78.1030804
 104.0524045 106.7378859  77.8792019 103.7886334 105.5519732  78.7824834
  98.1196906 109.6079015  65.8360886  98.2871309 110.4759251  66.2031357
  97.9294076 109.7706297  64.9122175  94.3284721 114.5209791  73.5363421
  93.4035218 114.3886005  73.7441112  94.5769134 115.3004010  74.0333363
 104.2769383 110.5878534  75.1824154 103.3686261 110.5193942  74.8882915
 104.2256979 111.0650479  76.0105979  98.0986127 112.0636672  66.8207553
  97.9785753 112.5093723  67.6593033  97.4038716 112.4121990  66.2621091
  91.6893532 114.1643064  74.3707210  91.8185913 114.4177543  75.2846622
  91.0090983 114.7570772  74.0511865  98.3510249 112.0068180  83.1259051
  97.5743583 112.5662100  83.1161916  98.9900812 112.4924963  83.6473921
 106.1431030 108.7894972  76.9602028 105.5005410 109.0827506  76.3141822
 105.6385958 108.6747893  77.7655224 103.7971194 112.5358146  67.6487887
 104.7089050 112.7685532  67.4735584 103.2880841 113.1195190  67.0862965
  96.6056622 114.8153633  82.6877018  97.3471306 115.3538677  82.4111842
  95.8993607 115.4419922  82.8448570 102.0811961 116.9582773  81.2849179
 102.4895317 116.5165184  80.5403812 101.3589223 116.3835401  81.5383372
  98.4343031 111.8955380  78.6582736  99.2804226 112.3194794  78.8017385
  98.3741669 111.2389004  79.3521299 101.5842477 109.5559749  80.3163910
 101.3403408 110.3101809  79.7798186 101.8602407 109.9345096  81.1511157
 101.1407168 108.7116182  75.8977748 100.2791647 109.0097435  76.1894485
 101.1669603 108.9286580  74.9658780  97.9568738 117.2558372  72.3051553
  98.4207083 117.5346075  71.5156176  97.6925536 116.3541817  72.1224644
  94.8492819 116.8029854  75.2431317  95.4194176 117.2317122  74.6048801
  95.4400931 116.5212438  75.9415502  96.8937624 113.3781524  69.1141119
  97.5961667 113.8302568  69.5815045  96.5618252 112.7365343  69.7421012
  95.3417985 111.9693281  83.4892328  94.7116646 112.6509562  83.7227725
  95.2354073 111.8576363  82.5445466  90.6362958 111.6365077  74.4158252
  89.8462012 111.8922606  73.9398363  91.1274205 112.4513415  74.5210293
  92.5877703 112.0009656  71.3741729  91.7908866 112.1128351  71.8925224
  92.3603295 112.3396309  70.5082619  98.4183371 118.5254360  79.3224243
  98.4827803 118.9874767  80.1582415  97.7094295 117.8951725  79.4506553
  88.9200661 111.8895568  76.8473243  89.1708699 112.7742578  77.1130819
  89.4560209 111.7100169  76.0748335  94.6198728 106.2714047  85.8517579
  94.2265674 105.7180246  86.5265223  95.4364868 106.5824625  86.2424096
  91.5860786 117.7097905  69.7631149  92.0985306 118.5041155  69.9136713
  92.2383499 117.0124196  69.6964750  93.3955670 120.8263661  71.8453902
  93.5722299 121.7481626  71.6574886  94.1912504 120.5122081  72.2748282
  97.5366689 107.6871926  83.4437836  98.2776402 108.2879079  83.3642298
  97.7684612 106.9449564  82.8855878  92.6808027 112.8728293  81.7216065
  92.5661542 111.9713551  82.0223164  91.8252545 113.1191990  81.3700882
  94.5186986 122.3441835  77.8464244  95.0694411 122.2158899  77.0741238
  93.6798462 122.6436724  77.4959137  98.3154157 118.6092963  82.1908475
  98.8482494 117.8481251  81.9607783  97.7868238 118.3166615  82.9332630
 101.4823852 103.7153029  77.7202117 101.1388121 104.6054671  77.6441228
 101.8502815 103.5254687  76.8571702  89.5509703 116.0386559  70.5390719
  90.3884925 116.4483568  70.3224427  89.7287970 115.0986002  70.5090913
 101.4474135 113.7061640  66.2274552 100.9320758 114.4766245  66.4662940
 101.1751443 113.0326776  66.8507614  99.0321246 108.5511341  71.2859791
  98.1762842 108.1618191  71.1065429  99.4448197 108.6303302  70.4259576
 100.5620392 106.0857684  75.6851350 100.0585188 106.0487819  74.8719156
 100.8550999 106.9950427  75.7448007  96.8063278 106.1696414  74.6917532
  97.6716275 105.9739223  74.3323422  96.8740787 105.9406766  75.6186889
 101.2360438 111.5788732  68.0534333 100.9310573 111.8934881  68.9044477
 102.1890880 111.6570152  68.0961666  99.6806870 117.7378956  69.7027287
  99.1528231 117.0031715  69.3900525  99.1794372 118.5153632  69.4567256
  94.4125597 108.3998622  72.0633899  94.9869349 108.1773803  71.3307092
  94.9996580 108.4687316  72.8162500 103.4705174 114.2872349  72.8698276
 103.9837056 114.9202341  73.3719985 104.1206398 113.6873544  72.5041636
  94.7395184 110.4303083  66.0829784  93.9032497 110.7677769  66.4039059
  94.5999954 110.2952063  65.1456921  96.7148265 105.2739871  70.7908968
  96.0612677 104.9588888  70.1665583  96.6728739 104.6515611  71.5168791
  97.8259470 115.5559166  62.7062260  96.9186532 115.3248419  62.9053409
  98.3230502 114.7596785  62.8936242  99.9486005 111.7621804  75.1156616
  99.0308567 111.9836751  74.9578304 100.3646149 111.8368115  74.2568323
 100.7321053 113.1613220  70.2459296 101.4792872 113.6734617  69.9366418
 101.0012643 112.8397273  71.1063690  99.0047703 115.6571761  67.2286251
  98.0958923 115.3730793  67.3258720  99.0342787 116.0770839  66.3689557
 103.1799890 110.1970336  72.2278086 102.4422647 109.6847722  72.5588328
 103.4326664 109.7570718  71.4161362 103.2811518 102.9746588  72.8219855
 103.5870394 102.1143952  72.5345770 104.0064122 103.5664208  72.6218849
  89.5735874 113.3777275  71.2101453  89.3760273 112.7846635  70.4852519
  89.0182538 113.0729485  71.9277392  97.5532597 113.2700381  73.3296046
  97.6081207 112.3174218  73.2538523  96.7423799 113.4259820  73.8137344
  98.7023791 117.1980504  64.5674329  98.2643221 116.4816363  64.1079967
  99.4434232 117.4256619  64.0059421  95.4924957 111.8877441  71.0886425
  94.6792823 112.1871612  71.4951617  95.9883951 111.4933130  71.8060907
 101.0899169 112.3519265  79.9201319 101.4448557 112.5790739  80.7795784
 101.7371300 112.6837642  79.2978574  94.9839032 109.4595797  76.7047660
  95.6238411 109.3184556  76.0070623  94.1516563 109.1730310  76.3286262
  95.7599336 118.7598227  72.8182652  96.5539934 118.2648547  72.6165227
  95.0491028 118.2316090  72.4550358  92.0682099 112.9041309  68.8942405
  91.1379687 112.8425764  69.1112367  92.1639571 112.3817261  68.0979046
  91.9867648 109.4296122  71.4820647  92.2474466 110.3441455  71.3729807
  92.8084821 108.9620564  71.6317259  93.4592574 110.8433879  78.6519471
  94.1315627 110.6351241  78.0032120  92.6322360 110.6455965  78.2124703
  99.3618146 107.4695820  80.6685132  98.7146061 108.1685769  80.5749608
 100.1319161 107.9031964  81.0361380  99.5382280 115.3076585  78.7281952
 100.4674340 115.4587744  78.5550919  99.1173310 115.3960605  77.8730598
  98.3370612 119.3327249  76.4980489  98.1981698 118.9646033  77.3706427
  97.5485208 119.8474888  76.3264447  99.8875827 118.7108852  73.8869327
  99.5525660 118.6709622  74.7826977  99.3879773 118.0453568  73.4139737
  93.8620071 114.1176482  79.4121908  93.7239869 113.3856720  80.0133447
  94.7724994 114.0285382  79.1306096 102.8235019 116.0564886  64.1606387
 102.2064189 115.3311714  64.0639439 102.3551507 116.8174246  63.8173461
  96.4902372 113.8296441  78.9005588  97.2001990 113.1889633  78.8592206
  96.4471680 114.0809336  79.8231769  95.2031306 110.8161659  80.7201227
  94.6668663 110.3652397  81.3722824  94.6148014 110.9507568  79.9771692
  94.6133565 110.2750310  63.2827691  93.7363031 110.1539111  62.9189938
  95.0891318 109.4836389  63.0306580  86.1335705 115.0627470  73.3769198
  86.8206745 114.7489200  72.7890213  85.9783833 115.9668835  73.1036450
  90.9370427 109.9517667  77.8054222  90.8528616 109.3443336  77.0704632
  90.1153133 110.4426685  77.8063718 101.1094141 108.4371230  73.1724417
 101.6062840 107.6841192  72.8525487 100.3381122 108.4735547  72.6067626
 102.1923921 117.1942917  70.7462840 101.2580200 117.3144380  70.5767545
 102.3700590 116.2915384  70.4822850  97.6929110 110.5788613  72.8996102
  97.3226897 110.0259653  73.5877007  98.1888202 109.9746747  72.3471102
 105.5796473 113.0360237  71.2812874 106.0456925 113.8688228  71.2073177
 106.0303973 112.5705218  71.9858133  95.5218308 121.0386108  79.9951119
  96.2227768 121.6722591  80.1480514  95.0513423 121.3800840  79.2346759
 103.5513136 105.4040824  75.3203776 102.6376215 105.6345050  75.4885983
 103.9806237 105.4879268  76.1717808 103.3219594 113.5930716  77.8203670
 102.6691044 113.8406623  77.1656123 103.6999974 112.7794854  77.4866147
  99.3707167 114.3350527  84.3069707  98.6947804 114.2344656  84.9772082
 100.1934801 114.1789740  84.7705704  91.1186026 120.5722463  76.9282222
  91.7039463 119.8266151  77.0610126  90.9210865 120.8826420  77.8118886
  85.7103681 113.1428063  75.6486665  85.7487780 112.6091654  76.4423783
  85.2043974 112.6163269  75.0297642  93.0894443 107.9892604  79.1449208
  93.1535770 108.8507435  78.7326605  93.0261563 107.3766606  78.4121566
  92.5646716 110.0615736  82.7922242  93.1918755 109.6792814  83.4059766
  91.7074635 109.8429938  83.1577934  89.3412258 111.8692166  68.7240597
  89.6365700 110.9602844  68.6707650  88.4400294 111.8479905  68.4021599
  92.8706505 109.9448162  74.7068145  92.1493091 110.5584130  74.5675619
  93.6599761 110.4805927  74.6284791  95.6732819 107.2802589  80.9808797
  96.1967221 107.5264885  81.7435106  95.4545152 108.1122623  80.5611934
  91.0700100 109.5506263  68.8479922  90.7412806 108.6703642  68.6655028
  91.4239471 109.4953932  69.7356311  94.1841923 109.8379233  69.2155400
  94.5237996 110.3665154  68.4934008  94.6314044 110.1759639  69.9913966
  96.8785364 108.2216284  78.6658468  96.5382184 107.4224097  79.0679147
  96.1724370 108.5217995  78.0935301  97.5301836 105.3065596  77.1185791
  98.3527905 104.8326074  76.9964681  97.7739899 106.0856080  77.6184477
  96.1710070 108.3353855  67.4148692  96.8918433 108.7135107  66.9112409
  95.5475374 109.0542731  67.5183670 100.3141193 109.0399004  68.3507025
 100.5304808 109.9223641  68.0495853  99.8335260 108.6485217  67.6212667
  95.0540415 111.9984717  74.9277769  94.9084995 112.3125020  75.8202051
  94.5765618 112.6169617  74.3748668  96.9136797 108.9887265  74.9758659
  96.8998366 108.0928358  74.6390957  97.6309226 108.9957928  75.6096945
  98.7662928 109.4224605  77.0211786  98.5080706 110.3441676  77.0196117
  98.2347969 109.0255039  77.7112250  89.5286077 114.5390061  77.8665430
  88.9839545 115.3149869  77.9985705  90.4065427 114.8860866  77.7084552
  96.3173693 107.8701645  70.2446229  96.4389605 106.9418291  70.4437116
  96.0275736 107.8840331  69.3324544  99.1864884 105.5556555  73.3812949
  99.2086581 105.6195889  72.4264928  99.6032943 104.7161064  73.5753455
  90.3152099 113.6659957  80.7595587  89.5733835 113.8142593  81.3460218
  89.9944843 113.9268223  79.8962337  90.7608712 121.5525386  72.7905982
  91.5866732 121.2529158  72.4104625  90.4102764 120.7833009  73.2395771
  95.7290245 120.9051854  74.8603655  95.1070255 120.2422559  74.5605883
  96.3995112 120.9312986  74.1777303  88.9617317 119.4711713  73.7494915
  88.1249226 119.0433887  73.5678917  88.9340963 119.6644156  74.6865707
  95.8014773 109.3833642  84.4536162  95.8502928 110.2595765  84.0713931
  96.3437287 108.8411035  83.8807805  95.2903752 119.4555778  68.3362116
  95.4391873 120.1391242  67.6828789  96.0970196 119.4360868  68.8511572
 103.6971256 112.7598160  82.3629334 104.5981119 112.6204625  82.0713332
 103.7719231 112.9252615  83.3027511  98.0314061 110.1365015  81.2082520
  97.1617371 110.4298581  80.9365109  98.2673542 110.7205460  81.9289784
  93.0456385 115.4820955  69.3423185  92.8002427 114.5783285  69.5403395
  93.2152300 115.4838106  68.4002663 100.7353095 106.3544632  78.7247941
 101.2535039 107.0905659  78.3994429 100.3808228 106.6608625  79.5594700
  92.3152033 111.2149313  66.8409346  91.6221278 111.2893668  66.1849382
  92.0703785 110.4509657  67.3630863 100.9865689 102.7744914  74.2448837
 101.2667443 102.1068103  74.8709264 101.7716296 102.9674010  73.7323501
 104.8574548 111.1962548  77.9920412 105.8091971 111.2960646  78.0132636
 104.6877998 110.4040817  78.5018497 102.8788927 108.2818131  78.1779813
 102.2838859 108.5623144  77.4826302 102.5938624 108.7712032  78.9496554
  99.1745956 113.2864721  63.1489916 100.1205061 113.1570929  63.2178334
  98.7960201 112.5479383  63.6259344 107.4857114 111.2079711  77.1520995
 106.9696163 110.4238168  76.9650924 108.3697063 110.8798428  77.3167515
 105.1467841 104.9520727  73.1116808 104.9492662 104.6435815  73.9960140
 105.7567547 105.6782366  73.2414738  99.0584649 117.3382467  84.6090573
  99.9787658 117.5161066  84.8030619  99.0234232 116.3938512  84.4570272
  97.3588874 111.2114697  63.0844801  96.4520329 110.9147810  63.1607515
  97.6364855 110.9144515  62.2179087  88.2766814 112.5321061  73.5343848
  87.9569598 111.6786369  73.2418222  87.7300242 112.7469639  74.2901815
  92.0546721 115.2483502  77.2513354  92.2732731 116.1800610  77.2701388
  92.4672495 114.8891476  78.0368158  98.9750939 105.7551587  69.2389042
  98.1651668 105.4098672  69.6144289  99.6635356 105.4459131  69.8276654
 100.9041488 104.8329634  70.8613339 101.4572526 105.2525087  71.5203362
 101.1411574 103.9065382  70.9036295  96.9274587 110.8216707  86.6416103
  96.8271314 111.7711064  86.5728194  96.7096129 110.4934946  85.7692173
  96.1287658 108.0701633  63.2256780  96.9906822 108.3956531  63.4852598
  96.3138002 107.2833128  62.7129846  88.1455074 116.1523972  75.5036969
  87.4518545 115.7377925  74.9906924  88.8928065 116.1944509  74.9070388
 104.2820295 106.9430159  70.3692003 103.7018964 107.6014963  69.9870056
 104.0156227 106.1207504  69.9579421 102.7323861 106.3435217  72.5713324
 103.2323639 106.4551751  71.7627643 103.3759469 106.0396270  73.2114132
  96.7905857 114.2513846  85.4581165  96.3072939 115.0514206  85.6645054
  96.8766796 114.2621791  84.5048609  90.0591816 116.0842226  73.3802984
  90.0362505 116.1829913  72.4284867  90.3692453 116.9307377  73.7020150
  92.7179194 118.1418381  77.4949598  93.6722448 118.1102323  77.4279530
  92.5191718 117.6809005  78.3099824  93.3078576 116.7119497  80.0620396
  94.1271465 117.2063576  80.0855233  93.5815384 115.7951465  80.0337964
 103.0645173 109.1030249  69.4248352 102.1771028 109.3879900  69.2068546
 103.4799162 108.9424013  68.5775629 106.4159709 109.1276770  73.1402691
 107.1920099 109.6173223  73.4127308 105.6907843 109.5534825  73.5974560
 108.8532267 109.8404390  74.1976632 109.4476758 109.6000126  73.4869940
 108.9258851 109.1211520  74.8250168  91.0729423 123.6838000  74.5119796
  90.9383891 122.9238401  73.9457794  90.6561485 124.4078900  74.0448585
 103.0386196 114.6184785  69.6398642 102.9821398 115.0753337  68.8006274
 103.5914539 113.8575470  69.4621485 106.8491002 110.4074517  70.4648761
 106.5927937 110.0071153  71.2956969 106.2243870 111.1218311  70.3398900
 103.7720976 115.8089567  66.9351171 103.7169780 115.6433838  65.9939615
 103.1467031 116.5165599  67.0913361  88.5613491 111.0457631  80.7612593
  89.2072354 110.5356585  81.2499818  88.3530642 111.7826313  81.3356018
  97.0817101 105.3097676  66.5136489  97.0695771 106.2539515  66.6704760
  97.9740523 105.1267821  66.2195951 100.8969221 101.9040452  70.7682426
 100.1301616 101.3498939  70.9139109 101.3079926 101.9762321  71.6296578
  92.9010982 108.1925248  84.8587607  93.7642443 107.8362053  85.0690932
  92.3276392 107.8539143  85.5463012  36.8703078  -0.4754197  62.3895315
  37.5081488  -0.5947449  61.6858655  36.7523921   0.4726647  62.4483267
  33.6792785  -0.5226769  62.3256840  33.3411296  -0.6385704  61.4377375
  34.5482553  -0.9235604  62.3057846  29.5379600   1.3308708  58.3153731
  28.9744466   1.2398645  57.5470018  29.4231995   0.5108612  58.7956223
  34.1612568   0.6308083  68.2843045  34.1501209   0.2360881  67.4123549
  34.3233207  -0.1025844  68.8776817  27.0844032   2.8259899  61.1537951
  27.8765324   2.4850724  60.7384250  27.3240683   2.9354874  62.0740104
  35.1179159   4.9979675  53.6268196  34.4667139   5.5833756  53.2402209
  35.9123522   5.5285870  53.6863233  29.0434786   2.0868813  54.0255330
  29.8165662   1.5397800  53.8868206  29.3960185   2.9513062  54.2369791
  30.8819829   3.4145195  67.2322229  30.5909695   4.3190826  67.1168896
  31.5176813   3.4561722  67.9466299  31.8076036   0.7922043  63.8223589
  32.4039608   0.5678066  63.1080552  31.8651007   0.0506789  64.4249037
  31.3801064  -1.7538521  51.6573780  31.6326585  -2.2757000  50.8957243
  30.4425623  -1.9172376  51.7600463  36.4244347  -2.7502743  59.4648523
  37.2107436  -3.1683320  59.1138940  36.6883051  -1.8456651  59.6330171
  36.5954424   2.6870107  54.1637180  35.9600257   2.7604734  54.8758085
  36.2651831   3.2763706  53.4856259  41.8252774  -2.8127510  60.3681502
  42.5577946  -3.3828293  60.6019331  41.0692130  -3.2005909  60.8088007
  31.0997353   0.1489585  53.8598155  30.9833611  -0.5265512  54.5279239
  31.2099613  -0.3378041  53.0430308  33.4428894  -0.3900268  57.5644844
  33.0787101  -0.9169647  58.2757766  34.2996010  -0.7801799  57.3911329
  35.8409714   3.1006610  64.2272023  35.5410437   4.0031649  64.1187830
  35.4960773   2.8338794  65.0793176  29.2922195  -0.4479593  60.2608727
  28.3672692  -0.5803379  60.4686419  29.5406609   0.3314626  60.7578670
  39.2406858  -4.3810849  61.9069460  38.3323735  -4.4495441  61.6128221
  39.1894454  -3.9038905  62.7351286  33.0623602  -2.9052711  53.5452859
  32.9423227  -2.4595660  54.3838340  32.3676190  -2.5567393  52.9866398
  30.8230494   9.8650931  57.1942991  30.7454523  10.8158756  57.2731471
  30.2192137   9.5196803  57.8517917  33.3147724  -2.9621204  69.8504358
  32.5381058  -2.4027284  69.8407222  33.9538287  -2.4764421  70.3719228
  41.1068504  -6.1794411  63.6847334  40.4642884  -5.8861878  63.0387129
  40.6023433  -6.2941491  64.4900531  38.7608668  -2.4331238  54.3733193
  39.6726524  -2.2003851  54.1980891  38.2518315  -1.8494194  53.8108272
  31.5694096  -0.1535751  69.4122325  32.3108780   0.3849293  69.1357148
  30.8631081   0.4730538  69.5693876  37.0449435   1.9893390  68.0094486
  37.4532792   1.5475800  67.2649118  36.3226697   1.4146017  68.2628679
  33.3980506  -3.0734003  65.3828043  34.2441701  -2.6494590  65.5262692
  33.3379143  -3.7300379  66.0766606  37.3678250   2.5494581  61.7646775
  36.7387113   2.7140295  61.0622843  36.9803912   2.9636190  62.5357739
  41.2467482   3.4849018  59.1191139  40.5618520   3.8647920  58.5688172
  41.3311331   4.0944345  59.8523086  36.5479951  -5.4129635  67.0409217
  36.3040883  -4.6587574  66.5043492  36.8239881  -5.0344287  67.8756464
  38.5018414   1.1308977  65.7186482  38.7135309   1.7740737  65.0420863
  38.4548162   0.2971294  65.2508412  36.1044643  -6.2573202  62.6223054
  35.2429122  -5.9591948  62.9139792  36.1307077  -6.0402803  61.6904087
  32.9206212   2.2868989  59.0296860  33.3844558   2.5656692  58.2401482
  32.6563010   1.3852433  58.8469951  29.8130293   1.8340470  61.9676623
  30.3831650   2.2627739  61.3294108  30.4038405   1.5523055  62.6660809
  31.8575098  -1.5907859  55.8386425  32.5599141  -1.1386815  56.3060352
  31.5255727  -2.2324040  56.4666318  39.6164242   4.0080933  63.8908840
  40.4381685   3.6061120  63.6091521  39.6126644   3.9049167  64.8424955
  33.3820845   3.5564976  66.0469550  33.4465278   4.0185383  66.8827722
  32.6731769   2.9262341  66.1751860  47.7070235   0.3519681  60.2393811
  46.9533943  -0.2172921  60.0837815  47.8417776   0.3182346  61.1864446
  33.0968863   5.2233084  55.9148530  32.9614537   6.0684619  56.3433378
  33.6378675   5.4252361  55.1514464  26.5498260   2.7408522  56.4876455
  27.0622781   3.5351772  56.6382020  27.2020973   2.0434812  56.4210057
  28.3593145   5.8574278  58.5699209  28.5359773   6.7792243  58.3820193
  29.1549978   5.5432697  58.9993588  34.7237339   5.8456650  70.0448872
  34.2801193   5.0593029  69.7269777  35.3854553   6.0335801  69.3792763
  29.4824460   7.3752452  64.5709551  30.0331885   7.2469515  63.7986545
  28.6435936   7.6747341  64.2204444  36.8218577   6.1259450  68.0730274
  36.8037052   6.9468331  67.5810543  37.7438497   6.0013525  68.2980415
  33.2791631   3.6403580  68.9153782  33.8119968   2.8791868  68.6853090
  32.7505712   3.3477231  69.6577937  36.4111609  -1.2627743  52.9519859
  35.8958232  -0.4923139  53.1908246  36.1388917  -1.9362607  53.5752920
  41.3845883   1.4904611  54.8873032  40.6075326   1.1515771  54.4428194
  42.0637364   1.4957234  54.2127997  36.1997912  -3.3900651  54.7779640
  35.8948048  -3.0754502  55.6289783  37.1528354  -3.3119231  54.8206973
  34.6444344   2.7689572  56.4272594  34.1165706   2.0342332  56.1145832
  34.1431847   3.5464248  56.1812562  39.6237190   0.9638593  61.5439640
  38.9660864   1.6537854  61.6319769  40.4277589   1.3535024  61.8873627
  38.4342649  -0.6817035  59.5943582  38.9474531  -0.0487043  60.0965292
  39.0843873  -1.2815839  59.2286942  32.7896944   0.5869782  49.4307567
  31.8824006   0.3559036  49.6298716  33.2867976  -0.2092598  49.6181549
  35.6965023   9.2967290  52.3504253  35.0226722   9.5998986  52.9589211
  36.0830845  10.0996370  52.0009710  34.9123480  -3.2067579  61.8401923
  33.9946041  -2.9852632  61.6823611  35.3283623  -3.1321269  60.9813630
  35.6958527  -1.8076164  56.9704603  36.4430346  -1.2954766  56.6611725
  35.9650117  -2.1292111  57.8308996  33.9685178   0.6882377  53.9531557
  33.0596397   0.4041410  54.0504027  33.9980261   1.1081456  53.0934864
  39.2004445   4.2988967  57.7222725  38.7466772   3.4579877  57.7787915
  38.5698412   4.9350365  58.0597505  38.1437365  -4.7719047  58.9523392
  37.4060121  -5.2841661  59.2833635  38.3964138  -5.2118666  58.1406669
  37.6437384   6.1365463  58.6572543  37.9360359   6.6970520  57.9384909
  38.1536005   6.4294024  59.4125702  32.5170072  -1.6989002  60.0541353
  32.5718681  -2.6515166  59.9783829  31.7061274  -1.5429563  60.5382651
  33.6661265   2.2291121  51.2919636  33.2280695   1.5126980  50.8325273
  34.4071706   2.4567236  50.7304727  32.6071009   6.9145814  59.7465996
  32.5647188   7.1406661  58.8174528  33.5233708   6.6809189  59.8951797
  36.0536643  -2.6170118  66.6446625  36.4086031  -2.3898645  67.5041091
  36.7008774  -2.2851741  66.0223881  41.7834380   0.5048318  57.3495954
  41.6452279   0.6949914  56.4217144  41.4270599   1.2667701  57.8064005
  41.8103760   2.5724845  62.3607226  42.2440266   2.4800134  63.2090280
  42.5235340   2.5482345  61.7227242  30.7236810   3.7908843  59.5427959
  31.5177409   3.2959164  59.3410534  30.0128503   3.2626707  59.1795664
  35.5431655   6.1726939  63.8940326  35.5968677   6.7417875  64.6618042
  34.6746436   6.3428824  63.5294364  42.6719309   2.6148546  64.8940111
  42.8655199   3.5194356  65.1399386  42.5719928   2.1555965  65.7278696
  37.7334418   2.7655288  70.4680992  37.5819924   2.5365840  69.5511076
  37.7239098   3.7225890  70.4812337  34.5019754   0.3387201  65.4527258
  35.4311814   0.4898361  65.2796226  34.0810784   0.4271222  64.5975905
  33.3008086   4.3637865  63.2225796  33.1619172   3.9956650  64.0951734
  32.5122682   4.8785505  63.0509754  33.8956238   9.4646962  54.5651332
  34.0707994   8.9935005  55.3796955  33.2089026  10.0912728  54.7932593
  34.8513301   3.7419468  60.6114634  34.5163134   3.7020238  61.5072284
  34.3517247   3.0764184  60.1385044  28.8257545  -0.8512902  66.1367215
  28.6877343  -1.5832663  66.7378754  29.7362469  -0.9404002  65.8551403
  37.7872493   1.0875502  50.8851693  37.1701664   0.3622331  50.7884746
  37.3188981   1.8484863  50.5418768  31.4539846  -1.1392942  65.6250895
  32.1639465  -1.7799750  65.5837513  31.4109154  -0.8880048  66.5477075
  39.4426625   5.7974411  68.5457474  39.3839171   5.1133631  67.8788057
  39.8446143   6.5393401  68.0938100  28.4617323  12.6136325  61.3391193
  28.7013922  13.2454849  62.0170211  27.6186520  12.2624365  61.6256552
  39.4444032   3.7613995  66.7771453  38.5570811   3.4239917  66.8997852
  40.0142583   3.0297026  67.0140219  32.9745185   8.4215447  63.7432697
  32.9015357   9.2270419  64.2552001  32.5322578   8.6207413  62.9180718
  32.7634965   7.6587217  57.2535518  31.9802487   8.2008897  57.3473743
  33.4627710   8.1761197  57.6529759  36.0731615  -6.5318153  59.8969724
  36.5700315  -7.2848191  59.5770794  35.3018597  -6.4953837  59.3312933
  43.9261372  -0.8277788  61.5388015  43.9151249   0.0546928  61.1681948
  43.0578752  -1.1806237  61.3442552  35.4343869   8.3202281  65.8990855
  36.1471841   8.9549746  65.8266757  34.9433898   8.4166147  65.0830857
  37.1561396   2.2253534  57.4708147  36.2217675   2.3454996  57.3012851
  37.3338064   1.3226001  57.2068157  40.5433947  -1.9329147  58.0058181
  41.0094399  -1.1001155  57.9318484  40.9941448  -2.3984165  58.7103440
  30.4855782   6.0696725  66.7196426  31.1865242   6.7033208  66.8725820
  30.0150897   6.4111456  65.9592065  38.6110178   4.4114674  55.0044333
  38.8870022   4.2971269  55.9138207  37.7414677   4.0132159  54.9656506
  38.2857068  -1.3758668  64.5448976  37.6328519  -1.1282760  63.8901429
  38.6637448  -2.1894530  64.2111454  35.2464242   8.6601025  58.6477147
  35.4286637   7.8422681  59.1104899  36.0697228   8.8768718  58.2102037
  35.5806408   7.5869210  55.9092195  36.1094174   7.0761665  55.2962357
  35.8434627   7.2711741  56.7737728  34.3344641  -0.6338857  71.0315014
  33.6585278  -0.7344728  71.7017389  35.1572275  -0.7899643  71.4951011
  26.0823500   5.6033080  63.6527529  26.6676937   4.8576768  63.7855433
  25.8848339   5.9137036  64.5364193  28.9362156   8.6384327  58.6689971
  28.2672531   9.1230455  58.1854011  28.7975025   8.8853548  59.5833350
  33.0767424  10.6728071  65.2672630  33.6285732  10.8359692  66.0321715
  33.4173618  11.2632508  64.5952654  37.9278299   5.4989328  71.1221284
  38.4718203   6.1119286  70.6276239  37.3465143   6.0568907  71.6388297
  36.2135812   8.6210046  62.2536312  36.0886951   7.8199786  61.7447257
  36.8714903   9.1156239  61.7650282  38.2770720   6.4219066  63.8815862
  37.3301055   6.3024417  63.8094189  38.6253493   5.5341564  63.9642123
  35.2817153   6.2171782  60.0820214  35.1342116   5.2888490  60.2627784
  36.1070647   6.2391873  59.5977289  38.8851275   7.0400341  61.1685087
  39.8097823   6.8343202  61.0309538  38.7166578   6.7916742  62.0774428
  38.6746591   7.5586009  56.5247178  38.8483469   6.9932431  55.7721031
  39.1675483   8.3586903  56.3426668  44.5285982   0.3222432  58.1437478
  44.9717128  -0.4270243  57.7456601  43.6512493   0.3132568  57.7611210
  39.6621764   6.8752773  53.6244076  40.3572668   7.4959466  53.8431391
  40.0044914   6.0248124  53.8996454  41.5613187   4.3252479  55.1531407
  42.0864511   4.6639751  54.4280727  41.4735539   3.3899494  54.9694542
  33.2233236   8.2386552  67.2821284  33.5320362   7.9935699  68.1543983
  34.0208718   8.4433191  66.7940154  33.2453848  10.3924462  59.5126660
  32.8058838   9.9000841  60.2059517  33.9961965   9.8497429  59.2718736
  25.7246187   6.5836003  59.5151289  26.5504207   6.2839775  59.1349932
  25.3740239   5.8143625  59.9641077  30.6927720   5.9362471  61.5848962
  30.0707729   5.2733176  61.2851190  31.3632587   5.9623603  60.9022610
  23.9254792   4.5022329  60.4740222  23.0886700   4.0744503  60.2924223
  23.8978437   4.6954772  61.4111013  41.2507093   4.9585382  70.4582605
  40.4602637   4.9409521  69.9187105  41.0140448   5.4973676  71.2131642
  41.3704968   1.8077849  67.7715334  41.4202973   1.6427856  68.7130857
  41.2618891   0.9405108  67.3813215  30.2541227   4.4866394  55.0607423
  30.4029347   5.1701859  54.4074095  31.0607670   4.4671484  55.5756878
  38.6608730  -2.2091223  69.0874640  39.5618593  -2.3484759  68.7958638
  38.7356705  -2.0436769  70.0272818  42.8723165   4.2274790  68.0157355
  42.5807973   4.5904771  68.8520816  42.2595296   3.5141798  67.8370687
  44.0718847   1.7927670  60.5359926  44.9065739   2.2317474  60.6997486
  44.2077976   1.3166323  59.7168171  41.1210353  -0.6492595  66.4837413
  41.5964475  -0.4564949  65.6756265  40.1975918  -0.5933409  66.2380797
  28.0093860   0.5131572  56.0668492  27.7639902  -0.3906098  56.2648702
  28.1789774   0.5148722  55.1247970  33.7536632   6.9814525  52.5319170
  33.1810599   7.6004712  52.0789642  34.3269426   7.5313886  53.0659092
  39.8212022  -3.7726835  64.7165719  40.7729445  -3.6728738  64.7377943
  39.6515472  -4.5648567  65.2263803  37.8426402  -6.6871252  64.9025120
  37.2476334  -6.4066239  64.2071608  37.5576098  -6.1977351  65.6741861
  36.9733892   7.2651675  53.6627752  37.9064565   7.1997236  53.8660628
  36.8857105   8.1007942  53.2042285  39.6021909   6.5817545  50.6231700
  39.5235540   6.2477409  51.5167458  40.4231575   7.0739313  50.6223172
  42.3000100  -0.5520716  63.8308019  42.2676420  -1.4904715  64.0167702
  42.9100724  -0.4736679  63.0973843  34.1383431  -1.6824663  49.8735223
  35.0842535  -1.8118454  49.9423641  33.7597676  -2.4210001  50.3504651
  42.4494588  -3.7609672  63.8766302  41.9333637  -4.5451215  63.6896231
  43.3334537  -4.0890955  64.0412821  48.1176650   0.5095291  62.9714055
  48.8480038   0.2480579  63.5321759  47.5083595  -0.2275987  63.0116123
  46.1991947  -1.3496846  63.5688507  45.4725110  -1.4840881  62.9604998
  45.7839234  -1.0420017  64.3745225  34.0222123   2.3693084  71.3335880
  34.9425133   2.5471683  71.5275926  33.9871706   1.4249129  71.1815579
  27.0184196   0.2794118  63.9758661  27.2370206   1.2111226  63.9946695
  27.4309970  -0.0797907  64.7613465  39.2457769  -8.0259224  57.0937310
  38.6656438  -7.3674420  56.7115362  38.9793702  -8.8481880  56.6824728
  31.7543331  -0.7175537  72.1826471  31.2710413   0.0824823  72.3890360
  31.8404270  -0.7067592  71.2293915  25.0229291   1.1152843  60.1048291
  24.9999979   1.2140530  59.1530174  25.3329927   1.9617993  60.4265457
  27.6816669   3.1728998  64.2194905  28.6359922   3.1412940  64.1524837
  27.4829192   2.7119621  65.0345131  28.2716051   1.7430114  66.7865703
  29.0908940   2.2374192  66.8100540  28.5452858   0.8262082  66.7583270
  38.0282647  -5.8659134  56.1493658  37.1408502  -5.5809483  55.9313853
  38.4436636  -6.0265371  55.3020935  41.3797183  -5.8412613  59.8647998
  42.1557573  -5.3516161  60.1372614  40.6545317  -5.4154559  60.3219867
  43.8169742  -5.1284994  60.9221938  44.4114233  -5.3689258  60.2115246
  43.8896325  -5.8477863  61.5495474  26.0366897   8.7148617  61.2365103
  25.9021365   7.9549018  60.6703101  25.6198960   9.4389517  60.7693892
  37.1725860   3.8985541  50.2441678  37.8761711   4.1035543  50.8599334
  36.4488509   4.4662302  50.5090762  38.0023671  -0.3504598  56.3643948
  37.9458872   0.1063953  55.5251581  38.5552013  -1.1113914  56.1866791
  41.8128477  -4.5614866  57.1894068  41.5565411  -4.9618231  58.0202276
  41.1881345  -3.8471072  57.0644207  46.1240815  -1.8218793  59.6965359
  45.5640372  -1.7525604  60.4696921  45.5184318  -1.9977808  58.9764856
  29.1936023   9.6117934  61.4483546  29.0768407  10.5563367  61.3462236
  28.3728470   9.3091496  61.8369345  39.0812558   4.3368070  52.2940138
  39.9158162   3.9049268  52.1117613  38.9196901   4.1650083  53.2217033
  38.7358450   0.8400183  53.6596478  38.6807254   0.6744454  52.7184922
  38.1104505   1.5476216  53.8158667  36.0504357   3.1449095  72.9850040
  36.9195517   3.3189747  72.6236675  35.5711109   3.9643512  72.8625770
  30.2190537  10.2646196  64.6639474  31.1217784  10.2969806  64.9805969
  29.9927908   9.3346647  64.6785810  31.9744139   9.0177182  61.3249553
  31.0239770   9.0179044  61.2113925  32.2776626   8.2709917  60.8085587
  47.7096833  14.8537721  62.3895315  48.3475243  14.7344468  61.6858655
  47.5917676  15.8018565  62.4483267  44.5186539  14.8065149  62.3256840
  44.1805051  14.6906214  61.4377375  45.3876307  14.4056314  62.3057846
  40.3773355  16.6600625  58.3153731  39.8138220  16.5690562  57.5470018
  40.2625750  15.8400530  58.7956223  45.0006322  15.9600001  68.2843045
  44.9894963  15.5652799  67.4123549  45.1626962  15.2266073  68.8776817
  37.9237787  18.1551817  61.1537951  38.7159079  17.8142642  60.7384250
  38.1634437  18.2646792  62.0740104  45.9572914  20.3271593  53.6268196
  45.3060893  20.9125674  53.2402209  46.7517276  20.8577788  53.6863233
  39.8828541  17.4160730  54.0255330  40.6559417  16.8689717  53.8868206
  40.2353940  18.2804980  54.2369791  41.7213583  18.7437113  67.2322229
  41.4303449  19.6482743  67.1168896  42.3570568  18.7853640  67.9466299
  42.6469790  16.1213961  63.8223589  43.2433362  15.8969983  63.1080552
  42.7044762  15.3798707  64.4249037  42.2194819  13.5753396  51.6573780
  42.4720339  13.0534918  50.8957243  41.2819378  13.4119542  51.7600463
  47.2638101  12.5789175  59.4648523  48.0501191  12.1608598  59.1138940
  47.5276806  13.4835267  59.6330171  47.4348179  18.0162025  54.1637180
  46.7994012  18.0896652  54.8758085  47.1045585  18.6055624  53.4856259
  52.6646529  12.5164408  60.3681502  53.3971701  11.9463625  60.6019331
  51.9085884  12.1286008  60.8088007  41.9391107  15.4781502  53.8598155
  41.8227365  14.8026406  54.5279239  42.0493367  14.9913876  53.0430308
  44.2822648  14.9391649  57.5644844  43.9180856  14.4122270  58.2757766
  45.1389764  14.5490118  57.3911329  50.1871949   6.2285982  64.8276110
  49.8555274   7.0981393  64.6037325  49.5917562   5.9122266  65.5070141
  43.9228135   9.9681549  52.5606193  44.0902538  10.8361786  52.9276664
  43.7325304  10.1308831  51.6367482  46.6803468  18.4298528  64.2272023
  46.3804192  19.3323567  64.1187830  46.3354528  18.1630711  65.0793176
  40.1315950  14.8812325  60.2608727  39.2066446  14.7488539  60.4686419
  40.3800363  15.6606544  60.7578670  50.0800612  10.9481068  61.9069460
  49.1717490  10.8796477  61.6128221  50.0288208  11.4253013  62.7351286
  43.9017356  12.4239207  53.5452859  43.7816981  12.8696257  54.3838340
  43.2069945  12.7724524  52.9866398  37.4924761  14.5245598  61.0952516
  37.6217142  14.7780077  62.0091928  36.8122212  15.1173306  60.7757172
  41.6624248  25.1942848  57.1942991  41.5848278  26.1450673  57.2731471
  41.0585892  24.8488721  57.8517917  44.1541478  12.3670714  69.8504358
  43.3774812  12.9264634  69.8407222  44.7932041  12.8527497  70.3719228
  51.9462259   9.1497507  63.6847334  51.3036639   9.4430040  63.0387129
  51.4417187   9.0350427  64.4900531  49.6002422  12.8960680  54.3733193
  50.5120278  13.1288067  54.1980891  49.0912069  13.4797724  53.8108272
  42.4087850  15.1756167  69.4122325  43.1502535  15.7141211  69.1357148
  41.7024836  15.8022456  69.5693876  47.8843190  17.3185308  68.0094486
  48.2926546  16.8767718  67.2649118  47.1620451  16.7437935  68.2628679
  44.2374260  12.2557914  65.3828043  45.0835455  12.6797328  65.5262692
  44.1772898  11.5991539  66.0766606  48.2072005  17.8786498  61.7646775
  47.5780867  18.0432212  61.0622843  47.8197667  18.2928108  62.5357739
  52.0861237  18.8140936  59.1191139  51.4012275  19.1939837  58.5688172
  52.1705086  19.4236263  59.8523086  47.3873705   9.9162283  67.0409217
  47.1434637  10.6704343  66.5043492  47.6633636  10.2947630  67.8756464
  49.3412168  16.4600895  65.7186482  49.5529063  17.1032655  65.0420863
  49.2941916  15.6263212  65.2508412  46.9438397   9.0718716  62.6223054
  46.0822876   9.3699969  62.9139792  46.9700832   9.2889115  61.6904087
  43.7599966  17.6160906  59.0296860  44.2238312  17.8948609  58.2401482
  43.4956765  16.7144351  58.8469951  40.6524048  17.1632388  61.9676623
  41.2225405  17.5919656  61.3294108  41.2432159  16.8814973  62.6660809
  42.6968853  13.7384059  55.8386425  43.3992896  14.1905102  56.3060352
  42.3649481  13.0967878  56.4666318  41.1449214  12.3295815  70.2137635
  40.5147875  13.0112096  70.4473031  41.0385302  12.2178897  69.2690773
  36.4394187  11.9967611  61.1403559  35.6493240  12.2525140  60.6643669
  36.9305434  12.8115949  61.2455599  50.4557996  19.3372851  63.8908840
  51.2775440  18.9353038  63.6091521  50.4520399  19.2341085  64.8424955
  38.3908932  12.3612191  58.0987035  37.5940095  12.4730885  58.6170531
  38.1634524  12.6998843  57.2327926  44.2214600  18.8856894  66.0469550
  44.2859032  19.3477301  66.8827722  43.5125523  18.2554259  66.1751860
  34.7231889  12.2498102  63.5718550  34.9739928  13.1345112  63.8376125
  35.2591438  12.0702703  62.7993641  58.5463989  15.6811599  60.2393811
  57.7927698  15.1118997  60.0837815  58.6811530  15.6474264  61.1864446
  43.9362617  20.5525001  55.9148530  43.8008292  21.3976537  56.3433378
  44.4772430  20.7544279  55.1514464  40.4229957   6.6316581  72.5762886
  40.0296902   6.0782780  73.2510530  41.2396097   6.9427160  72.9669403
  37.3892015  18.0700439  56.4876455  37.9016535  18.8643690  56.6382020
  38.0414727  17.3726730  56.4210057  39.1986899  21.1866196  58.5699209
  39.3753528  22.1084160  58.3820193  39.9943733  20.8724615  58.9993588
  43.3397918   8.0474460  70.1683142  44.0807631   8.6481613  70.0887605
  43.5715841   7.3052098  69.6101185  38.4839256  13.2330828  68.4461372
  38.3692771  12.3316085  68.7468471  37.6283774  13.4794524  68.0946188
  45.5631094  21.1748568  70.0448872  45.1194948  20.3884946  69.7269777
  46.2248307  21.3627718  69.3792763  40.3218215  22.7044369  64.5709551
  40.8725640  22.5761433  63.7986545  39.4829691  23.0039258  64.2204444
  47.6612332  21.4551368  68.0730274  47.6430807  22.2760249  67.5810543
  48.5832252  21.3305443  68.2980415  44.1185386  18.9695497  68.9153782
  44.6513723  18.2083785  68.6853090  43.5899467  18.6769149  69.6577937
  47.2855081   4.0755563  64.4447424  46.9419350   4.9657205  64.3686534
  47.6534043   3.8857221  63.5817009  35.3540931  16.3989094  57.2636026
  36.1916153  16.8086102  57.0469734  35.5319199  15.4588536  57.2336220
  47.2505363  14.0664174  52.9519859  46.7351987  14.8368779  53.1908246
  46.9782672  13.3929310  53.5752920  44.8352474   8.9113875  58.0105097
  43.9794071   8.5220725  57.8310736  45.2479426   8.9905836  57.1504883
  46.3651621   6.4460218  62.4096657  45.8616417   6.4090354  61.5964462
  46.6582228   7.3552961  62.4693314  42.6094507   6.5298948  61.4162839
  43.4747504   6.3341757  61.0568728  42.6772016   6.3009300  62.3432196
  52.2239638  16.8196529  54.8873032  51.4469080  16.4807688  54.4428194
  52.9031119  16.8249152  54.2127997  47.0391667  11.9391266  54.7779640
  46.7341802  12.2537416  55.6289783  47.9922109  12.0172686  54.8206973
  45.4838098  18.0981490  56.4272594  44.9559460  17.3634249  56.1145832
  44.9825601  18.8756166  56.1812562  50.4630944  16.2930510  61.5439640
  49.8054619  16.9829772  61.6319769  51.2671344  16.6826942  61.8873627
  40.2156826   8.7601156  58.7879206  40.7900578   8.5376338  58.0552399
  40.8027809   8.8289851  59.5407807  49.2736403  14.6474883  59.5943582
  49.7868285  15.2804875  60.0965292  49.9237627  14.0476078  59.2286942
  40.5426413  10.7905617  52.8075091  39.7063725  11.1280304  53.1284366
  40.4031183  10.6554597  51.8702228  42.5179494   5.6342405  57.5154275
  41.8643906   5.3191422  56.8910890  42.4759968   5.0118145  58.2414098
  43.6290699  15.9161700  49.4307567  42.7217760  15.6850953  49.6298716
  44.1261731  15.1199319  49.6181549  46.5358778  24.6259207  52.3504253
  45.8620476  24.9290904  52.9589211  46.9224600  25.4288288  52.0009710
  45.7517234  12.1224338  61.8401923  44.8339796  12.3439285  61.6823611
  46.1677378  12.1970649  60.9813630  46.5352282  13.5215754  56.9704603
  47.2824101  14.0337151  56.6611725  46.8043871  13.1999807  57.8308996
  44.8078932  16.0174295  53.9531557  43.8990151  15.7333328  54.0504027
  44.8374016  16.4373373  53.0934864  50.0398200  19.6280884  57.7222725
  49.5860527  18.7871794  57.7787915  49.4092166  20.2642283  58.0597505
  48.9831119  10.5572870  58.9523392  48.2453876  10.0450257  59.2833635
  49.2357893  10.1173252  58.1406669  48.4831139  21.4657381  58.6572543
  48.7754113  22.0262438  57.9384909  48.9929759  21.7585942  59.4125702
  49.0842746   3.3349122  59.5465162  49.3901623   2.4746486  59.2591077
  49.8095351   3.9266743  59.3464155  35.3767102  13.7379809  57.9346759
  35.1791502  13.1449170  57.2097826  34.8213766  13.4332019  58.6522698
  43.3563826  13.6302915  60.0541353  43.4112436  12.6776752  59.9783829
  42.5455028  13.7862355  60.5382651  44.5055020  17.5583039  51.2919636
  44.0674450  16.8418897  50.8325273  45.2465461  17.7859153  50.7304727
  41.2956186  12.2479975  57.8131731  40.4824052  12.5474146  58.2196924
  41.7915180  11.8535664  58.5306214  43.4464764  22.2437732  59.7465996
  43.4040943  22.4698578  58.8174528  44.3627463  22.0101107  59.8951797
  46.8930398  12.7121800  66.6446625  47.2479785  12.9393273  67.5041091
  47.5402529  13.0440176  66.0223881  52.6228135  15.8340236  57.3495954
  52.4846033  16.0241832  56.4217144  52.2664353  16.5959618  57.8064005
  40.7870261   9.8198331  63.4292966  41.4269640   9.6787090  62.7315930
  39.9547791   9.5332844  63.0531568  52.6497514  17.9016763  62.3607226
  53.0834021  17.8092052  63.2090280  53.3629095  17.8774263  61.7227242
  41.5630565  19.1200761  59.5427959  42.3571163  18.6251081  59.3410534
  40.8522257  18.5918624  59.1795664  46.3825409  21.5018857  63.8940326
  46.4362431  22.0709793  64.6618042  45.5140191  21.6720742  63.5294364
  37.8713328  13.2643843  55.6187712  36.9410916  13.2028298  55.8357674
  37.9670800  12.7419796  54.8224353  37.7898877   9.7898656  58.2065953
  38.0505695  10.7043989  58.0975114  38.6116050   9.3223098  58.3562566
  39.2623803  11.2036413  65.3764778  39.9346856  10.9953775  64.7277427
  38.4353589  11.0058499  64.9370010  53.5113064  17.9440463  64.8940111
  53.7048954  18.8486274  65.1399386  53.4113682  17.4847882  65.7278696
  45.1649375   7.8298354  67.3930439  44.5177290   8.5288303  67.2994915
  45.9350390   8.2634498  67.7606687  48.5728173  18.0947206  70.4680992
  48.4213679  17.8657758  69.5511076  48.5632852  19.0517807  70.4812337
  45.3413509  15.6679119  65.4527258  46.2705569  15.8190278  65.2796226
  44.9204539  15.7563140  64.5975905  44.1401841  19.6929783  63.2225796
  44.0012926  19.3248568  64.0951734  43.3516437  20.2077423  63.0509754
  44.7349993  24.7938880  54.5651332  44.9101748  24.3226923  55.3796955
  44.0482781  25.4204646  54.7932593  45.6907056  19.0711386  60.6114634
  45.3556888  19.0312156  61.5072284  45.1911002  18.4056102  60.1385044
  39.6651300  14.4779016  66.1367215  39.5271098  13.7459255  66.7378754
  40.5756223  14.3887916  65.8551403  48.6266248  16.4167420  50.8851693
  48.0095418  15.6914248  50.7884746  48.1582736  17.1776780  50.5418768
  42.2933600  14.1898975  65.6250895  43.0033219  13.5492167  65.5837513
  42.2502909  14.4411870  66.5477075  50.2820379  21.1266329  68.5457474
  50.2232925  20.4425549  67.8788057  50.6839898  21.8685319  68.0938100
  41.0062534  11.1764193  67.4446534  40.4699891  10.7254932  68.0968130
  40.4179243  11.3110102  66.7016998  39.3011078  27.9428242  61.3391193
  39.5407676  28.5746767  62.0170211  38.4580274  27.5916282  61.6256552
  40.4164793  10.6352844  50.0072998  39.5394260  10.5141645  49.6435244
  40.8922546   9.8438923  49.7551886  50.2837786  19.0905912  66.7771453
  49.3964565  18.7531834  66.8997852  50.8536337  18.3588944  67.0140219
  31.9366934  15.4230004  60.1014505  32.6237973  15.1091734  59.5135520
  31.7815062  16.3271369  59.8281756  36.7401656  10.3120201  64.5299529
  36.6559844   9.7045870  63.7949938  35.9184362  10.8029219  64.5309025
  43.8138940  23.7507365  63.7432697  43.7409111  24.5562336  64.2552001
  43.3716333  23.9499331  62.9180718  43.6028719  22.9879135  57.2535518
  42.8196241  23.5300815  57.3473743  44.3021465  23.5053114  57.6529759
  46.9125370   8.7973764  59.8969724  47.4094069   8.0443727  59.5770794
  46.1412351   8.8338081  59.3312933  54.7655127  14.5014130  61.5388015
  54.7545003  15.3838845  61.1681948  53.8972506  14.1485681  61.3442552
  46.2737623  23.6494199  65.8990855  46.9865596  24.2841664  65.8266757
  45.7827652  23.7458065  65.0830857  47.9955150  17.5545452  57.4708147
  47.0611429  17.6746914  57.3012851  48.1731819  16.6517918  57.2068157
  43.4960338  10.9391147  59.6241408  43.1258126  10.3862188  60.3122314
  43.9919431  10.3349281  59.0716408  51.3827702  13.3962771  58.0058181
  51.8488154  14.2290762  57.9318484  51.8335202  12.9307752  58.7103440
  41.3249537  21.3988642  66.7196426  42.0258996  22.0325125  66.8725820
  40.8544652  21.7403374  65.9592065  49.4503933  19.7406592  55.0044333
  49.7263777  19.6263187  55.9138207  48.5808431  19.3424077  54.9656506
  49.3544364   5.7643358  62.0449082  48.4407444   5.9947585  62.2131289
  49.7837466   5.8481802  62.8963115  49.1250823  13.9533250  64.5448976
  48.4722273  14.2009157  63.8901429  49.5031203  13.1397388  64.2111454
  46.0857997  23.9892943  58.6477147  46.2680391  23.1714599  59.1104899
  46.9090983  24.2060635  58.2102037  46.4200162  22.9161128  55.9092195
  46.9487929  22.4053583  55.2962357  46.6828382  22.6003658  56.7737728
  45.1738396  14.6953061  71.0315014  44.4979033  14.5947190  71.7017389
  45.9966030  14.5392275  71.4951011  36.9217255  20.9324997  63.6527529
  37.5070692  20.1868685  63.7855433  36.7242093  21.2428954  64.5364193
  39.7755910  23.9676245  58.6689971  39.1066285  24.4522372  58.1854011
  39.6368780  24.2145465  59.5833350  31.5134910  13.5030598  62.3731972
  31.5519009  12.9694188  63.1669090  31.0075203  12.9765803  61.7542949
  43.9161179  26.0019988  65.2672630  44.4679487  26.1651610  66.0321715
  44.2567372  26.5924426  64.5952654  38.8925672   8.3495138  65.8694514
  38.9566998   9.2109969  65.4571912  38.8292792   7.7369140  65.1366873
  38.3677945  10.4218271  69.5167549  38.9949983  10.0395348  70.1305073
  37.5105863  10.2032473  69.8823241  48.7672053  20.8281246  71.1221284
  49.3111957  21.4411204  70.6276239  48.1858898  21.3860824  71.6388297
  35.1443487  12.2294700  55.4485903  35.4396928  11.3205378  55.3952957
  34.2431523  12.2082439  55.1266906  47.0529566  23.9501964  62.2536312
  46.9280705  23.1491704  61.7447257  47.7108657  24.4448157  61.7650282
  38.6737734  10.3050696  61.4313452  37.9524320  10.9186664  61.2920925
  39.4630990  10.8408461  61.3530098  49.1164474  21.7510984  63.8815862
  48.1694810  21.6316335  63.8094189  49.4647248  20.8633482  63.9642123
  41.4764048   7.6405123  67.7054104  41.9998450   7.8867419  68.4680413
  41.2576381   8.4725158  67.2857241  36.8731329   9.9108797  55.5725228
  36.5444035   9.0306176  55.3900334  37.2270700   9.8556466  56.4601618
  46.1210908  21.5463700  60.0820214  45.9735870  20.6180408  60.2627784
  46.9464401  21.5683791  59.5977289  39.9873152  10.1981767  55.9400706
  40.3269225  10.7267688  55.2179315  40.4345272  10.5362173  56.7159273
  49.7245030  22.3692259  61.1685087  50.6491577  22.1635120  61.0309538
  49.5560333  22.1208660  62.0774428  42.6816593   8.5818818  65.3903774
  42.3413413   7.7826631  65.7924454  41.9755599   8.8820529  64.8180607
  43.3333065   5.6668130  63.8431097  44.1559134   5.1928609  63.7209988
  43.5771128   6.4458614  64.3429784  41.9741299   8.6956389  54.1393999
  42.6949662   9.0737642  53.6357716  41.3506603   9.4145266  54.2428977
  46.1172422   9.4001538  55.0752331  46.3336036  10.2826176  54.7741159
  45.6366489   9.0087751  54.3457973  40.8571643  12.3587251  61.6523076
  40.7116224  12.6727554  62.5447357  40.3796847  12.9772151  61.0993974
  42.7168026   9.3489799  61.7003965  42.7029595   8.4530892  61.3636263
  43.4340454   9.3560463  62.3342251  44.5694157   9.7827139  63.7457093
  44.3111935  10.7044210  63.7441423  44.0379197   9.3857574  64.4357557
  49.5140346  22.8877926  56.5247178  49.6877223  22.3224349  55.7721031
  50.0069237  23.6878821  56.3426668  35.3317306  14.8992595  64.5910737
  34.7870774  15.6752403  64.7231011  36.2096655  15.2463400  64.4329858
  42.1204922   8.2304179  56.9691536  42.2420833   7.3020825  57.1682423
  41.8306965   8.2442865  56.0569851  44.9896113   5.9159090  60.1058255
  45.0117809   5.9798423  59.1510235  45.4064172   5.0763598  60.2998762
  55.3679737  15.6514349  58.1437478  55.8110883  14.9021674  57.7456601
  54.4906247  15.6424486  57.7611210  50.5015518  22.2044691  53.6244076
  51.1966423  22.8251383  53.8431391  50.8438668  21.3540042  53.8996454
  36.1183327  14.0262492  67.4840894  35.3765063  14.1745127  68.0705524
  35.7976072  14.2870757  66.6207643  52.4006941  19.6544396  55.1531407
  52.9258265  19.9931669  54.4280727  52.3129294  18.7191412  54.9694542
  44.0626990  23.5678470  67.2821284  44.3714117  23.3227617  68.1543983
  44.8602472  23.7725108  66.7940154  44.0847602  25.7216379  59.5126660
  43.6452592  25.2292758  60.2059517  44.8355719  25.1789347  59.2718736
  36.5639941  21.9127920  59.5151289  37.3897961  21.6131692  59.1349932
  36.2133993  21.1435543  59.9641077  41.5321474  21.2654389  61.5848962
  40.9101484  20.6025094  61.2851190  42.2026341  21.2915520  60.9022610
  34.7648546  19.8314247  60.4740222  33.9280454  19.4036421  60.2924223
  34.7372192  20.0246690  61.4111013  41.6046002   9.7436177  71.1781468
  41.6534157  10.6198299  70.7959238  42.1468516   9.2013570  70.6053111
  52.0900847  20.2877300  70.4582605  51.2996391  20.2701439  69.9187105
  51.8534202  20.8265594  71.2131642  52.2098722  17.1369766  67.7715334
  52.2596727  16.9719774  68.7130857  52.1012646  16.2697025  67.3813215
  41.0934981  19.8158312  55.0607423  41.2423102  20.4993776  54.4074095
  41.9001425  19.7963402  55.5756878  49.5002485  13.1200694  69.0874640
  50.4012348  12.9807159  68.7958638  49.5750459  13.2855149  70.0272818
  43.8345290  10.4967549  67.9327827  42.9648600  10.7901115  67.6610415
  44.0704771  11.0807994  68.6535090  53.7116919  19.5566708  68.0157355
  53.4201728  19.9196688  68.8520816  53.0989051  18.8433716  67.8370687
  54.9112602  17.1219588  60.5359926  55.7459493  17.5609392  60.6997486
  55.0471730  16.6458241  59.7168171  51.9604108  14.6799322  66.4837413
  52.4358229  14.8726969  65.6756265  51.0369673  14.7358508  66.2380797
  38.8487614  15.8423490  56.0668492  38.6033656  14.9385820  56.2648702
  39.0183529  15.8440640  55.1247970  46.5384324   6.7147166  65.4493247
  47.0566268   7.4508193  65.1239736  46.1839457   7.0211159  66.2840006
  38.1183262  11.5751847  53.5654653  37.4252507  11.6496202  52.9094689
  37.8735014  10.8112191  54.0876170  46.7896918   3.1347448  60.9694144
  47.0698672   2.4670638  61.5954570  47.5747525   3.3276544  60.4568808
  44.5930387  22.3106442  52.5319170  44.0204354  22.9296629  52.0789642
  45.1663180  22.8605804  53.0659092  50.6605777  11.5565082  64.7165719
  51.6123199  11.6563180  64.7377943  50.4909227  10.7643351  65.2263803
  48.6820156   8.6420666  64.9025120  48.0870088   8.9225678  64.2071608
  48.3969853   9.1314567  65.6741861  47.8127646  22.5943592  53.6627752
  48.7458320  22.5289154  53.8660628  47.7250859  23.4299859  53.2042285
  50.4415663  21.9109463  50.6231700  50.3629295  21.5769326  51.5167458
  51.2625330  22.4031231  50.6223172  53.1393854  14.7771202  63.8308019
  53.1070174  13.8387203  64.0167702  53.7494478  14.8555239  63.0973843
  44.9777185  13.6467255  49.8735223  45.9236290  13.5173463  49.9423641
  44.5991430  12.9081917  50.3504651  53.2888343  11.5682246  63.8766302
  52.7727391  10.7840702  63.6896231  54.1728291  11.2400962  64.0412821
  50.9499070   5.3123261  59.8362114  50.7523891   5.0038349  60.7205446
  51.5598775   6.0384900  59.9660044  58.9570404  15.8387209  62.9714055
  59.6873793  15.5772497  63.5321759  58.3477350  15.1015931  63.0116123
  57.0385701  13.9795072  63.5688507  56.3118865  13.8451037  62.9604998
  56.6232988  14.2871900  64.3745225  44.8615878  17.6985001  71.3335880
  45.7818887  17.8763600  71.5275926  44.8265461  16.7541047  71.1815579
  43.1620102  11.5717232  49.8090108  42.2551558  11.2750344  49.8852821
  43.4396083  11.2747050  48.9424394  34.0798043  12.8923595  60.2589154
  33.7600827  12.0388903  59.9663528  33.5331471  13.1072173  61.0147122
  37.8577950  15.6086036  63.9758661  38.0763960  16.5403144  63.9946695
  38.2703724  15.2494010  64.7613465  44.7782168   6.1154121  55.9634349
  43.9682896   5.7701206  56.3389595  45.4666585   5.8061665  56.5521961
  46.7072716   5.1932168  57.5858646  47.2603755   5.6127621  58.2448669
  46.9442803   4.2667916  57.6281602  42.7305816  11.1819242  73.3661410
  42.6302543  12.1313599  73.2973501  42.5127358  10.8537481  72.4937480
  41.9318887   8.4304167  49.9502087  42.7938051   8.7559065  50.2097904
  42.1169231   7.6435663  49.4375153  33.9486303  16.5126506  62.2282276
  33.2549774  16.0980459  61.7152230  34.6959294  16.5547043  61.6315695
  50.0851523   7.3032693  57.0937310  49.5050193   7.9617497  56.7115362
  49.8187456   6.4810038  56.6824728  48.5355090   6.7037751  59.2958630
  49.0354868   6.8154285  58.4872949  49.1790698   6.3998804  59.9359439
  42.5937086  14.6116381  72.1826471  42.1104167  15.4116741  72.3890360
  42.6798025  14.6224325  71.2293915  35.8623045  16.4444760  60.1048291
  35.8393733  16.5432447  59.1530174  36.1723682  17.2909911  60.4265457
  38.5210423  18.5020915  64.2194905  39.4753677  18.4704858  64.1524837
  38.3222947  18.0411539  65.0345131  39.1109805  17.0722031  66.7865703
  39.9302694  17.5666110  66.8100540  39.3846613  16.1553999  66.7583270
  48.8676401   9.4632784  56.1493658  47.9802257   9.7482434  55.9313853
  49.2830391   9.3026547  55.3020935  52.2190938   9.4879305  59.8647998
  52.9951328   9.9775757  60.1372614  51.4939072   9.9137359  60.3219867
  54.6563496  10.2006924  60.9221938  55.2507987   9.9602660  60.2115246
  54.7290080   9.4814054  61.5495474  36.8760652  24.0440535  61.2365103
  36.7415120  23.2840936  60.6703101  36.4592714  24.7681435  60.7693892
  48.0119615  19.2277458  50.2441678  48.7155465  19.4327461  50.8599334
  47.2882264  19.7954220  50.5090762  48.8417425  14.9787320  56.3643948
  48.7852627  15.4355871  55.5251581  49.3945768  14.2178004  56.1866791
  52.6522231  10.7677051  57.1894068  52.3959165  10.3673687  58.0202276
  52.0275099  11.4820845  57.0644207  56.9634569  13.5073125  59.6965359
  56.4034127  13.5766314  60.4696921  56.3578072  13.3314109  58.9764856
  40.0329778  24.9409852  61.4483546  39.9162162  25.8855284  61.3462236
  39.2122224  24.6383413  61.8369345  49.9206312  19.6659987  52.2940138
  50.7551916  19.2341186  52.1117613  49.7590655  19.4942001  53.2217033
  49.5752205  16.1692101  53.6596478  49.5201008  16.0036372  52.7184922
  48.9498260  16.8768134  53.8158667  34.3644720  11.4060165  67.4857900
  35.0103583  10.8959119  67.9745125  34.1561871  12.1428847  68.0601325
  46.8898112  18.4741013  72.9850040  47.7589271  18.6481665  72.6236675
  46.4104863  19.2935429  72.8625770  42.8848330   5.6700210  53.2381796
  42.8727000   6.6142050  53.3950067  43.7771752   5.4870355  52.9441257
  41.0584292  25.5938114  64.6639474  41.9611539  25.6261724  64.9805969
  40.8321662  24.6638565  64.6785810  42.8137894  24.3469100  61.3249553
  41.8633525  24.3470962  61.2113925  43.1170380  23.6001835  60.8085587
  46.7000449   2.2642986  57.4927733  45.9332845   1.7101473  57.6384415
  47.1111154   2.3364855  58.3541884  38.7042211   8.5527782  71.5832914
  39.5673672   8.1964587  71.7936239  38.1307621   8.2141677  72.2708318
  58.5490587  30.1829639  62.3895315  59.1868997  30.0636386  61.6858655
  58.4311430  31.1310483  62.4483267  55.3580294  30.1357067  62.3256840
  55.0198805  30.0198131  61.4377375  56.2270062  29.7348232  62.3057846
  51.2167109  31.9892543  58.3153731  50.6531975  31.8982480  57.5470018
  51.1019504  31.1692448  58.7956223  55.8400077  31.2891918  68.2843045
  55.8288717  30.8944717  67.4123549  56.0020716  30.5557991  68.8776817
  56.7966668  35.6563511  53.6268196  56.1454648  36.2417591  53.2402209
  57.5911031  36.1869706  53.6863233  52.5607338  34.0729030  67.2322229
  52.2697204  34.9774661  67.1168896  53.1964322  34.1145558  67.9466299
  53.4863545  31.4505879  63.8223589  54.0827117  31.2261901  63.1080552
  53.5438516  30.7090624  64.4249037  53.0588573  28.9045314  51.6573780
  53.3114094  28.3826835  50.8957243  52.1213132  28.7411459  51.7600463
  58.1031856  27.9081092  59.4648523  58.8894945  27.4900516  59.1138940
  58.3670560  28.8127185  59.6330171  58.2741933  33.3453943  54.1637180
  57.6387766  33.4188569  54.8758085  57.9439340  33.9347542  53.4856259
  63.5040283  27.8456326  60.3681502  64.2365455  27.2755542  60.6019331
  62.7479639  27.4577926  60.8088007  52.7784862  30.8073420  53.8598155
  52.6621120  30.1318323  54.5279239  52.8887122  30.3205794  53.0430308
  55.1216403  30.2683567  57.5644844  54.7574610  29.7414188  58.2757766
  55.9783519  29.8782036  57.3911329  61.0265703  21.5577900  64.8276110
  60.6949028  22.4273311  64.6037325  60.4311317  21.2414184  65.5070141
  54.7621890  25.2973467  52.5606193  54.9296292  26.1653703  52.9276664
  54.5719059  25.4600748  51.6367482  57.5197223  33.7590446  64.2272023
  57.2197946  34.6615485  64.1187830  57.1748282  33.4922629  65.0793176
  50.9709704  30.2104243  60.2608727  50.0460201  30.0780457  60.4686419
  51.2194118  30.9898462  60.7578670  60.9194367  26.2772986  61.9069460
  60.0111244  26.2088394  61.6128221  60.8681963  26.7544931  62.7351286
  54.7411111  27.7531124  53.5452859  54.6210736  28.1988175  54.3838340
  54.0463699  28.1016442  52.9866398  48.3318515  29.8537516  61.0952516
  48.4610897  30.1071995  62.0091928  47.6515967  30.4465224  60.7757172
  54.9935233  27.6962631  69.8504358  54.2168567  28.2556552  69.8407222
  55.6325796  28.1819414  70.3719228  62.7856013  24.4789424  63.6847334
  62.1430393  24.7721957  63.0387129  62.2810942  24.3642345  64.4900531
  60.4396177  28.2252597  54.3733193  61.3514033  28.4579984  54.1980891
  59.9305824  28.8089642  53.8108272  53.2481605  30.5048085  69.4122325
  53.9896289  31.0433129  69.1357148  52.5418590  31.1314374  69.5693876
  58.7236944  32.6477225  68.0094486  59.1320300  32.2059636  67.2649118
  58.0014206  32.0729853  68.2628679  55.0768015  27.5849832  65.3828043
  55.9229210  28.0089246  65.5262692  55.0166652  26.9283456  66.0766606
  59.0465759  33.2078416  61.7646775  58.4174622  33.3724130  61.0622843
  58.6591421  33.6220025  62.5357739  62.9254991  34.1432854  59.1191139
  62.2406029  34.5231755  58.5688172  63.0098840  34.7528180  59.8523086
  58.2267460  25.2454200  67.0409217  57.9828392  25.9996261  66.5043492
  58.5027390  25.6239548  67.8756464  60.1805923  31.7892813  65.7186482
  60.3922818  32.4324573  65.0420863  60.1335671  30.9555129  65.2508412
  57.7832152  24.4010633  62.6223054  56.9216631  24.6991887  62.9139792
  57.8094586  24.6181032  61.6904087  54.5993721  32.9452824  59.0296860
  55.0632067  33.2240527  58.2401482  54.3350519  32.0436269  58.8469951
  53.5362607  29.0675976  55.8386425  54.2386650  29.5197020  56.3060352
  53.2043236  28.4259795  56.4666318  51.9842969  27.6587733  70.2137635
  51.3541629  28.3404014  70.4473031  51.8779056  27.5470815  69.2690773
  47.2787941  27.3259529  61.1403559  46.4886995  27.5817058  60.6643669
  47.7699188  28.1407867  61.2455599  61.2951751  34.6664768  63.8908840
  62.1169194  34.2644955  63.6091521  61.2914153  34.5633002  64.8424955
  49.2302686  27.6904108  58.0987035  48.4333850  27.8022803  58.6170531
  49.0028279  28.0290761  57.2327926  55.0608354  34.2148812  66.0469550
  55.1252787  34.6769219  66.8827722  54.3519278  33.5846176  66.1751860
  45.5625644  27.5790019  63.5718550  45.8133682  28.4637029  63.8376125
  46.0985192  27.3994621  62.7993641  69.3857744  31.0103517  60.2393811
  68.6321452  30.4410915  60.0837815  69.5205285  30.9766181  61.1864446
  51.2623711  21.9608499  72.5762886  50.8690657  21.4074697  73.2510530
  52.0789852  22.2719077  72.9669403  54.1791672  23.3766378  70.1683142
  54.9201386  23.9773531  70.0887605  54.4109595  22.6344016  69.6101185
  49.3233010  28.5622745  68.4461372  49.2086525  27.6608002  68.7468471
  48.4677528  28.8086442  68.0946188  56.4024848  36.5040486  70.0448872
  55.9588702  35.7176864  69.7269777  57.0642062  36.6919636  69.3792763
  58.5006086  36.7843285  68.0730274  58.4824561  37.6052166  67.5810543
  59.4226006  36.6597361  68.2980415  54.9579140  34.2987415  68.9153782
  55.4907477  33.5375703  68.6853090  54.4293221  34.0061067  69.6577937
  58.1248835  19.4047481  64.4447424  57.7813105  20.2949123  64.3686534
  58.4927798  19.2149139  63.5817009  58.0899118  29.3956092  52.9519859
  57.5745741  30.1660697  53.1908246  57.8176426  28.7221228  53.5752920
  55.6746229  24.2405793  58.0105097  54.8187825  23.8512643  57.8310736
  56.0873181  24.3197754  57.1504883  57.2045376  21.7752136  62.4096657
  56.7010171  21.7382271  61.5964462  57.4975982  22.6844879  62.4693314
  53.4488261  21.8590866  61.4162839  54.3141258  21.6633674  61.0568728
  53.5165770  21.6301218  62.3432196  63.0633392  32.1488447  54.8873032
  62.2862835  31.8099606  54.4428194  63.7424873  32.1541070  54.2127997
  57.8785421  27.2683184  54.7779640  57.5735557  27.5829333  55.6289783
  58.8315863  27.3464604  54.8206973  56.3231853  33.4273407  56.4272594
  55.7953215  32.6926167  56.1145832  55.8219356  34.2048084  56.1812562
  61.3024699  31.6222428  61.5439640  60.6448373  32.3121689  61.6319769
  62.1065098  32.0118860  61.8873627  51.0550581  24.0893074  58.7879206
  51.6294332  23.8668255  58.0552399  51.6421563  24.1581768  59.5407807
  60.1130158  29.9766801  59.5943582  60.6262040  30.6096792  60.0965292
  60.7631382  29.3767996  59.2286942  51.3820168  26.1197535  52.8075091
  50.5457480  26.4572221  53.1284366  51.2424937  25.9846515  51.8702228
  53.3573248  20.9634323  57.5154275  52.7037661  20.6483340  56.8910890
  53.3153722  20.3410063  58.2414098  54.4684453  31.2453618  49.4307567
  53.5611515  31.0142871  49.6298716  54.9655485  30.4491237  49.6181549
  57.3752532  39.9551125  52.3504253  56.7014231  40.2582822  52.9589211
  57.7618354  40.7580205  52.0009710  56.5910989  27.4516256  61.8401923
  55.6733550  27.6731203  61.6823611  57.0071132  27.5262567  60.9813630
  57.3746036  28.8507672  56.9704603  58.1217855  29.3629069  56.6611725
  57.6437626  28.5291725  57.8308996  55.6472687  31.3466213  53.9531557
  54.7383906  31.0625245  54.0504027  55.6767770  31.7665291  53.0934864
  60.8791954  34.9572802  57.7222725  60.4254281  34.1163712  57.7787915
  60.2485921  35.5934200  58.0597505  59.8224874  25.8864788  58.9523392
  59.0847630  25.3742174  59.2833635  60.0751647  25.4465170  58.1406669
  59.3224893  36.7949299  58.6572543  59.6147868  37.3554356  57.9384909
  59.8323514  37.0877860  59.4125702  59.9236501  18.6641040  59.5465162
  60.2295378  17.8038403  59.2591077  60.6489106  19.2558660  59.3464155
  46.2160857  29.0671727  57.9346759  46.0185257  28.4741087  57.2097826
  45.6607521  28.7623937  58.6522698  54.1957581  28.9594833  60.0541353
  54.2506190  28.0068670  59.9783829  53.3848783  29.1154272  60.5382651
  55.3448774  32.8874956  51.2919636  54.9068204  32.1710815  50.8325273
  56.0859215  33.1151071  50.7304727  52.1349941  27.5771893  57.8131731
  51.3217806  27.8766063  58.2196924  52.6308935  27.1827582  58.5306214
  57.7324152  28.0413717  66.6446625  58.0873540  28.2685190  67.5041091
  58.3796283  28.3732094  66.0223881  63.4621889  31.1632153  57.3495954
  63.3239788  31.3533749  56.4217144  63.1058108  31.9251536  57.8064005
  51.6264015  25.1490248  63.4292966  52.2663395  25.0079008  62.7315930
  50.7941546  24.8624762  63.0531568  63.4891269  33.2308680  62.3607226
  63.9227775  33.1383969  63.2090280  64.2022849  33.2066181  61.7227242
  57.2219164  36.8310774  63.8940326  57.2756186  37.4001711  64.6618042
  56.3533945  37.0012659  63.5294364  48.7107083  28.5935761  55.6187712
  47.7804671  28.5320216  55.8357674  48.8064555  28.0711713  54.8224353
  48.6292632  25.1190573  58.2065953  48.8899449  26.0335907  58.0975114
  49.4509804  24.6515016  58.3562566  50.1017557  26.5328331  65.3764778
  50.7740610  26.3245693  64.7277427  49.2747344  26.3350417  64.9370010
  64.3506818  33.2732381  64.8940111  64.5442708  34.1778191  65.1399386
  64.2507436  32.8139800  65.7278696  56.0043129  23.1590271  67.3930439
  55.3571044  23.8580221  67.2994915  56.7744144  23.5926415  67.7606687
  59.4121927  33.4239124  70.4680992  59.2607433  33.1949675  69.5511076
  59.4026606  34.3809725  70.4812337  56.1807263  30.9971036  65.4527258
  57.1099323  31.1482196  65.2796226  55.7598293  31.0855057  64.5975905
  54.9795595  35.0221701  63.2225796  54.8406681  34.6540485  64.0951734
  54.1910191  35.5369340  63.0509754  56.5300810  34.4003304  60.6114634
  56.1950643  34.3604073  61.5072284  56.0304756  33.7348019  60.1385044
  50.5045054  29.8070934  66.1367215  50.3664852  29.0751172  66.7378754
  51.4149978  29.7179834  65.8551403  59.4660002  31.7459338  50.8851693
  58.8489173  31.0206166  50.7884746  58.9976490  32.5068698  50.5418768
  53.1327355  29.5190893  65.6250895  53.8426974  28.8784085  65.5837513
  53.0896663  29.7703788  66.5477075  61.1214134  36.4558246  68.5457474
  61.0626680  35.7717466  67.8788057  61.5233652  37.1977236  68.0938100
  51.8456289  26.5056111  67.4446534  51.3093646  26.0546849  68.0968130
  51.2572997  26.6402020  66.7016998  51.2558548  25.9644762  50.0072998
  50.3788014  25.8433563  49.6435244  51.7316301  25.1730840  49.7551886
  61.1231541  34.4197830  66.7771453  60.2358320  34.0823752  66.8997852
  61.6930092  33.6880861  67.0140219  42.7760688  30.7521922  60.1014505
  43.4631728  30.4383652  59.5135520  42.6208817  31.6563287  59.8281756
  47.5795410  25.6412118  64.5299529  47.4953599  25.0337788  63.7949938
  46.7578117  26.1321137  64.5309025  57.7519124  24.1265682  59.8969724
  58.2487824  23.3735644  59.5770794  56.9806106  24.1629999  59.3312933
  65.6048881  29.8306048  61.5388015  65.5938758  30.7130763  61.1681948
  64.7366261  29.4777598  61.3442552  57.1131378  38.9786117  65.8990855
  57.8259350  39.6133581  65.8266757  56.6221406  39.0749983  65.0830857
  58.8348905  32.8837369  57.4708147  57.9005183  33.0038832  57.3012851
  59.0125573  31.9809836  57.2068157  54.3354093  26.2683065  59.6241408
  53.9651880  25.7154105  60.3122314  54.8313185  25.6641198  59.0716408
  62.2221456  28.7254688  58.0058181  62.6881908  29.5582680  57.9318484
  62.6728957  28.2599670  58.7103440  52.1643291  36.7280560  66.7196426
  52.8652751  37.3617043  66.8725820  51.6938406  37.0695292  65.9592065
  60.2897687  35.0698510  55.0044333  60.5657531  34.9555104  55.9138207
  59.4202186  34.6715995  54.9656506  60.1938119  21.0935275  62.0449082
  59.2801199  21.3239502  62.2131289  60.6231220  21.1773720  62.8963115
  59.9644577  29.2825167  64.5448976  59.3116028  29.5301075  63.8901429
  60.3424957  28.4689306  64.2111454  57.2593917  38.2453046  55.9092195
  57.7881683  37.7345500  55.2962357  57.5222136  37.9295576  56.7737728
  56.0132150  30.0244978  71.0315014  55.3372787  29.9239108  71.7017389
  56.8359784  29.8684192  71.4951011  42.3528664  28.8322515  62.3731972
  42.3912764  28.2986106  63.1669090  41.8468957  28.3057721  61.7542949
  49.7319426  23.6787056  65.8694514  49.7960753  24.5401887  65.4571912
  49.6686547  23.0661057  65.1366873  49.2071699  25.7510188  69.5167549
  49.8343738  25.3687266  70.1305073  48.3499618  25.5324390  69.8823241
  59.6065808  36.1573163  71.1221284  60.1505712  36.7703122  70.6276239
  59.0252652  36.7152742  71.6388297  45.9837242  27.5586617  55.4485903
  46.2790683  26.6497296  55.3952957  45.0825278  27.5374357  55.1266906
  49.5131489  25.6342614  61.4313452  48.7918075  26.2478582  61.2920925
  50.3024745  26.1700379  61.3530098  59.9558229  37.0802902  63.8815862
  59.0088564  36.9608253  63.8094189  60.3041002  36.1925400  63.9642123
  52.3157802  22.9697040  67.7054104  52.8392204  23.2159337  68.4680413
  52.0970136  23.8017075  67.2857241  47.7125083  25.2400715  55.5725228
  47.3837789  24.3598094  55.3900334  48.0664454  25.1848384  56.4601618
  50.8266906  25.5273685  55.9400706  51.1662979  26.0559606  55.2179315
  51.2739027  25.8654091  56.7159273  60.5638784  37.6984176  61.1685087
  61.4885332  37.4927038  61.0309538  60.3954087  37.4500578  62.0774428
  53.5210347  23.9110736  65.3903774  53.1807168  23.1118549  65.7924454
  52.8149354  24.2112446  64.8180607  54.1726819  20.9960048  63.8431097
  54.9952888  20.5220526  63.7209988  54.4164883  21.7750532  64.3429784
  52.8135054  24.0248306  54.1393999  53.5343416  24.4029559  53.6357716
  52.1900358  24.7437183  54.2428977  56.9566177  24.7293455  55.0752331
  57.1729791  25.6118093  54.7741159  56.4760244  24.3379669  54.3457973
  51.6965398  27.6879169  61.6523076  51.5509979  28.0019472  62.5447357
  51.2190602  28.3064069  61.0993974  53.5561781  24.6781717  61.7003965
  53.5423350  23.7822810  61.3636263  54.2734209  24.6852380  62.3342251
  55.4087912  25.1119057  63.7457093  55.1505689  26.0336127  63.7441423
  54.8772952  24.7149491  64.4357557  60.3534100  38.2169844  56.5247178
  60.5270978  37.6516266  55.7721031  60.8462991  39.0170739  56.3426668
  46.1711060  30.2284513  64.5910737  45.6264528  31.0044321  64.7231011
  47.0490410  30.5755318  64.4329858  52.9598677  23.5596097  56.9691536
  53.0814588  22.6312743  57.1682423  52.6700719  23.5734783  56.0569851
  55.8289867  21.2451007  60.1058255  55.8511564  21.3090340  59.1510235
  56.2457926  20.4055516  60.2998762  66.2073491  30.9806267  58.1437478
  66.6504637  30.2313592  57.7456601  65.3300002  30.9716403  57.7611210
  61.3409273  37.5336608  53.6244076  62.0360177  38.1543301  53.8431391
  61.6832423  36.6831960  53.8996454  46.9577082  29.3554409  67.4840894
  46.2158818  29.5037045  68.0705524  46.6369826  29.6162675  66.6207643
  63.2400696  34.9836314  55.1531407  63.7652020  35.3223587  54.4280727
  63.1523048  34.0483329  54.9694542  54.9020745  38.8970388  67.2821284
  55.2107871  38.6519534  68.1543983  55.6996227  39.1017026  66.7940154
  52.4439756  25.0728094  71.1781468  52.4927912  25.9490217  70.7959238
  52.9862270  24.5305487  70.6053111  62.9294602  35.6169218  70.4582605
  62.1390146  35.5993356  69.9187105  62.6927957  36.1557511  71.2131642
  63.0492477  32.4661684  67.7715334  63.0990482  32.3011691  68.7130857
  62.9406400  31.5988943  67.3813215  60.3396239  28.4492612  69.0874640
  61.2406102  28.3099077  68.7958638  60.4144214  28.6147067  70.0272818
  54.6739045  25.8259467  67.9327827  53.8042354  26.1193033  67.6610415
  54.9098525  26.4099912  68.6535090  64.5510674  34.8858625  68.0157355
  64.2595482  35.2488606  68.8520816  63.9382805  34.1725634  67.8370687
  65.7506356  32.4511505  60.5359926  66.5853248  32.8901309  60.6997486
  65.8865485  31.9750158  59.7168171  62.7997862  30.0091240  66.4837413
  63.2751984  30.2018886  65.6756265  61.8763427  30.0650426  66.2380797
  49.6881369  31.1715407  56.0668492  49.4427411  30.2677737  56.2648702
  49.8577283  31.1732558  55.1247970  57.3778079  22.0439084  65.4493247
  57.8960022  22.7800111  65.1239736  57.0233211  22.3503077  66.2840006
  48.9577016  26.9043765  53.5654653  48.2646261  26.9788120  52.9094689
  48.7128768  26.1404108  54.0876170  57.6290673  18.4639366  60.9694144
  57.9092426  17.7962555  61.5954570  58.4141280  18.6568462  60.4568808
  55.4324141  37.6398360  52.5319170  54.8598108  38.2588547  52.0789642
  56.0056935  38.1897722  53.0659092  61.4999531  26.8857000  64.7165719
  62.4516954  26.9855098  64.7377943  61.3302981  26.0935269  65.2263803
  59.5213911  23.9712583  64.9025120  58.9263843  24.2517596  64.2071608
  59.2363607  24.4606484  65.6741861  58.6521401  37.9235510  53.6627752
  59.5852074  37.8581072  53.8660628  58.5644614  38.7591777  53.2042285
  61.2809418  37.2401381  50.6231700  61.2023049  36.9061244  51.5167458
  62.1019084  37.7323148  50.6223172  63.9787609  30.1063120  63.8308019
  63.9463929  29.1679121  64.0167702  64.5888232  30.1847157  63.0973843
  55.8170940  28.9759173  49.8735223  56.7630044  28.8465381  49.9423641
  55.4385185  28.2373835  50.3504651  64.1282097  26.8974163  63.8766302
  63.6121146  26.1132620  63.6896231  65.0122046  26.5692880  64.0412821
  61.7892824  20.6415179  59.8362114  61.5917645  20.3330267  60.7205446
  62.3992530  21.3676818  59.9660044  69.7964159  31.1679127  62.9714055
  70.5267547  30.9064415  63.5321759  69.1871104  30.4307849  63.0116123
  67.8779456  29.3086989  63.5688507  67.1512619  29.1742954  62.9604998
  67.4626743  29.6163818  64.3745225  55.7009632  33.0276919  71.3335880
  56.6212642  33.2055518  71.5275926  55.6659215  32.0832964  71.1815579
  54.0013857  26.9009149  49.8090108  53.0945312  26.6042262  49.8852821
  54.2789838  26.6038967  48.9424394  44.9191797  28.2215513  60.2589154
  44.5994582  27.3680821  59.9663528  44.3725225  28.4364091  61.0147122
  48.6971705  30.9377954  63.9758661  48.9157715  31.8695061  63.9946695
  49.1097479  30.5785928  64.7613465  55.6175923  21.4446039  55.9634349
  54.8076651  21.0993124  56.3389595  56.3060340  21.1353583  56.5521961
  57.5466471  20.5224086  57.5858646  58.0997509  20.9419539  58.2448669
  57.7836557  19.5959834  57.6281602  53.5699570  26.5111159  73.3661410
  53.4696297  27.4605516  73.2973501  53.3521112  26.1829398  72.4937480
  52.7712641  23.7596084  49.9502087  53.6331805  24.0850983  50.2097904
  52.9562986  22.9727580  49.4375153  44.7880057  31.8418424  62.2282276
  44.0943529  31.4272377  61.7152230  45.5353048  31.8838961  61.6315695
  60.9245278  22.6324611  57.0937310  60.3443947  23.2909415  56.7115362
  60.6581211  21.8101955  56.6824728  59.3748844  22.0329669  59.2958630
  59.8748623  22.1446203  58.4872949  60.0184452  21.7290721  59.9359439
  53.4330840  29.9408298  72.1826471  52.9497922  30.7408658  72.3890360
  53.5191779  29.9516243  71.2293915  46.7016800  31.7736678  60.1048291
  46.6787488  31.8724365  59.1530174  47.0117436  32.6201829  60.4265457
  49.9503560  32.4013949  66.7865703  50.7696449  32.8958028  66.8100540
  50.2240367  31.4845917  66.7583270  59.7070156  24.7924701  56.1493658
  58.8196011  25.0774352  55.9313853  60.1224145  24.6318465  55.3020935
  63.0584692  24.8171222  59.8647998  63.8345082  25.3067675  60.1372614
  62.3332826  25.2429276  60.3219867  65.4957251  25.5298841  60.9221938
  66.0901742  25.2894577  60.2115246  65.5683834  24.8105972  61.5495474
  58.8513369  34.5569376  50.2441678  59.5549220  34.7619378  50.8599334
  58.1276018  35.1246138  50.5090762  59.6811180  30.3079237  56.3643948
  59.6246381  30.7647789  55.5251581  60.2339522  29.5469922  56.1866791
  63.4915986  26.0968969  57.1894068  63.2352920  25.6965605  58.0202276
  62.8668854  26.8112763  57.0644207  67.8028323  28.8365042  59.6965359
  67.2427881  28.9058232  60.4696921  67.1971827  28.6606027  58.9764856
  60.7600067  34.9951905  52.2940138  61.5945671  34.5633104  52.1117613
  60.5984410  34.8233919  53.2217033  60.4145959  31.4984018  53.6596478
  60.3594763  31.3328290  52.7184922  59.7892014  32.2060051  53.8158667
  45.2038474  26.7352083  67.4857900  45.8497338  26.2251037  67.9745125
  44.9955625  27.4720764  68.0601325  57.7291866  33.8032930  72.9850040
  58.5983026  33.9773583  72.6236675  57.2498618  34.6227347  72.8625770
  53.7242084  20.9992127  53.2381796  53.7120754  21.9433967  53.3950067
  54.6165506  20.8162273  52.9441257  57.5394204  17.5934904  57.4927733
  56.7726600  17.0393391  57.6384415  57.9504909  17.6656773  58.3541884
  49.5435965  23.8819700  71.5832914  50.4067427  23.5256505  71.7936239
  48.9701376  23.5433595  72.2708318  66.1974048  45.4648984  62.3256840
  65.8592560  45.3490049  61.4377375  67.0663816  45.0640149  62.3057846
  62.0560864  47.3184461  58.3153731  61.4925729  47.2274398  57.5470018
  61.9413259  46.4984365  58.7956223  66.6793831  46.6183836  68.2843045
  66.6682472  46.2236634  67.4123549  66.8414471  45.8849909  68.8776817
  67.6360423  50.9855428  53.6268196  66.9848402  51.5709509  53.2402209
  68.4304785  51.5161623  53.6863233  68.9425610  43.2373010  59.4648523
  69.7288700  42.8192433  59.1138940  69.2064315  44.1419102  59.6330171
  69.1135688  48.6745860  54.1637180  68.4781521  48.7480487  54.8758085
  68.7833094  49.2639459  53.4856259  74.3434038  43.1748243  60.3681502
  75.0759209  42.6047460  60.6019331  73.5873393  42.7869844  60.8088007
  63.6178616  46.1365338  53.8598155  63.5014874  45.4610241  54.5279239
  63.7280876  45.6497712  53.0430308  65.9610157  45.5975485  57.5644844
  65.5968365  45.0706106  58.2757766  66.8177273  45.2073954  57.3911329
  71.8659458  36.8869817  64.8276110  71.5342783  37.7565228  64.6037325
  71.2705071  36.5706101  65.5070141  65.6015644  40.6265384  52.5606193
  65.7690047  41.4945621  52.9276664  65.4112813  40.7892666  51.6367482
  71.7588121  41.6064904  61.9069460  70.8504999  41.5380312  61.6128221
  71.7075717  42.0836848  62.7351286  65.5804865  43.0823042  53.5452859
  65.4604490  43.5280093  54.3838340  64.8857454  43.4308360  52.9866398
  65.8328987  43.0254549  69.8504358  65.0562321  43.5848469  69.8407222
  66.4719550  43.5111332  70.3719228  73.6249768  39.8081342  63.6847334
  72.9824148  40.1013875  63.0387129  73.1204696  39.6934262  64.4900531
  71.2789931  43.5544515  54.3733193  72.1907787  43.7871902  54.1980891
  70.7699578  44.1381559  53.8108272  64.0875359  45.8340003  69.4122325
  64.8290044  46.3725046  69.1357148  63.3812345  46.4606291  69.5693876
  65.9161769  42.9141750  65.3828043  66.7622964  43.3381163  65.5262692
  65.8560407  42.2575374  66.0766606  73.7648745  49.4724771  59.1191139
  73.0799784  49.8523673  58.5688172  73.8492595  50.0820098  59.8523086
  69.0661214  40.5746118  67.0409217  68.8222146  41.3288179  66.5043492
  69.3421145  40.9531466  67.8756464  68.6225906  39.7302551  62.6223054
  67.7610385  40.0283805  62.9139792  68.6488341  39.9472950  61.6904087
  64.3756362  44.3967894  55.8386425  65.0780405  44.8488938  56.3060352
  64.0436990  43.7551713  56.4666318  62.8236723  42.9879651  70.2137635
  62.1935384  43.6695932  70.4473031  62.7172811  42.8762732  69.2690773
  60.0696441  43.0196026  58.0987035  59.2727604  43.1314720  58.6170531
  59.8422033  43.3582678  57.2327926  80.2251498  46.3395434  60.2393811
  79.4715206  45.7702832  60.0837815  80.3599039  46.3058099  61.1864446
  62.1017466  37.2900417  72.5762886  61.7084411  36.7366615  73.2510530
  62.9183606  37.6010995  72.9669403  65.0185427  38.7058296  70.1683142
  65.7595140  39.3065449  70.0887605  65.2503350  37.9635933  69.6101185
  67.2418603  51.8332403  70.0448872  66.7982457  51.0468782  69.7269777
  67.9035816  52.0211554  69.3792763  68.9642590  34.7339399  64.4447424
  68.6206859  35.6241040  64.3686534  69.3321552  34.5441056  63.5817009
  66.5139983  39.5697710  58.0105097  65.6581580  39.1804561  57.8310736
  66.9266935  39.6489671  57.1504883  68.0439130  37.1044054  62.4096657
  67.5403926  37.0674189  61.5964462  68.3369737  38.0136796  62.4693314
  64.2882016  37.1882783  61.4162839  65.1535013  36.9925592  61.0568728
  64.3559525  36.9593135  62.3432196  73.9027147  47.4780364  54.8873032
  73.1256589  47.1391524  54.4428194  74.5818628  47.4832987  54.2127997
  68.7179176  42.5975102  54.7779640  68.4129311  42.9121251  55.6289783
  69.6709618  42.6756522  54.8206973  67.1625607  48.7565325  56.4272594
  66.6346969  48.0218085  56.1145832  66.6613110  49.5340001  56.1812562
  61.8944335  39.4184991  58.7879206  62.4688087  39.1960173  58.0552399
  62.4815318  39.4873686  59.5407807  62.2213922  41.4489452  52.8075091
  61.3851234  41.7864139  53.1284366  62.0818692  41.3138432  51.8702228
  64.1967003  36.2926240  57.5154275  63.5431415  35.9775257  56.8910890
  64.1547477  35.6701981  58.2414098  67.4304743  42.7808174  61.8401923
  66.5127305  43.0023121  61.6823611  67.8464887  42.8554484  60.9813630
  68.2139791  44.1799589  56.9704603  68.9611610  44.6920987  56.6611725
  68.4831380  43.8583642  57.8308996  66.4866441  46.6758130  53.9531557
  65.5777660  46.3917163  54.0504027  66.5161525  47.0957209  53.0934864
  70.6618628  41.2156706  58.9523392  69.9241385  40.7034092  59.2833635
  70.9145402  40.7757087  58.1406669  70.7630255  33.9932958  59.5465162
  71.0689132  33.1330321  59.2591077  71.4882860  34.5850578  59.3464155
  65.0351335  44.2886751  60.0541353  65.0899945  43.3360587  59.9783829
  64.2242537  44.4446190  60.5382651  62.9743695  42.9063811  57.8131731
  62.1611561  43.2057981  58.2196924  63.4702689  42.5119499  58.5306214
  68.5717907  43.3705635  66.6446625  68.9267294  43.5977108  67.5041091
  69.2190038  43.7024012  66.0223881  74.3015644  46.4924071  57.3495954
  74.1633542  46.6825667  56.4217144  73.9451862  47.2543454  57.8064005
  62.4657770  40.4782166  63.4292966  63.1057149  40.3370925  62.7315930
  61.6335300  40.1916679  63.0531568  59.4686386  40.4482491  58.2065953
  59.7293204  41.3627824  58.0975114  60.2903559  39.9806934  58.3562566
  60.9411312  41.8620248  65.3764778  61.6134365  41.6537610  64.7277427
  60.1141098  41.6642334  64.9370010  66.8436884  38.4882189  67.3930439
  66.1964799  39.1872139  67.2994915  67.6137899  38.9218333  67.7606687
  70.2515682  48.7531041  70.4680992  70.1001188  48.5241593  69.5511076
  70.2420361  49.7101643  70.4812337  62.6850043  41.8348028  67.4446534
  62.1487400  41.3838767  68.0968130  62.0966752  41.9693937  66.7016998
  58.4189165  40.9704036  64.5299529  58.3347353  40.3629706  63.7949938
  57.5971871  41.4613054  64.5309025  68.5912879  39.4557600  59.8969724
  69.0881578  38.7027562  59.5770794  67.8199860  39.4921916  59.3312933
  76.4442636  45.1597965  61.5388015  76.4332512  46.0422681  61.1681948
  75.5760015  44.8069516  61.3442552  69.6742659  48.2129287  57.4708147
  68.7398938  48.3330749  57.3012851  69.8519328  47.3101754  57.2068157
  65.1747847  41.5974983  59.6241408  64.8045635  41.0446023  60.3122314
  65.6706940  40.9933116  59.0716408  73.0615211  44.0546606  58.0058181
  73.5275663  44.8874598  57.9318484  73.5122711  43.5891588  58.7103440
  71.1291442  50.3990427  55.0044333  71.4051286  50.2847022  55.9138207
  70.2595940  50.0007912  54.9656506  71.0331873  36.4227193  62.0449082
  70.1194953  36.6531420  62.2131289  71.4624975  36.5065637  62.8963115
  66.8525905  45.3536896  71.0315014  66.1766542  45.2531025  71.7017389
  67.6753539  45.1976110  71.4951011  60.5713181  39.0078973  65.8694514
  60.6354507  39.8693804  65.4571912  60.5080301  38.3952975  65.1366873
  60.0465453  41.0802106  69.5167549  60.6737492  40.6979183  70.1305073
  59.1893372  40.8616308  69.8823241  60.3525243  40.9634532  61.4313452
  59.6311829  41.5770499  61.2920925  61.1418499  41.4992296  61.3530098
  63.1551557  38.2988958  67.7054104  63.6785959  38.5451255  68.4680413
  62.9363890  39.1308993  67.2857241  58.5518838  40.5692633  55.5725228
  58.2231544  39.6890012  55.3900334  58.9058209  40.5140301  56.4601618
  61.6660661  40.8565603  55.9400706  62.0056733  41.3851524  55.2179315
  62.1132781  41.1946009  56.7159273  64.3604102  39.2402653  65.3903774
  64.0200922  38.4410466  65.7924454  63.6543108  39.5404364  64.8180607
  65.0120574  36.3251966  63.8431097  65.8346643  35.8512444  63.7209988
  65.2558637  37.1042449  64.3429784  63.6528808  39.3540224  54.1393999
  64.3737171  39.7321477  53.6357716  63.0294112  40.0729101  54.2428977
  67.7959931  40.0585373  55.0752331  68.0123545  40.9410011  54.7741159
  67.3153998  39.6671586  54.3457973  62.5359152  43.0171086  61.6523076
  62.3903733  43.3311389  62.5447357  62.0584356  43.6355987  61.0993974
  64.3955535  40.0073634  61.7003965  64.3817104  39.1114728  61.3636263
  65.1127963  40.0144298  62.3342251  66.2481666  40.4410975  63.7457093
  65.9899444  41.3628045  63.7441423  65.7166706  40.0441409  64.4357557
  63.7992431  38.8888015  56.9691536  63.9208342  37.9604661  57.1682423
  63.5094474  38.9026701  56.0569851  66.6683622  36.5742925  60.1058255
  66.6905318  36.6382258  59.1510235  67.0851681  35.7347434  60.2998762
  77.0467246  46.3098185  58.1437478  77.4898392  45.5605510  57.7456601
  76.1693756  46.3008321  57.7611210  63.2833511  40.4020012  71.1781468
  63.3321666  41.2782135  70.7959238  63.8256025  39.8597405  70.6053111
  71.1789994  43.7784530  69.0874640  72.0799857  43.6390994  68.7958638
  71.2537968  43.9438984  70.0272818  65.5132799  41.1551384  67.9327827
  64.6436109  41.4484950  67.6610415  65.7492280  41.7391829  68.6535090
  76.5900111  47.7803423  60.5359926  77.4247002  48.2193227  60.6997486
  76.7259239  47.3042076  59.7168171  73.6391617  45.3383158  66.4837413
  74.1145738  45.5310804  65.6756265  72.7157182  45.3942344  66.2380797
  68.2171833  37.3731001  65.4493247  68.7353777  38.1092028  65.1239736
  67.8626966  37.6794995  66.2840006  59.7970771  42.2335682  53.5654653
  59.1040016  42.3080037  52.9094689  59.5522523  41.4696026  54.0876170
  68.4684427  33.7931284  60.9694144  68.7486181  33.1254473  61.5954570
  69.2535034  33.9860379  60.4568808  66.2717896  52.9690278  52.5319170
  65.6991863  53.5880465  52.0789642  66.8450689  53.5189639  53.0659092
  72.3393286  42.2148918  64.7165719  73.2910708  42.3147015  64.7377943
  72.1696736  41.4227186  65.2263803  70.3607665  39.3004501  64.9025120
  69.7657597  39.5809514  64.2071608  70.0757362  39.7898402  65.6741861
  74.8181363  45.4355038  63.8308019  74.7857683  44.4971038  64.0167702
  75.4281987  45.5139074  63.0973843  74.9675852  42.2266081  63.8766302
  74.4514900  41.4424538  63.6896231  75.8515800  41.8984798  64.0412821
  72.6286579  35.9707097  59.8362114  72.4311400  35.6622185  60.7205446
  73.2386284  36.6968735  59.9660044  80.6357913  46.4971044  62.9714055
  81.3661302  46.2356332  63.5321759  80.0264859  45.7599766  63.0116123
  78.7173210  44.6378907  63.5688507  77.9906374  44.5034872  62.9604998
  78.3020497  44.9455736  64.3745225  66.5403387  48.3568837  71.3335880
  67.4606396  48.5347436  71.5275926  66.5052970  47.4124882  71.1815579
  66.4569677  36.7737957  55.9634349  65.6470405  36.4285042  56.3389595
  67.1454094  36.4645500  56.5521961  68.3860225  35.8516003  57.5858646
  68.9391264  36.2711457  58.2448669  68.6230312  34.9251751  57.6281602
  64.4093325  41.8403077  73.3661410  64.3090051  42.7897434  73.2973501
  64.1914867  41.5121316  72.4937480  63.6106396  39.0888002  49.9502087
  64.4725560  39.4142900  50.2097904  63.7956740  38.3019498  49.4375153
  71.7639032  37.9616529  57.0937310  71.1837701  38.6201333  56.7115362
  71.4974965  37.1393873  56.6824728  70.2142599  37.3621586  59.2958630
  70.7142377  37.4738121  58.4872949  70.8578207  37.0582639  59.9359439
  64.2724595  45.2700216  72.1826471  63.7891676  46.0700576  72.3890360
  64.3585534  45.2808161  71.2293915  70.5463910  40.1216619  56.1493658
  69.6589765  40.4066270  55.9313853  70.9617900  39.9610382  55.3020935
  73.8978447  40.1463140  59.8647998  74.6738837  40.6359592  60.1372614
  73.1726581  40.5721194  60.3219867  76.3351005  40.8590759  60.9221938
  76.9295496  40.6186495  60.2115246  76.4077589  40.1397890  61.5495474
  70.5204934  45.6371155  56.3643948  70.4640136  46.0939706  55.5251581
  71.0733277  44.8761839  56.1866791  74.3309740  41.4260887  57.1894068
  74.0746674  41.0257522  58.0202276  73.7062608  42.1404681  57.0644207
  78.6422078  44.1656960  59.6965359  78.0821636  44.2350149  60.4696921
  78.0365581  43.9897945  58.9764856  71.2539714  46.8275936  53.6596478
  71.1988517  46.6620208  52.7184922  70.6285769  47.5351969  53.8158667
  68.5685621  49.1324848  72.9850040  69.4376780  49.3065500  72.6236675
  68.0892372  49.9519265  72.8625770  64.5635839  36.3284045  53.2381796
  64.5514509  37.2725885  53.3950067  65.4559261  36.1454191  52.9441257
  68.3787958  32.9226822  57.4927733  67.6120354  32.3685308  57.6384415
  68.7898663  32.9948691  58.3541884  60.3829719  39.2111618  71.5832914
  61.2461181  38.8548422  71.7936239  59.8095130  38.8725512  72.2708318
  85.1827792  58.5040161  60.3681502  85.9152964  57.9339378  60.6019331
  84.4267148  58.1161761  60.8088007  82.7053212  52.2161735  64.8276110
  82.3736537  53.0857146  64.6037325  82.1098826  51.8998019  65.5070141
  82.5981876  56.9356821  61.9069460  81.6898753  56.8672230  61.6128221
  82.5469472  57.4128766  62.7351286  84.4643522  55.1373260  63.6847334
  83.8217902  55.4305793  63.0387129  83.9598451  55.0226180  64.4900531
  84.6042500  64.8016689  59.1191139  83.9193538  65.1815590  58.5688172
  84.6886349  65.4112016  59.8523086  79.4619661  55.0594469  62.6223054
  78.6004140  55.3575722  62.9139792  79.4882095  55.2764868  61.6904087
  91.0645253  61.6687352  60.2393811  90.3108961  61.0994750  60.0837815
  91.1992794  61.6350017  61.1864446  79.8036344  50.0631316  64.4447424
  79.4600614  50.9532958  64.3686534  80.1715307  49.8732974  63.5817009
  78.8832885  52.4335971  62.4096657  78.3797680  52.3966107  61.5964462
  79.1763491  53.3428714  62.4693314  84.7420901  62.8072282  54.8873032
  83.9650344  62.4683441  54.4428194  85.4212382  62.8124905  54.2127997
  75.0360757  51.6218158  57.5154275  74.3825170  51.3067175  56.8910890
  74.9941231  50.9993898  58.2414098  81.5012383  56.5448623  58.9523392
  80.7635139  56.0326010  59.2833635  81.7539156  56.1049005  58.1406669
  81.6024010  49.3224875  59.5465162  81.9082887  48.4622239  59.2591077
  82.3276615  49.9142496  59.3464155  85.1409398  61.8215989  57.3495954
  85.0027297  62.0117585  56.4217144  84.7845617  62.5835371  57.8064005
  85.1678778  63.8892516  62.3607226  85.6015284  63.7967805  63.2090280
  85.8810358  63.8650016  61.7227242  86.0294327  63.9316216  64.8940111
  86.2230217  64.8362027  65.1399386  85.9294945  63.4723635  65.7278696
  81.1447511  62.4043173  50.8851693  80.5276682  61.6790001  50.7884746
  80.6763999  63.1652533  50.5418768  79.4306633  54.7849517  59.8969724
  79.9275333  54.0319480  59.5770794  78.6593615  54.8213834  59.3312933
  87.2836390  60.4889883  61.5388015  87.2726267  61.3714598  61.1681948
  86.4153770  60.1361434  61.3442552  83.9008965  59.3838524  58.0058181
  84.3669417  60.2166515  57.9318484  84.3516466  58.9183505  58.7103440
  81.8725628  51.7519111  62.0449082  80.9588708  51.9823338  62.2131289
  82.3018729  51.8357555  62.8963115  81.6432086  59.9409003  64.5448976
  80.9903537  60.1884910  63.8901429  82.0212466  59.1273141  64.2111454
  82.0321609  68.8753679  56.5247178  82.2058487  68.3100102  55.7721031
  82.5250500  69.6754574  56.3426668  77.5077376  51.9034843  60.1058255
  77.5299073  51.9674176  59.1510235  77.9245435  51.0639351  60.2998762
  87.8861000  61.6390102  58.1437478  88.3292146  60.8897427  57.7456601
  87.0087511  61.6300239  57.7611210  83.0196782  68.1920444  53.6244076
  83.7147686  68.8127136  53.8431391  83.3619932  67.3415795  53.8996454
  84.9188205  65.6420149  55.1531407  85.4439529  65.9807422  54.4280727
  84.8310557  64.7067165  54.9694542  84.7279986  63.1245519  67.7715334
  84.7777991  62.9595527  68.7130857  84.6193909  62.2572778  67.3813215
  82.0183748  59.1076447  69.0874640  82.9193611  58.9682912  68.7958638
  82.0931723  59.2730902  70.0272818  86.2298183  65.5442461  68.0157355
  85.9382991  65.9072441  68.8520816  85.6170314  64.8309469  67.8370687
  87.4293865  63.1095341  60.5359926  88.2640756  63.5485145  60.6997486
  87.5652994  62.6333994  59.7168171  84.4785371  60.6675075  66.4837413
  84.9539493  60.8602722  65.6756265  83.5550936  60.7234261  66.2380797
  79.0565588  52.7022919  65.4493247  79.5747531  53.4383946  65.1239736
  78.7020720  53.0086912  66.2840006  79.3078182  49.1223201  60.9694144
  79.5879935  48.4546391  61.5954570  80.0928789  49.3152297  60.4568808
  83.1787040  57.5440835  64.7165719  84.1304463  57.6438933  64.7377943
  83.0090490  56.7519104  65.2263803  81.2001419  54.6296419  64.9025120
  80.6051352  54.9101431  64.2071608  80.9151116  55.1190320  65.6741861
  82.9596927  67.8985216  50.6231700  82.8810558  67.5645079  51.5167458
  83.7806593  68.3906984  50.6223172  85.6575118  60.7646955  63.8308019
  85.6251438  59.8262956  64.0167702  86.2675741  60.8430992  63.0973843
  85.8069606  57.5557999  63.8766302  85.2908655  56.7716455  63.6896231
  86.6909555  57.2276715  64.0412821  83.4680333  51.2999014  59.8362114
  83.2705154  50.9914102  60.7205446  84.0780039  52.0260653  59.9660044
  91.4751668  61.8262962  62.9714055  92.2055056  61.5648250  63.5321759
  90.8658613  61.0891684  63.0116123  89.5566965  59.9670825  63.5688507
  88.8300128  59.8326790  62.9604998  89.1414252  60.2747653  64.3745225
  79.2253980  51.1807921  57.5858646  79.7785018  51.6003374  58.2448669
  79.4624066  50.2543669  57.6281602  82.6032787  53.2908446  57.0937310
  82.0231456  53.9493250  56.7115362  82.3368720  52.4685791  56.6824728
  81.0536353  52.6913504  59.2958630  81.5536132  52.8030038  58.4872949
  81.6971961  52.3874557  59.9359439  84.7372201  55.4755058  59.8647998
  85.5132591  55.9651510  60.1372614  84.0120335  55.9013112  60.3219867
  87.1744760  56.1882677  60.9221938  87.7689251  55.9478413  60.2115246
  87.2471343  55.4689807  61.5495474  80.5300878  65.2153211  50.2441678
  81.2336729  65.4203214  50.8599334  79.8063527  65.7829973  50.5090762
  85.1703495  56.7552804  57.1894068  84.9140429  56.3549440  58.0202276
  84.5456363  57.4696598  57.0644207  89.4815832  59.4948878  59.6965359
  88.9215390  59.5642067  60.4696921  88.8759336  59.3189862  58.9764856
  82.4387576  65.6535740  52.2940138  83.2733180  65.2216939  52.1117613
  82.2771919  65.4817754  53.2217033  79.2181713  48.2518739  57.4927733
  78.4514109  47.6977226  57.6384415  79.6292418  48.3240608  58.3541884
  91.0671851  76.1705392  62.3895315  91.7050261  76.0512139  61.6858655
  90.9492694  77.1186236  62.4483267  87.8761557  76.1232820  62.3256840
  87.5380069  76.0073884  61.4377375  88.7451325  75.7223985  62.3057846
  83.7348373  77.9768296  58.3153731  83.1713238  77.8858233  57.5470018
  83.6200768  77.1568201  58.7956223  88.3581340  77.2767671  68.2843045
  88.3469981  76.8820470  67.4123549  88.5201980  76.5433744  68.8776817
  81.2812805  79.4719488  61.1537951  82.0734097  79.1310312  60.7384250
  81.5209455  79.5814463  62.0740104  89.3147932  81.6439264  53.6268196
  88.6635911  82.2293344  53.2402209  90.1092294  82.1745459  53.6863233
  83.2403559  78.7328401  54.0255330  84.0134435  78.1857388  53.8868206
  83.5928958  79.5972650  54.2369791  85.0788601  80.0604783  67.2322229
  84.7878467  80.9650414  67.1168896  85.7145586  80.1021311  67.9466299
  86.0044808  77.4381632  63.8223589  86.6008380  77.2137654  63.1080552
  86.0619780  76.6966377  64.4249037  85.5769837  74.8921067  51.6573780
  85.8295357  74.3702588  50.8957243  84.6394396  74.7287213  51.7600463
  90.6213119  73.8956845  59.4648523  91.4076209  73.4776269  59.1138940
  90.8851824  74.8002938  59.6330171  90.7923197  79.3329696  54.1637180
  90.1569030  79.4064322  54.8758085  90.4620603  79.9223295  53.4856259
  96.0221547  73.8332079  60.3681502  96.7546718  73.2631295  60.6019331
  95.2660902  73.4453679  60.8088007  85.2966125  76.7949173  53.8598155
  85.1802383  76.1194076  54.5279239  85.4068385  76.3081547  53.0430308
  87.6397666  76.2559320  57.5644844  87.2755873  75.7289941  58.2757766
  88.4964782  75.8657789  57.3911329  93.5446967  67.5453653  64.8276110
  93.2130292  68.4149064  64.6037325  92.9492580  67.2289937  65.5070141
  87.2803153  71.2849220  52.5606193  87.4477556  72.1529456  52.9276664
  87.0900322  71.4476502  51.6367482  90.0378486  79.7466199  64.2272023
  89.7379210  80.6491238  64.1187830  89.6929546  79.4798382  65.0793176
  83.4890968  76.1979996  60.2608727  82.5641464  76.0656210  60.4686419
  83.7375381  76.9774215  60.7578670  93.4375630  72.2648739  61.9069460
  92.5292508  72.1964147  61.6128221  93.3863226  72.7420684  62.7351286
  87.2592374  73.7406877  53.5452859  87.1391999  74.1863928  54.3838340
  86.5644962  74.0892195  52.9866398  80.8499779  75.8413269  61.0952516
  80.9792160  76.0947748  62.0091928  80.1697230  76.4340977  60.7757172
  85.0199266  86.5110519  57.1942991  84.9423296  87.4618344  57.2731471
  84.4160910  86.1656392  57.8517917  87.5116496  73.6838385  69.8504358
  86.7349830  74.2432305  69.8407222  88.1507059  74.1695167  70.3719228
  95.3037277  70.4665177  63.6847334  94.6611657  70.7597710  63.0387129
  94.7992205  70.3518098  64.4900531  92.9577440  74.2128351  54.3733193
  93.8695296  74.4455737  54.1980891  92.4487087  74.7965395  53.8108272
  85.7662868  76.4923838  69.4122325  86.5077553  77.0308882  69.1357148
  85.0599854  77.1190127  69.5693876  91.2418208  78.6352978  68.0094486
  91.6501564  78.1935389  67.2649118  90.5195469  78.0605606  68.2628679
  87.5949278  73.5725585  65.3828043  88.4410473  73.9964999  65.5262692
  87.5347916  72.9159209  66.0766606  91.5647023  79.1954169  61.7646775
  90.9355885  79.3599883  61.0622843  91.1772685  79.6095779  62.5357739
  95.4436254  80.1308607  59.1191139  94.7587293  80.5107508  58.5688172
  95.5280104  80.7403933  59.8523086  90.7448723  71.2329953  67.0409217
  90.5009655  71.9872014  66.5043492  91.0208654  71.6115301  67.8756464
  92.6987186  77.7768566  65.7186482  92.9104081  78.4200326  65.0420863
  92.6516934  76.9430882  65.2508412  90.3013415  70.3886386  62.6223054
  89.4397894  70.6867640  62.9139792  90.3275850  70.6056785  61.6904087
  87.1174984  78.9328577  59.0296860  87.5813330  79.2116280  58.2401482
  86.8531783  78.0312022  58.8469951  84.0099066  78.4800059  61.9676623
  84.5800423  78.9087327  61.3294108  84.6007177  78.1982643  62.6660809
  86.0543871  75.0551729  55.8386425  86.7567914  75.5072773  56.3060352
  85.7224499  74.4135548  56.4666318  84.5024232  73.6463486  70.2137635
  83.8722893  74.3279767  70.4473031  84.3960320  73.5346568  69.2690773
  93.8133014  80.6540521  63.8908840  94.6350458  80.2520709  63.6091521
  93.8095417  80.5508755  64.8424955  87.5789617  80.2024565  66.0469550
  87.6434050  80.6644972  66.8827722  86.8700541  79.5721929  66.1751860
 101.9039007  76.9979270  60.2393811 101.1502715  76.4286668  60.0837815
 102.0386548  76.9641934  61.1864446  87.2937635  81.8692672  55.9148530
  87.1583310  82.7144208  56.3433378  87.8347448  82.0711950  55.1514464
  80.7467033  79.3868110  56.4876455  81.2591553  80.1811360  56.6382020
  81.3989745  78.6894401  56.4210057  82.5561917  82.5033866  58.5699209
  82.7328546  83.4251831  58.3820193  83.3518751  82.1892286  58.9993588
  86.6972936  69.3642131  70.1683142  87.4382649  69.9649284  70.0887605
  86.9290859  68.6219769  69.6101185  81.8414274  74.5498498  68.4461372
  81.7267789  73.6483755  68.7468471  80.9858792  74.7962195  68.0946188
  88.9206112  82.4916239  70.0448872  88.4769966  81.7052617  69.7269777
  89.5823325  82.6795389  69.3792763  83.6793233  84.0212040  64.5709551
  84.2300658  83.8929103  63.7986545  82.8404709  84.3206929  64.2204444
  91.0187350  82.7719038  68.0730274  91.0005825  83.5927920  67.5810543
  91.9407270  82.6473114  68.2980415  87.4760404  80.2863168  68.9153782
  88.0088741  79.5251456  68.6853090  86.9474485  79.9936820  69.6577937
  90.6430099  65.3923234  64.4447424  90.2994368  66.2824876  64.3686534
  91.0109061  65.2024892  63.5817009  90.6080381  75.3831845  52.9519859
  90.0927005  76.1536450  53.1908246  90.3357690  74.7096981  53.5752920
  88.1927492  70.2281546  58.0105097  87.3369089  69.8388396  57.8310736
  88.6054444  70.3073507  57.1504883  89.7226639  67.7627889  62.4096657
  89.2191435  67.7258024  61.5964462  90.0157246  68.6720632  62.4693314
  85.9669525  67.8466619  61.4162839  86.8322522  67.6509427  61.0568728
  86.0347034  67.6176971  62.3432196  95.5814656  78.1364200  54.8873032
  94.8044098  77.7975359  54.4428194  96.2606137  78.1416823  54.2127997
  90.3966685  73.2558937  54.7779640  90.0916820  73.5705086  55.6289783
  91.3497127  73.3340357  54.8206973  88.8413116  79.4149160  56.4272594
  88.3134478  78.6801920  56.1145832  88.3400619  80.1923837  56.1812562
  93.8205962  77.6098181  61.5439640  93.1629637  78.2997442  61.6319769
  94.6246362  77.9994613  61.8873627  83.5731844  70.0768827  58.7879206
  84.1475596  69.8544008  58.0552399  84.1602826  70.1457521  59.5407807
  92.6311421  75.9642554  59.5943582  93.1443303  76.5972545  60.0965292
  93.2812645  75.3643749  59.2286942  83.9001431  72.1073288  52.8075091
  83.0638743  72.4447974  53.1284366  83.7606201  71.9722268  51.8702228
  85.8754512  66.9510076  57.5154275  85.2218924  66.6359093  56.8910890
  85.8334986  66.3285816  58.2414098  86.9865717  77.2329371  49.4307567
  86.0792778  77.0018624  49.6298716  87.4836749  76.4366990  49.6181549
  89.8933796  85.9426878  52.3504253  89.2195494  86.2458575  52.9589211
  90.2799617  86.7455958  52.0009710  89.1092252  73.4392009  61.8401923
  88.1914813  73.6606956  61.6823611  89.5252396  73.5138320  60.9813630
  89.8927300  74.8383425  56.9704603  90.6399119  75.3504822  56.6611725
  90.1618889  74.5167478  57.8308996  88.1653950  77.3341966  53.9531557
  87.2565169  77.0500998  54.0504027  88.1949034  77.7541044  53.0934864
  93.3973217  80.9448555  57.7222725  92.9435545  80.1039465  57.7787915
  92.7667184  81.5809953  58.0597505  92.3406137  71.8740541  58.9523392
  91.6028894  71.3617927  59.2833635  92.5932911  71.4340923  58.1406669
  91.8406157  82.7825052  58.6572543  92.1329131  83.3430109  57.9384909
  92.3504777  83.0753613  59.4125702  92.4417764  64.6516793  59.5465162
  92.7476641  63.7914157  59.2591077  93.1670369  65.2434413  59.3464155
  86.7138844  74.9470586  60.0541353  86.7687454  73.9944423  59.9783829
  85.9030046  75.1030025  60.5382651  87.8630038  78.8750709  51.2919636
  87.4249468  78.1586568  50.8325273  88.6040479  79.1026824  50.7304727
  84.6531204  73.5647646  57.8131731  83.8399070  73.8641816  58.2196924
  85.1490198  73.1703335  58.5306214  86.8039782  83.5605403  59.7465996
  86.7615961  83.7866249  58.8174528  87.7202481  83.3268777  59.8951797
  90.2505416  74.0289470  66.6446625  90.6054803  74.2560944  67.5041091
  90.8977547  74.3607847  66.0223881  95.9803153  77.1507906  57.3495954
  95.8421051  77.3409502  56.4217144  95.6239371  77.9127289  57.8064005
  96.0072532  79.2184433  62.3607226  96.4409039  79.1259722  63.2090280
  96.7204113  79.1941934  61.7227242  84.9205583  80.4368432  59.5427959
  85.7146181  79.9418752  59.3410534  84.2097275  79.9086295  59.1795664
  89.7400427  82.8186527  63.8940326  89.7937449  83.3877464  64.6618042
  88.8715209  82.9888412  63.5294364  81.2288346  74.5811514  55.6187712
  80.2985934  74.5195969  55.8357674  81.3245818  74.0587466  54.8224353
  96.8688082  79.2608134  64.8940111  97.0623972  80.1653944  65.1399386
  96.7688700  78.8015553  65.7278696  88.5224393  69.1466025  67.3930439
  87.8752308  69.8455974  67.2994915  89.2925408  69.5802168  67.7606687
  91.9303190  79.4114877  70.4680992  91.7788697  79.1825428  69.5511076
  91.9207870  80.3685478  70.4812337  88.6988527  76.9846789  65.4527258
  89.6280587  77.1357949  65.2796226  88.2779557  77.0730810  64.5975905
  87.4976859  81.0097454  63.2225796  87.3587944  80.6416238  64.0951734
  86.7091455  81.5245093  63.0509754  88.0925011  86.1106550  54.5651332
  88.2676766  85.6394594  55.3796955  87.4057799  86.7372317  54.7932593
  89.0482074  80.3879057  60.6114634  88.7131906  80.3479827  61.5072284
  88.5486020  79.7223772  60.1385044  83.0226318  75.7946687  66.1367215
  82.8846116  75.0626925  66.7378754  83.9331241  75.7055587  65.8551403
  91.9841265  77.7335091  50.8851693  91.3670436  77.0081919  50.7884746
  91.5157754  78.4944451  50.5418768  85.6508618  75.5066646  65.6250895
  86.3608237  74.8659838  65.5837513  85.6077927  75.7579541  66.5477075
  93.6395397  82.4433999  68.5457474  93.5807943  81.7593219  67.8788057
  94.0414916  83.1852989  68.0938100  84.3637552  72.4931864  67.4446534
  83.8274909  72.0422602  68.0968130  83.7754261  72.6277773  66.7016998
  82.6586096  89.2595913  61.3391193  82.8982694  89.8914437  62.0170211
  81.8155292  88.9083953  61.6256552  83.7739811  71.9520515  50.0072998
  82.8969278  71.8309316  49.6435244  84.2497564  71.1606593  49.7551886
  93.6412804  80.4073583  66.7771453  92.7539583  80.0699505  66.8997852
  94.2111355  79.6756614  67.0140219  87.1713958  85.0675036  63.7432697
  87.0984129  85.8730007  64.2552001  86.7291351  85.2667001  62.9180718
  86.9603737  84.3046806  57.2535518  86.1771259  84.8468486  57.3473743
  87.6596483  84.8220785  57.6529759  90.2700388  70.1141435  59.8969724
  90.7669087  69.3611397  59.5770794  89.4987369  70.1505752  59.3312933
  98.1230145  75.8181801  61.5388015  98.1120021  76.7006516  61.1681948
  97.2547524  75.4653351  61.3442552  89.6312641  84.9661870  65.8990855
  90.3440614  85.6009334  65.8266757  89.1402670  85.0625736  65.0830857
  91.3530168  78.8713122  57.4708147  90.4186447  78.9914585  57.3012851
  91.5306837  77.9685589  57.2068157  86.8535356  72.2558818  59.6241408
  86.4833144  71.7029858  60.3122314  87.3494449  71.6516951  59.0716408
  94.7402720  74.7130442  58.0058181  95.2063172  75.5458433  57.9318484
  95.1910220  74.2475423  58.7103440  84.6824555  82.7156313  66.7196426
  85.3834014  83.3492796  66.8725820  84.2119670  83.0571045  65.9592065
  92.8078951  81.0574263  55.0044333  93.0838795  80.9430857  55.9138207
  91.9383449  80.6591748  54.9656506  92.7119382  67.0811028  62.0449082
  91.7982462  67.3115255  62.2131289  93.1412484  67.1649473  62.8963115
  92.4825841  75.2700920  64.5448976  91.8297291  75.5176828  63.8901429
  92.8606221  74.4565059  64.2111454  89.4433015  85.3060614  58.6477147
  89.6255409  84.4882270  59.1104899  90.2666001  85.5228306  58.2102037
  89.7775180  84.2328799  55.9092195  90.3062947  83.7221253  55.2962357
  90.0403400  83.9171329  56.7737728  88.5313414  76.0120732  71.0315014
  87.8554051  75.9114861  71.7017389  89.3541048  75.8559945  71.4951011
  80.2792273  82.2492668  63.6527529  80.8645710  81.5036356  63.7855433
  80.0817111  82.5596625  64.5364193  83.1330928  85.2843915  58.6689971
  82.4641303  85.7690043  58.1854011  82.9943798  85.5313136  59.5833350
  87.2736197  87.3187659  65.2672630  87.8254505  87.4819280  66.0321715
  87.6142390  87.9092097  64.5952654  81.7252962  71.7385941  69.5167549
  82.3525001  71.3563019  70.1305073  80.8680881  71.5200143  69.8823241
  92.1247071  82.1448916  71.1221284  92.6686975  82.7578875  70.6276239
  91.5433916  82.7028495  71.6388297  90.4104584  85.2669634  62.2536312
  90.2855723  84.4659374  61.7447257  91.0683675  85.7615828  61.7650282
  92.4739492  83.0678655  63.8815862  91.5269828  82.9484006  63.8094189
  92.8222265  82.1801153  63.9642123  89.4785926  82.8631371  60.0820214
  89.3310888  81.9348078  60.2627784  90.3039419  82.8851462  59.5977289
  83.3448170  71.5149438  55.9400706  83.6844242  72.0435359  55.2179315
  83.7920290  71.8529844  56.7159273  93.0820048  83.6859930  61.1685087
  94.0066595  83.4802791  61.0309538  92.9135351  83.4376331  62.0774428
  86.0391611  69.8986489  65.3903774  85.6988431  69.0994302  65.7924454
  85.3330617  70.1988199  64.8180607  86.6908083  66.9835801  63.8431097
  87.5134152  66.5096279  63.7209988  86.9346146  67.7626285  64.3429784
  85.3316317  70.0124059  54.1393999  86.0524680  70.3905312  53.6357716
  84.7081621  70.7312936  54.2428977  89.4747440  70.7169208  55.0752331
  89.6911054  71.5993846  54.7741159  88.9941507  70.3255422  54.3457973
  84.2146661  73.6754922  61.6523076  84.0691242  73.9895225  62.5447357
  83.7371865  74.2939822  61.0993974  86.0743044  70.6657470  61.7003965
  86.0604613  69.7698563  61.3636263  86.7915472  70.6728133  62.3342251
  87.9269175  71.0994810  63.7457093  87.6686953  72.0211881  63.7441423
  87.3954215  70.7025244  64.4357557  92.8715364  84.2045597  56.5247178
  93.0452241  83.6392019  55.7721031  93.3644255  85.0046492  56.3426668
  78.6892324  76.2160266  64.5910737  78.1445792  76.9920074  64.7231011
  79.5671673  76.5631071  64.4329858  85.4779940  69.5471850  56.9691536
  85.5995851  68.6188496  57.1682423  85.1881983  69.5610536  56.0569851
  88.3471131  67.2326760  60.1058255  88.3692827  67.2966093  59.1510235
  88.7639190  66.3931269  60.2998762  98.7254755  76.9682020  58.1437478
  99.1685901  76.2189345  57.7456601  97.8481265  76.9592156  57.7611210
  93.8590536  83.5212361  53.6244076  94.5541441  84.1419054  53.8431391
  94.2013686  82.6707713  53.8996454  79.4758345  75.3430162  67.4840894
  78.7340081  75.4912798  68.0705524  79.1551090  75.6038428  66.6207643
  95.7581959  80.9712067  55.1531407  96.2833283  81.3099340  54.4280727
  95.6704312  80.0359082  54.9694542  87.4202008  84.8846141  67.2821284
  87.7289134  84.6395287  68.1543983  88.2177490  85.0892779  66.7940154
  87.4422620  87.0384050  59.5126660  87.0027610  86.5460429  60.2059517
  88.1930737  86.4957018  59.2718736  79.9214959  83.2295591  59.5151289
  80.7472979  82.9299363  59.1349932  79.5709011  82.4603213  59.9641077
  84.8896492  82.5822059  61.5848962  84.2676502  81.9192764  61.2851190
  85.5601359  82.6083191  60.9022610  84.9621020  71.0603847  71.1781468
  85.0109175  71.9365970  70.7959238  85.5043534  70.5181240  70.6053111
  95.4475865  81.6044971  70.4582605  94.6571409  81.5869109  69.9187105
  95.2109220  82.1433264  71.2131642  95.5673740  78.4537437  67.7715334
  95.6171745  78.2887444  68.7130857  95.4587664  77.5864696  67.3813215
  84.4509999  81.1325983  55.0607423  84.5998120  81.8161447  54.4074095
  85.2576443  81.1131073  55.5756878  92.8577503  74.4368365  69.0874640
  93.7587366  74.2974830  68.7958638  92.9325477  74.6022820  70.0272818
  87.1920308  71.8135220  67.9327827  86.3223618  72.1068786  67.6610415
  87.4279789  72.3975665  68.6535090  97.0691937  80.8734378  68.0157355
  96.7776746  81.2364359  68.8520816  96.4564069  80.1601387  67.8370687
  98.2687620  78.4387258  60.5359926  99.1034511  78.8777062  60.6997486
  98.4046748  77.9625911  59.7168171  95.3179126  75.9966993  66.4837413
  95.7933247  76.1894639  65.6756265  94.3944691  76.0526179  66.2380797
  82.2062632  77.1591160  56.0668492  81.9608674  76.2553490  56.2648702
  82.3758547  77.1608311  55.1247970  89.8959342  68.0314837  65.4493247
  90.4141286  68.7675864  65.1239736  89.5414475  68.3378830  66.2840006
  81.4758280  72.8919518  53.5654653  80.7827525  72.9663873  52.9094689
  81.2310032  72.1279861  54.0876170  90.1471936  64.4515119  60.9694144
  90.4273690  63.7838308  61.5954570  90.9322543  64.6444215  60.4568808
  87.9505405  83.6274113  52.5319170  87.3779372  84.2464300  52.0789642
  88.5238198  84.1773475  53.0659092  94.0180795  72.8732753  64.7165719
  94.9698217  72.9730851  64.7377943  93.8484245  72.0811022  65.2263803
  92.0395174  69.9588336  64.9025120  91.4445106  70.2393349  64.2071608
  91.7544871  70.4482237  65.6741861  91.1702664  83.9111263  53.6627752
  92.1033338  83.8456825  53.8660628  91.0825877  84.7467530  53.2042285
  93.7990681  83.2277134  50.6231700  93.7204313  82.8936997  51.5167458
  94.6200348  83.7198901  50.6223172  88.3352203  74.9634926  49.8735223
  89.2811308  74.8341134  49.9423641  87.9566448  74.2249588  50.3504651
  96.6463361  72.8849916  63.8766302  96.1302409  72.1008373  63.6896231
  97.5303309  72.5568633  64.0412821  94.3074088  66.6290932  59.8362114
  94.1098909  66.3206020  60.7205446  94.9173793  67.3552571  59.9660044
 102.3145422  77.1554880  62.9714055 103.0448811  76.8940168  63.5321759
 101.7052368  76.4183602  63.0116123 100.3960719  75.2962742  63.5688507
  99.6693883  75.1618707  62.9604998  99.9808006  75.6039571  64.3745225
  88.2190896  79.0152672  71.3335880  89.1393905  79.1931271  71.5275926
  88.1840479  78.0708717  71.1815579  86.5195120  72.8884902  49.8090108
  85.6126576  72.5918015  49.8852821  86.7971101  72.5914720  48.9424394
  81.2152968  76.9253707  63.9758661  81.4338978  77.8570814  63.9946695
  81.6278742  76.5661681  64.7613465  88.1357186  67.4321792  55.9634349
  87.3257914  67.0868877  56.3389595  88.8241603  67.1229336  56.5521961
  90.0647734  66.5099839  57.5858646  90.6178773  66.9295292  58.2448669
  90.3017821  65.5835587  57.6281602  86.0880834  72.4986912  73.3661410
  85.9877560  73.4481269  73.2973501  85.8702376  72.1705151  72.4937480
  85.2893905  69.7471837  49.9502087  86.1513069  70.0726736  50.2097904
  85.4744249  68.9603333  49.4375153  93.4426541  68.6200364  57.0937310
  92.8625210  69.2785168  56.7115362  93.1762474  67.7977708  56.6824728
  91.8930108  68.0205422  59.2958630  92.3929886  68.1321956  58.4872949
  92.5365716  67.7166474  59.9359439  85.9512104  75.9284051  72.1826471
  85.4679185  76.7284411  72.3890360  86.0373043  75.9391996  71.2293915
  81.8785441  79.8188586  64.2194905  82.8328695  79.7872528  64.1524837
  81.6797965  79.3579210  65.0345131  82.4684823  78.3889702  66.7865703
  83.2877712  78.8833781  66.8100540  82.7421631  77.4721670  66.7583270
  92.2251419  70.7800454  56.1493658  91.3377274  71.0650105  55.9313853
  92.6405409  70.6194218  55.3020935  95.5765956  70.8046975  59.8647998
  96.3526346  71.2943428  60.1372614  94.8514090  71.2305029  60.3219867
  80.2335670  85.3608205  61.2365103  80.0990138  84.6008606  60.6703101
  79.8167732  86.0849105  60.7693892  91.3694633  80.5445129  50.2441678
  92.0730483  80.7495131  50.8599334  90.6457282  81.1121891  50.5090762
  92.1992443  76.2954990  56.3643948  92.1427645  76.7523542  55.5251581
  92.7520786  75.5345675  56.1866791  96.0097249  72.0844722  57.1894068
  95.7534183  71.6841358  58.0202276  95.3850117  72.7988516  57.0644207
 100.3209587  74.8240795  59.6965359  99.7609145  74.8933985  60.4696921
  99.7153090  74.6481780  58.9764856  83.3904796  86.2577522  61.4483546
  83.2737180  87.2022955  61.3462236  82.5697242  85.9551084  61.8369345
  93.2781330  80.9827658  52.2940138  94.1126934  80.5508857  52.1117613
  93.1165673  80.8109672  53.2217033  92.9327223  77.4859771  53.6596478
  92.8776026  77.3204043  52.7184922  92.3073278  78.1935804  53.8158667
  90.2473130  79.7908683  72.9850040  91.1164289  79.9649336  72.6236675
  89.7679881  80.6103100  72.8625770  86.2423348  66.9867880  53.2381796
  86.2302018  67.9309720  53.3950067  87.1346770  66.8038026  52.9441257
  84.4159310  86.9105784  64.6639474  85.3186557  86.9429395  64.9805969
  84.1896680  85.9806235  64.6785810  86.1712912  85.6636771  61.3249553
  85.2208543  85.6638632  61.2113925  86.4745398  84.9169505  60.8085587
  90.0575467  63.5810657  57.4927733  89.2907863  63.0269144  57.6384415
  90.4686172  63.6532526  58.3541884 101.9065605  91.4997309  62.3895315
 102.5444015  91.3804057  61.6858655 101.7886448  92.4478153  62.4483267
  98.7155312  91.4524737  62.3256840  98.3773823  91.3365802  61.4377375
  99.5845080  91.0515902  62.3057846  94.5742127  93.3060214  58.3153731
  94.0106993  93.2150151  57.5470018  94.4594522  92.4860118  58.7956223
  99.1975095  92.6059589  68.2843045  99.1863735  92.2112387  67.4123549
  99.3595734  91.8725662  68.8776817  92.1206559  94.8011405  61.1537951
  92.9127851  94.4602230  60.7384250  92.3603209  94.9106380  62.0740104
 100.1541686  96.9731181  53.6268196  99.5029666  97.5585262  53.2402209
 100.9486049  97.5037376  53.6863233  94.0797313  94.0620319  54.0255330
  94.8528189  93.5149306  53.8868206  94.4322712  94.9264568  54.2369791
  95.9182356  95.3896701  67.2322229  95.6272222  96.2942332  67.1168896
  96.5539340  95.4313229  67.9466299  96.8438563  92.7673549  63.8223589
  97.4402135  92.5429572  63.1080552  96.9013534  92.0258295  64.4249037
  96.4163591  90.2212985  51.6573780  96.6689112  89.6994506  50.8957243
  95.4788150  90.0579130  51.7600463 101.4606874  89.2248763  59.4648523
 102.2469963  88.8068186  59.1138940 101.7245578  90.1294855  59.6330171
 101.6316951  94.6621613  54.1637180 100.9962784  94.7356240  54.8758085
 101.3014358  95.2515212  53.4856259 106.8615301  89.1623996  60.3681502
 107.5940473  88.5923213  60.6019331 106.1054657  88.7745597  60.8088007
  96.1359880  92.1241091  53.8598155  96.0196138  91.4485994  54.5279239
  96.2462140  91.6373465  53.0430308  98.4791421  91.5851238  57.5644844
  98.1149628  91.0581859  58.2757766  99.3358537  91.1949707  57.3911329
 104.3840721  82.8745570  64.8276110 104.0524046  83.7440981  64.6037325
 103.7886335  82.5581854  65.5070141  98.1196908  86.6141137  52.5606193
  98.2871310  87.4821374  52.9276664  97.9294077  86.7768419  51.6367482
 100.8772241  95.0758116  64.2272023 100.5772964  95.9783155  64.1187830
 100.5323300  94.8090300  65.0793176  94.3284722  91.5271913  60.2608727
  93.4035219  91.3948127  60.4686419  94.5769136  92.3066132  60.7578670
 104.2769385  87.5940657  61.9069460 103.3686262  87.5256065  61.6128221
 104.2256980  88.0712602  62.7351286  98.0986129  89.0698795  53.5452859
  97.9785754  89.5155846  54.3838340  97.4038717  89.4184113  52.9866398
  91.6893533  91.1705187  61.0952516  91.8185915  91.4239666  62.0091928
  91.0090985  91.7632895  60.7757172  95.8593021 101.8402437  57.1942991
  95.7817050 102.7910262  57.2731471  95.2554664 101.4948309  57.8517917
  98.3510250  89.0130302  69.8504358  97.5743585  89.5724222  69.8407222
  98.9900814  89.4987085  70.3719228 106.1431031  85.7957095  63.6847334
 105.5005411  86.0889628  63.0387129 105.6385960  85.6810015  64.4900531
 103.7971195  89.5420268  54.3733193 104.7089051  89.7747655  54.1980891
 103.2880842  90.1257312  53.8108272  96.6056623  91.8215756  69.4122325
  97.3471307  92.3600800  69.1357148  95.8993608  92.4482044  69.5693876
 102.0811962  93.9644896  68.0094486 102.4895318  93.5227307  67.2649118
 101.3589224  93.3897524  68.2628679  98.4343032  88.9017503  65.3828043
  99.2804228  89.3256916  65.5262692  98.3741670  88.2451127  66.0766606
 102.4040777  94.5246087  61.7646775 101.7749640  94.6891801  61.0622843
 102.0166439  94.9387696  62.5357739 106.2830009  95.4600524  59.1191139
 105.5981047  95.8399426  58.5688172 106.3673858  96.0695851  59.8523086
 101.5842478  86.5621871  67.0409217 101.3403410  87.3163932  66.5043492
 101.8602408  86.9407219  67.8756464 103.5380941  93.1060484  65.7186482
 103.7497836  93.7492243  65.0420863 103.4910689  92.2722800  65.2508412
 101.1407170  85.7178304  62.6223054 100.2791649  86.0159558  62.9139792
 101.1669604  85.9348703  61.6904087  97.9568739  94.2620495  59.0296860
  98.4207084  94.5408198  58.2401482  97.6925537  93.3603939  58.8469951
  94.8492820  93.8091976  61.9676623  95.4194177  94.2379245  61.3294108
  95.4400932  93.5274561  62.6660809  96.8937625  90.3843647  55.8386425
  97.5961668  90.8364691  56.3060352  96.5618253  89.7427466  56.4666318
  95.3417987  88.9755404  70.2137635  94.7116647  89.6571685  70.4473031
  95.2354074  88.8638485  69.2690773  90.6362959  88.6427200  61.1403559
  89.8462013  88.8984728  60.6643669  91.1274206  89.4575538  61.2455599
 104.6526769  95.9832439  63.8908840 105.4744212  95.5812626  63.6091521
 104.6489171  95.8800673  64.8424955  92.5877704  89.0071779  58.0987035
  91.7908868  89.1190473  58.6170531  92.3603297  89.3458431  57.2327926
  98.4183372  95.5316482  66.0469550  98.4827804  95.9936889  66.8827722
  97.7094296  94.9013847  66.1751860  88.9200662  88.8957690  63.5718550
  89.1708700  89.7804700  63.8376125  89.4560210  88.7162292  62.7993641
 112.7432762  92.3271187  60.2393811 111.9896470  91.7578585  60.0837815
 112.8780303  92.2933852  61.1864446  98.1331390  97.1984590  55.9148530
  97.9977064  98.0436125  56.3433378  98.6741202  97.4003867  55.1514464
  94.6198729  83.2776170  72.5762886  94.2265675  82.7242368  73.2510530
  95.4364870  83.5886748  72.9669403  91.5860787  94.7160028  56.4876455
  92.0985308  95.5103278  56.6382020  92.2383500  94.0186318  56.4210057
  93.3955672  97.8325784  58.5699209  93.5722300  98.7543749  58.3820193
  94.1912505  97.5184203  58.9993588  97.5366690  84.6934049  70.1683142
  98.2776404  85.2941202  70.0887605  97.7684613  83.9511686  69.6101185
  92.6808028  89.8790416  68.4461372  92.5661543  88.9775673  68.7468471
  91.8252546  90.1254113  68.0946188  99.7599866  97.8208156  70.0448872
  99.3163720  97.0344535  69.7269777 100.4217080  98.0087307  69.3792763
  94.5186987  99.3503958  64.5709551  95.0694412  99.2221021  63.7986545
  93.6798463  99.6498847  64.2204444 101.8581104  98.1010956  68.0730274
 101.8399579  98.9219837  67.5810543 102.7801024  97.9765031  68.2980415
  98.3154158  95.6155086  68.9153782  98.8482495  94.8543374  68.6853090
  97.7868239  95.3228737  69.6577937 101.4823853  80.7215152  64.4447424
 101.1388123  81.6116793  64.3686534 101.8502816  80.5316809  63.5817009
  89.5509704  93.0448682  57.2636026  90.3884926  93.4545690  57.0469734
  89.7287971  92.1048124  57.2336220 101.4474136  90.7123763  52.9519859
 100.9320759  91.4828367  53.1908246 101.1751444  90.0388899  53.5752920
  99.0321247  85.5573463  58.0105097  98.1762843  85.1680314  57.8310736
  99.4448199  85.6365424  57.1504883 100.5620394  83.0919807  62.4096657
 100.0585189  83.0549942  61.5964462 100.8551000  84.0012549  62.4693314
  96.8063279  83.1758536  61.4162839  97.6716276  82.9801345  61.0568728
  96.8740788  82.9468888  62.3432196 106.4208410  93.4656117  54.8873032
 105.6437853  93.1267277  54.4428194 107.0999891  93.4708741  54.2127997
 101.2360439  88.5850855  54.7779640 100.9310575  88.8997004  55.6289783
 102.1890881  88.6632275  54.8206973  99.6806871  94.7441078  56.4272594
  99.1528233  94.0093838  56.1145832  99.1794374  95.5215754  56.1812562
 104.6599717  92.9390099  61.5439640 104.0023391  93.6289360  61.6319769
 105.4640116  93.3286531  61.8873627  94.4125599  85.4060744  58.7879206
  94.9869350  85.1835926  58.0552399  94.9996581  85.4749439  59.5407807
 103.4705176  91.2934471  59.5943582 103.9837057  91.9264463  60.0965292
 104.1206400  90.6935667  59.2286942  94.7395186  87.4365205  52.8075091
  93.9032498  87.7739892  53.1284366  94.5999955  87.3014185  51.8702228
  96.7148266  82.2801993  57.5154275  96.0612679  81.9651010  56.8910890
  96.6728740  81.6577734  58.2414098  97.8259471  92.5621288  49.4307567
  96.9186533  92.3310542  49.6298716  98.3230503  91.7658908  49.6181549
 100.7327550 101.2718796  52.3504253 100.0589249 101.5750492  52.9589211
 101.1193372 102.0747876  52.0009710  99.9486007  88.7683927  61.8401923
  99.0308568  88.9898874  61.6823611 100.3646150  88.8430237  60.9813630
 100.7321054  90.1675343  56.9704603 101.4792873  90.6796740  56.6611725
 101.0012644  89.8459395  57.8308996  99.0047705  92.6633883  53.9531557
  98.0958924  92.3792916  54.0504027  99.0342788  93.0832962  53.0934864
 104.2366972  96.2740473  57.7222725 103.7829299  95.4331383  57.7787915
 103.6060939  96.9101871  58.0597505 103.1799892  87.2032459  58.9523392
 102.4422648  86.6909845  59.2833635 103.4326665  86.7632840  58.1406669
 102.6799911  98.1116969  58.6572543 102.9722886  98.6722027  57.9384909
 103.1898532  98.4045530  59.4125702 103.2811519  79.9808711  59.5465162
 103.5870396  79.1206074  59.2591077 104.0064124  80.5726331  59.3464155
  89.5735875  90.3839397  57.9346759  89.3760275  89.7908758  57.2097826
  89.0182539  90.0791608  58.6522698  97.5532599  90.2762504  60.0541353
  97.6081208  89.3236340  59.9783829  96.7423801  90.4321943  60.5382651
  98.7023792  94.2042627  51.2919636  98.2643222  93.4878486  50.8325273
  99.4434233  94.4318742  50.7304727  95.4924959  88.8939564  57.8131731
  94.6792824  89.1933734  58.2196924  95.9883953  88.4995252  58.5306214
  97.6433536  98.8897321  59.7465996  97.6009715  99.1158167  58.8174528
  98.5596235  98.6560695  59.8951797 101.0899170  89.3581388  66.6446625
 101.4448558  89.5852861  67.5041091 101.7371301  89.6899765  66.0223881
 106.8196907  92.4799824  57.3495954 106.6814806  92.6701420  56.4217144
 106.4633126  93.2419207  57.8064005  94.9839033  86.4657919  63.4292966
  95.6238413  86.3246678  62.7315930  94.1516564  86.1792432  63.0531568
 106.8466287  94.5476351  62.3607226 107.2802793  94.4551640  63.2090280
 107.5597867  94.5233851  61.7227242  95.7599337  95.7660350  59.5427959
  96.5539936  95.2710670  59.3410534  95.0491030  95.2378213  59.1795664
 100.5794182  98.1478445  63.8940326 100.6331204  98.7169381  64.6618042
  99.7108963  98.3180330  63.5294364  92.0682101  89.9103431  55.6187712
  91.1379689  89.8487887  55.8357674  92.1639573  89.3879384  54.8224353
  91.9867650  86.4358244  58.2065953  92.2474467  87.3503577  58.0975114
  92.8084822  85.9682687  58.3562566  93.4592575  87.8496001  65.3764778
  94.1315628  87.6413363  64.7277427  92.6322362  87.6518087  64.9370010
 107.7081836  94.5900052  64.8940111 107.9017726  95.4945862  65.1399386
 107.6082454  94.1307471  65.7278696  99.3618147  84.4757942  67.3930439
  98.7146062  85.1747892  67.2994915 100.1319162  84.9094086  67.7606687
 102.7696945  94.7406794  70.4680992 102.6182451  94.5117346  69.5511076
 102.7601624  95.6977396  70.4812337  99.5382281  92.3138707  65.4527258
 100.4674341  92.4649867  65.2796226  99.1173311  92.4022728  64.5975905
  98.3370613  96.3389372  63.2225796  98.1981699  95.9708156  64.0951734
  97.5485209  96.8537011  63.0509754  98.9318765 101.4398468  54.5651332
  99.1070521 100.9686511  55.3796955  98.2451553 102.0664234  54.7932593
  99.8875828  95.7170974  60.6114634  99.5525661  95.6771744  61.5072284
  99.3879774  95.0515690  60.1385044  93.8620072  91.1238604  66.1367215
  93.7239870  90.3918843  66.7378754  94.7724996  91.0347504  65.8551403
 102.8235020  93.0627009  50.8851693 102.2064191  92.3373837  50.7884746
 102.3551508  93.8236369  50.5418768  96.4902373  90.8358564  65.6250895
  97.2001991  90.1951756  65.5837513  96.4471681  91.0871458  66.5477075
 104.4789152  97.7725917  68.5457474 104.4201698  97.0885137  67.8788057
 104.8808670  98.5144907  68.0938100  95.2031307  87.8223781  67.4446534
  94.6668664  87.3714520  68.0968130  94.6148015  87.9569690  66.7016998
  93.4979850 104.5887831  61.3391193  93.7376449 105.2206355  62.0170211
  92.6549047 104.2375871  61.6256552  94.6133566  87.2812433  50.0072998
  93.7363032  87.1601234  49.6435244  95.0891319  86.4898511  49.7551886
 104.4806559  95.7365501  66.7771453 103.5933338  95.3991423  66.8997852
 105.0505110  95.0048532  67.0140219  86.1335706  92.0689593  60.1014505
  86.8206746  91.7551323  59.5135520  85.9783835  92.9730957  59.8281756
  90.9370428  86.9579789  64.5299529  90.8528617  86.3505459  63.7949938
  90.1153135  87.4488807  64.5309025  98.0107712 100.3966953  63.7432697
  97.9377884 101.2021925  64.2552001  97.5685105 100.5958919  62.9180718
  97.7997492  99.6338723  57.2535518  97.0165014 100.1760403  57.3473743
  98.4990237 100.1512703  57.6529759 101.1094142  85.4433353  59.8969724
 101.6062842  84.6903315  59.5770794 100.3381124  85.4797669  59.3312933
 108.9623899  91.1473718  61.5388015 108.9513776  92.0298434  61.1681948
 108.0941279  90.7945269  61.3442552 100.4706396 100.2953787  65.8990855
 101.1834368 100.9301252  65.8266757  99.9796424 100.3917653  65.0830857
 102.1923923  94.2005040  57.4708147 101.2580201  94.3206502  57.3012851
 102.3700591  93.2977507  57.2068157  97.6929111  87.5850736  59.6241408
  97.3226898  87.0321776  60.3122314  98.1888203  86.9808869  59.0716408
 105.5796474  90.0422359  58.0058181 106.0456926  90.8750351  57.9318484
 106.0303975  89.5767341  58.7103440  95.5218309  98.0448231  66.7196426
  96.2227769  98.6784714  66.8725820  95.0513424  98.3862962  65.9592065
 103.6472705  96.3866180  55.0044333 103.9232549  96.2722775  55.9138207
 102.7777204  95.9883665  54.9656506 103.5513137  82.4102946  62.0449082
 102.6376217  82.6407173  62.2131289 103.9806238  82.4941390  62.8963115
 103.3219595  90.5992838  64.5448976 102.6691046  90.8468746  63.8901429
 103.6999975  89.7856976  64.2111454 100.2826769 100.6352531  58.6477147
 100.4649164  99.8174187  59.1104899 101.1059755 100.8520224  58.2102037
 100.6168935  99.5620716  55.9092195 101.1456701  99.0513171  55.2962357
 100.8797154  99.2463247  56.7737728  99.3707168  91.3412649  71.0315014
  98.6947805  91.2406779  71.7017389 100.1934802  91.1851863  71.4951011
  91.1186027  97.5784586  63.6527529  91.7039464  96.8328274  63.7855433
  90.9210866  97.8888542  64.5364193  93.9724683 100.6135833  58.6689971
  93.3035058 101.0981961  58.1854011  93.8337552 100.8605054  59.5833350
  85.7103682  90.1490186  62.3731972  85.7487782  89.6153777  63.1669090
  85.2043975  89.6225391  61.7542949  98.1129951 102.6479577  65.2672630
  98.6648259 102.8111198  66.0321715  98.4536145 103.2384014  64.5952654
  93.0894444  84.9954726  65.8694514  93.1535771  85.8569557  65.4571912
  93.0261565  84.3828728  65.1366873  92.5646717  87.0677859  69.5167549
  93.1918756  86.6854936  70.1305073  91.7074636  86.8492061  69.8823241
 102.9640826  97.4740834  71.1221284 103.5080730  98.0870792  70.6276239
 102.3827670  98.0320413  71.6388297  89.3412260  88.8754288  55.4485903
  89.6365701  87.9664967  55.3952957  88.4400295  88.8542028  55.1266906
 101.2498338 100.5961552  62.2536312 101.1249478  99.7951292  61.7447257
 101.9077430 101.0907746  61.7650282  92.8706507  86.9510285  61.4313452
  92.1493092  87.5646252  61.2920925  93.6599762  87.4868049  61.3530098
 103.3133247  98.3970572  63.8815862 102.3663582  98.2775923  63.8094189
 103.6616020  97.5093070  63.9642123  95.6732820  84.2864711  67.7054104
  96.1967222  84.5327008  68.4680413  95.4545154  85.1184746  67.2857241
  91.0700101  86.5568386  55.5725228  90.7412807  85.6765765  55.3900334
  91.4239472  86.5016054  56.4601618 100.3179680  98.1923288  60.0820214
 100.1704643  97.2639996  60.2627784 101.1433174  98.2143379  59.5977289
  94.1841924  86.8441356  55.9400706  94.5237997  87.3727277  55.2179315
  94.6314045  87.1821762  56.7159273 103.9213802  99.0151847  61.1685087
 104.8460349  98.8094709  61.0309538 103.7529105  98.7668248  62.0774428
  96.8785365  85.2278406  65.3903774  96.5382186  84.4286219  65.7924454
  96.1724372  85.5280117  64.8180607  97.5301837  82.3127719  63.8431097
  98.3527906  81.8388197  63.7209988  97.7739901  83.0918202  64.3429784
  96.1710072  85.3415977  54.1393999  96.8918434  85.7197230  53.6357716
  95.5475376  86.0604854  54.2428977 100.3141194  86.0461126  55.0752331
 100.5304809  86.9285764  54.7741159  99.8335262  85.6547340  54.3457973
  95.0540416  89.0046839  61.6523076  94.9084997  89.3187142  62.5447357
  94.5765619  89.6231740  61.0993974  96.9136799  85.9949387  61.7003965
  96.8998368  85.0990481  61.3636263  97.6309227  86.0020051  62.3342251
  98.7662929  86.4286728  63.7457093  98.5080707  87.3503798  63.7441423
  98.2347970  86.0317162  64.4357557 103.7109118  99.5337515  56.5247178
 103.8845996  98.9683937  55.7721031 104.2038009 100.3338410  56.3426668
  89.5286078  91.5452184  64.5910737  88.9839546  92.3211992  64.7231011
  90.4065428  91.8922988  64.4329858  96.3173695  84.8763768  56.9691536
  96.4389606  83.9480414  57.1682423  96.0275737  84.8902454  56.0569851
  99.1864885  82.5618678  60.1058255  99.2086582  82.6258011  59.1510235
  99.6032944  81.7223187  60.2998762 109.5648509  92.2973938  58.1437478
 110.0079655  91.5481263  57.7456601 108.6875020  92.2884074  57.7611210
 104.6984291  98.8504279  53.6244076 105.3935195  99.4710972  53.8431391
 105.0407441  97.9999630  53.8996454  90.3152100  90.6722080  67.4840894
  89.5733836  90.8204715  68.0705524  89.9944844  90.9330346  66.6207643
 106.5975714  96.3003985  55.1531407 107.1227038  96.6391257  54.4280727
 106.5098066  95.3651000  54.9694542  98.2595763 100.2138058  67.2821284
  98.5682889  99.9687205  68.1543983  99.0571245 100.4184697  66.7940154
  98.2816375 102.3675968  59.5126660  97.8421365 101.8752347  60.2059517
  99.0324492 101.8248936  59.2718736  90.7608714  98.5587509  59.5151289
  91.5866733  98.2591281  59.1349932  90.4102766  97.7895131  59.9641077
  95.7290247  97.9113977  61.5848962  95.1070256  97.2484682  61.2851190
  96.3995114  97.9375109  60.9022610  88.9617319  96.4773835  60.4740222
  88.1249227  96.0496010  60.2924223  88.9340964  96.6706279  61.4111013
  95.8014774  86.3895765  71.1781468  95.8502930  87.2657888  70.7959238
  96.3437288  85.8473158  70.6053111 106.2869620  96.9336888  70.4582605
 105.4965164  96.9161027  69.9187105 106.0502974  97.4725182  71.2131642
 106.4067495  93.7829355  67.7715334 106.4565500  93.6179362  68.7130857
 106.2981418  92.9156614  67.3813215  95.2903754  96.4617900  55.0607423
  95.4391874  97.1453365  54.4074095  96.0970197  96.4422990  55.5756878
 103.6971257  89.7660283  69.0874640 104.5981120  89.6266747  68.7958638
 103.7719232  89.9314737  70.0272818  98.0314063  87.1427137  67.9327827
  97.1617372  87.4360703  67.6610415  98.2673543  87.7267582  68.6535090
 107.9085692  96.2026296  68.0157355 107.6170500  96.5656277  68.8520816
 107.2957823  95.4893304  67.8370687 109.1081374  93.7679176  60.5359926
 109.9428265  94.2068980  60.6997486 109.2440503  93.2917829  59.7168171
 106.1572880  91.3258911  66.4837413 106.6327002  91.5186557  65.6756265
 105.2338445  91.3818097  66.2380797  93.0456387  92.4883078  56.0668492
  92.8002429  91.5845408  56.2648702  93.2152301  92.4900228  55.1247970
 100.7353097  83.3606754  65.4493247 101.2535040  84.0967781  65.1239736
 100.3808229  83.6670748  66.2840006  92.3152034  88.2211436  53.5654653
  91.6221279  88.2955790  52.9094689  92.0703786  87.4571779  54.0876170
 100.9865691  79.7807037  60.9694144 101.2667444  79.1130226  61.5954570
 101.7716298  79.9736132  60.4568808  98.7899159  98.9566031  52.5319170
  98.2173126  99.5756218  52.0789642  99.3631953  99.5065392  53.0659092
 104.8574549  88.2024671  64.7165719 105.8091972  88.3022769  64.7377943
 104.6877999  87.4102939  65.2263803 102.8788928  85.2880254  64.9025120
 102.2838861  85.5685267  64.2071608 102.5938625  85.7774155  65.6741861
 102.0096419  99.2403181  53.6627752 102.9427092  99.1748743  53.8660628
 101.9219632 100.0759448  53.2042285 104.6384436  98.5569051  50.6231700
 104.5598067  98.2228915  51.5167458 105.4594102  99.0490819  50.6223172
 107.3362627  91.4230791  63.8308019 107.3038947  90.4846791  64.0167702
 107.9463250  91.5014827  63.0973843  99.1745958  90.2926844  49.8735223
 100.1205062  90.1633052  49.9423641  98.7960203  89.5541505  50.3504651
 107.4857115  88.2141834  63.8766302 106.9696164  87.4300291  63.6896231
 108.3697064  87.8860551  64.0412821 105.1467842  81.9582850  59.8362114
 104.9492663  81.6497938  60.7205446 105.7567548  82.6844488  59.9660044
 113.1539177  92.4846797  62.9714055 113.8842565  92.2232085  63.5321759
 112.5446122  91.7475519  63.0116123 111.2354474  90.6254660  63.5688507
 110.5087637  90.4910625  62.9604998 110.8201761  90.9331489  64.3745225
  99.0584650  94.3444590  71.3335880  99.9787660  94.5223189  71.5275926
  99.0234233  93.4000635  71.1815579  97.3588875  88.2176820  49.8090108
  96.4520330  87.9209933  49.8852821  97.6364856  87.9206638  48.9424394
  88.2766815  89.5383183  60.2589154  87.9569600  88.6848491  59.9663528
  87.7300243  89.7531761  61.0147122  92.0546723  92.2545624  63.9758661
  92.2732733  93.1862732  63.9946695  92.4672497  91.8953599  64.7613465
  98.9750941  82.7613710  55.9634349  98.1651669  82.4160795  56.3389595
  99.6635357  82.4521253  56.5521961 100.9041489  81.8391756  57.5858646
 101.4572527  82.2587210  58.2448669 101.1411575  80.9127505  57.6281602
  96.9274588  87.8278830  73.3661410  96.8271315  88.7773187  73.2973501
  96.7096130  87.4997069  72.4937480  96.1287659  85.0763755  49.9502087
  96.9906823  85.4018653  50.2097904  96.3138004  84.2895251  49.4375153
  88.1455075  93.1586095  62.2282276  87.4518547  92.7440048  61.7152230
  88.8928066  93.2006631  61.6315695 104.2820296  83.9492282  57.0937310
 103.7018965  84.6077086  56.7115362 104.0156229  83.1269626  56.6824728
 102.7323862  83.3497339  59.2958630 103.2323641  83.4613874  58.4872949
 103.3759470  83.0458392  59.9359439  96.7905858  91.2575969  72.1826471
  96.3072940  92.0576329  72.3890360  96.8766797  91.2683914  71.2293915
  90.0591818  93.0904349  60.1048291  90.0362506  93.1892036  59.1530174
  90.3692454  93.9369499  60.4265457  92.7179196  95.1480504  64.2194905
  93.6722449  95.1164446  64.1524837  92.5191719  94.6871127  65.0345131
  93.3078578  93.7181620  66.7865703  94.1271467  94.2125698  66.8100540
  93.5815385  92.8013588  66.7583270 103.0645174  86.1092372  56.1493658
 102.1771029  86.3942023  55.9313853 103.4799163  85.9486135  55.3020935
 106.4159710  86.1338893  59.8647998 107.1920100  86.6235345  60.1372614
 105.6907844  86.5596947  60.3219867 108.8532269  86.8466512  60.9221938
 109.4476760  86.6062248  60.2115246 108.9258852  86.1273643  61.5495474
  91.0729424 100.6900123  61.2365103  90.9383892  99.9300524  60.6703101
  90.6561487 101.4141023  60.7693892 102.2088387  95.8737047  50.2441678
 102.9124238  96.0787049  50.8599334 101.4851036  96.4413809  50.5090762
 103.0386198  91.6246908  56.3643948 102.9821399  92.0815459  55.5251581
 103.5914540  90.8637592  56.1866791 106.8491004  87.4136640  57.1894068
 106.5927938  87.0133275  58.0202276 106.2243872  88.1280434  57.0644207
 111.1603341  90.1532713  59.6965359 110.6002899  90.2225902  60.4696921
 110.5546845  89.9773698  58.9764856  94.2298550 101.5869440  61.4483546
  94.1130934 102.5314873  61.3462236  93.4090997 101.2843002  61.8369345
 104.1175085  96.3119576  52.2940138 104.9520689  95.8800774  52.1117613
 103.9559428  96.1401590  53.2217033 103.7720977  92.8151689  53.6596478
 103.7169781  92.6495961  52.7184922 103.1467032  93.5227722  53.8158667
  88.5613492  88.0519754  67.4857900  89.2072356  87.5418707  67.9745125
  88.3530643  88.7888435  68.0601325 101.0866884  95.1200601  72.9850040
 101.9558044  95.2941253  72.6236675 100.6073636  95.9395018  72.8625770
  97.0817102  82.3159798  53.2381796  97.0695772  83.2601638  53.3950067
  97.9740524  82.1329944  52.9441257  95.2553064 102.2397702  64.6639474
  96.1580311 102.2721312  64.9805969  95.0290434 101.3098153  64.6785810
  97.0106666 100.9928689  61.3249553  96.0602297 100.9930550  61.2113925
  97.3139153 100.2461423  60.8085587 100.8969222  78.9102575  57.4927733
 100.1301618  78.3561061  57.6384415 101.3079927  78.9824444  58.3541884
  92.9010983  85.1987371  71.5832914  93.7642445  84.8424175  71.7936239
  92.3276394  84.8601265  72.2708318 112.7459360 106.8289227  62.3895315
 113.3837770 106.7095974  61.6858655 112.6280203 107.7770071  62.4483267
 109.5549066 106.7816655  62.3256840 109.2167578 106.6657720  61.4377375
 110.4238834 106.3807820  62.3057846 105.4135882 108.6352131  58.3153731
 104.8500747 108.5442068  57.5470018 105.2988277 107.8152036  58.7956223
 110.0368849 107.9351507  68.2843045 110.0257490 107.5404305  67.4123549
 110.1989489 107.2017579  68.8776817 102.9600314 110.1303323  61.1537951
 103.7521606 109.7894148  60.7384250 103.1996964 110.2398298  62.0740104
 104.9191068 109.3912236  54.0255330 105.6921944 108.8441223  53.8868206
 105.2716467 110.2556486  54.2369791 106.7576110 110.7188619  67.2322229
 106.4665976 111.6234249  67.1168896 107.3933095 110.7605146  67.9466299
 107.6832317 108.0965467  63.8223589 108.2795889 107.8721489  63.1080552
 107.7407289 107.3550213  64.4249037 107.2557346 105.5504902  51.6573780
 107.5082866 105.0286424  50.8957243 106.3181905 105.3871048  51.7600463
 112.3000628 104.5540681  59.4648523 113.0863718 104.1360104  59.1138940
 112.5639333 105.4586773  59.6330171 117.7009056 104.4915914  60.3681502
 118.4334227 103.9215131  60.6019331 116.9448411 104.1037514  60.8088007
 106.9753634 107.4533008  53.8598155 106.8589892 106.7777912  54.5279239
 107.0855894 106.9665382  53.0430308 109.3185175 106.9143155  57.5644844
 108.9543382 106.3873776  58.2757766 110.1752291 106.5241625  57.3911329
 115.2234476  98.2037488  64.8276110 114.8917801  99.0732899  64.6037325
 114.6280089  97.8873772  65.5070141 108.9590662 101.9433055  52.5606193
 109.1265065 102.8113292  52.9276664 108.7687831 102.1060337  51.6367482
 105.1678477 106.8563831  60.2608727 104.2428973 106.7240045  60.4686419
 105.4162890 107.6358050  60.7578670 115.1163139 102.9232574  61.9069460
 114.2080017 102.8547983  61.6128221 115.0650735 103.4004519  62.7351286
 108.9379883 104.3990713  53.5452859 108.8179508 104.8447763  54.3838340
 108.2432471 104.7476030  52.9866398 102.5287288 106.4997104  61.0952516
 102.6579669 106.7531583  62.0091928 101.8484739 107.0924812  60.7757172
 109.1904005 104.3422220  69.8504358 108.4137339 104.9016140  69.8407222
 109.8294568 104.8279003  70.3719228 116.9824786 101.1249013  63.6847334
 116.3399166 101.4181546  63.0387129 116.4779714 101.0101933  64.4900531
 114.6364949 104.8712186  54.3733193 115.5482805 105.1039573  54.1980891
 114.1274596 105.4549230  53.8108272 107.4450377 107.1507673  69.4122325
 108.1865062 107.6892717  69.1357148 106.7387363 107.7773962  69.5693876
 112.9205717 109.2936814  68.0094486 113.3289073 108.8519224  67.2649118
 112.1982978 108.7189441  68.2628679 109.2736787 104.2309420  65.3828043
 110.1197982 104.6548834  65.5262692 109.2135425 103.5743045  66.0766606
 112.4236232 101.8913789  67.0409217 112.1797164 102.6455849  66.5043492
 112.6996163 102.2699136  67.8756464 111.9800924 101.0470222  62.6223054
 111.1185403 101.3451475  62.9139792 112.0063359 101.2640621  61.6904087
 108.7962493 109.5912412  59.0296860 109.2600839 109.8700115  58.2401482
 108.5319292 108.6895857  58.8469951 105.6886575 109.1383894  61.9676623
 106.2587932 109.5671162  61.3294108 106.2794686 108.8566479  62.6660809
 107.7331379 105.7135565  55.8386425 108.4355423 106.1656608  56.3060352
 107.4012008 105.0719384  56.4666318 106.1811741 104.3047321  70.2137635
 105.5510402 104.9863602  70.4473031 106.0747829 104.1930403  69.2690773
 101.4756713 103.9719117  61.1403559 100.6855767 104.2276646  60.6643669
 101.9667961 104.7867455  61.2455599 103.4271459 104.3363697  58.0987035
 102.6302622 104.4482391  58.6170531 103.1997051 104.6750349  57.2327926
 109.2577126 110.8608400  66.0469550 109.3221559 111.3228807  66.8827722
 108.5488050 110.2305765  66.1751860  99.7594416 104.2249608  63.5718550
 100.0102455 105.1096618  63.8376125 100.2953965 104.0454209  62.7993641
 105.4592484  98.6068087  72.5762886 105.0659429  98.0534286  73.2510530
 106.2758624  98.9178666  72.9669403 102.4254542 110.0451945  56.4876455
 102.9379062 110.8395196  56.6382020 103.0777254 109.3478236  56.4210057
 104.2349426 113.1617702  58.5699209 104.4116055 114.0835666  58.3820193
 105.0306260 112.8476121  58.9993588 108.3760445 100.0225966  70.1683142
 109.1170158 100.6233119  70.0887605 108.6078368  99.2803604  69.6101185
 103.5201783 105.2082334  68.4461372 103.4055298 104.3067591  68.7468471
 102.6646300 105.4546030  68.0946188 105.3580742 114.6795875  64.5709551
 105.9088167 114.5512939  63.7986545 104.5192218 114.9790765  64.2204444
 109.1547913 110.9447003  68.9153782 109.6876250 110.1835291  68.6853090
 108.6261994 110.6520655  69.6577937 112.3217608  96.0507069  64.4447424
 111.9781877  96.9408711  64.3686534 112.6896570  95.8608727  63.5817009
 100.3903458 108.3740600  57.2636026 101.2278680 108.7837608  57.0469734
 100.5681726 107.4340042  57.2336220 112.2867890 106.0415680  52.9519859
 111.7714514 106.8120285  53.1908246 112.0145199 105.3680817  53.5752920
 109.8715001 100.8865381  58.0105097 109.0156598 100.4972232  57.8310736
 110.2841953 100.9657342  57.1504883 111.4014148  98.4211724  62.4096657
 110.8978944  98.3841860  61.5964462 111.6944755  99.3304467  62.4693314
 107.6457034  98.5050454  61.4162839 108.5110031  98.3093263  61.0568728
 107.7134543  98.2760806  62.3432196 112.0754194 103.9142772  54.7779640
 111.7704329 104.2288922  55.6289783 113.0284636 103.9924192  54.8206973
 110.5200625 110.0732996  56.4272594 109.9921987 109.3385755  56.1145832
 110.0188128 110.8507672  56.1812562 105.2519353 100.7352662  58.7879206
 105.8263105 100.5127844  58.0552399 105.8390335 100.8041357  59.5407807
 114.3098930 106.6226389  59.5943582 114.8230812 107.2556381  60.0965292
 114.9600154 106.0227584  59.2286942 105.5788940 102.7657123  52.8075091
 104.7426252 103.1031810  53.1284366 105.4393710 102.6306103  51.8702228
 107.5542021  97.6093911  57.5154275 106.9006433  97.2942928  56.8910890
 107.5122495  96.9869651  58.2414098 108.6653226 107.8913206  49.4307567
 107.7580287 107.6602460  49.6298716 109.1624258 107.0950825  49.6181549
 110.7879761 104.0975845  61.8401923 109.8702322 104.3190792  61.6823611
 111.2039905 104.1722155  60.9813630 111.5714809 105.4967260  56.9704603
 112.3186628 106.0088657  56.6611725 111.8406398 105.1751313  57.8308996
 109.8441459 107.9925801  53.9531557 108.9352678 107.7084834  54.0504027
 109.8736543 108.4124879  53.0934864 114.0193646 102.5324376  58.9523392
 113.2816403 102.0201763  59.2833635 114.2720420 102.0924758  58.1406669
 114.1205273  95.3100628  59.5465162 114.4264150  94.4497992  59.2591077
 114.8457878  95.9018249  59.3464155 100.4129629 105.7131315  57.9346759
 100.2154029 105.1200676  57.2097826  99.8576293 105.4083525  58.6522698
 108.3926353 105.6054422  60.0541353 108.4474963 104.6528258  59.9783829
 107.5817555 105.7613861  60.5382651 109.5417547 109.5334545  51.2919636
 109.1036977 108.8170404  50.8325273 110.2827988 109.7610659  50.7304727
 106.3318713 104.2231481  57.8131731 105.5186579 104.5225652  58.2196924
 106.8277707 103.8287170  58.5306214 111.9292925 104.6873306  66.6446625
 112.2842312 104.9144779  67.5041091 112.5765056 105.0191683  66.0223881
 105.8232788 101.7949837  63.4292966 106.4632167 101.6538596  62.7315930
 104.9910318 101.5084350  63.0531568 106.5993092 111.0952267  59.5427959
 107.3933690 110.6002587  59.3410534 105.8884784 110.5670130  59.1795664
 102.9075855 105.2395349  55.6187712 101.9773443 105.1779804  55.8357674
 103.0033327 104.7171302  54.8224353 102.8261404 101.7650162  58.2065953
 103.0868221 102.6795495  58.0975114 103.6478577 101.2974604  58.3562566
 104.2986330 103.1787919  65.3764778 104.9709383 102.9705281  64.7277427
 103.4716116 102.9810005  64.9370010 110.2011902  99.8049860  67.3930439
 109.5539817 100.5039810  67.2994915 110.9712917 100.2386004  67.7606687
 110.3776036 107.6430625  65.4527258 111.3068096 107.7941784  65.2796226
 109.9567066 107.7314646  64.5975905 109.1764368 111.6681289  63.2225796
 109.0375453 111.3000074  64.0951734 108.3878964 112.1828929  63.0509754
 110.7269583 111.0462892  60.6114634 110.3919415 111.0063662  61.5072284
 110.2273528 110.3807608  60.1385044 104.7013827 106.4530522  66.1367215
 104.5633625 105.7210761  66.7378754 105.6118750 106.3639422  65.8551403
 113.6628774 108.3918926  50.8851693 113.0457945 107.6665754  50.7884746
 113.1945263 109.1528287  50.5418768 107.3296127 106.1650481  65.6250895
 108.0395746 105.5243673  65.5837513 107.2865436 106.4163376  66.5477075
 106.0425061 103.1515699  67.4446534 105.5062418 102.7006438  68.0968130
 105.4541770 103.2861608  66.7016998 105.4527320 102.6104351  50.0072998
 104.5756787 102.4893151  49.6435244 105.9285073 101.8190429  49.7551886
  96.9729460 107.3981510  60.1014505  97.6600500 107.0843240  59.5135520
  96.8177589 108.3022875  59.8281756 101.7764183 102.2871707  64.5299529
 101.6922371 101.6797376  63.7949938 100.9546889 102.7780725  64.5309025
 111.9487897 100.7725270  59.8969724 112.4456596 100.0195233  59.5770794
 111.1774878 100.8089587  59.3312933 113.0317677 109.5296958  57.4708147
 112.0973956 109.6498420  57.3012851 113.2094346 108.6269424  57.2068157
 108.5322865 102.9142653  59.6241408 108.1620653 102.3613694  60.3122314
 109.0281958 102.3100787  59.0716408 116.4190229 105.3714277  58.0058181
 116.8850681 106.2042268  57.9318484 116.8697729 104.9059258  58.7103440
 106.3612064 113.3740148  66.7196426 107.0621523 114.0076631  66.8725820
 105.8907179 113.7154880  65.9592065 114.3906891  97.7394864  62.0449082
 113.4769971  97.9699091  62.2131289 114.8199993  97.8233308  62.8963115
 114.1613350 105.9284756  64.5448976 113.5084800 106.1760663  63.8901429
 114.5393730 105.1148894  64.2111454 110.2100923 106.6704567  71.0315014
 109.5341560 106.5698696  71.7017389 111.0328557 106.5143781  71.4951011
 101.9579782 112.9076503  63.6527529 102.5433219 112.1620191  63.7855433
 101.7604620 113.2180460  64.5364193  96.5497437 105.4782104  62.3731972
  96.5881536 104.9445694  63.1669090  96.0437729 104.9517309  61.7542949
 103.9288199 100.3246644  65.8694514 103.9929525 101.1861475  65.4571912
 103.8655319  99.7120646  65.1366873 103.4040471 102.3969777  69.5167549
 104.0312510 102.0146854  70.1305073 102.5468390 102.1783979  69.8823241
 100.1806014 104.2046206  55.4485903 100.4759455 103.2956884  55.3952957
  99.2794050 104.1833945  55.1266906 103.7100261 102.2802202  61.4313452
 102.9886847 102.8938170  61.2920925 104.4993517 102.8159967  61.3530098
 106.5126575  99.6156629  67.7054104 107.0360977  99.8618925  68.4680413
 106.2938908 100.4476664  67.2857241 101.9093856 101.8860303  55.5725228
 101.5806562 101.0057682  55.3900334 102.2633226 101.8307972  56.4601618
 105.0235679 102.1733273  55.9400706 105.3631751 102.7019194  55.2179315
 105.4707799 102.5113679  56.7159273 107.7179120 100.5570324  65.3903774
 107.3775940  99.7578137  65.7924454 107.0118126 100.8572035  64.8180607
 108.3695592  97.6419636  63.8431097 109.1921661  97.1680115  63.7209988
 108.6133655  98.4210120  64.3429784 107.0103826 100.6707895  54.1393999
 107.7312189 101.0489148  53.6357716 106.3869130 101.3896772  54.2428977
 111.1534949 101.3753044  55.0752331 111.3698563 102.2577682  54.7741159
 110.6729016 100.9839257  54.3457973 105.8934170 104.3338757  61.6523076
 105.7478751 104.6479060  62.5447357 105.4159374 104.9523657  61.0993974
 107.7530553 101.3241305  61.7003965 107.7392122 100.4282398  61.3636263
 108.4702981 101.3311969  62.3342251 109.6056684 101.7578645  63.7457093
 109.3474462 102.6795716  63.7441423 109.0741724 101.3609080  64.4357557
 100.3679833 106.8744101  64.5910737  99.8233301 107.6503909  64.7231011
 101.2459182 107.2214906  64.4329858 107.1567449 100.2055685  56.9691536
 107.2783360  99.2772331  57.1682423 106.8669492 100.2194371  56.0569851
 110.0258640  97.8910596  60.1058255 110.0480336  97.9549929  59.1510235
 110.4426699  97.0515104  60.2998762 101.1545854 106.0013998  67.4840894
 100.4127590 106.1496633  68.0705524 100.8338599 106.2622263  66.6207643
 101.6002468 113.8879426  59.5151289 102.4260488 113.5883198  59.1349932
 101.2496520 113.1187049  59.9641077 106.5684001 113.2405895  61.5848962
 105.9464011 112.5776600  61.2851190 107.2388868 113.2667027  60.9022610
  99.8011073 111.8065753  60.4740222  98.9642981 111.3787927  60.2924223
  99.7734719 111.9998196  61.4111013 106.6408529 101.7187683  71.1781468
 106.6896684 102.5949805  70.7959238 107.1831043 101.1765076  70.6053111
 106.1297508 111.7909818  55.0607423 106.2785628 112.4745282  54.4074095
 106.9363952 111.7714908  55.5756878 114.5365012 105.0952200  69.0874640
 115.4374875 104.9558665  68.7958638 114.6112986 105.2606655  70.0272818
 108.8707817 102.4719055  67.9327827 108.0011127 102.7652621  67.6610415
 109.1067298 103.0559500  68.6535090 103.8850141 107.8174996  56.0668492
 103.6396183 106.9137326  56.2648702 104.0546056 107.8192146  55.1247970
 111.5746851  98.6898672  65.4493247 112.0928795  99.4259699  65.1239736
 111.2201984  98.9962665  66.2840006 103.1545789 103.5503353  53.5654653
 102.4615034 103.6247708  52.9094689 102.9097541 102.7863697  54.0876170
 111.8259445  95.1098955  60.9694144 112.1061199  94.4422144  61.5954570
 112.6110052  95.3028050  60.4568808 115.6968304 103.5316589  64.7165719
 116.6485726 103.6314686  64.7377943 115.5271754 102.7394857  65.2263803
 113.7182683 100.6172172  64.9025120 113.1232615 100.8977184  64.2071608
 113.4332380 101.1066073  65.6741861 110.0139712 105.6218761  49.8735223
 110.9598817 105.4924969  49.9423641 109.6353957 104.8833423  50.3504651
 118.3250870 103.5433752  63.8766302 117.8089918 102.7592208  63.6896231
 119.2090818 103.2152468  64.0412821 115.9861597  97.2874767  59.8362114
 115.7886418  96.9789855  60.7205446 116.5961302  98.0136406  59.9660044
 109.8978405 109.6736507  71.3335880 110.8181414 109.8515106  71.5275926
 109.8627988 108.7292553  71.1815579 108.1982629 103.5468738  49.8090108
 107.2914085 103.2501850  49.8852821 108.4758610 103.2498556  48.9424394
  99.1160570 104.8675101  60.2589154  98.7963354 104.0140409  59.9663528
  98.5693998 105.0823679  61.0147122 102.8940477 107.5837542  63.9758661
 103.1126487 108.5154650  63.9946695 103.3066251 107.2245516  64.7613465
 109.8144695  98.0905627  55.9634349 109.0045423  97.7452712  56.3389595
 110.5029112  97.7813171  56.5521961 111.7435243  97.1683674  57.5858646
 112.2966282  97.5879128  58.2448669 111.9805330  96.2419422  57.6281602
 107.7668343 103.1570748  73.3661410 107.6665069 104.1065105  73.2973501
 107.5489885 102.8288987  72.4937480 106.9681414 100.4055673  49.9502087
 107.8300578 100.7310571  50.2097904 107.1531758  99.6187169  49.4375153
  98.9848830 108.4878012  62.2282276  98.2912301 108.0731965  61.7152230
  99.7321821 108.5298549  61.6315695 115.1214050  99.2784199  57.0937310
 114.5412719  99.9369003  56.7115362 114.8549983  98.4561544  56.6824728
 113.5717617  98.6789257  59.2958630 114.0717395  98.7905791  58.4872949
 114.2153225  98.3750310  59.9359439 107.6299613 106.5867887  72.1826471
 107.1466694 107.3868247  72.3890360 107.7160552 106.5975831  71.2293915
 100.8985572 108.4196266  60.1048291 100.8756260 108.5183954  59.1530174
 101.2086209 109.2661417  60.4265457 103.5572950 110.4772421  64.2194905
 104.5116204 110.4456364  64.1524837 103.3585474 110.0163045  65.0345131
 104.1472332 109.0473537  66.7865703 104.9665221 109.5417616  66.8100540
 104.4209140 108.1305505  66.7583270 113.9038928 101.4384290  56.1493658
 113.0164783 101.7233940  55.9313853 114.3192918 101.2778053  55.3020935
 117.2553465 101.4630811  59.8647998 118.0313855 101.9527263  60.1372614
 116.5301599 101.8888865  60.3219867 119.6926023 102.1758430  60.9221938
 120.2870514 101.9354166  60.2115246 119.7652607 101.4565560  61.5495474
 101.9123179 116.0192041  61.2365103 101.7777647 115.2592442  60.6703101
 101.4955241 116.7432941  60.7693892 113.8779952 106.9538826  56.3643948
 113.8215154 107.4107377  55.5251581 114.4308295 106.1929510  56.1866791
 117.6884758 102.7428557  57.1894068 117.4321692 102.3425193  58.0202276
 117.0637626 103.4572351  57.0644207 114.6114731 108.1443607  53.6596478
 114.5563535 107.9787878  52.7184922 113.9860787 108.8519640  53.8158667
  99.4007246 103.3811671  67.4857900 100.0466110 102.8710625  67.9745125
  99.1924398 104.1180353  68.0601325 107.9210857  97.6451716  53.2381796
 107.9089527  98.5893556  53.3950067 108.8134279  97.4621861  52.9441257
 111.7362976  94.2394492  57.4927733 110.9695372  93.6852979  57.6384415
 112.1473681  94.3116361  58.3541884 103.7404737 100.5279288  71.5832914
 104.6036199 100.1716093  71.7936239 103.1670148 100.1893183  72.2708318
  44.5186540  -8.1872728  49.0502146  44.1805052  -8.3031664  48.1622681
  45.3876309  -8.5881563  49.0303153  40.3773356  -6.3337252  45.0399037
  39.8138221  -6.4247315  44.2715325  40.2625751  -7.1537348  45.5201530
  45.0006323  -7.0337877  55.0088352  44.9894964  -7.4285078  54.1368856
  45.1626963  -7.7671804  55.6022123  37.9237788  -4.8386060  47.8783258
  38.7159080  -5.1795236  47.4629557  38.1634438  -4.7291085  48.7985411
  45.9572915  -2.6666284  40.3513502  45.3060895  -2.0812204  39.9647516
  46.7517278  -2.1360089  40.4108540  39.8828542  -5.5777147  40.7500637
  40.6559418  -6.1248160  40.6113512  40.2353941  -4.7132898  40.9615098
  41.7213585  -4.2500765  53.9567536  41.4303451  -3.3455134  53.8414202
  42.3570569  -4.2084237  54.6711605  42.6469791  -6.8723916  50.5468896
  43.2433364  -7.0967894  49.8325858  42.7044763  -7.6139171  51.1494343
  47.4348180  -4.9775852  40.8882487  46.7994013  -4.9041226  41.6003391
  47.1045586  -4.3882254  40.2101566  41.9391109  -7.5156375  40.5843461
  41.8227367  -8.1911472  41.2524546  42.0493369  -8.0024001  39.7675615
  44.2822650  -8.0546228  44.2890151  43.9180857  -8.5815607  45.0003072
  45.1389765  -8.4447759  44.1156636  46.6803470  -4.5639349  50.9517330
  46.3804193  -3.6614311  50.8433137  46.3354529  -4.8307166  51.8038482
  40.1315951  -8.1125553  46.9854034  39.2066448  -8.2449338  47.1931726
  40.3800364  -7.3331333  47.4823976  41.6624250   2.2004971  43.9188297
  41.5848279   3.1512796  43.9976778  41.0585893   1.8550843  44.5763224
  42.4087852  -7.8181710  56.1367631  43.1502536  -7.2796666  55.8602455
  41.7024837  -7.1915421  56.2939183  47.8843191  -5.6752570  54.7339793
  48.2926547  -6.1170159  53.9894425  47.1620453  -6.2499942  54.9873986
  48.2072006  -5.1151379  48.4892082  47.5780868  -4.9505665  47.7868149
  47.8197668  -4.7009770  49.2603046  52.0861238  -4.1796941  45.8436445
  51.4012276  -3.7998040  45.2933479  52.1705087  -3.5701615  46.5768393
  49.3412169  -6.5336982  52.4431789  49.5529065  -5.8905222  51.7666170
  49.2941918  -7.3674666  51.9753719  43.7599968  -5.3776971  45.7542167
  44.2238313  -5.0989268  44.9646789  43.4956766  -6.2793526  45.5715257
  40.6524049  -5.8305490  48.6921930  41.2225406  -5.4018221  48.0539414
  41.2432161  -6.1122905  49.3906116  50.4557997  -3.6565027  50.6154146
  51.2775441  -4.0584840  50.3336828  50.4520400  -3.7596793  51.5670262
  44.2214601  -4.1080984  52.7714857  44.2859033  -3.6460576  53.6073029
  43.5125525  -4.7383619  52.8997167  43.9362618  -2.4412876  42.6393837
  43.8008293  -1.5961340  43.0678685  44.4772431  -2.2393598  41.8759771
  37.3892016  -4.9237438  43.2121762  37.9016536  -4.1294188  43.3627327
  38.0414729  -5.6211148  43.1455364  39.1986901  -1.8071682  45.2944515
  39.3753529  -0.8853717  45.1065499  39.9943734  -2.1213263  45.7238895
  45.5631095  -1.8189310  56.7694179  45.1194949  -2.6052931  56.4515084
  46.2248308  -1.6310159  56.1038070  40.3218216  -0.2893508  51.2954858
  40.8725641  -0.4176445  50.5231852  39.4829692   0.0101381  50.9449750
  47.6612333  -1.5386510  54.7975580  47.6430808  -0.7177629  54.3055850
  48.5832253  -1.6632434  55.0225722  44.1185387  -4.0242380  55.6399089
  44.6513724  -4.7854092  55.4098397  43.5899468  -4.3168728  56.3823243
  45.4838100  -4.8956388  43.1517901  44.9559461  -5.6303628  42.8391138
  44.9825602  -4.1181711  42.9057869  50.4630946  -6.7007367  48.2684947
  49.8054620  -6.0108106  48.3565076  51.2671345  -6.3110935  48.6118933
  43.6290700  -7.0776177  36.1552874  42.7217762  -7.3086924  36.3544023
  44.1261732  -7.8738558  36.3426855  46.5358779   1.6321330  39.0749560
  45.8620478   1.9353027  39.6834518  46.9224601   2.4350410  38.7255017
  44.8078933  -6.9763583  40.6776864  43.8990153  -7.2604550  40.7749334
  44.8374017  -6.5564504  39.8180171  50.0398201  -3.3656993  44.4468031
  49.5860528  -4.2066083  44.5033222  49.4092167  -2.7295595  44.7842812
  48.4831140  -1.5280496  45.3817850  48.7754114  -0.9675439  44.6630215
  48.9929761  -1.2351935  46.1371009  44.5055021  -5.4354839  38.0164942
  44.0674451  -6.1518980  37.5570580  45.2465462  -5.2078724  37.4550034
  43.4464765  -0.7500145  46.4711303  43.4040944  -0.5239299  45.5419835
  44.3627464  -0.9836771  46.6197104  52.6497516  -5.0921115  49.0852533
  53.0834022  -5.1845826  49.9335587  53.3629096  -5.1163614  48.4472549
  41.5630566  -3.8737116  46.2673265  42.3571164  -4.3686796  46.0655840
  40.8522258  -4.4019253  45.9040971  46.3825410  -1.4919021  50.6185633
  46.4362433  -0.9228084  51.3863349  45.5140192  -1.3217136  50.2539670
  53.5113065  -5.0497414  51.6185418  53.7048955  -4.1451604  51.8644693
  53.4113683  -5.5089995  52.4524003  48.5728174  -4.8990671  57.1926299
  48.4213680  -5.1280120  56.2756382  48.5632853  -3.9420070  57.2057644
  45.3413510  -7.3258759  52.1772565  46.2705570  -7.1747599  52.0041532
  44.9204540  -7.2374738  51.3221211  44.1401842  -3.3008094  49.9471103
  44.0012928  -3.6689310  50.8197041  43.3516438  -2.7860455  49.7755060
  44.7349994   1.8001002  41.2896639  44.9101750   1.3289045  42.1042262
  44.0482782   2.4266768  41.5177900  45.6907057  -3.9226492  47.3359940
  45.3556890  -3.9625722  48.2317590  45.1911003  -4.5881776  46.8630351
  39.6651301  -8.5158862  52.8612522  39.5271099  -9.2478623  53.4624061
  40.5756225  -8.6049961  52.5796709  48.6266249  -6.5770457  37.6097000
  48.0095419  -7.3023629  37.5130053  48.1582737  -5.8161097  37.2664074
  42.2933602  -8.8038902  52.3496201  43.0033220  -9.4445710  52.3082820
  42.2502910  -8.5526007  53.2722382  50.2820380  -1.8671549  55.2702780
  50.2232927  -2.5512329  54.6033363  50.6839899  -1.1252559  54.8183406
  39.3011079   4.9490365  48.0636499  39.5407677   5.5808889  48.7415518
  38.4580276   4.5978405  48.3501859  50.2837788  -3.9031965  53.5016760
  49.3964566  -4.2406043  53.6243159  50.8536339  -4.6348934  53.7385525
  43.8138941   0.7569487  50.4678003  43.7409113   1.5624459  50.9797308
  43.3716334   0.9561453  49.6426025  43.6028721  -0.0058743  43.9780825
  42.8196243   0.5362938  44.0719049  44.3021466   0.5115237  44.3775066
  46.2737625   0.6556321  52.6236162  46.9865597   1.2903786  52.5512063
  45.7827653   0.7520187  51.8076164  47.9955152  -5.4392426  44.1953454
  47.0611430  -5.3190963  44.0258158  48.1731820  -6.3419959  43.9313463
  41.3249538  -1.5949235  53.4441733  42.0258998  -0.9612752  53.5971127
  40.8544653  -1.2534504  52.6837372  49.4503934  -3.2531285  41.7289640
  49.7263778  -3.3674691  42.6383514  48.5808433  -3.6513800  41.6901813
  46.0857998   0.9955066  45.3722453  46.2680393   0.1776721  45.8350206
  46.9090984   1.2122758  44.9347343  46.4200163  -0.0776749  42.6337502
  46.9487930  -0.5884295  42.0207664  46.6828383  -0.3934219  43.4983035
  45.1738397  -8.2984817  57.7560320  44.4979034  -8.3990687  58.4262695
  45.9966031  -8.4545603  58.2196317  36.9217256  -2.0612880  50.3772835
  37.5070693  -2.8069192  50.5100740  36.7242095  -1.7508923  51.2609499
  39.7755911   0.9738367  45.3935278  39.1066287   1.4584495  44.9099318
  39.6368781   1.2207588  46.3078656  43.9161180   3.0082111  51.9917936
  44.4679488   3.1713732  52.7567021  44.2567373   3.5986549  51.3197961
  48.7672054  -2.1656632  57.8466591  49.3111958  -1.5526673  57.3521545
  48.1858899  -1.6077053  58.3633604  47.0529567   0.9564086  48.9781618
  46.9280707   0.1553826  48.4692564  47.7108658   1.4510280  48.4895588
  49.1164476  -1.2426894  50.6061168  48.1694811  -1.3621542  50.5339495
  49.4647249  -2.1304395  50.6887430  46.1210909  -1.4474177  46.8065521
  45.9735871  -2.3757470  46.9873091  46.9464402  -1.4254087  46.3222596
  49.7245031  -0.6245619  47.8930393  50.6491578  -0.8302757  47.7554845
  49.5560334  -0.8729217  48.8019735  49.5140347  -0.1059951  43.2492485
  49.6877225  -0.6713529  42.4966337  50.0069238   0.6940944  43.0671975
  50.5015520  -0.7893187  40.3489383  51.1966424  -0.1686494  40.5676698
  50.8438670  -1.6397836  40.6241761  52.4006943  -3.3393481  41.8776714
  52.9258267  -3.0006208  41.1526034  52.3129295  -4.2746466  41.6939849
  44.0626991   0.5740592  54.0066591  44.3714118   0.3289739  54.8789290
  44.8602473   0.7787231  53.5185461  44.0847603   2.7278502  46.2371967
  43.6452594   2.2354881  46.9304824  44.8355720   2.1851470  45.9964042
  36.5639942  -1.0809957  46.2396595  37.3897962  -1.3806185  45.8595239
  36.2133994  -1.8502335  46.6886384  41.5321476  -1.7283489  48.3094269
  40.9101485  -2.3912784  48.0096497  42.2026342  -1.7022357  47.6267917
  34.7648547  -3.1623631  47.1985529  33.9280456  -3.5901456  47.0169530
  34.7372193  -2.9691187  48.1356320  52.0900849  -2.7060578  57.1827912
  51.2996392  -2.7236439  56.6432411  51.8534203  -2.1672284  57.9376948
  41.0934982  -3.1779565  41.7852729  41.2423103  -2.4944101  41.1319402
  41.9001426  -3.1974475  42.3002185  53.7116921  -3.4371170  54.7402662
  53.4201729  -3.0741189  55.5766123  53.0989052  -4.1504161  54.5615994
  38.8487615  -7.1514388  42.7913798  38.6033657  -8.0552058  42.9894008
  39.0183530  -7.1497237  41.8493276  44.5930388  -0.6831435  39.2564477
  44.0204355  -0.0641248  38.8034949  45.1663182  -0.1332073  39.7904399
  47.8127648  -0.3994285  40.3873059  48.7458321  -0.4648723  40.5905935
  47.7250861   0.4361982  39.9287592  50.4415664  -1.0828415  37.3477007
  50.3629296  -1.4168551  38.2412764  51.2625331  -0.5906647  37.3468479
  44.8615879  -5.2952876  58.0581186  45.7818888  -5.1174277  58.2521233
  44.8265462  -6.2396831  57.9060885  37.8577952  -7.3851841  50.7003967
  38.0763961  -6.4534734  50.7192001  38.2703725  -7.7443867  51.4858771
  42.5937087  -8.3821497  58.9071778  42.1104169  -7.5821137  59.1135667
  42.6798026  -8.3713552  57.9539222  35.8623047  -6.5493117  46.8293597
  35.8393735  -6.4505430  45.8775480  36.1723683  -5.7027966  47.1510763
  38.5210424  -4.4916962  50.9440212  39.4753678  -4.5233020  50.8770143
  38.3222948  -4.9526338  51.7590438  39.1109807  -5.9215846  53.5111009
  39.9302696  -5.4271767  53.5345847  39.3846614  -6.8383878  53.4828577
  36.8760653   1.0502657  47.9610410  36.7415121   0.2903058  47.3948408
  36.4592715   1.7743557  47.4939198  48.0119616  -3.7660419  36.9686985
  48.7155466  -3.5610417  37.5844640  47.2882265  -3.1983657  37.2336068
  40.0329779   1.9471974  48.1728852  39.9162163   2.8917407  48.0707543
  39.2122225   1.6445536  48.5614651  49.9206314  -3.3277890  39.0185445
  50.7551918  -3.7596691  38.8362920  49.7590657  -3.4995876  39.9462339
  49.5752206  -6.8245777  40.3841784  49.5201010  -6.9901505  39.4430228
  48.9498261  -6.1169744  40.5403974  46.8898113  -4.5196865  59.7095347
  47.7589273  -4.3456213  59.3481982  46.4104864  -3.7002448  59.5871076
  41.0584293   2.6000236  51.3884781  41.9611540   2.6323846  51.7051276
  40.8321663   1.6700687  51.4031116  42.8137895   1.3531223  48.0494859
  41.8633526   1.3533084  47.9359232  43.1170381   0.6063957  47.5330894
  58.5490589   7.1891761  49.1140622  59.1868999   7.0698509  48.4103962
  58.4311432   8.1372605  49.1728574  55.3580295   7.1419189  49.0502146
  55.0198807   7.0260254  48.1622681  56.2270063   6.7410354  49.0303153
  51.2167111   8.9954666  45.0399037  50.6531976   8.9044603  44.2715325
  51.1019506   8.1754570  45.5201530  55.8400078   8.2954041  55.0088352
  55.8288719   7.9006839  54.1368856  56.0020717   7.5620114  55.6022123
  48.7631543  10.4905857  47.8783258  49.5552835  10.1496682  47.4629557
  49.0028193  10.6000832  48.7985411  56.7966669  12.6625633  40.3513502
  56.1454649  13.2479714  39.9647516  57.5911032  13.1931828  40.4108540
  50.7222297   9.7514771  40.7500637  51.4953173   9.2043758  40.6113512
  51.0747695  10.6159020  40.9615098  52.5607339  11.0791153  53.9567536
  52.2697205  11.9836784  53.8414202  53.1964323  11.1207680  54.6711605
  53.4863546   8.4568001  50.5468896  54.0827118   8.2324024  49.8325858
  53.5438518   7.7152747  51.1494343  53.0588574   5.9107437  38.3819086
  53.3114095   5.3888958  37.6202549  52.1213133   5.7473582  38.4845770
  58.1031857   4.9143215  46.1893830  58.8894946   4.4962638  45.8384247
  58.3670562   5.8189307  46.3575478  58.2741935  10.3516065  40.8882487
  57.6387768  10.4250692  41.6003391  57.9439341  10.9409664  40.2101566
  63.5040284   4.8518448  47.0926808  64.2365456   4.2817665  47.3264638
  62.7479640   4.4640049  47.5333314  52.7784863   7.8135543  40.5843461
  52.6621121   7.1380446  41.2524546  52.8887123   7.3267917  39.7675615
  55.1216404   7.2745690  44.2890151  54.7574611   6.7476311  45.0003072
  55.9783520   6.8844159  44.1156636  61.0265705  -1.4359978  51.5521417
  60.6949029  -0.5664567  51.3282632  60.4311318  -1.7523694  52.2315447
  54.7621891   2.3035589  39.2851499  54.9296293   3.1715826  39.6521970
  54.5719060   2.4662871  38.3612788  57.5197224  10.7652568  50.9517330
  57.2197947  11.6677607  50.8433137  57.1748284  10.4984752  51.8038482
  50.9709706   7.2166365  46.9854034  50.0460202   7.0842579  47.1931726
  51.2194119   7.9960584  47.4823976  60.9194368   3.2835108  48.6314767
  60.0111245   3.2150517  48.3373528  60.8681964   3.7607053  49.4596592
  54.7411112   4.7593247  40.2698166  54.6210737   5.2050298  41.1083646
  54.0463700   5.1078565  39.7111704  48.3318517   6.8599639  47.8197823
  48.4610898   7.1134118  48.7337235  47.6515968   7.4527347  47.5002478
  52.5018004  17.5296889  43.9188297  52.4242034  18.4804714  43.9976778
  51.8979648  17.1842761  44.5763224  54.9935234   4.7024754  56.5749664
  54.2168568   5.2618674  56.5652529  55.6325797   5.1881537  57.0964534
  62.7856014   1.4851547  50.4092641  62.1430395   1.7784080  49.7632435
  62.2810943   1.3704467  51.2145837  60.4396178   5.2314720  41.0978500
  61.3514034   5.4642107  40.9226198  59.9305825   5.8151764  40.5353579
  53.2481606   7.5110207  56.1367631  53.9896290   8.0495251  55.8602455
  52.5418592   8.1376496  56.2939183  58.7236946   9.6539348  54.7339793
  59.1320302   9.2121758  53.9894425  58.0014207   9.0791975  54.9873986
  55.0768016   4.5911955  52.1073350  55.9229211   5.0151368  52.2507999
  55.0166653   3.9345579  52.8011913  59.0465760  10.2140539  48.4892082
  58.4174623  10.3786253  47.7868149  58.6591422  10.6282148  49.2603046
  62.9254992  11.1494976  45.8436445  62.2406030  11.5293878  45.2933479
  63.0098842  11.7590303  46.5768393  58.2267461   2.2516323  53.7654523
  57.9828393   3.0058384  53.2288799  58.5027392   2.6301671  54.6001770
  60.1805924   8.7954935  52.4431789  60.3922819   9.4386695  51.7666170
  60.1335672   7.9617252  51.9753719  57.7832153   1.4072756  49.3468361
  56.9216632   1.7054010  49.6385099  57.8094587   1.6243155  48.4149394
  54.5993722   9.9514947  45.7542167  55.0632068  10.2302650  44.9646789
  54.3350520   9.0498391  45.5715257  51.4917803   9.4986428  48.6921930
  52.0619160   9.9273697  48.0539414  52.0825915   9.2169013  49.3906116
  53.5362608   6.0738099  42.5631732  54.2386652   6.5259143  43.0305658
  53.2043237   5.4321918  43.1911625  51.9842970   4.6649856  56.9382941
  51.3541630   5.3466136  57.1718338  51.8779058   4.5532937  55.9936079
  47.2787942   4.3321652  47.8648865  46.4886996   4.5879180  47.3888976
  47.7699190   5.1469989  47.9700906  61.2951752  11.6726891  50.6154146
  62.1169196  11.2707078  50.3336828  61.2914155  11.5695125  51.5670262
  49.2302688   4.6966231  44.8232342  48.4333851   4.8084925  45.3415838
  49.0028280   5.0352883  43.9573233  55.0608355  11.2210934  52.7714857
  55.1252788  11.6831341  53.6073029  54.3519279  10.5908299  52.8997167
  45.5625645   4.5852142  50.2963856  45.8133684   5.4699152  50.5621432
  46.0985194   4.4056744  49.5238948  69.3857745   8.0165639  46.9639118
  68.6321453   7.4473037  46.8083122  69.5205286   7.9828304  47.9109752
  54.7756373  12.8879042  42.6393837  54.6402048  13.7330577  43.0678685
  55.3166185  13.0898319  41.8759771  51.2623713  -1.0329379  59.3008192
  50.8690658  -1.5863180  59.9755836  52.0789853  -0.7218800  59.6914710
  48.2285770  10.4054480  43.2121762  48.7410291  11.1997730  43.3627327
  48.8808483   9.7080770  43.1455364  50.0380655  13.5220236  45.2944515
  50.2147283  14.4438201  45.1065499  50.8337489  13.2078655  45.7238895
  54.1791674   0.3828501  56.8928449  54.9201387   0.9835654  56.8132911
  54.4109596  -0.3593862  56.3346491  49.3233012   5.5684868  55.1706678
  49.2086527   4.6670125  55.4713777  48.4677529   5.8148565  54.8191495
  56.4024849  13.5102608  56.7694179  55.9588703  12.7238987  56.4515084
  57.0642063  13.6981759  56.1038070  51.1611970  15.0398410  51.2954858
  51.7119396  14.9115473  50.5231852  50.3223446  15.3393299  50.9449750
  58.5006087  13.7905408  54.7975580  58.4824563  14.6114289  54.3055850
  59.4226007  13.6659483  55.0225722  54.9579142  11.3049538  55.6399089
  55.4907478  10.5437826  55.4098397  54.4293223  11.0123189  56.3823243
  58.1248836  -3.5890397  51.1692730  57.7813106  -2.6988755  51.0931841
  58.4927799  -3.7788739  50.3062315  46.1934687   8.7343134  43.9881333
  47.0309909   9.1440142  43.7715040  46.3712955   7.7942576  43.9581526
  58.0899119   6.4018215  39.6765166  57.5745743   7.1722819  39.9153553
  57.8176428   5.7283351  40.2998227  55.6746230   1.2467915  44.7350404
  54.8187827   0.8574766  44.5556043  56.0873182   1.3259876  43.8750189
  57.2045377  -1.2185741  49.1341964  56.7010172  -1.2555606  48.3209769
  57.4975984  -0.3092999  49.1938620  53.4488263  -1.1347012  48.1408145
  54.3141260  -1.3304203  47.7814035  53.5165772  -1.3636660  49.0677502
  63.0633393   9.1550569  41.6118339  62.2862836   8.8161729  41.1673501
  63.7424874   9.1603192  40.9373304  57.8785422   4.2745307  41.5024947
  57.5735558   4.5891456  42.3535090  58.8315865   4.3526727  41.5452280
  56.3231854  10.4335530  43.1517901  55.7953216   9.6988290  42.8391138
  55.8219357  11.2110206  42.9057869  61.3024700   8.6284550  48.2684947
  60.6448375   9.3183812  48.3565076  62.1065099   9.0180982  48.6118933
  51.0550582   1.0955196  45.5124512  51.6294334   0.8730378  44.7797705
  51.6421564   1.1643891  46.2653114  60.1130159   6.9828923  46.3188889
  60.6262041   7.6158915  46.8210599  60.7631383   6.3830119  45.9532249
  51.3820169   3.1259657  39.5320398  50.5457481   3.4634344  39.8529672
  51.2424939   2.9908637  38.5947534  53.3573250  -2.0303555  44.2399582
  52.7037662  -2.3454538  43.6156196  53.3153724  -2.6527814  44.9659405
  54.4684454   8.2515740  36.1552874  53.5611516   8.0204994  36.3544023
  54.9655486   7.4553360  36.3426855  57.3752533  16.9613247  39.0749560
  56.7014232  17.2644944  39.6834518  57.7618355  17.7642328  38.7255017
  56.5910990   4.4578379  48.5647229  55.6733551   4.6793326  48.4068917
  57.0071134   4.5324689  47.7058937  57.3746038   5.8569794  43.6949910
  58.1217857   6.3691192  43.3857032  57.6437627   5.5353847  44.5554303
  55.6472688   8.3528335  40.6776864  54.7383907   8.0687368  40.7749334
  55.6767772   8.7727414  39.8180171  60.8791955  11.9634925  44.4468031
  60.4254282  11.1225835  44.5033222  60.2485922  12.5996323  44.7842812
  59.8224875   2.8926911  45.6768699  59.0847632   2.3804297  46.0078941
  60.0751648   2.4527292  44.8651976  59.3224895  13.8011421  45.3817850
  59.6147869  14.3616478  44.6630215  59.8323515  14.0939982  46.1371009
  46.2160858   6.0733849  44.6592066  46.0185258   5.4803210  43.9343133
  45.6607522   5.7686059  45.3768005  54.1957582   5.9656956  46.7786659
  54.2506192   5.0130792  46.7029136  53.3848784   6.1216395  47.2627958
  55.3448776   9.8937079  38.0164942  54.9068206   9.1772938  37.5570580
  56.0859217  10.1213194  37.4550034  52.1349942   4.5834015  44.5377038
  51.3217807   4.8828186  44.9442230  52.6308936   4.1889704  45.2551520
  54.2858520  14.5791772  46.4711303  54.2434698  14.8052619  45.5419835
  55.2021219  14.3455147  46.6197104  57.7324153   5.0475840  53.3691932
  58.0873541   5.2747313  54.2286398  58.3796285   5.3794217  52.7469187
  63.4621890   8.1694276  44.0741261  63.3239789   8.3595872  43.1462450
  63.1058109   8.9313659  44.5309312  51.6264017   2.1552371  50.1538273
  52.2663396   2.0141130  49.4561236  50.7941547   1.8686884  49.7776875
  63.4891270  10.2370803  49.0852533  63.9227777  10.1446092  49.9335587
  64.2022851  10.2128303  48.4472549  52.4024320  11.4554801  46.2673265
  53.1964919  10.9605122  46.0655840  51.6916013  10.9272665  45.9040971
  57.2219165  13.8372897  50.6185633  57.2756187  14.4063833  51.3863349
  56.3533946  14.0074782  50.2539670  48.7107084   5.5997883  42.3433018
  47.7804672   5.5382339  42.5602980  48.8064556   5.0773836  41.5469659
  48.6292633   2.1252696  44.9311260  48.8899450   3.0398029  44.8220420
  49.4509805   1.6577139  45.0807873  50.1017558   3.5390453  52.1010084
  50.7740612   3.3307815  51.4522733  49.2747345   3.3412539  51.6615317
  64.3506820  10.2794503  51.6185418  64.5442710  11.1840314  51.8644693
  64.2507438   9.8201923  52.4524003  56.0043130   0.1652394  54.1175745
  55.3571045   0.8642344  54.0240222  56.7744146   0.5988538  54.4851993
  59.4121928  10.4301246  57.1926299  59.2607435  10.2011798  56.2756382
  59.4026608  11.3871848  57.2057644  56.1807265   8.0033159  52.1772565
  57.1099325   8.1544319  52.0041532  55.7598295   8.0917180  51.3221211
  54.9795596  12.0283823  49.9471103  54.8406682  11.6602608  50.8197041
  54.1910193  12.5431463  49.7755060  55.5743748  17.1292920  41.2896639
  55.7495504  16.6580963  42.1042262  54.8876536  17.7558686  41.5177900
  56.5300812  11.4065426  47.3359940  56.1950644  11.3666196  48.2317590
  56.0304757  10.7410142  46.8630351  50.5045056   6.8133056  52.8612522
  50.3664854   6.0813295  53.4624061  51.4149979   6.7241956  52.5796709
  59.4660003   8.7521460  37.6097000  58.8489174   8.0268289  37.5130053
  58.9976492   9.5130821  37.2664074  53.1327356   6.5253015  52.3496201
  53.8426975   5.8846208  52.3082820  53.0896664   6.7765910  53.2722382
  61.1214135  13.4620369  55.2702780  61.0626681  12.7779589  54.6033363
  61.5233653  14.2039359  54.8183406  51.8456290   3.5118233  54.1691841
  51.3093647   3.0608972  54.8213437  51.2572999   3.6464142  53.4262305
  50.1404834  20.2782283  48.0636499  50.3801432  20.9100807  48.7415518
  49.2974030  19.9270323  48.3501859  51.2558549   2.9706885  36.7318304
  50.3788015   2.8495686  36.3680551  51.7316302   2.1792963  36.4797193
  61.1231542  11.4259953  53.5016760  60.2358321  11.0885875  53.6243159
  61.6930093  10.6942984  53.7385525  42.7760689   7.7584044  46.8259811
  43.4631729   7.4445775  46.2380827  42.6208818   8.6625409  46.5527063
  47.5795411   2.6474241  51.2544835  47.4953600   2.0399911  50.5195245
  46.7578118   3.1383259  51.2554331  54.6532696  16.0861405  50.4678003
  54.5802867  16.8916377  50.9797308  54.2110089  16.2853371  49.6426025
  54.4422475  15.3233175  43.9780825  53.6589997  15.8654855  44.0719049
  55.1415220  15.8407155  44.3775066  57.7519125   1.1327805  46.6215030
  58.2487825   0.3797767  46.3016100  56.9806107   1.1692121  46.0558240
  65.6048883   6.8368170  48.2633322  65.5938759   7.7192886  47.8927255
  64.7366262   6.4839721  48.0687859  57.1131379  15.9848239  52.6236162
  57.8259351  16.6195704  52.5512063  56.6221408  16.0812105  51.8076164
  58.8348906   9.8899492  44.1953454  57.9005185  10.0100954  44.0258158
  59.0125574   8.9871959  43.9313463  54.3354094   3.2745188  46.3486715
  53.9651882   2.7216228  47.0367620  54.8313187   2.6703321  45.7961715
  62.2221457   5.7316811  44.7303488  62.6881910   6.5644803  44.6563790
  62.6728958   5.2661793  45.4348746  52.1643293  13.7342683  53.4441733
  52.8652752  14.3679166  53.5971127  51.6938408  14.0757414  52.6837372
  60.2897688  12.0760632  41.7289640  60.5657532  11.9617227  42.6383514
  59.4202187  11.6778117  41.6901813  60.1938120  -1.9002602  48.7694389
  59.2801200  -1.6698375  48.9376596  60.6231222  -1.8164158  49.6208421
  59.9644579   6.2887290  51.2694283  59.3116029   6.5363197  50.6146736
  60.3424959   5.4751428  50.9356760  56.9251752  16.3246983  45.3722453
  57.1074147  15.5068639  45.8350206  57.7484738  16.5414675  44.9347343
  57.2593918  15.2515168  42.6337502  57.7881684  14.7407623  42.0207664
  57.5222138  14.9357699  43.4983035  56.0132152   7.0307101  57.7560320
  55.3372789   6.9301230  58.4262695  56.8359786   6.8746315  58.2196317
  47.7611011  13.2679038  50.3772835  48.3464448  12.5222726  50.5100740
  47.5635849  13.5782994  51.2609499  50.6149666  16.3030285  45.3935278
  49.9460041  16.7876413  44.9099318  50.4762536  16.5499505  46.3078656
  42.3528665   5.8384638  49.0977279  42.3912765   5.3048229  49.8914397
  41.8468958   5.3119843  48.4788256  54.7554935  18.3374029  51.9917936
  55.3073243  18.5005650  52.7567021  55.0961128  18.9278466  51.3197961
  49.7319428   0.6849178  52.5939821  49.7960754   1.5464009  52.1817219
  49.6686548   0.0723180  51.8612179  49.2071700   2.7572311  56.2412855
  49.8343739   2.3749388  56.8550379  48.3499619   2.5386513  56.6068548
  59.6065809  13.1635286  57.8466591  60.1505713  13.7765244  57.3521545
  59.0252654  13.7214864  58.3633604  45.9837243   4.5648740  42.1731210
  46.2790684   3.6559418  42.1198264  45.0825279   4.5436479  41.8512212
  57.8923322  16.2856004  48.9781618  57.7674461  15.4845744  48.4692564
  58.5502413  16.7802197  48.4895588  49.5131490   2.6404737  48.1558759
  48.7918076   3.2540704  48.0166232  50.3024746   3.1762501  48.0775405
  59.9558230  14.0865024  50.6061168  59.0088566  13.9670375  50.5339495
  60.3041003  13.1987522  50.6887430  52.3157804  -0.0240837  54.4299410
  52.8392205   0.2221460  55.1925720  52.0970137   0.8079198  54.0102548
  47.7125085   2.2462838  42.2970535  47.3837791   1.3660217  42.1145641
  48.0664455   2.1910506  43.1846924  56.9604663  13.8817740  46.8065521
  56.8129626  12.9534448  46.9873091  57.7858157  13.9037831  46.3222596
  50.8266908   2.5335807  42.6646013  51.1662980   3.0621729  41.9424621
  51.2739028   2.8716214  43.4404579  60.5638785  14.7046299  47.8930393
  61.4885333  14.4989160  47.7554845  60.3954089  14.4562700  48.8019735
  53.5210349   0.9172858  52.1149081  53.1807169   0.1180671  52.5169761
  52.8149355   1.2174569  51.5425914  54.1726820  -1.9977829  50.5676404
  54.9952890  -2.4717351  50.4455294  54.4164884  -1.2187346  51.0675090
  52.8135055   1.0310429  40.8639306  53.5343417   1.4091682  40.3603022
  52.1900359   1.7499306  40.9674284  56.9566178   1.7355578  41.7997638
  57.1729792   2.6180216  41.4986466  56.4760245   1.3441791  41.0703280
  51.6965399   4.6941291  48.3768382  51.5509980   5.0081594  49.2692664
  51.2190603   5.3126192  47.8239281  53.5561782   1.6843839  48.4249272
  53.5423351   0.7884933  48.0881570  54.2734210   1.6914503  49.0587558
  55.4087913   2.1181179  50.4702399  55.1505691   3.0398250  50.4686730
  54.8772953   1.7211614  51.1602864  60.3534102  15.2231967  43.2492485
  60.5270979  14.6578389  42.4966337  60.8462993  16.0232861  43.0671975
  46.1711061   7.2346636  51.3156044  45.6264529   8.0106444  51.4476318
  47.0490411   7.5817440  51.1575165  52.9598678   0.5658220  43.6936842
  53.0814589  -0.3625134  43.8927730  52.6700720   0.5796905  42.7815158
  55.8289868  -1.7486870  46.8303562  55.8511565  -1.6847537  45.8755542
  56.2457927  -2.5882361  47.0244068  66.2073493   7.9868389  44.8682785
  66.6504639   7.2375715  44.4701908  65.3300003   7.9778526  44.4856517
  61.3409274  14.5398731  40.3489383  62.0360179  15.1605424  40.5676698
  61.6832424  13.6894082  40.6241761  46.9577083   6.3616532  54.2086201
  46.2158819   6.5099167  54.7950831  46.6369827   6.6224798  53.3452950
  63.2400697  11.9898436  41.8776714  63.7652021  12.3285709  41.1526034
  63.1523050  11.0545452  41.6939849  54.9020746  15.9032510  54.0066591
  55.2107872  15.6581657  54.8789290  55.6996228  16.1079149  53.5185461
  54.9241358  18.0570420  46.2371967  54.4846348  17.5646798  46.9304824
  55.6749475  17.5143387  45.9964042  47.4033697  14.2481961  46.2396595
  48.2291717  13.9485732  45.8595239  47.0527749  13.4789583  46.6886384
  52.3715230  13.6008429  48.3094269  51.7495239  12.9379134  48.0096497
  53.0420097  13.6269561  47.6267917  45.6042302  12.1668287  47.1985529
  44.7674210  11.7390461  47.0169530  45.5765947  12.3600730  48.1356320
  52.4439758   2.0790217  57.9026775  52.4927913   2.9552340  57.5204544
  52.9862272   1.5367610  57.3298418  62.9294603  12.6231340  57.1827912
  62.1390147  12.6055479  56.6432411  62.6927958  13.1619634  57.9376948
  63.0492478   9.4723806  54.4960640  63.0990483   9.3073814  55.4376163
  62.9406402   8.6051066  54.1058521  51.9328737  12.1512352  41.7852729
  52.0816857  12.8347817  41.1319402  52.7395180  12.1317442  42.3002185
  60.3396241   5.4554735  55.8119947  61.2406103   5.3161199  55.5203945
  60.4144215   5.6209189  56.7518125  54.6739046   2.8321589  54.6573133
  53.8042355   3.1255155  54.3855722  54.9098526   3.4162034  55.3780397
  64.5510675  11.8920748  54.7402662  64.2595483  12.2550729  55.5766123
  63.9382806  11.1787756  54.5615994  65.7506357   9.4573628  47.2605232
  66.5853249   9.8963432  47.4242793  65.8865486   8.9812281  46.4413478
  62.7997863   7.0153363  53.2082720  63.2751985   7.2081009  52.4001571
  61.8763429   7.0712548  52.9626104  49.6881370   8.1777530  42.7913798
  49.4427412   7.2739860  42.9894008  49.8577284   8.1794680  41.8493276
  57.3778080  -0.9498794  52.1738554  57.8960024  -0.2137767  51.8485042
  57.0233213  -0.6434801  53.0085313  48.9577017   3.9105887  40.2899960
  48.2646262   3.9850242  39.6339996  48.7128769   3.1466231  40.8121477
  55.4324142  14.6460483  39.2564477  54.8598110  15.2650670  38.8034949
  56.0056936  15.1959844  39.7904399  61.4999532   3.8919123  51.4411026
  62.4516955   3.9917220  51.4623250  61.3302983   3.0997391  51.9509110
  59.5213912   0.9774706  51.6270426  58.9263844   1.2579719  50.9316915
  59.2363608   1.4668607  52.3987168  58.6521402  14.9297633  40.3873059
  59.5852075  14.8643194  40.5905935  58.5644615  15.7653900  39.9287592
  61.2809419  14.2463503  37.3477007  61.2023050  13.9123367  38.2412764
  62.1019086  14.7385271  37.3468479  63.9787610   7.1125242  50.5553325
  63.9463930   6.1741243  50.7413009  64.5888234   7.1909279  49.8219150
  55.8170941   5.9821295  36.5980529  56.7630046   5.8527503  36.6668947
  55.4385186   5.2435957  37.0749957  64.1282099   3.9036286  50.6011608
  63.6121147   3.1194742  50.4141537  65.0122047   3.5755002  50.7658128
  61.7892826  -2.3522699  46.5607421  61.5917647  -2.6607610  47.4450753
  62.3992531  -1.6261060  46.6905351  69.7964160   8.1741249  49.6959362
  70.5267548   7.9126537  50.2567065  69.1871105   7.4369971  49.7361430
  67.8779457   6.3149112  50.2933813  67.1512621   6.1805077  49.6850305
  67.4626744   6.6225940  51.0990531  55.7009633  10.0339042  58.0581186
  56.6212643  10.2117641  58.2521233  55.6659217   9.0895087  57.9060885
  54.0013858   3.9071272  36.5335414  53.0945314   3.6104384  36.6098128
  54.2789839   3.6101090  35.6669701  44.9191798   5.2277635  46.9834461
  44.5994583   4.3742943  46.6908835  44.3725227   5.4426213  47.7392428
  48.6971706   7.9440076  50.7003967  48.9157716   8.8757184  50.7192001
  49.1097480   7.5848051  51.4858771  55.6175924  -1.5491839  42.6879656
  54.8076652  -1.8944754  43.0634902  56.3060341  -1.8584295  43.2767267
  57.5466472  -2.4713792  44.3103952  58.0997511  -2.0518338  44.9693975
  57.7836558  -3.3978044  44.3526908  53.5699571   3.5173282  60.0906716
  53.4696298   4.4667639  60.0218807  53.3521113   3.1891521  59.2182786
  52.7712643   0.7658207  36.6747394  53.6331807   1.0913105  36.9343211
  52.9562987  -0.0210297  36.1620459  44.7880058   8.8480547  48.9527582
  44.0943530   8.4334499  48.4397537  45.5353049   8.8901083  48.3561001
  60.9245279  -0.3613267  43.8182617  60.3443948   0.2971537  43.4360669
  60.6581212  -1.1835922  43.4070034  59.3748846  -0.9608209  46.0203937
  59.8748624  -0.8491674  45.2118256  60.0184454  -1.2647156  46.6604745
  53.4330841   6.9470421  58.9071778  52.9497923   7.7470781  59.1135667
  53.5191780   6.9578366  57.9539222  46.7016801   8.7798800  46.8293597
  46.6787489   8.8786488  45.8775480  47.0117438   9.6263951  47.1510763
  49.3604179  10.8374955  50.9440212  50.3147432  10.8058898  50.8770143
  49.1616702  10.3765579  51.7590438  49.9503561   9.4076072  53.5111009
  50.7696450   9.9020150  53.5345847  50.2240369   8.4908040  53.4828577
  59.7070157   1.7986824  42.8738965  58.8196012   2.0836474  42.6559160
  60.1224146   1.6380587  42.0266242  63.0584693   1.8233345  46.5893304
  63.8345083   2.3129797  46.8617921  62.3332828   2.2491399  47.0465174
  65.4957252   2.5360964  47.6467245  66.0901743   2.2956700  46.9360553
  65.5683836   1.8168095  48.2740781  47.7154408  16.3794575  47.9610410
  47.5808876  15.6194976  47.3948408  47.2986470  17.1035475  47.4939198
  58.8513371  11.5631499  36.9686985  59.5549221  11.7681501  37.5844640
  58.1276019  12.1308260  37.2336068  59.6811181   7.3141360  43.0889255
  59.6246382   7.7709911  42.2496887  60.2339523   6.5532044  42.9112098
  63.4915987   3.1031092  43.9139375  63.2352921   2.7027727  44.7447582
  62.8668855   3.8174886  43.7889514  67.8028325   5.8427165  46.4210666
  67.2427883   5.9120354  47.1942228  67.1971828   5.6668150  45.7010162
  50.8723534  17.2763892  48.1728852  50.7555918  18.2209324  48.0707543
  50.0515980  16.9737454  48.5614651  60.7600068  12.0014028  39.0185445
  61.5945672  11.5695226  38.8362920  60.5984411  11.8296041  39.9462339
  60.4145960   8.5046141  40.3841784  60.3594764   8.3390412  39.4430228
  59.7892016   9.2122174  40.5403974  45.2038475   3.7414205  54.2103206
  45.8497339   3.2313159  54.6990432  44.9955626   4.4782887  54.7846632
  57.7291867  10.8095053  59.7095347  58.5983027  10.9835705  59.3481982
  57.2498619  11.6289470  59.5871076  53.7242086  -1.9945750  39.9627103
  53.7120756  -1.0503910  40.1195373  54.6165508  -2.1775605  39.6686564
  51.8978048  17.9292154  51.3884781  52.8005294  17.9615764  51.7051276
  51.6715418  16.9992605  51.4031116  53.6531650  16.6823140  48.0494859
  52.7027281  16.6825002  47.9359232  53.9564136  15.9355875  47.5330894
  49.5435966   0.8881822  58.3078221  50.4067428   0.5318627  58.5181545
  48.9701377   0.5495717  58.9953625  69.3884343  22.5183679  49.1140622
  70.0262753  22.3990426  48.4103962  69.2705186  23.4664523  49.1728574
  66.1974049  22.4711107  49.0502146  65.8592561  22.3552172  48.1622681
  67.0663818  22.0702272  49.0303153  62.0560865  24.3246583  45.0399037
  61.4925730  24.2336520  44.2715325  61.9413260  23.5046488  45.5201530
  66.6793832  23.6245959  55.0088352  66.6682473  23.2298757  54.1368856
  66.8414472  22.8912031  55.6022123  59.6025297  25.8197775  47.8783258
  60.3946589  25.4788600  47.4629557  59.8421947  25.9292750  48.7985411
  67.6360424  27.9917551  40.3513502  66.9848404  28.5771631  39.9647516
  68.4304787  28.5223746  40.4108540  61.5616051  25.0806688  40.7500637
  62.3346927  24.5335675  40.6113512  61.9141450  25.9450938  40.9615098
  63.4001094  26.4083070  53.9567536  63.1090960  27.3128701  53.8414202
  64.0358078  26.4499598  54.6711605  64.3257300  23.7859919  50.5468896
  64.9220873  23.5615941  49.8325858  64.3832272  23.0444664  51.1494343
  63.8982329  21.2399354  38.3819086  64.1507850  20.7180876  37.6202549
  62.9606888  21.0765500  38.4845770  68.9425612  20.2435133  46.1893830
  69.7288701  19.8254556  45.8384247  69.2064316  21.1481225  46.3575478
  69.1135689  25.6807983  40.8882487  68.4781522  25.7542609  41.6003391
  68.7833095  26.2701582  40.2101566  74.3434039  20.1810366  47.0926808
  75.0759211  19.6109583  47.3264638  73.5873395  19.7931966  47.5333314
  63.6178618  23.1427460  40.5843461  63.5014876  22.4672364  41.2524546
  63.7280877  22.6559834  39.7675615  65.9610159  22.6037607  44.2890151
  65.5968366  22.0768228  45.0003072  66.8177274  22.2136076  44.1156636
  71.8659459  13.8931940  51.5521417  71.5342784  14.7627351  51.3282632
  71.2705073  13.5768224  52.2315447  65.6015646  17.6327507  39.2851499
  65.7690048  18.5007743  39.6521970  65.4112815  17.7954789  38.3612788
  68.3590979  26.0944486  50.9517330  68.0591702  26.9969525  50.8433137
  68.0142038  25.8276669  51.8038482  61.8103460  22.5458283  46.9854034
  60.8853957  22.4134497  47.1931726  62.0587873  23.3252502  47.4823976
  71.7588122  18.6127026  48.6314767  70.8505000  18.5442435  48.3373528
  71.7075718  19.0898971  49.4596592  65.5804866  20.0885165  40.2698166
  65.4604492  20.5342215  41.1083646  64.8857455  20.4370482  39.7111704
  59.1712271  22.1891556  47.8197823  59.3004652  22.4426035  48.7337235
  58.4909723  22.7819264  47.5002478  63.3411758  32.8588806  43.9188297
  63.2635788  33.8096631  43.9976778  62.7373402  32.5134679  44.5763224
  65.8328988  20.0316672  56.5749664  65.0562322  20.5910592  56.5652529
  66.4719551  20.5173455  57.0964534  73.6249769  16.8143465  50.4092641
  72.9824149  17.1075998  49.7632435  73.1204697  16.6996385  51.2145837
  71.2789933  20.5606638  41.0978500  72.1907789  20.7934024  40.9226198
  70.7699580  21.1443682  40.5353579  64.0875361  22.8402125  56.1367631
  64.8290045  23.3787169  55.8602455  63.3812346  23.4668414  56.2939183
  69.5630700  24.9831266  54.7339793  69.9714056  24.5413676  53.9894425
  68.8407962  24.4083893  54.9873986  65.9161770  19.9203872  52.1073350
  66.7622965  20.3443286  52.2507999  65.8560408  19.2637497  52.8011913
  69.8859515  25.5432456  48.4892082  69.2568377  25.7078170  47.7868149
  69.4985177  25.9574066  49.2603046  69.0661216  17.5808241  53.7654523
  68.8222147  18.3350301  53.2288799  69.3421146  17.9593588  54.6001770
  71.0199678  24.1246853  52.4431789  71.2316574  24.7678613  51.7666170
  70.9729427  23.2909170  51.9753719  68.6225907  16.7364674  49.3468361
  67.7610386  17.0345927  49.6385099  68.6488342  16.9535073  48.4149394
  65.4387477  25.2806864  45.7542167  65.9025822  25.5594567  44.9646789
  65.1744275  24.3790309  45.5715257  62.3311558  24.8278346  48.6921930
  62.9012915  25.2565614  48.0539414  62.9219670  24.5460931  49.3906116
  64.3756363  21.4030017  42.5631732  65.0780406  21.8551060  43.0305658
  64.0436991  20.7613836  43.1911625  62.8236724  19.9941773  56.9382941
  62.1935385  20.6758054  57.1718338  62.7172812  19.8824855  55.9936079
  58.1181697  19.6613569  47.8648865  57.3280751  19.9171098  47.3888976
  58.6092944  20.4761907  47.9700906  72.1345506  27.0018808  50.6154146
  72.9562950  26.5998996  50.3336828  72.1307909  26.8987043  51.5670262
  60.0696442  20.0258149  44.8232342  59.2727605  20.1376843  45.3415838
  59.8422034  20.3644801  43.9573233  65.9002110  26.5502852  52.7714857
  65.9646542  27.0123259  53.6073029  65.1913034  25.9200217  52.8997167
  56.4019400  19.9144060  50.2963856  56.6527438  20.7991070  50.5621432
  56.9378948  19.7348661  49.5238948  65.6150127  28.2170959  42.6393837
  65.4795802  29.0622495  43.0678685  66.1559940  28.4190237  41.8759771
  62.1017467  14.2962539  59.3008192  61.7084413  13.7428738  59.9755836
  62.9183607  14.6073118  59.6914710  59.0679525  25.7346397  43.2121762
  59.5804045  26.5289648  43.3627327  59.7202238  25.0372688  43.1455364
  60.8774410  28.8512154  45.2944515  61.0541038  29.7730118  45.1065499
  61.6731243  28.5370573  45.7238895  65.0185428  15.7120418  56.8928449
  65.7595141  16.3127571  56.8132911  65.2503351  14.9698056  56.3346491
  60.1626766  20.8976785  55.1706678  60.0480281  19.9962043  55.4713777
  59.3071284  21.1440482  54.8191495  67.2418604  28.8394526  56.7694179
  66.7982458  28.0530904  56.4515084  67.9035817  29.0273676  56.1038070
  62.0005725  30.3690327  51.2954858  62.5513150  30.2407391  50.5231852
  61.1617201  30.6685216  50.9449750  69.3399842  29.1197326  54.7975580
  69.3218317  29.9406207  54.3055850  70.2619762  28.9951401  55.0225722
  65.7972896  26.6341455  55.6399089  66.3301233  25.8729743  55.4098397
  65.2686977  26.3415107  56.3823243  68.9642591  11.7401521  51.1692730
  68.6206860  12.6303163  51.0931841  69.3321554  11.5503179  50.3062315
  57.0328442  24.0635052  43.9881333  57.8703664  24.4732060  43.7715040
  57.2106709  23.1234494  43.9581526  68.9292874  21.7310132  39.6765166
  68.4139497  22.5014737  39.9153553  68.6570182  21.0575268  40.2998227
  66.5139985  16.5759833  44.7350404  65.6581581  16.1866683  44.5556043
  66.9266936  16.6551794  43.8750189  68.0439131  14.1106176  49.1341964
  67.5403927  14.0736311  48.3209769  68.3369738  15.0198919  49.1938620
  64.2882017  14.1944906  48.1408145  65.1535014  13.9987715  47.7814035
  64.3559526  13.9655258  49.0677502  68.7179177  19.6037224  41.5024947
  68.4129312  19.9183374  42.3535090  69.6709619  19.6818644  41.5452280
  67.1625609  25.7627448  43.1517901  66.6346970  25.0280207  42.8391138
  66.6613111  26.5402124  42.9057869  61.8944336  16.4247114  45.5124512
  62.4688088  16.2022295  44.7797705  62.4815319  16.4935808  46.2653114
  70.9523914  22.3120841  46.3188889  71.4655795  22.9450833  46.8210599
  71.6025137  21.7122036  45.9532249  62.2213923  18.4551575  39.5320398
  61.3851236  18.7926262  39.8529672  62.0818693  18.3200555  38.5947534
  64.1967004  13.2988363  44.2399582  63.5431416  12.9837380  43.6156196
  64.1547478  12.6764103  44.9659405  65.3078209  23.5807658  36.1552874
  64.4005271  23.3496911  36.3544023  65.8049241  22.7845277  36.3426855
  67.4304744  19.7870296  48.5647229  66.5127306  20.0085243  48.4068917
  67.8464888  19.8616607  47.7058937  68.2139792  21.1861712  43.6949910
  68.9611611  21.6983109  43.3857032  68.4831382  20.8645765  44.5554303
  66.4866442  23.6820253  40.6776864  65.5777662  23.3979286  40.7749334
  66.5161526  24.1019331  39.8180171  70.6618629  18.2218828  45.6768699
  69.9241386  17.7096215  46.0078941  70.9145403  17.7819210  44.8651976
  70.7630257  10.9995080  46.2710468  71.0689133  10.1392444  45.9836383
  71.4882861  11.5912701  46.0709462  57.0554613  21.4025767  44.6592066
  56.8579013  20.8095128  43.9343133  56.5001277  21.0977977  45.3768005
  65.0351336  21.2948873  46.7786659  65.0899946  20.3422710  46.7029136
  64.2242538  21.4508313  47.2627958  66.1842530  25.2228996  38.0164942
  65.7461960  24.5064855  37.5570580  66.9252971  25.4505111  37.4550034
  62.9743696  19.9125933  44.5377038  62.1611562  20.2120104  44.9442230
  63.4702690  19.5181622  45.2551520  65.1252274  29.9083690  46.4711303
  65.0828453  30.1344536  45.5419835  66.0414973  29.6747065  46.6197104
  68.5717908  20.3767758  53.3691932  68.9267296  20.6039231  54.2286398
  69.2190039  20.7086134  52.7469187  62.4657771  17.4844289  50.1538273
  63.1057150  17.3433048  49.4561236  61.6335302  17.1978802  49.7776875
  63.2418075  26.7846719  46.2673265  64.0358673  26.2897039  46.0655840
  62.5309767  26.2564582  45.9040971  68.0612919  29.1664815  50.6185633
  68.1149942  29.7355751  51.3863349  67.1927701  29.3366700  50.2539670
  59.5500838  20.9289801  42.3433018  58.6198427  20.8674256  42.5602980
  59.6458310  20.4065754  41.5469659  59.4686387  17.4544614  44.9311260
  59.7293205  18.3689947  44.8220420  60.2903560  16.9869056  45.0807873
  60.9411313  18.8682371  52.1010084  61.6134366  18.6599733  51.4522733
  60.1141099  18.6704457  51.6615317  75.1900574  25.6086421  51.6185418
  75.3836464  26.5132232  51.8644693  75.0901192  25.1493840  52.4524003
  66.8436885  15.4944312  54.1175745  66.1964800  16.1934261  54.0240222
  67.6137900  15.9280456  54.4851993  70.2515683  25.7593164  57.1926299
  70.1001189  25.5303716  56.2756382  70.2420362  26.7163765  57.2057644
  67.0201019  23.3325077  52.1772565  67.9493079  23.4836236  52.0041532
  66.5992049  23.4209097  51.3221211  65.8189351  27.3575741  49.9471103
  65.6800437  26.9894525  50.8197041  65.0303947  27.8723381  49.7755060
  67.3694566  26.7357344  47.3359940  67.0344399  26.6958114  48.2317590
  66.8698512  26.0702060  46.8630351  61.3438810  22.1424974  52.8612522
  61.2058608  21.4105213  53.4624061  62.2543734  22.0533874  52.5796709
  70.3053758  24.0813378  37.6097000  69.6882928  23.3560206  37.5130053
  69.8370246  24.8422738  37.2664074  63.9721111  21.8544933  52.3496201
  64.6820729  21.2138125  52.3082820  63.9290419  22.1057828  53.2722382
  71.9607889  28.7912286  55.2702780  71.9020436  28.1071507  54.6033363
  72.3627408  29.5331276  54.8183406  62.6850045  18.8410151  54.1691841
  62.1487402  18.3900889  54.8213437  62.0966753  18.9756060  53.4262305
  60.9798588  35.6074200  48.0636499  61.2195186  36.2392724  48.7415518
  60.1367785  35.2562240  48.3501859  62.0952304  18.2998802  36.7318304
  61.2181770  18.1787603  36.3680551  62.5710057  17.5084881  36.4797193
  71.9625297  26.7551870  53.5016760  71.0752075  26.4177792  53.6243159
  72.5323848  26.0234902  53.7385525  53.6154444  23.0875962  46.8259811
  54.3025484  22.7737692  46.2380827  53.4602572  23.9917327  46.5527063
  58.4189166  17.9766159  51.2544835  58.3347355  17.3691828  50.5195245
  57.5971872  18.4675177  51.2554331  65.4926450  31.4153323  50.4678003
  65.4196622  32.2208294  50.9797308  65.0503843  31.6145289  49.6426025
  68.5912880  16.4619722  46.6215030  69.0881579  15.7089685  46.3016100
  67.8199861  16.4984039  46.0558240  76.4442637  22.1660088  48.2633322
  76.4332513  23.0484803  47.8927255  75.5760017  21.8131639  48.0687859
  67.9525134  31.3140157  52.6236162  68.6653106  31.9487622  52.5512063
  67.4615162  31.4104023  51.8076164  65.1747849  18.6037105  46.3486715
  64.8045636  18.0508146  47.0367620  65.6706941  17.9995239  45.7961715
  73.0615212  21.0608729  44.7303488  73.5275664  21.8936720  44.6563790
  73.5122712  20.5953710  45.4348746  63.0037047  29.0634600  53.4441733
  63.7046507  29.6971083  53.5971127  62.5332162  29.4049332  52.6837372
  71.0331875  13.4289316  48.7694389  70.1194954  13.6593543  48.9376596
  71.4624976  13.5127760  49.6208421  70.8038333  21.6179208  51.2694283
  70.1509783  21.8655115  50.6146736  71.1818713  20.8043346  50.9356760
  66.8525906  22.3599019  57.7560320  66.1766543  22.2593148  58.4262695
  67.6753540  22.2038233  58.2196317  58.6004765  28.5970955  50.3772835
  59.1858202  27.8514643  50.5100740  58.4029604  28.9074912  51.2609499
  61.4543420  31.6322203  45.3935278  60.7853796  32.1168330  44.9099318
  61.3156290  31.8791423  46.3078656  53.1922420  21.1676556  49.0977279
  53.2306519  20.6340146  49.8914397  52.6862713  20.6411761  48.4788256
  65.5948689  33.6665946  51.9917936  66.1466997  33.8297568  52.7567021
  65.9354882  34.2570384  51.3197961  60.5713182  16.0141096  52.5939821
  60.6354509  16.8755927  52.1817219  60.5080302  15.4015098  51.8612179
  60.0465455  18.0864229  56.2412855  60.6737494  17.7041306  56.8550379
  59.1893374  17.8678430  56.6068548  70.4459563  28.4927204  57.8466591
  70.9899467  29.1057162  57.3521545  69.8646408  29.0506782  58.3633604
  56.8230998  19.8940658  42.1731210  57.1184439  18.9851336  42.1198264
  55.9219033  19.8728397  41.8512212  68.7317076  31.6147922  48.9781618
  68.6068216  30.8137662  48.4692564  69.3896167  32.1094115  48.4895588
  60.3525245  17.9696654  48.1558759  59.6311830  18.5832622  48.0166232
  61.1418500  18.5054419  48.0775405  70.7951985  29.4156942  50.6061168
  69.8482320  29.2962293  50.5339495  71.1434758  28.5279440  50.6887430
  63.1551558  15.3051081  54.4299410  63.6785960  15.5513377  55.1925720
  62.9363891  16.1371116  54.0102548  58.5518839  17.5754755  42.2970535
  58.2231545  16.6952134  42.1145641  58.9058210  17.5202424  43.1846924
  61.6660662  17.8627725  42.6646013  62.0056735  18.3913646  41.9424621
  62.1132783  18.2008131  43.4404579  64.3604103  16.2464776  52.1149081
  64.0200923  15.4472589  52.5169761  63.6543109  16.5466487  51.5425914
  65.0120575  13.3314088  50.5676404  65.8346644  12.8574566  50.4455294
  65.2558638  14.1104572  51.0675090  63.6528809  16.3602347  40.8639306
  64.3737172  16.7383600  40.3603022  63.0294114  17.0791224  40.9674284
  67.7959932  17.0647496  41.7997638  68.0123547  17.9472134  41.4986466
  67.3153999  16.6733709  41.0703280  62.5359154  20.0233209  48.3768382
  62.3903734  20.3373512  49.2692664  62.0584357  20.6418109  47.8239281
  64.3955537  17.0135757  48.4249272  64.3817105  16.1176850  48.0881570
  65.1127965  17.0206421  49.0587558  66.2481667  17.4473097  50.4702399
  65.9899445  18.3690168  50.4686730  65.7166708  17.0503532  51.1602864
  57.0104816  22.5638553  51.3156044  56.4658284  23.3398361  51.4476318
  57.8884166  22.9109358  51.1575165  63.7992432  15.8950137  43.6936842
  63.9208344  14.9666783  43.8927730  63.5094475  15.9088823  42.7815158
  66.6683623  13.5805048  46.8303562  66.6905320  13.6444381  45.8755542
  67.0851682  12.7409556  47.0244068  57.7970838  21.6908450  54.2086201
  57.0552574  21.8391085  54.7950831  57.4763582  21.9516715  53.3452950
  65.7414500  31.2324428  54.0066591  66.0501627  30.9873575  54.8789290
  66.5389982  31.4371066  53.5185461  65.7635112  33.3862337  46.2371967
  65.3240103  32.8938716  46.9304824  66.5143229  32.8435305  45.9964042
  58.2427451  29.5773878  46.2396595  59.0685471  29.2777650  45.8595239
  57.8921503  28.8081501  46.6886384  63.2108985  28.9300347  48.3094269
  62.5888994  28.2671052  48.0096497  63.8813851  28.9561478  47.6267917
  56.4436056  27.4960205  47.1985529  55.6067965  27.0682379  47.0169530
  56.4159702  27.6892648  48.1356320  63.2833512  17.4082135  57.9026775
  63.3321667  18.2844257  57.5204544  63.8256026  16.8659528  57.3298418
  73.7688358  27.9523258  57.1827912  72.9783901  27.9347397  56.6432411
  73.5321712  28.4911551  57.9376948  73.8886233  24.8015724  54.4960640
  73.9384238  24.6365732  55.4376163  73.7800156  23.9342983  54.1058521
  62.7722491  27.4804270  41.7852729  62.9210612  28.1639734  41.1319402
  63.5788935  27.4609360  42.3002185  71.1789995  20.7846652  55.8119947
  72.0799858  20.6453117  55.5203945  71.2537970  20.9501107  56.7518125
  65.5132800  18.1613507  54.6573133  64.6436110  18.4547073  54.3855722
  65.7492281  18.7453952  55.3780397  75.3904430  27.2212666  54.7402662
  75.0989238  27.5842646  55.5766123  74.7776561  26.5079674  54.5615994
  73.6391618  22.3445280  53.2082720  74.1145739  22.5372927  52.4001571
  72.7157183  22.4004466  52.9626104  60.5275124  23.5069447  42.7913798
  60.2821166  22.6031777  42.9894008  60.6971039  23.5086598  41.8493276
  68.2171834  14.3793124  52.1738554  68.7353778  15.1154151  51.8485042
  67.8626967  14.6857117  53.0085313  59.7970772  19.2397805  40.2899960
  59.1040017  19.3142160  39.6339996  59.5522524  18.4758149  40.8121477
  68.4684428  10.7993406  47.6939450  68.7486182  10.1316595  48.3199877
  69.2535035  10.9922502  47.1814114  66.2717897  29.9752400  39.2564477
  65.6991864  30.5942587  38.8034949  66.8450691  30.5251762  39.7904399
  72.3393287  19.2211040  51.4411026  73.2910710  19.3209138  51.4623250
  72.1696737  18.4289309  51.9509110  70.3607666  16.3066624  51.6270426
  69.7657598  16.5871636  50.9316915  70.0757363  16.7960525  52.3987168
  74.8181365  22.4417160  50.5553325  74.7857685  21.5033161  50.7413009
  75.4281988  22.5201197  49.8219150  66.6564695  21.3113213  36.5980529
  67.6023800  21.1819421  36.6668947  66.2778940  20.5727875  37.0749957
  74.9675853  19.2328204  50.6011608  74.4514902  18.4486660  50.4141537
  75.8515802  18.9046920  50.7658128  72.6286580  12.9769219  46.5607421
  72.4311401  12.6684307  47.4450753  73.2386286  13.7030858  46.6905351
  78.7173212  21.6441030  50.2933813  77.9906375  21.5096994  49.6850305
  78.3020498  21.9517858  51.0990531  66.5403388  25.3630959  58.0581186
  67.4606397  25.5409558  58.2521233  66.5052971  24.4187005  57.9060885
  64.8407613  19.2363189  36.5335414  63.9339068  18.9396302  36.6098128
  65.1183594  18.9393008  35.6669701  55.7585553  20.5569553  46.9834461
  55.4388337  19.7034861  46.6908835  55.2118981  20.7718131  47.7392428
  59.5365461  23.2731994  50.7003967  59.7551470  24.2049102  50.7192001
  59.9491234  22.9139968  51.4858771  66.4569678  13.7800079  42.6879656
  65.6470407  13.4347164  43.0634902  67.1454095  13.4707623  43.2767267
  68.3860227  12.8578126  44.3103952  68.9391265  13.2773579  44.9693975
  68.6230313  11.9313874  44.3526908  64.4093326  18.8465200  60.0906716
  64.3090053  19.7959557  60.0218807  64.1914868  18.5183439  59.2182786
  63.6106397  16.0950125  36.6747394  64.4725561  16.4205023  36.9343211
  63.7956741  15.3081621  36.1620459  55.6273813  24.1772464  48.9527582
  54.9337284  23.7626417  48.4397537  56.3746804  24.2193001  48.3561001
  71.7639034  14.9678651  43.8182617  71.1837703  15.6263455  43.4360669
  71.4974966  14.1455996  43.4070034  70.2142600  14.3683709  46.0203937
  70.7142378  14.4800243  45.2118256  70.8578208  14.0644762  46.6604745
  64.2724596  22.2762338  58.9071778  63.7891678  23.0762699  59.1135667
  64.3585535  22.2870283  57.9539222  57.5410556  24.1090718  46.8293597
  57.5181244  24.2078405  45.8775480  57.8511192  24.9555869  47.1510763
  60.1997933  26.1666873  50.9440212  61.1541187  26.1350815  50.8770143
  60.0010457  25.7057497  51.7590438  60.7897316  24.7367989  53.5111009
  61.6090205  25.2312068  53.5345847  61.0634123  23.8199957  53.4828577
  70.5463912  17.1278742  42.8738965  69.6589767  17.4128392  42.6559160
  70.9617901  16.9672505  42.0266242  73.8978448  17.1525262  46.5893304
  74.6738838  17.6421715  46.8617921  73.1726582  17.5783317  47.0465174
  76.3351006  17.8652882  47.6467245  76.9295497  17.6248618  46.9360553
  76.4077590  17.1460012  48.2740781  58.5548162  31.7086493  47.9610410
  58.4202630  30.9486894  47.3948408  58.1380224  32.4327393  47.4939198
  69.6907125  26.8923416  36.9686985  70.3942975  27.0973419  37.5844640
  68.9669774  27.4600178  37.2336068  70.5204935  22.6433277  43.0889255
  70.4640137  23.1001829  42.2496887  71.0733278  21.8823962  42.9112098
  74.3309741  18.4323009  43.9139375  74.0746676  18.0319645  44.7447582
  73.7062609  19.1466803  43.7889514  78.6422079  21.1719083  46.4210666
  78.0821637  21.2412272  47.1942228  78.0365583  20.9960067  45.7010162
  61.7117288  32.6055810  48.1728852  61.5949672  33.5501242  48.0707543
  60.8909734  32.3029371  48.5614651  71.2539715  23.8338059  40.3841784
  71.1988519  23.6682330  39.4430228  70.6285770  24.5414092  40.5403974
  56.0432230  19.0706123  54.2103206  56.6891093  18.5605077  54.6990432
  55.8349381  19.8074805  54.7846632  68.5685622  26.1386971  59.7095347
  69.4376782  26.3127623  59.3481982  68.0892373  26.9581387  59.5871076
  64.5635840  13.3346168  39.9627103  64.5514510  14.2788008  40.1195373
  65.4559262  13.1516313  39.6686564  62.7371802  33.2584072  51.3884781
  63.6399049  33.2907682  51.7051276  62.5109172  32.3284523  51.4031116
  64.4925404  32.0115058  48.0494859  63.5421035  32.0116920  47.9359232
  64.7957890  31.2647793  47.5330894  68.3787960   9.9288944  44.2173039
  67.6120356   9.3747431  44.3629722  68.7898665  10.0010813  45.0787191
  60.3829721  16.2173740  58.3078221  61.2461182  15.8610545  58.5181545
  59.8095131  15.8787635  58.9953625  73.6630479  35.3233691  56.9382941
  73.0329139  36.0049972  57.1718338  73.5566567  35.2116773  55.9936079
  68.9575451  34.9905487  47.8648865  68.1674505  35.2463016  47.3888976
  69.4486699  35.8053825  47.9700906  67.2413154  35.2435977  50.2963856
  67.4921193  36.1282987  50.5621432  67.7772703  35.0640579  49.5238948
  72.9411222  29.6254457  59.3008192  72.5478167  29.0720655  59.9755836
  73.7577362  29.9365035  59.6914710  75.8579183  31.0412336  56.8928449
  76.5988896  31.6419489  56.8132911  76.0897105  30.2989974  56.3346491
  71.0020521  36.2268703  55.1706678  70.8874036  35.3253960  55.4713777
  70.1465038  36.4732400  54.8191495  78.0812358  44.1686443  56.7694179
  77.6376212  43.3822822  56.4515084  78.7429572  44.3565594  56.1038070
  76.6366651  41.9633373  55.6399089  77.1694987  41.2021661  55.4098397
  76.1080732  41.6707025  56.3823243  71.7805067  34.1974289  52.1010084
  72.4528121  33.9891651  51.4522733  70.9534854  33.9996375  51.6615317
  72.1832565  37.4716891  52.8612522  72.0452362  36.7397130  53.4624061
  73.0937488  37.3825792  52.5796709  73.5243799  34.1702069  54.1691841
  72.9881156  33.7192807  54.8213437  72.9360508  34.3047978  53.4262305
  69.2582920  33.3058076  51.2544835  69.1741109  32.6983746  50.5195245
  68.4365627  33.7967095  51.2554331  64.0316174  36.4968473  49.0977279
  64.0700274  35.9632064  49.8914397  63.5256467  35.9703679  48.4788256
  71.4106937  31.3433014  52.5939821  71.4748263  32.2047845  52.1817219
  71.3474057  30.7307015  51.8612179  70.8859209  33.4156146  56.2412855
  71.5131248  33.0333224  56.8550379  70.0287128  33.1970348  56.6068548
  71.1918999  33.2988572  48.1558759  70.4705585  33.9124540  48.0166232
  71.9812255  33.8346337  48.0775405  73.9945313  30.6342998  54.4299410
  74.5179714  30.8805295  55.1925720  73.7757646  31.4663033  54.0102548
  75.1997858  31.5756694  52.1149081  74.8594678  30.7764507  52.5169761
  74.4936864  31.8758404  51.5425914  75.8514329  28.6606006  50.5676404
  76.6740399  28.1866484  50.4455294  76.0952393  29.4396490  51.0675090
  67.8498570  37.8930471  51.3156044  67.3052038  38.6690279  51.4476318
  68.7277920  38.2401275  51.1575165  68.6364592  37.0200367  54.2086201
  67.8946328  37.1683003  54.7950831  68.3157336  37.2808633  53.3452950
  74.1227267  32.7374052  57.9026775  74.1715422  33.6136175  57.5204544
  74.6649781  32.1951445  57.3298418  75.2487080  34.1757117  60.0906716
  75.1483807  35.1251474  60.0218807  75.0308622  33.8475356  59.2182786
  75.1118350  37.6054256  58.9071778  74.6285432  38.4054616  59.1135667
  75.1979289  37.6162201  57.9539222  71.6291070  40.0659907  53.5111009
  72.4483959  40.5603986  53.5345847  71.9027878  39.1491875  53.4828577
  66.8825984  34.3998041  54.2103206  67.5284848  33.8896995  54.6990432
  66.6743135  35.1366722  54.7846632  79.4079376  41.4678888  59.7095347
  80.2770536  41.6419541  59.3481982  78.9286128  42.2873305  59.5871076
  71.2223475  31.5465658  58.3078221  72.0854937  31.1902463  58.5181545
  70.6488886  31.2079553  58.9953625  91.0671852  53.1767514  49.1140622
  91.7050262  53.0574262  48.4103962  90.9492695  54.1248358  49.1728574
  87.8761558  53.1294942  49.0502146  87.5380070  53.0136007  48.1622681
  88.7451327  52.7286107  49.0303153  83.7348374  54.9830419  45.0399037
  83.1713239  54.8920356  44.2715325  83.6200769  54.1630323  45.5201530
  88.3581341  54.2829794  55.0088352  88.3469982  53.8882592  54.1368856
  88.5201981  53.5495867  55.6022123  81.2812806  56.4781610  47.8783258
  82.0734098  56.1372435  47.4629557  81.5209456  56.5876585  48.7985411
  89.3147933  58.6501386  40.3513502  88.6635913  59.2355467  39.9647516
  90.1092296  59.1807581  40.4108540  85.0788603  57.0666906  53.9567536
  84.7878469  57.9712537  53.8414202  85.7145587  57.1083433  54.6711605
  86.0044809  54.4443754  50.5468896  86.6008382  54.2199777  49.8325858
  86.0619781  53.7028500  51.1494343  90.6213121  50.9018968  46.1893830
  91.4076210  50.4838391  45.8384247  90.8851825  51.8065060  46.3575478
  90.7923198  56.3391818  40.8882487  90.1569031  56.4126445  41.6003391
  90.4620604  56.9285417  40.2101566  96.0221548  50.8394201  47.0926808
  96.7546720  50.2693418  47.3264638  95.2660903  50.4515802  47.5333314
  87.6397668  53.2621443  44.2890151  87.2755875  52.7352064  45.0003072
  88.4964783  52.8719912  44.1156636  93.5446968  44.5515775  51.5521417
  93.2130293  45.4211186  51.3282632  92.9492582  44.2352059  52.2315447
  90.0378488  56.7528321  50.9517330  89.7379211  57.6553360  50.8433137
  89.6929547  56.4860505  51.8038482  83.4890969  53.2042118  46.9854034
  82.5641466  53.0718332  47.1931726  83.7375382  53.9836337  47.4823976
  93.4375631  49.2710862  48.6314767  92.5292509  49.2026270  48.3373528
  93.3863227  49.7482806  49.4596592  80.8499780  52.8475392  47.8197823
  80.9792161  53.1009871  48.7337235  80.1697232  53.4403100  47.5002478
  85.0199267  63.5172642  43.9188297  84.9423297  64.4680467  43.9976778
  84.4160911  63.1718514  44.5763224  87.5116497  50.6900507  56.5749664
  86.7349831  51.2494427  56.5652529  88.1507060  51.1757290  57.0964534
  95.3037278  47.4727300  50.4092641  94.6611658  47.7659833  49.7632435
  94.7992206  47.3580220  51.2145837  92.9577442  51.2190473  41.0978500
  93.8695298  51.4517860  40.9226198  92.4487089  51.8027517  40.5353579
  85.7662870  53.4985960  56.1367631  86.5077554  54.0371004  55.8602455
  85.0599855  54.1252249  56.2939183  91.2418209  55.6415101  54.7339793
  91.6501565  55.1997511  53.9894425  90.5195471  55.0667728  54.9873986
  87.5949279  50.5787708  52.1073350  88.4410474  51.0027121  52.2507999
  87.5347917  49.9221332  52.8011913  91.5647024  56.2016292  48.4892082
  90.9355886  56.3662006  47.7868149  91.1772686  56.6157901  49.2603046
  95.4436256  57.1370729  45.8436445  94.7587294  57.5169631  45.2933479
  95.5280105  57.7466056  46.5768393  90.7448725  48.2392076  53.7654523
  90.5009656  48.9934137  53.2288799  91.0208655  48.6177424  54.6001770
  92.6987187  54.7830688  52.4431789  92.9104083  55.4262448  51.7666170
  92.6516936  53.9493005  51.9753719  90.3013416  47.3948509  49.3468361
  89.4397895  47.6929763  49.6385099  90.3275851  47.6118908  48.4149394
  87.1174986  55.9390700  45.7542167  87.5813331  56.2178403  44.9646789
  86.8531784  55.0374144  45.5715257  84.0099067  55.4862181  48.6921930
  84.5800424  55.9149450  48.0539414  84.6007179  55.2044766  49.3906116
  86.0543872  52.0613852  42.5631732  86.7567915  52.5134896  43.0305658
  85.7224500  51.4197671  43.1911625  84.5024233  50.6525609  56.9382941
  83.8722894  51.3341889  57.1718338  84.3960321  50.5408690  55.9936079
  79.7969206  50.3197405  47.8648865  79.0068260  50.5754933  47.3888976
  80.2880453  51.1345743  47.9700906  93.8133015  57.6602644  50.6154146
  94.6350459  57.2582831  50.3336828  93.8095418  57.5570878  51.5670262
  87.5789619  57.2086687  52.7714857  87.6434051  57.6707094  53.6073029
  86.8700543  56.5784052  52.8997167  78.0806909  50.5727895  50.2963856
  78.3314947  51.4574905  50.5621432  78.6166457  50.3932497  49.5238948
 101.9039008  54.0041392  46.9639118 101.1502717  53.4348790  46.8083122
 102.0386550  53.9704057  47.9109752  87.2937636  58.8754795  42.6393837
  87.1583311  59.7206330  43.0678685  87.8347449  59.0774072  41.8759771
  83.7804976  44.9546374  59.3008192  83.3871922  44.4012573  59.9755836
  84.5971116  45.2656953  59.6914710  86.6972937  46.3704254  56.8928449
  87.4382650  46.9711407  56.8132911  86.9290860  45.6281891  56.3346491
  81.8414275  51.5560621  55.1706678  81.7267790  50.6545878  55.4713777
  80.9858793  51.8024318  54.8191495  88.9206113  59.4978361  56.7694179
  88.4769967  58.7114740  56.4515084  89.5823326  59.6857512  56.1038070
  83.6793234  61.0274163  51.2954858  84.2300659  60.8991226  50.5231852
  82.8404710  61.3269052  50.9449750  91.0187351  59.7781161  54.7975580
  91.0005826  60.5990042  54.3055850  91.9407271  59.6535236  55.0225722
  87.4760405  57.2925291  55.6399089  88.0088742  56.5313579  55.4098397
  86.9474486  56.9998942  56.3823243  90.6080383  52.3893968  39.6765166
  90.0927006  53.1598572  39.9153553  90.3357691  51.7159104  40.2998227
  95.5814657  55.1426322  41.6118339  94.8044100  54.8037482  41.1673501
  96.2606138  55.1478945  40.9373304  90.3966686  50.2621060  41.5024947
  90.0916821  50.5767209  42.3535090  91.3497128  50.3402480  41.5452280
  88.8413118  56.4211283  43.1517901  88.3134479  55.6864043  42.8391138
  88.3400620  57.1985959  42.9057869  93.8205964  54.6160304  48.2684947
  93.1629638  55.3059565  48.3565076  94.6246363  55.0056735  48.6118933
  92.6311423  52.9704676  46.3188889  93.1443304  53.6034668  46.8210599
  93.2812646  52.3705872  45.9532249  89.8933797  62.9489000  39.0749560
  89.2195496  63.2520697  39.6834518  90.2799619  63.7518081  38.7255017
  89.1092253  50.4454132  48.5647229  88.1914815  50.6669079  48.4068917
  89.5252397  50.5200442  47.7058937  89.8927301  51.8445547  43.6949910
  90.6399120  52.3566945  43.3857032  90.1618891  51.5229600  44.5554303
  88.1653951  54.3404088  40.6776864  87.2565171  54.0563121  40.7749334
  88.1949035  54.7603167  39.8180171  93.3973219  57.9510678  44.4468031
  92.9435546  57.1101588  44.5033222  92.7667185  58.5872076  44.7842812
  92.3406138  48.8802664  45.6768699  91.6028895  48.3680050  46.0078941
  92.5932912  48.4403045  44.8651976  91.8406158  59.7887174  45.3817850
  92.1329132  60.3492231  44.6630215  92.3504779  60.0815735  46.1371009
  78.7342122  52.0609602  44.6592066  78.5366522  51.4678963  43.9343133
  78.1788786  51.7561812  45.3768005  86.7138845  51.9532709  46.7786659
  86.7687455  51.0006545  46.7029136  85.9030047  52.1092148  47.2627958
  87.8630039  55.8812832  38.0164942  87.4249469  55.1648691  37.5570580
  88.6040480  56.1088947  37.4550034  84.6531205  50.5709769  44.5377038
  83.8399071  50.8703939  44.9442230  85.1490199  50.1765457  45.2551520
  86.8039783  60.5667525  46.4711303  86.7615962  60.7928372  45.5419835
  87.7202482  60.3330900  46.6197104  90.2505417  51.0351593  53.3691932
  90.6054805  51.2623066  54.2286398  90.8977548  51.3669970  52.7469187
  95.9803154  54.1570029  44.0741261  95.8421052  54.3471625  43.1462450
  95.6239373  54.9189412  44.5309312  96.0072534  56.2246556  49.0852533
  96.4409040  56.1321845  49.9335587  96.7204114  56.2004056  48.4472549
  84.9205584  57.4430554  46.2673265  85.7146182  56.9480875  46.0655840
  84.2097276  56.9148418  45.9040971  89.7400428  59.8248650  50.6185633
  89.7937451  60.3939586  51.3863349  88.8715210  59.9950535  50.2539670
  82.6198822  49.5266206  52.1010084  83.2921875  49.3183568  51.4522733
  81.7928608  49.3288292  51.6615317  96.8688083  56.2670257  51.6185418
  97.0623973  57.1716067  51.8644693  96.7688701  55.8077676  52.4524003
  91.9303192  56.4176999  57.1926299  91.7788698  56.1887551  56.2756382
  91.9207871  57.3747601  57.2057644  88.6988528  53.9908912  52.1772565
  89.6280588  54.1420072  52.0041532  88.2779558  54.0792933  51.3221211
  87.4976860  58.0159576  49.9471103  87.3587946  57.6478361  50.8197041
  86.7091456  58.5307216  49.7755060  88.0925012  63.1168673  41.2896639
  88.2676768  62.6456716  42.1042262  87.4057800  63.7434439  41.5177900
  89.0482075  57.3941179  47.3359940  88.7131908  57.3541949  48.2317590
  88.5486021  56.7285895  46.8630351  83.0226319  52.8008809  52.8612522
  82.8846117  52.0689048  53.4624061  83.9331243  52.7117709  52.5796709
  91.9841267  54.7397213  37.6097000  91.3670437  54.0144042  37.5130053
  91.5157755  55.5006574  37.2664074  85.6508620  52.5128768  52.3496201
  86.3608238  51.8721961  52.3082820  85.6077928  52.7641663  53.2722382
  93.6395398  59.4496122  55.2702780  93.5807945  58.7655342  54.6033363
  94.0414917  60.1915112  54.8183406  82.6586097  66.2658036  48.0636499
  82.8982695  66.8976560  48.7415518  81.8155294  65.9146076  48.3501859
  93.6412806  57.4135706  53.5016760  92.7539584  57.0761628  53.6243159
  94.2111357  56.6818737  53.7385525  80.0976675  48.6349994  51.2544835
  80.0134864  48.0275664  50.5195245  79.2759381  49.1259012  51.2554331
  87.1713959  62.0737158  50.4678003  87.0984131  62.8792130  50.9797308
  86.7291352  62.2729124  49.6426025  86.9603739  61.3108928  43.9780825
  86.1771261  61.8530608  44.0719049  87.6596484  61.8282908  44.3775066
  98.1230146  52.8243923  48.2633322  98.1120022  53.7068639  47.8927255
  97.2547526  52.4715474  48.0687859  89.6312643  61.9723992  52.6236162
  90.3440615  62.6071457  52.5512063  89.1402671  62.0687858  51.8076164
  91.3530169  55.8775245  44.1953454  90.4186448  55.9976707  44.0258158
  91.5306838  54.9747712  43.9313463  86.8535358  49.2620941  46.3486715
  86.4833145  48.7091981  47.0367620  87.3494450  48.6579074  45.7961715
  94.7402721  51.7192564  44.7303488  95.2063173  52.5520556  44.6563790
  95.1910221  51.2537546  45.4348746  84.6824556  59.7218436  53.4441733
  85.3834016  60.3554919  53.5971127  84.2119671  60.0633167  52.6837372
  92.8078952  58.0636385  41.7289640  93.0838796  57.9492980  42.6383514
  91.9383451  57.6653870  41.6901813  92.4825842  52.2763043  51.2694283
  91.8297292  52.5238951  50.6146736  92.8606222  51.4627181  50.9356760
  89.4433016  62.3122736  45.3722453  89.6255410  61.4944392  45.8350206
  90.2666002  62.5290428  44.9347343  89.7775181  61.2390921  42.6337502
  90.3062948  60.7283376  42.0207664  90.0403401  60.9233452  43.4983035
  88.5313415  53.0182854  57.7560320  87.8554052  52.9176983  58.4262695
  89.3541049  52.8622068  58.2196317  83.1330929  62.2906038  45.3935278
  82.4641305  62.7752166  44.9099318  82.9943799  62.5375258  46.3078656
  87.2736198  64.3249782  51.9917936  87.8254506  64.4881403  52.7567021
  87.6142391  64.9154219  51.3197961  81.7252964  48.7448064  56.2412855
  82.3525003  48.3625141  56.8550379  80.8680883  48.5262266  56.6068548
  92.1247072  59.1511039  57.8466591  92.6686976  59.7640997  57.3521545
  91.5433917  59.7090617  58.3633604  90.4104585  62.2731757  48.9781618
  90.2855725  61.4721497  48.4692564  91.0683676  62.7677950  48.4895588
  82.0312753  48.6280490  48.1558759  81.3099339  49.2416457  48.0166232
  82.8206009  49.1638254  48.0775405  92.4739494  60.0740777  50.6061168
  91.5269829  59.9546128  50.5339495  92.8222267  59.1863275  50.6887430
  89.4785927  59.8693493  46.8065521  89.3310889  58.9410201  46.9873091
  90.3039420  59.8913584  46.3222596  93.0820049  60.6922052  47.8930393
  94.0066596  60.4864913  47.7554845  92.9135352  60.4438453  48.8019735
  84.2146663  50.6817044  48.3768382  84.0691243  50.9957347  49.2692664
  83.7371866  51.3001945  47.8239281  86.0743046  47.6719592  48.4249272
  86.0604614  46.7760686  48.0881570  86.7915474  47.6790256  49.0587558
  87.9269176  48.1056932  50.4702399  87.6686954  49.0274003  50.4686730
  87.3954217  47.7087367  51.1602864  92.8715365  61.2107720  43.2492485
  93.0452243  60.6454142  42.4966337  93.3644256  62.0108614  43.0671975
  98.7254756  53.9744143  44.8682785  99.1685902  53.2251468  44.4701908
  97.8481266  53.9654279  44.4856517  93.8590537  60.5274484  40.3489383
  94.5541442  61.1481177  40.5676698  94.2013688  59.6769835  40.6241761
  95.7581961  57.9774190  41.8776714  96.2833285  58.3161462  41.1526034
  95.6704313  57.0421205  41.6939849  87.4202009  61.8908263  54.0066591
  87.7289136  61.6457410  54.8789290  88.2177491  62.0954902  53.5185461
  87.4422621  64.0446173  46.2371967  87.0027612  63.5522551  46.9304824
  88.1930738  63.5019140  45.9964042  84.8896494  59.5884182  48.3094269
  84.2676503  58.9254887  48.0096497  85.5601360  59.6145314  47.6267917
  84.9621021  48.0665970  57.9026775  85.0109176  48.9428093  57.5204544
  85.5043535  47.5243363  57.3298418  95.5673742  55.4599560  54.4960640
  95.6171747  55.2949567  55.4376163  95.4587665  54.5926819  54.1058521
  92.8577504  51.4430488  55.8119947  93.7587367  51.3036952  55.5203945
  92.9325479  51.6084942  56.7518125  97.0691939  57.8796501  54.7402662
  96.7776747  58.2426482  55.5766123  96.4564070  57.1663509  54.5615994
  98.2687621  55.4449381  47.2605232  99.1034512  55.8839185  47.4242793
  98.4046750  54.9688034  46.4413478  95.3179127  53.0029116  53.2082720
  95.7933248  53.1956762  52.4001571  94.3944692  53.0588301  52.9626104
  87.9505406  60.6336236  39.2564477  87.3779373  61.2526423  38.8034949
  88.5238200  61.1835597  39.7904399  94.0180796  49.8794876  51.4411026
  94.9698219  49.9792973  51.4623250  93.8484246  49.0873144  51.9509110
  92.0395175  46.9650459  51.6270426  91.4445107  47.2455472  50.9316915
  91.7544872  47.4544360  52.3987168  91.1702666  60.9173386  40.3873059
  92.1033339  60.8518947  40.5905935  91.0825879  61.7529653  39.9287592
  93.7990682  60.2339256  37.3477007  93.7204314  59.8999120  38.2412764
  94.6200349  60.7261024  37.3468479  96.4968874  53.1000995  50.5553325
  96.4645194  52.1616996  50.7413009  97.1069497  53.1785032  49.8219150
  88.3352204  51.9697048  36.5980529  89.2811309  51.8403257  36.6668947
  87.9566449  51.2311710  37.0749957  96.6463362  49.8912039  50.6011608
  96.1302411  49.1070496  50.4141537  97.5303311  49.5630755  50.7658128
 102.3145423  54.1617002  49.6959362 103.0448812  53.9002290  50.2567065
 101.7052369  53.4245724  49.7361430 100.3960721  52.3024865  50.2933813
  99.6693884  52.1680830  49.6850305  99.9808007  52.6101693  51.0990531
  88.2190897  56.0214795  58.0581186  89.1393906  56.1993394  58.2521233
  88.1840480  55.0770840  57.9060885  81.2152970  53.9315829  50.7003967
  81.4338979  54.8632937  50.7192001  81.6278743  53.5723804  51.4858771
  86.0880835  49.5049035  60.0906716  85.9877562  50.4543392  60.0218807
  85.8702377  49.1767274  59.2182786  85.9512105  52.9346174  58.9071778
  85.4679187  53.7346534  59.1135667  86.0373044  52.9454119  57.9539222
  95.5765957  47.8109098  46.5893304  96.3526347  48.3005550  46.8617921
  94.8514091  48.2367152  47.0465174  98.0138515  48.5236717  47.6467245
  98.6083006  48.2832453  46.9360553  98.0865099  47.8043848  48.2740781
  80.2335671  62.3670328  47.9610410  80.0990139  61.6070729  47.3948408
  79.8167733  63.0911228  47.4939198  91.3694634  57.5507252  36.9686985
  92.0730484  57.7557254  37.5844640  90.6457283  58.1184013  37.2336068
  92.1992444  53.3017113  43.0889255  92.1427646  53.7585664  42.2496887
  92.7520787  52.5407797  42.9112098  96.0097250  49.0906845  43.9139375
  95.7534185  48.6903480  44.7447582  95.3850118  49.8050639  43.7889514
 100.3209588  51.8302918  46.4210666  99.7609146  51.8996107  47.1942228
  99.7153092  51.6543903  45.7010162  83.3904797  63.2639645  48.1728852
  83.2737181  64.2085078  48.0707543  82.5697243  62.9613207  48.5614651
  93.2781332  57.9889781  39.0185445  94.1126936  57.5570979  38.8362920
  93.1165674  57.8171794  39.9462339  92.9327224  54.4921894  40.3841784
  92.8776028  54.3266165  39.4430228  92.3073279  55.1997927  40.5403974
  90.2473131  56.7970806  59.7095347  91.1164291  56.9711458  59.3481982
  89.7679882  57.6165223  59.5871076  84.4159311  63.9167907  51.3884781
  85.3186558  63.9491517  51.7051276  84.1896681  62.9868358  51.4031116
  86.1712913  62.6698893  48.0494859  85.2208544  62.6700755  47.9359232
  86.4745399  61.9231628  47.5330894  82.0617230  46.8757575  58.3078221
  82.9248691  46.5194380  58.5181545  81.4882640  46.5371470  58.9953625
 101.9065607  68.5059432  49.1140622 102.5444017  68.3866179  48.4103962
 101.7886450  69.4540276  49.1728574  98.7155313  68.4586860  49.0502146
  98.3773824  68.3427925  48.1622681  99.5845081  68.0578025  49.0303153
  94.5742129  70.3122336  45.0399037  94.0106994  70.2212273  44.2715325
  94.4594524  69.4922241  45.5201530  99.1975096  69.6121712  55.0088352
  99.1863737  69.2174510  54.1368856  99.3595735  68.8787784  55.6022123
  92.1206561  71.8073528  47.8783258  92.9127852  71.4664353  47.4629557
  92.3603211  71.9168503  48.7985411 100.1541687  73.9793304  40.3513502
  99.5029667  74.5647384  39.9647516 100.9486050  74.5099499  40.4108540
  94.0797315  71.0682441  40.7500637  94.8528191  70.5211428  40.6113512
  94.4322713  71.9326691  40.9615098  95.9182357  72.3958823  53.9567536
  95.6272223  73.3004454  53.8414202  96.5539341  72.4375351  54.6711605
  96.8438564  69.7735672  50.5468896  97.4402136  69.5491694  49.8325858
  96.9013535  69.0320417  51.1494343  96.4163592  67.2275107  38.3819086
  96.6689113  66.7056629  37.6202549  95.4788151  67.0641253  38.4845770
 101.4606875  66.2310886  46.1893830 102.2469964  65.8130309  45.8384247
 101.7245579  67.1356978  46.3575478 101.6316953  71.6683736  40.8882487
 100.9962785  71.7418363  41.6003391 101.3014359  72.2577335  40.2101566
 106.8615302  66.1686119  47.0926808 107.5940474  65.5985336  47.3264638
 106.1054658  65.7807719  47.5333314  96.1359881  69.1303213  40.5843461
  96.0196139  68.4548117  41.2524546  96.2462141  68.6435587  39.7675615
  98.4791422  68.5913360  44.2890151  98.1149629  68.0643981  45.0003072
  99.3358538  68.2011829  44.1156636 104.3840723  59.8807693  51.5521417
 104.0524047  60.7503104  51.3282632 103.7886336  59.5643977  52.2315447
  98.1196909  63.6203260  39.2851499  98.2871311  64.4883497  39.6521970
  97.9294078  63.7830542  38.3612788 100.8772242  72.0820239  50.9517330
 100.5772965  72.9845278  50.8433137 100.5323302  71.8152422  51.8038482
  94.3284724  68.5334036  46.9854034  93.4035220  68.4010250  47.1931726
  94.5769137  69.3128255  47.4823976 104.2769386  64.6002779  48.6314767
 103.3686263  64.5318188  48.3373528 104.2256982  65.0774724  49.4596592
  98.0986130  66.0760918  40.2698166  97.9785755  66.5217968  41.1083646
  97.4038718  66.4246235  39.7111704  91.6893535  68.1767309  47.8197823
  91.8185916  68.4301788  48.7337235  91.0090986  68.7695017  47.5002478
  95.8593022  78.8464559  43.9188297  95.7817052  79.7972384  43.9976778
  95.2554666  78.5010432  44.5763224  98.3510252  66.0192425  56.5749664
  97.5743586  66.5786345  56.5652529  98.9900815  66.5049208  57.0964534
 106.1431032  62.8019218  50.4092641 105.5005413  63.0951751  49.7632435
 105.6385961  62.6872138  51.2145837 103.7971196  66.5482391  41.0978500
 104.7089052  66.7809778  40.9226198 103.2880843  67.1319435  40.5353579
  96.6056624  68.8277878  56.1367631  97.3471308  69.3662922  55.8602455
  95.8993610  69.4544167  56.2939183 102.0811964  70.9707019  54.7339793
 102.4895320  70.5289429  53.9894425 101.3589225  70.3959646  54.9873986
  98.4343034  65.9079625  52.1073350  99.2804229  66.3319039  52.2507999
  98.3741671  65.2513250  52.8011913 102.4040778  71.5308209  48.4892082
 101.7749641  71.6953923  47.7868149 102.0166440  71.9449819  49.2603046
 106.2830010  72.4662647  45.8436445 105.5981048  72.8461548  45.2933479
 106.3673860  73.0757974  46.5768393 101.5842479  63.5683994  53.7654523
 101.3403411  64.3226054  53.2288799 101.8602410  63.9469341  54.6001770
 103.5380942  70.1122606  52.4431789 103.7497837  70.7554366  51.7666170
 103.4910690  69.2784923  51.9753719 101.1407171  62.7240427  49.3468361
 100.2791650  63.0221680  49.6385099 101.1669605  62.9410826  48.4149394
  97.9568740  71.2682617  45.7542167  98.4207086  71.5470320  44.9646789
  97.6925538  70.3666062  45.5715257  94.8492821  70.8154099  48.6921930
  95.4194178  71.2441367  48.0539414  95.4400933  70.5336684  49.3906116
  96.8937626  67.3905770  42.5631732  97.5961670  67.8426813  43.0305658
  96.5618255  66.7489589  43.1911625  95.3417988  65.9817526  56.9382941
  94.7116648  66.6633807  57.1718338  95.2354076  65.8700608  55.9936079
  90.6362960  65.6489322  47.8648865  89.8462014  65.9046851  47.3888976
  91.1274208  66.4637660  47.9700906 104.6526770  72.9894562  50.6154146
 105.4744214  72.5874749  50.3336828 104.6489173  72.8862796  51.5670262
  92.5877706  66.0133902  44.8232342  91.7908869  66.1252596  45.3415838
  92.3603298  66.3520554  43.9573233  98.4183373  72.5378605  52.7714857
  98.4827806  72.9999012  53.6073029  97.7094297  71.9075970  52.8997167
  88.9200663  65.9019813  50.2963856  89.1708702  66.7866823  50.5621432
  89.4560212  65.7224414  49.5238948 112.7432763  69.3333310  46.9639118
 111.9896471  68.7640708  46.8083122 112.8780304  69.2995975  47.9109752
  98.1331391  74.2046712  42.6393837  97.9977066  75.0498248  43.0678685
  98.6741203  74.4065990  41.8759771  94.6198731  60.2838292  59.3008192
  94.2265676  59.7304491  59.9755836  95.4364871  60.5948871  59.6914710
  91.5860788  71.7222150  43.2121762  92.0985309  72.5165401  43.3627327
  92.2383501  71.0248441  43.1455364  93.3955673  74.8387907  45.2944515
  93.5722301  75.7605871  45.1065499  94.1912506  74.5246326  45.7238895
  97.5366692  61.6996171  56.8928449  98.2776405  62.3003324  56.8132911
  97.7684614  60.9573809  56.3346491  92.6808030  66.8852539  55.1706678
  92.5661545  65.9837796  55.4713777  91.8252547  67.1316235  54.8191495
  99.7599867  74.8270279  56.7694179  99.3163721  74.0406657  56.4515084
 100.4217081  75.0149429  56.1038070  94.5186988  76.3566080  51.2954858
  95.0694414  76.2283144  50.5231852  93.6798464  76.6560969  50.9449750
 101.8581105  75.1073079  54.7975580 101.8399581  75.9281960  54.3055850
 102.7801025  74.9827154  55.0225722  98.3154159  72.6217208  55.6399089
  98.8482496  71.8605496  55.4098397  97.7868241  72.3290860  56.3823243
 101.4823854  57.7277274  51.1692730 101.1388124  58.6178916  51.0931841
 101.8502817  57.5378932  50.3062315  89.5509705  70.0510805  43.9881333
  90.3884927  70.4607813  43.7715040  89.7287973  69.1110247  43.9581526
 101.4474137  67.7185885  39.6765166 100.9320761  68.4890490  39.9153553
 101.1751446  67.0451021  40.2998227  99.0321248  62.5635586  44.7350404
  98.1762845  62.1742436  44.5556043  99.4448200  62.6427547  43.8750189
 100.5620395  60.0981929  49.1341964 100.0585190  60.0612065  48.3209769
 100.8551002  61.0074672  49.1938620  96.8063281  60.1820659  48.1408145
  97.6716277  59.9863468  47.7814035  96.8740790  59.9531011  49.0677502
 106.4208411  70.4718240  41.6118339 105.6437854  70.1329399  41.1673501
 107.0999892  70.4770863  40.9373304 101.2360440  65.5912977  41.5024947
 100.9310576  65.9059127  42.3535090 102.1890882  65.6694397  41.5452280
  99.6806872  71.7503201  43.1517901  99.1528234  71.0155960  42.8391138
  99.1794375  72.5277877  42.9057869 104.6599718  69.9452221  48.2684947
 104.0023393  70.6351483  48.3565076 105.4640117  70.3348653  48.6118933
  94.4125600  62.4122867  45.5124512  94.9869352  62.1898048  44.7797705
  94.9996582  62.4811561  46.2653114 103.4705177  68.2996594  46.3188889
 103.9837059  68.9326586  46.8210599 104.1206401  67.6997789  45.9532249
  94.7395187  64.4427328  39.5320398  93.9032499  64.7802015  39.8529672
  94.5999957  64.3076308  38.5947534  96.7148268  59.2864116  44.2399582
  96.0612680  58.9713133  43.6156196  96.6728742  58.6639856  44.9659405
  97.8259472  69.5683411  36.1552874  96.9186534  69.3372664  36.3544023
  98.3230504  68.7721030  36.3426855 100.7327551  78.2780918  39.0749560
 100.0589250  78.5812615  39.6834518 101.1193373  79.0809999  38.7255017
  99.9486008  65.7746049  48.5647229  99.0308569  65.9960996  48.4068917
 100.3646151  65.8492360  47.7058937 100.7321056  67.1737465  43.6949910
 101.4792875  67.6858862  43.3857032 101.0012645  66.8521518  44.5554303
  99.0047706  69.6696006  40.6776864  98.0958925  69.3855039  40.7749334
  99.0342790  70.0895084  39.8180171 104.2366973  73.2802595  44.4468031
 103.7829300  72.4393505  44.5033222 103.6060940  73.9163994  44.7842812
 103.1799893  64.2094581  45.6768699 102.4422650  63.6971968  46.0078941
 103.4326666  63.7694963  44.8651976 102.6799912  75.1179092  45.3817850
 102.9722887  75.6784149  44.6630215 103.1898533  75.4107653  46.1371009
 103.2811520  56.9870833  46.2710468 103.5870397  56.1268197  45.9836383
 104.0064125  57.5788454  46.0709462  89.5735876  67.3901520  44.6592066
  89.3760276  66.7970881  43.9343133  89.0182540  67.0853730  45.3768005
  97.5532600  67.2824626  46.7786659  97.6081210  66.3298463  46.7029136
  96.7423802  67.4384066  47.2627958  98.7023794  71.2104750  38.0164942
  98.2643224  70.4940608  37.5570580  99.4434234  71.4380864  37.4550034
  95.4924960  65.9001686  44.5377038  94.6792825  66.1995857  44.9442230
  95.9883954  65.5057375  45.2551520  97.6433538  75.8959443  46.4711303
  97.6009716  76.1220289  45.5419835  98.5596237  75.6622818  46.6197104
 101.0899171  66.3643511  53.3691932 101.4448559  66.5914984  54.2286398
 101.7371303  66.6961887  52.7469187 106.8196908  69.4861947  44.0741261
 106.6814807  69.6763543  43.1462450 106.4633127  70.2481329  44.5309312
  94.9839035  63.4720042  50.1538273  95.6238414  63.3308801  49.4561236
  94.1516565  63.1854555  49.7776875 106.8466288  71.5538474  49.0852533
 107.2802795  71.4613763  49.9335587 107.5597869  71.5295974  48.4472549
  95.7599338  72.7722472  46.2673265  96.5539937  72.2772792  46.0655840
  95.0491031  72.2440335  45.9040971 100.5794183  75.1540568  50.6185633
 100.6331205  75.7231504  51.3863349  99.7108964  75.3242453  50.2539670
  92.0682102  66.9165554  42.3433018  91.1379690  66.8550009  42.5602980
  92.1639574  66.3941507  41.5469659  91.9867651  63.4420367  44.9311260
  92.2474468  64.3565700  44.8220420  92.8084823  62.9744809  45.0807873
  93.4592576  64.8558124  52.1010084  94.1315630  64.6475486  51.4522733
  92.6322363  64.6580210  51.6615317 107.7081838  71.5962174  51.6185418
 107.9017728  72.5007985  51.8644693 107.6082456  71.1369593  52.4524003
  99.3618148  61.4820065  54.1175745  98.7146063  62.1810014  54.0240222
 100.1319164  61.9156209  54.4851993 102.7696946  71.7468917  57.1926299
 102.6182453  71.5179469  56.2756382 102.7601626  72.7039518  57.2057644
  99.5382283  69.3200830  52.1772565 100.4674343  69.4711989  52.0041532
  99.1173313  69.4084850  51.3221211  98.3370614  73.3451494  49.9471103
  98.1981700  72.9770279  50.8197041  97.5485211  73.8599134  49.7755060
  98.9318766  78.4460591  41.2896639  99.1070522  77.9748634  42.1042262
  98.2451554  79.0726357  41.5177900  99.8875830  72.7233097  47.3359940
  99.5525662  72.6833867  48.2317590  99.3879775  72.0577813  46.8630351
  93.8620074  68.1300727  52.8612522  93.7239871  67.3980966  53.4624061
  94.7724997  68.0409627  52.5796709 102.8235021  70.0689131  37.6097000
 102.2064192  69.3435959  37.5130053 102.3551510  70.8298491  37.2664074
  96.4902374  67.8420686  52.3496201  97.2001993  67.2013878  52.3082820
  96.4471682  68.0933581  53.2722382 104.4789153  74.7788040  55.2702780
 104.4201699  74.0947260  54.6033363 104.8808671  75.5207030  54.8183406
  95.2031308  64.8285904  54.1691841  94.6668665  64.3776643  54.8213437
  94.6148017  64.9631813  53.4262305  93.4979852  81.5949953  48.0636499
  93.7376450  82.2268478  48.7415518  92.6549048  81.2437993  48.3501859
  94.6133567  64.2874555  36.7318304  93.7363033  64.1663356  36.3680551
  95.0891320  63.4960634  36.4797193 104.4806560  72.7427623  53.5016760
 103.5933339  72.4053545  53.6243159 105.0505111  72.0110655  53.7385525
  86.1335707  69.0751715  46.8259811  86.8206747  68.7613445  46.2380827
  85.9783836  69.9793080  46.5527063  90.9370429  63.9641912  51.2544835
  90.8528618  63.3567581  50.5195245  90.1153136  64.4550930  51.2554331
  98.0107714  77.4029076  50.4678003  97.9377885  78.2084047  50.9797308
  97.5685107  77.6021042  49.6426025  97.7997493  76.6400846  43.9780825
  97.0165015  77.1822526  44.0719049  98.4990238  77.1574825  44.3775066
 101.1094143  62.4495475  46.6215030 101.6062843  61.6965438  46.3016100
 100.3381125  62.4859792  46.0558240 108.9623901  68.1535841  48.2633322
 108.9513777  69.0360556  47.8927255 108.0941280  67.8007392  48.0687859
 100.4706397  77.3015910  52.6236162 101.1834369  77.9363375  52.5512063
  99.9796426  77.3979776  51.8076164 102.1923924  71.2067163  44.1953454
 101.2580203  71.3268625  44.0258158 102.3700592  70.3039629  43.9313463
  97.6929112  64.5912858  46.3486715  97.3226900  64.0383899  47.0367620
  98.1888204  63.9870992  45.7961715 105.5796475  67.0484482  44.7303488
 106.0456928  67.8812473  44.6563790 106.0303976  66.5829463  45.4348746
  95.5218311  75.0510353  53.4441733  96.2227770  75.6846836  53.5971127
  95.0513426  75.3925085  52.6837372 103.6472706  73.3928303  41.7289640
 103.9232550  73.2784898  42.6383514 102.7777205  72.9945788  41.6901813
 103.5513138  59.4165069  48.7694389 102.6376218  59.6469296  48.9376596
 103.9806240  59.5003513  49.6208421 103.3219597  67.6054961  51.2694283
 102.6691047  67.8530868  50.6146736 103.6999976  66.7919099  50.9356760
 100.2826770  77.6414654  45.3722453 100.4649165  76.8236310  45.8350206
 101.1059756  77.8582346  44.9347343 100.6168936  76.5682839  42.6337502
 101.1456702  76.0575294  42.0207664 100.8797156  76.2525369  43.4983035
  99.3707170  68.3474772  57.7560320  98.6947807  68.2468901  58.4262695
 100.1934803  68.1913986  58.2196317  91.1186029  74.5846708  50.3772835
  91.7039465  73.8390396  50.5100740  90.9210867  74.8950665  51.2609499
  93.9724684  77.6197956  45.3935278  93.3035059  78.1044083  44.9099318
  93.8337554  77.8667176  46.3078656  85.7103683  67.1552309  49.0977279
  85.7487783  66.6215899  49.8914397  85.2043976  66.6287514  48.4788256
  98.1129952  79.6541699  51.9917936  98.6648260  79.8173321  52.7567021
  98.4536146  80.2446137  51.3197961  93.0894446  62.0016849  52.5939821
  93.1535772  62.8631680  52.1817219  93.0261566  61.3890851  51.8612179
  92.5646718  64.0739982  56.2412855  93.1918757  63.6917059  56.8550379
  91.7074637  63.8554184  56.6068548 102.9640827  74.4802957  57.8466591
 103.5080731  75.0932915  57.3521545 102.3827672  75.0382535  58.3633604
  89.3412261  65.8816411  42.1731210  89.6365702  64.9727089  42.1198264
  88.4400297  65.8604150  41.8512212 101.2498340  77.6023675  48.9781618
 101.1249479  76.8013415  48.4692564 101.9077431  78.0969868  48.4895588
  92.8706508  63.9572407  48.1558759  92.1493094  64.5708375  48.0166232
  93.6599764  64.4930172  48.0775405 103.3133248  75.4032695  50.6061168
 102.3663584  75.2838046  50.5339495 103.6616021  74.5155193  50.6887430
  91.0700103  63.5630508  42.2970535  90.7412809  62.6827887  42.1145641
  91.4239473  63.5078177  43.1846924 100.3179681  75.1985411  46.8065521
 100.1704644  74.2702118  46.9873091 101.1433175  75.2205502  46.3222596
  94.1841926  63.8503478  42.6646013  94.5237998  64.3789399  41.9424621
  94.6314046  64.1883884  43.4404579 103.9213803  76.0213970  47.8930393
 104.8460351  75.8156831  47.7554845 103.7529107  75.7730371  48.8019735
  96.8785367  62.2340529  52.1149081  96.5382187  61.4348342  52.5169761
  96.1724373  62.5342240  51.5425914  97.5301838  59.3189841  50.5676404
  98.3527908  58.8450319  50.4455294  97.7739902  60.0980325  51.0675090
  96.1710073  62.3478100  40.8639306  96.8918435  62.7259353  40.3603022
  95.5475377  63.0666977  40.9674284 100.3141196  63.0523249  41.7997638
 100.5304810  63.9347887  41.4986466  99.8335263  62.6609462  41.0703280
  95.0540417  66.0108962  48.3768382  94.9084998  66.3249265  49.2692664
  94.5765621  66.6293862  47.8239281  96.9136800  63.0011510  48.4249272
  96.8998369  62.1052603  48.0881570  97.6309228  63.0082174  49.0587558
  98.7662931  63.4348850  50.4702399  98.5080709  64.3565921  50.4686730
  98.2347971  63.0379285  51.1602864 103.7109119  76.5399637  43.2492485
 103.8845997  75.9746060  42.4966337 104.2038011  77.3400532  43.0671975
  89.5286079  68.5514306  51.3156044  88.9839547  69.3274114  51.4476318
  90.4065429  68.8985111  51.1575165  96.3173696  61.8825890  43.6936842
  96.4389607  60.9542536  43.8927730  96.0275738  61.8964576  42.7815158
  99.1864886  59.5680801  46.8303562  99.2086583  59.6320134  45.8755542
  99.6032945  58.7285309  47.0244068 109.5648511  69.3036060  44.8682785
 110.0079657  68.5543385  44.4701908 108.6875021  69.2946197  44.4856517
 104.6984292  75.8566402  40.3489383 105.3935197  76.4773094  40.5676698
 105.0407442  75.0061753  40.6241761  90.3152101  67.6784203  54.2086201
  89.5733837  67.8266838  54.7950831  89.9944845  67.9392468  53.3452950
 106.5975715  73.3066107  41.8776714 107.1227039  73.6453380  41.1526034
 106.5098068  72.3713123  41.6939849  98.2595764  77.2200181  54.0066591
  98.5682890  76.9749328  54.8789290  99.0571246  77.4246819  53.5185461
  98.2816376  79.3738090  46.2371967  97.8421366  78.8814469  46.9304824
  99.0324493  78.8311058  45.9964042  90.7608715  75.5649631  46.2396595
  91.5866735  75.2653403  45.8595239  90.4102767  74.7957254  46.6886384
  95.7290248  74.9176100  48.3094269  95.1070257  74.2546805  48.0096497
  96.3995115  74.9437231  47.6267917  88.9617320  73.4835958  47.1985529
  88.1249228  73.0558132  47.0169530  88.9340965  73.6768401  48.1356320
  95.8014775  63.3957888  57.9026775  95.8502931  64.2720010  57.5204544
  96.3437290  62.8535281  57.3298418 106.2869621  73.9399011  57.1827912
 105.4965165  73.9223150  56.6432411 106.0502976  74.4787305  57.9376948
 106.4067496  70.7891477  54.4960640 106.4565501  70.6241485  55.4376163
 106.2981420  69.9218736  54.1058521  95.2903755  73.4680023  41.7852729
  95.4391875  74.1515487  41.1319402  96.0970198  73.4485113  42.3002185
 103.6971259  66.7722405  55.8119947 104.5981121  66.6328870  55.5203945
 103.7719233  66.9376860  56.7518125  98.0314064  64.1489260  54.6573133
  97.1617373  64.4422826  54.3855722  98.2673544  64.7329705  55.3780397
 107.9085693  73.2088419  54.7402662 107.6170501  73.5718399  55.5766123
 107.2957824  72.4955427  54.5615994 109.1081375  70.7741299  47.2605232
 109.9428267  71.2131103  47.4242793 109.2440504  70.2979952  46.4413478
 106.1572881  68.3321033  53.2082720 106.6327003  68.5248680  52.4001571
 105.2338447  68.3880219  52.9626104  93.0456388  69.4945201  42.7913798
  92.8002430  68.5907531  42.9894008  93.2152302  69.4962351  41.8493276
 100.7353098  60.3668877  52.1738554 101.2535042  61.1029904  51.8485042
 100.3808231  60.6732870  53.0085313  92.3152035  65.2273558  40.2899960
  91.6221280  65.3017913  39.6339996  92.0703787  64.4633902  40.8121477
 100.9865692  56.7869159  47.6939450 101.2667446  56.1192349  48.3199877
 101.7716299  56.9798255  47.1814114  98.7899160  75.9628153  39.2564477
  98.2173128  76.5818340  38.8034949  99.3631954  76.5127515  39.7904399
 104.8574550  65.2086793  51.4411026 105.8091973  65.3084891  51.4623250
 104.6878001  64.4165062  51.9509110 102.8788930  62.2942377  51.6270426
 102.2838862  62.5747389  50.9316915 102.5938626  62.7836278  52.3987168
 102.0096420  76.2465303  40.3873059 102.9427093  76.1810865  40.5905935
 101.9219633  77.0821570  39.9287592 104.6384437  75.5631174  37.3477007
 104.5598068  75.2291037  38.2412764 105.4594104  76.0552942  37.3468479
 107.3362628  68.4292913  50.5553325 107.3038948  67.4908914  50.7413009
 107.9463252  68.5076950  49.8219150  99.1745959  67.2988966  36.5980529
 100.1205064  67.1695174  36.6668947  98.7960204  66.5603628  37.0749957
 107.4857117  65.2203957  50.6011608 106.9696165  64.4362413  50.4141537
 108.3697065  64.8922673  50.7658128 105.1467843  58.9644972  46.5607421
 104.9492665  58.6560060  47.4450753 105.7567549  59.6906611  46.6905351
 113.1539178  69.4908920  49.6959362 113.8842566  69.2294208  50.2567065
 112.5446123  68.7537642  49.7361430 111.2354475  67.6316783  50.2933813
 110.5087639  67.4972747  49.6850305 110.8201762  67.9393611  51.0990531
  99.0584651  71.3506712  58.0581186  99.9787661  71.5285311  58.2521233
  99.0234234  70.4062758  57.9060885  97.3588876  65.2238942  36.5335414
  96.4520331  64.9272055  36.6098128  97.6364857  64.9268761  35.6669701
  88.2766816  66.5445306  46.9834461  87.9569601  65.6910614  46.6908835
  87.7300245  66.7593884  47.7392428  92.0546724  69.2607747  50.7003967
  92.2732734  70.1924855  50.7192001  92.4672498  68.9015721  51.4858771
  98.9750942  59.7675832  42.6879656  98.1651670  59.4222917  43.0634902
  99.6635359  59.4583376  43.2767267 100.9041490  58.8453879  44.3103952
 101.4572529  59.2649332  44.9693975 101.1411576  57.9189627  44.3526908
  96.1287661  62.0825878  36.6747394  96.9906825  62.4080776  36.9343211
  96.3138005  61.2957374  36.1620459  88.1455076  70.1648217  48.9527582
  87.4518548  69.7502170  48.4397537  88.8928067  70.2068754  48.3561001
 104.2820297  60.9554404  43.8182617 103.7018966  61.6139208  43.4360669
 104.0156230  60.1331749  43.4070034 102.7323864  60.3559462  46.0203937
 103.2323642  60.4675996  45.2118256 103.3759471  60.0520515  46.6604745
  90.0591819  70.0966471  46.8293597  90.0362507  70.1954158  45.8775480
  90.3692455  70.9431622  47.1510763  92.7179197  72.1542626  50.9440212
  93.6722450  72.1226569  50.8770143  92.5191720  71.6933250  51.7590438
  93.3078579  70.7243742  53.5111009  94.1271468  71.2187821  53.5345847
  93.5815387  69.8075710  53.4828577 103.0645175  63.1154495  42.8738965
 102.1771030  63.4004145  42.6559160 103.4799164  62.9548258  42.0266242
 106.4159711  63.1401016  46.5893304 107.1920101  63.6297468  46.8617921
 105.6907845  63.5659070  47.0465174 108.8532270  63.8528635  47.6467245
 109.4476761  63.6124371  46.9360553 108.9258854  63.1335765  48.2740781
  91.0729426  77.6962246  47.9610410  90.9383894  76.9362647  47.3948408
  90.6561488  78.4203146  47.4939198 102.2088389  72.8799169  36.9686985
 102.9124239  73.0849172  37.5844640 101.4851037  73.4475931  37.2336068
 103.0386199  68.6309030  43.0889255 102.9821400  69.0877582  42.2496887
 103.5914541  67.8699715  42.9112098 106.8491005  64.4198762  43.9139375
 106.5927939  64.0195398  44.7447582 106.2243873  65.1342556  43.7889514
 111.1603343  67.1594836  46.4210666 110.6002901  67.2288025  47.1942228
 110.5546846  66.9835820  45.7010162  94.2298552  78.5931563  48.1728852
  94.1130936  79.5376995  48.0707543  93.4090998  78.2905124  48.5614651
 104.1175086  73.3181698  39.0185445 104.9520690  72.8862897  38.8362920
 103.9559429  73.1463712  39.9462339 103.7720978  69.8213812  40.3841784
 103.7169782  69.6558083  39.4430228 103.1467034  70.5289845  40.5403974
  88.5613493  65.0581876  54.2103206  89.2072357  64.5480830  54.6990432
  88.3530644  65.7950558  54.7846632 101.0866885  72.1262724  59.7095347
 101.9558045  72.3003376  59.3481982 100.6073637  72.9457140  59.5871076
  97.0817104  59.3221921  39.9627103  97.0695774  60.2663761  40.1195373
  97.9740526  59.1392066  39.6686564  95.2553066  79.2459825  51.3884781
  96.1580312  79.2783435  51.7051276  95.0290436  78.3160276  51.4031116
  97.0106668  77.9990811  48.0494859  96.0602299  77.9992673  47.9359232
  97.3139154  77.2523546  47.5330894 100.8969223  55.9164697  44.2173039
 100.1301619  55.3623184  44.3629722 101.3079928  55.9886566  45.0787191
 112.7459361  83.8351350  49.1140622 113.3837771  83.7158097  48.4103962
 112.6280204  84.7832193  49.1728574 109.5549067  83.7878778  49.0502146
 109.2167579  83.6719842  48.1622681 110.4238836  83.3869943  49.0303153
 105.4135883  85.6414254  45.0399037 104.8500748  85.5504191  44.2715325
 105.2988278  84.8214159  45.5201530 110.0368850  84.9413629  55.0088352
 110.0257491  84.5466428  54.1368856 110.1989490  84.2079702  55.6022123
 102.9600315  87.1365446  47.8783258 103.7521607  86.7956270  47.4629557
 103.1996965  87.2460421  48.7985411 110.9935442  89.3085222  40.3513502
 110.3423422  89.8939302  39.9647516 111.7879805  89.8391417  40.4108540
 104.9191069  86.3974359  40.7500637 105.6921945  85.8503346  40.6113512
 105.2716468  87.2618608  40.9615098 106.7576112  87.7250741  53.9567536
 106.4665978  88.6296372  53.8414202 107.3933096  87.7667269  54.6711605
 107.6832318  85.1027590  50.5468896 108.2795891  84.8783612  49.8325858
 107.7407290  84.3612335  51.1494343 107.2557347  82.5567025  38.3819086
 107.5082868  82.0348546  37.6202549 106.3181906  82.3933170  38.4845770
 112.3000630  81.5602803  46.1893830 113.0863719  81.1422227  45.8384247
 112.5639334  82.4648896  46.3575478 112.4710707  86.9975654  40.8882487
 111.8356540  87.0710280  41.6003391 112.1408113  87.5869253  40.2101566
 117.7009057  81.4978037  47.0926808 118.4334229  80.9277253  47.3264638
 116.9448412  81.1099637  47.5333314 106.9753636  84.4595131  40.5843461
 106.8589894  83.7840034  41.2524546 107.0855895  83.9727505  39.7675615
 109.3185176  83.9205278  44.2890151 108.9543384  83.3935899  45.0003072
 110.1752292  83.5303747  44.1156636 115.2234477  75.2099611  51.5521417
 114.8917802  76.0795022  51.3282632 114.6280091  74.8935895  52.2315447
 108.9590663  78.9495178  39.2851499 109.1265066  79.8175414  39.6521970
 108.7687833  79.1122459  38.3612788 111.7165997  87.4112157  50.9517330
 111.4166720  88.3137195  50.8433137 111.3717056  87.1444340  51.8038482
 105.1678478  83.8625954  46.9854034 104.2428975  83.7302168  47.1931726
 105.4162891  84.6420173  47.4823976 115.1163140  79.9294697  48.6314767
 114.2080018  79.8610105  48.3373528 115.0650736  80.4066642  49.4596592
 108.9379884  81.4052835  40.2698166 108.8179510  81.8509886  41.1083646
 108.2432473  81.7538153  39.7111704 102.5287289  83.5059227  47.8197823
 102.6579670  83.7593706  48.7337235 101.8484740  84.0986935  47.5002478
 106.6986776  94.1756477  43.9188297 106.6210806  95.1264302  43.9976778
 106.0948420  93.8302350  44.5763224 109.1904006  81.3484342  56.5749664
 108.4137340  81.9078263  56.5652529 109.8294569  81.8341125  57.0964534
 116.9824787  78.1311135  50.4092641 116.3399167  78.4243668  49.7632435
 116.4779715  78.0164056  51.2145837 114.6364951  81.8774308  41.0978500
 115.5482807  82.1101695  40.9226198 114.1274598  82.4611353  40.5353579
 107.4450379  84.1569796  56.1367631 108.1865063  84.6954840  55.8602455
 106.7387364  84.7836085  56.2939183 112.9205718  86.2998936  54.7339793
 113.3289074  85.8581347  53.9894425 112.1982980  85.7251564  54.9873986
 109.2736788  81.2371543  52.1073350 110.1197983  81.6610957  52.2507999
 109.2135426  80.5805167  52.8011913 113.2434533  86.8600127  48.4892082
 112.6143395  87.0245841  47.7868149 112.8560195  87.2741736  49.2603046
 117.1223765  87.7954565  45.8436445 116.4374803  88.1753466  45.2933479
 117.2067614  88.4049891  46.5768393 112.4236234  78.8975911  53.7654523
 112.1797165  79.6517972  53.2288799 112.6996164  79.2761259  54.6001770
 114.3774696  85.4414524  52.4431789 114.5891592  86.0846284  51.7666170
 114.3304445  84.6076840  51.9753719 111.9800925  78.0532344  49.3468361
 111.1185404  78.3513598  49.6385099 112.0063360  78.2702743  48.4149394
 108.7962495  86.5974535  45.7542167 109.2600840  86.8762238  44.9646789
 108.5319293  85.6957980  45.5715257 105.6886576  86.1446017  48.6921930
 106.2587933  86.5733285  48.0539414 106.2794688  85.8628601  49.3906116
 107.7331381  82.7197687  42.5631732 108.4355424  83.1718731  43.0305658
 107.4012009  82.0781506  43.1911625 106.1811742  81.3109444  56.9382941
 105.5510403  81.9925725  57.1718338 106.0747830  81.1992526  55.9936079
 101.4756715  80.9781240  47.8648865 100.6855769  81.2338769  47.3888976
 101.9667962  81.7929578  47.9700906 115.4920524  88.3186479  50.6154146
 116.3137968  87.9166666  50.3336828 115.4882927  88.2154713  51.5670262
 103.4271460  81.3425819  44.8232342 102.6302623  81.4544514  45.3415838
 103.1997052  81.6812471  43.9573233 109.2577128  87.8670522  52.7714857
 109.3221560  88.3290930  53.6073029 108.5488052  87.2367887  52.8997167
  99.7594418  81.2311730  50.2963856 100.0102456  82.1158740  50.5621432
 100.2953966  81.0516332  49.5238948 108.9725145  89.5338630  42.6393837
 108.8370820  90.3790166  43.0678685 109.5134958  89.7357908  41.8759771
 105.4592485  75.6130210  59.3008192 105.0659431  75.0596408  59.9755836
 106.2758625  75.9240788  59.6914710 102.4254543  87.0514068  43.2121762
 102.9379063  87.8457318  43.3627327 103.0777256  86.3540358  43.1455364
 104.2349427  90.1679824  45.2944515 104.4116056  91.0897789  45.1065499
 105.0306261  89.8538244  45.7238895 108.3760446  77.0288089  56.8928449
 109.1170159  77.6295242  56.8132911 108.6078369  76.2865727  56.3346491
 103.5201784  82.2144456  55.1706678 103.4055299  81.3129713  55.4713777
 102.6646302  82.4608153  54.8191495 110.5993622  90.1562196  56.7694179
 110.1557476  89.3698575  56.4515084 111.2610835  90.3441347  56.1038070
 105.3580743  91.6857998  51.2954858 105.9088168  91.5575061  50.5231852
 104.5192219  91.9852887  50.9449750 112.6974860  90.4364996  54.7975580
 112.6793335  91.2573877  54.3055850 113.6194780  90.3119072  55.0225722
 109.1547914  87.9509126  55.6399089 109.6876251  87.1897414  55.4098397
 108.6261995  87.6582778  56.3823243 112.3217609  73.0569192  51.1692730
 111.9781878  73.9470834  51.0931841 112.6896572  72.8670850  50.3062315
 100.3903460  85.3802722  43.9881333 101.2278682  85.7899731  43.7715040
 100.5681727  84.4402164  43.9581526 112.2867892  83.0477803  39.6765166
 111.7714515  83.8182408  39.9153553 112.0145200  82.3742939  40.2998227
 109.8715003  77.8927504  44.7350404 109.0156599  77.5034354  44.5556043
 110.2841954  77.9719465  43.8750189 111.4014149  75.4273847  49.1341964
 110.8978945  75.3903982  48.3209769 111.6944756  76.3366590  49.1938620
 107.6457035  75.5112577  48.1408145 108.5110032  75.3155385  47.7814035
 107.7134544  75.2822929  49.0677502 117.2602166  85.8010158  41.6118339
 116.4831609  85.4621317  41.1673501 117.9393647  85.8062781  40.9373304
 112.0754195  80.9204895  41.5024947 111.7704330  81.2351044  42.3535090
 113.0284637  80.9986315  41.5452280 110.5200627  87.0795118  43.1517901
 109.9921988  86.3447878  42.8391138 110.0188129  87.8569795  42.9057869
 115.4993473  85.2744139  48.2684947 114.8417147  85.9643400  48.3565076
 116.3033872  85.6640571  48.6118933 105.2519354  77.7414785  45.5124512
 105.8263106  77.5189966  44.7797705 105.8390337  77.8103479  46.2653114
 114.3098932  83.6288512  46.3188889 114.8230813  84.2618503  46.8210599
 114.9600155  83.0289707  45.9532249 105.5788941  79.7719246  39.5320398
 104.7426254  80.1093932  39.8529672 105.4393711  79.6368225  38.5947534
 107.5542022  74.6156034  44.2399582 106.9006434  74.3005051  43.6156196
 107.5122496  73.9931774  44.9659405 108.6653227  84.8975329  36.1552874
 107.7580289  84.6664582  36.3544023 109.1624259  84.1012948  36.3426855
 111.5721306  93.6072836  39.0749560 110.8983005  93.9104533  39.6834518
 111.9587128  94.4101916  38.7255017 110.7879762  81.1037967  48.5647229
 109.8702324  81.3252914  48.4068917 111.2039906  81.1784278  47.7058937
 111.5714810  82.5029383  43.6949910 112.3186629  83.0150780  43.3857032
 111.8406400  82.1813436  44.5554303 109.8441460  84.9987924  40.6776864
 108.9352680  84.7146956  40.7749334 109.8736544  85.4187002  39.8180171
 115.0760728  88.6094513  44.4468031 114.6223055  87.7685423  44.5033222
 114.4454694  89.2455911  44.7842812 114.0193647  79.5386499  45.6768699
 113.2816404  79.0263885  46.0078941 114.2720421  79.0986881  44.8651976
 113.5193667  90.4471010  45.3817850 113.8116641  91.0076067  44.6630215
 114.0292288  90.7399571  46.1371009 114.1205275  72.3162751  46.2710468
 114.4264151  71.4560114  45.9836383 114.8457879  72.9080371  46.0709462
 100.4129631  82.7193438  44.6592066 100.2154030  82.1262798  43.9343133
  99.8576295  82.4145648  45.3768005 108.3926354  82.6116544  46.7786659
 108.4474964  81.6590381  46.7029136 107.5817556  82.7675983  47.2627958
 109.5417548  86.5396667  38.0164942 109.1036978  85.8232526  37.5570580
 110.2827989  86.7672782  37.4550034 106.3318714  81.2293604  44.5377038
 105.5186580  81.5287774  44.9442230 106.8277708  80.8349293  45.2551520
 108.4827292  91.2251361  46.4711303 108.4403471  91.4512207  45.5419835
 109.3989991  90.9914735  46.6197104 111.9292926  81.6935428  53.3691932
 112.2842314  81.9206901  54.2286398 112.5765057  82.0253805  52.7469187
 117.6590663  84.8153864  44.0741261 117.5208561  85.0055460  43.1462450
 117.3026882  85.5773247  44.5309312 105.8232789  78.8011959  50.1538273
 106.4632168  78.6600718  49.4561236 104.9910320  78.5146473  49.7776875
 117.6860042  86.8830391  49.0852533 118.1196549  86.7905680  49.9335587
 118.3991623  86.8587892  48.4472549 106.5993093  88.1014390  46.2673265
 107.3933691  87.6064710  46.0655840 105.8884785  87.5732253  45.9040971
 111.4187937  90.4832485  50.6185633 111.4724960  91.0523422  51.3863349
 110.5502719  90.6534370  50.2539670 102.9075856  82.2457472  42.3433018
 101.9773444  82.1841927  42.5602980 103.0033328  81.7233424  41.5469659
 102.8261405  78.7712284  44.9311260 103.0868223  79.6857618  44.8220420
 103.6478578  78.3036727  45.0807873 104.2986331  80.1850042  52.1010084
 104.9709384  79.9767404  51.4522733 103.4716117  79.9872128  51.6615317
 118.5475592  86.9254092  51.6185418 118.7411482  87.8299902  51.8644693
 118.4476210  86.4661511  52.4524003 110.2011903  76.8111982  54.1175745
 109.5539818  77.5101932  54.0240222 110.9712918  77.2448126  54.4851993
 113.6090701  87.0760835  57.1926299 113.4576207  86.8471386  56.2756382
 113.5995380  88.0331436  57.2057644 110.3776037  84.6492747  52.1772565
 111.3068097  84.8003907  52.0041532 109.9567067  84.7376768  51.3221211
 109.1764369  88.6743412  49.9471103 109.0375455  88.3062196  50.8197041
 108.3878965  89.1891051  49.7755060 109.7712521  93.7752508  41.2896639
 109.9464277  93.3040551  42.1042262 109.0845309  94.4018274  41.5177900
 110.7269584  88.0525014  47.3359940 110.3919417  88.0125784  48.2317590
 110.2273530  87.3869730  46.8630351 104.7013828  83.4592645  52.8612522
 104.5633626  82.7272883  53.4624061 105.6118751  83.3701545  52.5796709
 113.6628776  85.3981049  37.6097000 113.0457946  84.6727877  37.5130053
 113.1945264  86.1590409  37.2664074 107.3296129  83.1712604  52.3496201
 108.0395747  82.5305796  52.3082820 107.2865437  83.4225499  53.2722382
 115.3182907  90.1079957  55.2702780 115.2595454  89.4239177  54.6033363
 115.7202426  90.8498947  54.8183406 106.0425063  80.1577822  54.1691841
 105.5062420  79.7068560  54.8213437 105.4541771  80.2923731  53.4262305
 104.3373606  96.9241871  48.0636499 104.5770204  97.5560395  48.7415518
 103.4942803  96.5729911  48.3501859 105.4527322  79.6166473  36.7318304
 104.5756788  79.4955274  36.3680551 105.9285075  78.8252551  36.4797193
 115.3200315  88.0719541  53.5016760 114.4327093  87.7345463  53.6243159
 115.8898866  87.3402572  53.7385525  96.9729462  84.4043633  46.8259811
  97.6600502  84.0905363  46.2380827  96.8177590  85.3084998  46.5527063
 101.7764184  79.2933829  51.2544835 101.6922373  78.6859499  50.5195245
 100.9546890  79.7842848  51.2554331 108.8501468  92.7320993  50.4678003
 108.7771640  93.5375965  50.9797308 108.4078861  92.9312959  49.6426025
 108.6391248  91.9692763  43.9780825 107.8558770  92.5114444  44.0719049
 109.3383993  92.4866743  44.3775066 111.9487898  77.7787393  46.6215030
 112.4456597  77.0257355  46.3016100 111.1774879  77.8151710  46.0558240
 119.8017655  83.4827758  48.2633322 119.7907531  84.3652474  47.8927255
 118.9335035  83.1299309  48.0687859 111.3100152  92.6307827  52.6236162
 112.0228124  93.2655292  52.5512063 110.8190180  92.7271693  51.8076164
 113.0317678  86.5359080  44.1953454 112.0973957  86.6560543  44.0258158
 113.2094347  85.6331547  43.9313463 108.5322867  79.9204776  46.3486715
 108.1620654  79.3675816  47.0367620 109.0281959  79.3162909  45.7961715
 116.4190230  82.3776399  44.7303488 116.8850682  83.2104391  44.6563790
 116.8697730  81.9121381  45.4348746 106.3612065  90.3802271  53.4441733
 107.0621525  91.0138754  53.5971127 105.8907180  90.7217003  52.6837372
 114.4866461  88.7220221  41.7289640 114.7626305  88.6076815  42.6383514
 113.6170960  88.3237706  41.6901813 114.3906893  74.7456986  48.7694389
 113.4769972  74.9761213  48.9376596 114.8199994  74.8295431  49.6208421
 114.1613351  82.9346878  51.2694283 113.5084801  83.1822786  50.6146736
 114.5393731  82.1211017  50.9356760 111.1220525  92.9706572  45.3722453
 111.3042919  92.1528228  45.8350206 111.9453511  93.1874264  44.9347343
 111.4562690  91.8974757  42.6337502 111.9850457  91.3867211  42.0207664
 111.7190910  91.5817287  43.4983035 110.2100924  83.6766689  57.7560320
 109.5341561  83.5760819  58.4262695 111.0328558  83.5205903  58.2196317
 101.9579783  89.9138626  50.3772835 102.5433220  89.1682314  50.5100740
 101.7604622  90.2242583  51.2609499 104.8118438  92.9489873  45.3935278
 104.1428814  93.4336001  44.9099318 104.6731308  93.1959094  46.3078656
  96.5497438  82.4844226  49.0977279  96.5881537  81.9507817  49.8914397
  96.0437731  81.9579432  48.4788256 108.9523707  94.9833617  51.9917936
 109.5042015  95.1465238  52.7567021 109.2929900  95.5738055  51.3197961
 103.9288200  77.3308767  52.5939821 103.9929527  78.1923598  52.1817219
 103.8655320  76.7182768  51.8612179 103.4040473  79.4031899  56.2412855
 104.0312512  79.0208977  56.8550379 102.5468392  79.1846101  56.6068548
 113.8034581  89.8094874  57.8466591 114.3474485  90.4224833  57.3521545
 113.2221426  90.3674453  58.3633604 100.1806015  81.2108328  42.1731210
 100.4759457  80.3019007  42.1198264  99.2794051  81.1896068  41.8512212
 112.0892094  92.9315592  48.9781618 111.9643234  92.1305332  48.4692564
 112.7471185  93.4261786  48.4895588 103.7100262  79.2864325  48.1558759
 102.9886848  79.9000293  48.0166232 104.4993518  79.8222090  48.0775405
 114.1527003  90.7324613  50.6061168 113.2057338  90.6129964  50.5339495
 114.5009776  89.8447111  50.6887430 106.5126576  76.6218751  54.4299410
 107.0360978  76.8681048  55.1925720 106.2938909  77.4538786  54.0102548
 101.9093857  78.8922426  42.2970535 101.5806563  78.0119805  42.1145641
 102.2633228  78.8370095  43.1846924 111.1573436  90.5277329  46.8065521
 111.0098398  89.5994036  46.9873091 111.9826929  90.5497419  46.3222596
 105.0235680  79.1795396  42.6646013 105.3631753  79.7081317  41.9424621
 105.4707801  79.5175802  43.4404579 114.7607558  91.3505887  47.8930393
 115.6854105  91.1448749  47.7554845 114.5922861  91.1022289  48.8019735
 107.7179121  77.5632447  52.1149081 107.3775941  76.7640260  52.5169761
 107.0118127  77.8634157  51.5425914 108.3695593  74.6481759  50.5676404
 109.1921662  74.1742237  50.4455294 108.6133656  75.4272243  51.0675090
 107.0103827  77.6770017  40.8639306 107.7312190  78.0551270  40.3603022
 106.3869131  78.3958894  40.9674284 111.1534950  78.3815166  41.7997638
 111.3698565  79.2639804  41.4986466 110.6729017  77.9901380  41.0703280
 105.8934172  81.3400880  48.3768382 105.7478752  81.6541183  49.2692664
 105.4159375  81.9585780  47.8239281 107.7530554  78.3303428  48.4249272
 107.7392123  77.4344521  48.0881570 108.4702983  78.3374091  49.0587558
 109.6056685  78.7640768  50.4702399 109.3474463  79.6857838  50.4686730
 109.0741726  78.3671202  51.1602864 114.5502874  91.8691555  43.2492485
 114.7239752  91.3037977  42.4966337 115.0431765  92.6692450  43.0671975
 100.3679834  83.8806224  51.3156044  99.8233302  84.6566032  51.4476318
 101.2459184  84.2277028  51.1575165 107.1567450  77.2117808  43.6936842
 107.2783362  76.2834454  43.8927730 106.8669493  77.2256494  42.7815158
 110.0258641  74.8972718  46.8303562 110.0480338  74.9612051  45.8755542
 110.4426700  74.0577227  47.0244068 120.4042265  84.6327978  44.8682785
 120.8473411  83.8835303  44.4701908 119.5268775  84.6238114  44.4856517
 115.5378046  91.1858319  40.3489383 116.2328951  91.8065012  40.5676698
 115.8801197  90.3353671  40.6241761 101.1545856  83.0076120  54.2086201
 100.4127592  83.1558756  54.7950831 100.8338600  83.2684386  53.3452950
 117.4369470  88.6358025  41.8776714 117.9620794  88.9745298  41.1526034
 117.3491822  87.7005040  41.6939849 109.0989518  92.5492099  54.0066591
 109.4076645  92.3041245  54.8789290 109.8965000  92.7538737  53.5185461
 109.1210130  94.7030008  46.2371967 108.6815121  94.2106387  46.9304824
 109.8718247  94.1602976  45.9964042 101.6002469  90.8941549  46.2396595
 102.4260489  90.5945321  45.8595239 101.2496521  90.1249171  46.6886384
 106.5684002  90.2468017  48.3094269 105.9464012  89.5838722  48.0096497
 107.2388869  90.2729149  47.6267917  99.8011074  88.8127875  47.1985529
  98.9642983  88.3850050  47.0169530  99.7734720  89.0060319  48.1356320
 106.6408530  78.7249805  57.9026775 106.6896685  79.6011928  57.5204544
 107.1831044  78.1827198  57.3298418 117.1263376  89.2690929  57.1827912
 116.3358919  89.2515067  56.6432411 116.8896730  89.8079222  57.9376948
 117.2461251  86.1183395  54.4960640 117.2959256  85.9533402  55.4376163
 117.1375174  85.2510654  54.1058521 106.1297509  88.7971941  41.7852729
 106.2785630  89.4807405  41.1319402 106.9363953  88.7777031  42.3002185
 114.5365013  82.1014323  55.8119947 115.4374876  81.9620788  55.5203945
 114.6112988  82.2668778  56.7518125 108.8707818  79.4781178  54.6573133
 108.0011128  79.7714744  54.3855722 109.1067299  80.0621623  55.3780397
 118.7479448  88.5380336  54.7402662 118.4564256  88.9010317  55.5766123
 118.1351579  87.8247345  54.5615994 119.9475130  86.1033216  47.2605232
 120.7822021  86.5423020  47.4242793 120.0834259  85.6271869  46.4413478
 116.9966636  83.6612951  53.2082720 117.4720757  83.8540597  52.4001571
 116.0732201  83.7172137  52.9626104 103.8850142  84.8237118  42.7913798
 103.6396184  83.9199448  42.9894008 104.0546057  84.8254269  41.8493276
 111.5746852  75.6960795  52.1738554 112.0928796  76.4321822  51.8485042
 111.2201985  76.0024788  53.0085313 103.1545790  80.5565476  40.2899960
 102.4615035  80.6309831  39.6339996 102.9097542  79.7925819  40.8121477
 111.8259446  72.1161077  47.6939450 112.1061200  71.4484266  48.3199877
 112.6110053  72.3090173  47.1814114 109.6292915  91.2920071  39.2564477
 109.0566882  91.9110258  38.8034949 110.2025709  91.8419433  39.7904399
 115.6968305  80.5378711  51.4411026 116.6485728  80.6376809  51.4623250
 115.5271755  79.7456980  51.9509110 113.7182684  77.6234294  51.6270426
 113.1232616  77.9039307  50.9316915 113.4332381  78.1128195  52.3987168
 112.8490175  91.5757221  40.3873059 113.7820848  91.5102783  40.5905935
 112.7613388  92.4113488  39.9287592 115.4778191  90.8923091  37.3477007
 115.3991823  90.5582955  38.2412764 116.2987858  91.3844859  37.3468479
 118.1756383  83.7584831  50.5553325 118.1432703  82.8200832  50.7413009
 118.7857006  83.8368868  49.8219150 110.0139713  82.6280884  36.5980529
 110.9598818  82.4987092  36.6668947 109.6353958  81.8895546  37.0749957
 118.3250871  80.5495874  50.6011608 117.8089920  79.7654331  50.4141537
 119.2090820  80.2214591  50.7658128 115.9861598  74.2936890  46.5607421
 115.7886419  73.9851978  47.4450753 116.5961304  75.0198529  46.6905351
 109.8978406  86.6798630  58.0581186 110.8181415  86.8577229  58.2521233
 109.8627989  85.7354675  57.9060885 108.1982631  80.5530860  36.5335414
 107.2914086  80.2563973  36.6098128 108.4758612  80.2560678  35.6669701
  99.1160571  81.8737224  46.9834461  98.7963355  81.0202532  46.6908835
  98.5693999  82.0885802  47.7392428 102.8940478  84.5899665  50.7003967
 103.1126488  85.5216772  50.7192001 103.3066252  84.2307639  51.4858771
 109.8144696  75.0967750  42.6879656 109.0045425  74.7514835  43.0634902
 110.5029113  74.7875294  43.2767267 111.7435245  74.1745797  44.3103952
 112.2966283  74.5941250  44.9693975 111.9805331  73.2481545  44.3526908
 107.7668344  80.1632870  60.0906716 107.6665071  81.1127227  60.0218807
 107.5489886  79.8351109  59.2182786 106.9681415  77.4117795  36.6747394
 107.8300579  77.7372694  36.9343211 107.1531759  76.6249291  36.1620459
  98.9848831  85.4940135  48.9527582  98.2912302  85.0794088  48.4397537
  99.7321822  85.5360672  48.3561001 115.1214052  76.2846322  43.8182617
 114.5412721  76.9431126  43.4360669 114.8549984  75.4623666  43.4070034
 113.5717618  75.6851380  46.0203937 114.0717396  75.7967914  45.2118256
 114.2153226  75.3812432  46.6604745 107.6299614  83.5930009  58.9071778
 107.1466696  84.3930369  59.1135667 107.7160553  83.6037954  57.9539222
 100.8985573  85.4258389  46.8293597 100.8756262  85.5246076  45.8775480
 101.2086210  86.2723540  47.1510763 103.5572951  87.4834544  50.9440212
 104.5116205  87.4518486  50.8770143 103.3585475  87.0225168  51.7590438
 104.1472333  86.0535660  53.5111009 104.9665222  86.5479739  53.5345847
 104.4209141  85.1367628  53.4828577 113.9038930  78.4446412  42.8738965
 113.0164785  78.7296063  42.6559160 114.3192919  78.2840176  42.0266242
 117.2553466  78.4692933  46.5893304 118.0313856  78.9589386  46.8617921
 116.5301600  78.8950987  47.0465174 119.6926024  79.1820552  47.6467245
 120.2870515  78.9416288  46.9360553 119.7652608  78.4627683  48.2740781
 101.9123180  93.0254163  47.9610410 101.7777648  92.2654564  47.3948408
 101.4955242  93.7495063  47.4939198 113.0482143  88.2091087  36.9686985
 113.7517993  88.4141089  37.5844640 112.3244792  88.7767849  37.2336068
 113.8779953  83.9600948  43.0889255 113.8215155  84.4169500  42.2496887
 114.4308296  83.1991633  42.9112098 117.6884759  79.7490680  43.9139375
 117.4321694  79.3487316  44.7447582 117.0637627  80.4634474  43.7889514
 105.0692306  93.9223480  48.1728852 104.9524690  94.8668913  48.0707543
 104.2484752  93.6197042  48.5614651 114.9568841  88.6473616  39.0185445
 115.7914444  88.2154815  38.8362920 114.7953183  88.4755630  39.9462339
 114.6114733  85.1505729  40.3841784 114.5563537  84.9850001  39.4430228
 113.9860788  85.8581762  40.5403974  99.4007248  80.3873794  54.2103206
 100.0466111  79.8772748  54.6990432  99.1924399  81.1242475  54.7846632
 111.9260640  87.4554641  59.7095347 112.7951800  87.6295294  59.3481982
 111.4467391  88.2749058  59.5871076 107.9210858  74.6513838  39.9627103
 107.9089528  75.5955678  40.1195373 108.8134280  74.4683984  39.6686564
 106.0946820  94.5751742  51.3884781 106.9974067  94.6075353  51.7051276
 105.8684190  93.6452193  51.4031116 107.8500422  93.3282729  48.0494859
 106.8996053  93.3284590  47.9359232 108.1532908  92.5815463  47.5330894
 111.7362978  71.2456615  44.2173039 110.9695373  70.6915102  44.3629722
 112.1473683  71.3178484  45.0787191 103.7404739  77.5341411  58.3078221
 104.6036200  77.1778216  58.5181545 103.1670149  77.1955306  58.9953625
 120.3942822  99.1170695  49.0502146 120.0561333  99.0011760  48.1622681
 121.2632590  98.7161860  49.0303153 116.2529638 100.9706172  45.0399037
 115.6894503 100.8796109  44.2715325 116.1382033 100.1506076  45.5201530
 120.8762605 100.2705547  55.0088352 120.8651246  99.8758345  54.1368856
 121.0383244  99.5371620  55.6022123 113.7994070 102.4657363  47.8783258
 114.5915361 102.1248188  47.4629557 114.0390720 102.5752338  48.7985411
 115.7584823 101.7266277  40.7500637 116.5315699 101.1795264  40.6113512
 116.1110222 102.5910526  40.9615098 117.5969866 103.0542659  53.9567536
 117.3059732 103.9588290  53.8414202 118.2326850 103.0959186  54.6711605
 118.5226073 100.4319507  50.5468896 119.1189645 100.2075530  49.8325858
 118.5801044  99.6904253  51.1494343 118.0951101  97.8858943  38.3819086
 118.3476622  97.3640464  37.6202549 117.1575660  97.7225088  38.4845770
 117.8147390  99.7887049  40.5843461 117.6983648  99.1131952  41.2524546
 117.9249650  99.3019423  39.7675615 120.1578931  99.2497196  44.2890151
 119.7937138  98.7227817  45.0003072 121.0146047  98.8595665  44.1156636
 119.7984418  94.2787095  39.2851499 119.9658820  95.1467332  39.6521970
 119.6081587  94.4414377  38.3612788 116.0072233  99.1917871  46.9854034
 115.0822729  99.0594085  47.1931726 116.2556646  99.9712090  47.4823976
 119.7773639  96.7344753  40.2698166 119.6573264  97.1801804  41.1083646
 119.0826227  97.0830071  39.7111704 113.3681044  98.8351145  47.8197823
 113.4973425  99.0885624  48.7337235 112.6878495  99.4278853  47.5002478
 120.0297761  96.6776260  56.5749664 119.2531095  97.2370180  56.5652529
 120.6688324  97.1633043  57.0964534 118.2844133  99.4861713  56.1367631
 119.0258817 100.0246757  55.8602455 117.5781118 100.1128002  56.2939183
 120.1130543  96.5663461  52.1073350 120.9591738  96.9902874  52.2507999
 120.0529180  95.9097085  52.8011913 119.6356249 101.9266453  45.7542167
 120.0994595 102.2054156  44.9646789 119.3713047 101.0249897  45.5715257
 116.5280330 101.4737934  48.6921930 117.0981687 101.9025203  48.0539414
 117.1188442 101.1920519  49.3906116 118.5725135  98.0489605  42.5631732
 119.2749179  98.5010649  43.0305658 118.2405764  97.4073424  43.1911625
 117.0205497  96.6401362  56.9382941 116.3904157  97.3217643  57.1718338
 116.9141585  96.5284443  55.9936079 112.3150469  96.3073158  47.8648865
 111.5249523  96.5630686  47.3888976 112.8061717  97.1221496  47.9700906
 114.2665215  96.6717737  44.8232342 113.4696378  96.7836431  45.3415838
 114.0390807  97.0104389  43.9573233 120.0970882 103.1962440  52.7714857
 120.1615315 103.6582847  53.6073029 119.3881806 102.5659805  52.8997167
 110.5988172  96.5603648  50.2963856 110.8496211  97.4450658  50.5621432
 111.1347721  96.3808250  49.5238948 116.2986239  90.9422128  59.3008192
 115.9053185  90.3888326  59.9755836 117.1152380  91.2532706  59.6914710
 113.2648297 102.3805986  43.2121762 113.7772818 103.1749236  43.3627327
 113.9171010 101.6832276  43.1455364 115.0743182 105.4971742  45.2944515
 115.2509810 106.4189707  45.1065499 115.8700015 105.1830161  45.7238895
 119.2154200  92.3580007  56.8928449 119.9563914  92.9587160  56.8132911
 119.4472123  91.6157644  56.3346491 114.3595538  97.5436374  55.1706678
 114.2449054  96.6421631  55.4713777 113.5040056  97.7900071  54.8191495
 116.1974497 107.0149916  51.2954858 116.7481923 106.8866979  50.5231852
 115.3585973 107.3144805  50.9449750 119.9941668 103.2801044  55.6399089
 120.5270005 102.5189332  55.4098397 119.4655750 102.9874695  56.3823243
 111.2297214 100.7094640  43.9881333 112.0672436 101.1191648  43.7715040
 111.4075482  99.7694082  43.9581526 120.7108757  93.2219421  44.7350404
 119.8550354  92.8326272  44.5556043 121.1235709  93.3011382  43.8750189
 118.4850790  90.8404494  48.1408145 119.3503786  90.6447303  47.7814035
 118.5528299  90.6114846  49.0677502 121.3594381 102.4087036  43.1517901
 120.8315743 101.6739796  42.8391138 120.8581884 103.1861712  42.9057869
 116.0913109  93.0706702  45.5124512 116.6656861  92.8481884  44.7797705
 116.6784091  93.1395397  46.2653114 116.4182696  95.1011163  39.5320398
 115.5820008  95.4385850  39.8529672 116.2787466  94.9660143  38.5947534
 118.3935776  89.9447951  44.2399582 117.7400189  89.6296968  43.6156196
 118.3516251  89.3223692  44.9659405 119.5046981 100.2267246  36.1552874
 118.5974043  99.9956500  36.3544023 120.0018013  99.4304866  36.3426855
 120.6835215 100.3279841  40.6776864 119.7746434 100.0438874  40.7749334
 120.7130299 100.7478920  39.8180171 111.2523385  98.0485355  44.6592066
 111.0547785  97.4554716  43.9343133 110.6970049  97.7437566  45.3768005
 119.2320109  97.9408462  46.7786659 119.2868719  96.9882298  46.7029136
 118.4211311  98.0967901  47.2627958 120.3811303 101.8688585  38.0164942
 119.9430733 101.1524444  37.5570580 121.1221743 102.0964700  37.4550034
 117.1712469  96.5585522  44.5377038 116.3580334  96.8579692  44.9442230
 117.6671463  96.1641210  45.2551520 116.6626544  94.1303877  50.1538273
 117.3025923  93.9892636  49.4561236 115.8304074  93.8438390  49.7776875
 117.4386847 103.4306307  46.2673265 118.2327446 102.9356628  46.0655840
 116.7278540 102.9024171  45.9040971 113.7469611  97.5749389  42.3433018
 112.8167199  97.5133845  42.5602980 113.8427083  97.0525342  41.5469659
 113.6655160  94.1004202  44.9311260 113.9261977  95.0149535  44.8220420
 114.4872332  93.6328645  45.0807873 115.1380085  95.5141959  52.1010084
 115.8103139  95.3059321  51.4522733 114.3109872  95.3164045  51.6615317
 120.0158123 104.0035329  49.9471103 119.8769209 103.6354114  50.8197041
 119.2272720 104.5182969  49.7755060 121.5663339 103.3816932  47.3359940
 121.2313171 103.3417702  48.2317590 121.0667284 102.7161648  46.8630351
 115.5407583  98.7884562  52.8612522 115.4027380  98.0564801  53.4624061
 116.4512506  98.6993462  52.5796709 118.1689883  98.5004522  52.3496201
 118.8789502  97.8597714  52.3082820 118.1259191  98.7517416  53.2722382
 116.8818817  95.4869739  54.1691841 116.3456174  95.0360478  54.8213437
 116.2935526  95.6215648  53.4262305 116.2921076  94.9458391  36.7318304
 115.4150542  94.8247192  36.3680551 116.7678829  94.1544469  36.4797193
 107.8123216  99.7335551  46.8259811 108.4994256  99.4197281  46.2380827
 107.6571345 100.6376915  46.5527063 112.6157938  94.6225747  51.2544835
 112.5316127  94.0151417  50.5195245 111.7940645  95.1134765  51.2554331
 119.3716621  95.2496694  46.3486715 119.0014409  94.6967734  47.0367620
 119.8675713  94.6454827  45.7961715 117.2005820 105.7094189  53.4441733
 117.9015279 106.3430672  53.5971127 116.7300935 106.0508920  52.6837372
 112.7973538 105.2430544  50.3772835 113.3826974 104.4974232  50.5100740
 112.5998376 105.5534500  51.2609499 107.3891192  97.8136144  49.0977279
 107.4275292  97.2799735  49.8914397 106.8831485  97.2871349  48.4788256
 114.7681955  92.6600684  52.5939821 114.8323281  93.5215515  52.1817219
 114.7049075  92.0474686  51.8612179 114.2434227  94.7323817  56.2412855
 114.8706266  94.3500894  56.8550379 113.3862146  94.5138019  56.6068548
 111.0199770  96.5400246  42.1731210 111.3153211  95.6310924  42.1198264
 110.1187806  96.5187985  41.8512212 114.5494017  94.6156243  48.1558759
 113.8280603  95.2292210  48.0166232 115.3387273  95.1514007  48.0775405
 117.3520330  91.9510669  54.4299410 117.8754732  92.1972966  55.1925720
 117.1332664  92.7830704  54.0102548 112.7487612  94.2214344  42.2970535
 112.4200318  93.3411723  42.1145641 113.1026982  94.1662012  43.1846924
 115.8629435  94.5087314  42.6646013 116.2025507  95.0373235  41.9424621
 116.3101555  94.8467720  43.4404579 118.5572876  92.8924364  52.1149081
 118.2169696  92.0932177  52.5169761 117.8511882  93.1926075  51.5425914
 119.2089347  89.9773677  50.5676404 120.0315417  89.5034155  50.4455294
 119.4527411  90.7564160  51.0675090 117.8497582  93.0061935  40.8639306
 118.5705944  93.3843188  40.3603022 117.2262886  93.7250812  40.9674284
 116.7327926  96.6692797  48.3768382 116.5872507  96.9833100  49.2692664
 116.2553130  97.2877698  47.8239281 118.5924309  93.6595345  48.4249272
 118.5785878  92.7636439  48.0881570 119.3096737  93.6666009  49.0587558
 120.4450440  94.0932685  50.4702399 120.1868218  95.0149756  50.4686730
 119.9135480  93.6963120  51.1602864 111.2073588  99.2098142  51.3156044
 110.6627056  99.9857950  51.4476318 112.0852938  99.5568946  51.1575165
 117.9961205  92.5409726  43.6936842 118.1177116  91.6126372  43.8927730
 117.7063247  92.5548412  42.7815158 120.8652395  90.2264636  46.8303562
 120.8874092  90.2903969  45.8755542 121.2820454  89.3869145  47.0244068
 111.9939610  98.3368038  54.2086201 111.2521346  98.4850673  54.7950831
 111.6732354  98.5976304  53.3452950 112.4396224 106.2233467  46.2396595
 113.2654244 105.9237239  45.8595239 112.0890276 105.4541089  46.6886384
 117.4077757 105.5759935  48.3094269 116.7857766 104.9130640  48.0096497
 118.0782624 105.6021067  47.6267917 110.6404829 104.1419793  47.1985529
 109.8036737 103.7141967  47.0169530 110.6128474 104.3352236  48.1356320
 117.4802284  94.0541723  57.9026775 117.5290440  94.9303846  57.5204544
 118.0224799  93.5119116  57.3298418 116.9691264 104.1263858  41.7852729
 117.1179384 104.8099323  41.1319402 117.7757707 104.1068948  42.3002185
 119.7101573  94.8073095  54.6573133 118.8404882  95.1006661  54.3855722
 119.9461053  95.3913540  55.3780397 114.7243897 100.1529036  42.7913798
 114.4789939  99.2491366  42.9894008 114.8939811 100.1546186  41.8493276
 113.9939544  95.8857393  40.2899960 113.3008789  95.9601748  39.6339996
 113.7491296  95.1217737  40.8121477 119.0376385  95.8822778  36.5335414
 118.1307840  95.5855891  36.6098128 119.3152366  95.5852596  35.6669701
 109.9554325  97.2029141  46.9834461 109.6357110  96.3494449  46.6908835
 109.4087754  97.4177719  47.7392428 113.7334233  99.9191582  50.7003967
 113.9520243 100.8508690  50.7192001 114.1460007  99.5599557  51.4858771
 120.6538451  90.4259668  42.6879656 119.8439179  90.0806753  43.0634902
 121.3422868  90.1167211  43.2767267 118.6062098  95.4924788  60.0906716
 118.5058825  96.4419145  60.0218807 118.3883640  95.1643027  59.2182786
 117.8075170  92.7409713  36.6747394 118.6694334  93.0664611  36.9343211
 117.9925514  91.9541209  36.1620459 109.8242585 100.8232053  48.9527582
 109.1306057 100.4086006  48.4397537 110.5715576 100.8652589  48.3561001
 118.4693368  98.9221927  58.9071778 117.9860450  99.7222287  59.1135667
 118.5554307  98.9329872  57.9539222 111.7379328 100.7550307  46.8293597
 111.7150016 100.8537994  45.8775480 112.0479964 101.6015457  47.1510763
 114.3966706 102.8126462  50.9440212 115.3509959 102.7810404  50.8770143
 114.1979229 102.3517085  51.7590438 114.9866088 101.3827578  53.5111009
 115.8058977 101.8771656  53.5345847 115.2602896 100.4659546  53.4828577
 112.7516935 108.3546081  47.9610410 112.6171403 107.5946482  47.3948408
 112.3348997 109.0786981  47.4939198 110.2401002  95.7165711  54.2103206
 110.8859866  95.2064665  54.6990432 110.0318153  96.4534393  54.7846632
 118.7604613  89.9805756  39.9627103 118.7483283  90.9247596  40.1195373
 119.6528035  89.7975901  39.6686564 114.5798493  92.8633329  58.3078221
 115.4429955  92.5070133  58.5181545 114.0063904  92.5247223  58.9953625
  52.5018005  -5.4640989  30.6433604  52.4242035  -4.5133164  30.7222084
  51.8979649  -5.8095116  31.3008530  50.1404835  -2.7155595  34.7881806
  50.3801433  -2.0837071  35.4660824  49.2974031  -3.0667555  35.0747165
  50.6149667  -6.6907592  32.1180584  49.9460042  -6.2061465  31.6344624
  50.4762537  -6.4438372  33.0323963  54.7554936  -4.6563849  38.7163243
  55.3073244  -4.4932227  39.4812328  55.0961129  -4.0659411  38.0443268
  47.7154409  -6.6143302  34.6855716  47.5808877  -7.3742902  34.1193714
  47.2986471  -5.8902403  34.2184505  50.8723535  -5.7173985  34.8974159
  50.7555919  -4.7728553  34.7952849  50.0515981  -6.0200424  35.2859958
  51.8978049  -5.0645724  38.1130087  52.8005296  -5.0322113  38.4296582
  51.6715419  -5.9945273  38.1276423  66.1974051  -0.5226770  35.7747453
  65.8592562  -0.6385706  34.8867988  67.0663819  -0.9235605  35.7548459
  62.0560866   1.3308706  31.7644344  61.4925732   1.2398643  30.9960632
  61.9413261   0.5108610  32.2446836  66.6793834   0.6308081  41.7333659
  66.6682474   0.2360880  40.8614162  66.8414473  -0.1025846  42.3267430
  59.6025298   2.8259898  34.6028564  60.3946590   2.4850722  34.1874864
  59.8421949   2.9354873  35.5230718  67.6360425   4.9979674  27.0758809
  66.9848405   5.5833754  26.6892823  68.4304788   5.5285869  27.1353846
  61.5616052   2.0868811  27.4745943  62.3346928   1.5397798  27.3358819
  61.9141451   2.9513060  27.6860405  63.4001095   3.4145193  40.6812843
  63.1090961   4.3190824  40.5659509  64.0358079   3.4561721  41.3956912
  64.3257302   0.7922042  37.2714202  64.9220874   0.5678064  36.5571165
  64.3832273   0.0506787  37.8739650  69.1135690   2.6870106  27.6127793
  68.4781523   2.7604732  28.3248698  68.7833097   3.2763704  26.9346872
  63.6178619   0.1489583  27.3088768  63.5014877  -0.5265514  27.9769852
  63.7280879  -0.3378043  26.4920921  65.9610160  -0.3900270  31.0135457
  65.5968367  -0.9169649  31.7248379  66.8177276  -0.7801801  30.8401943
  68.3590980   3.1006609  37.6762636  68.0591703   4.0031647  37.5678443
  68.0142039   2.8338792  38.5283789  61.8103461  -0.4479595  33.7099341
  60.8853958  -0.5803380  33.9177032  62.0587875   0.3314625  34.2069283
  59.1712272  -0.8046321  34.5443130  59.3004654  -0.5511842  35.4582541
  58.4909724  -0.2118613  34.2247785  63.3411760   9.8650929  30.6433604
  63.2635789  10.8158754  30.7222084  62.7373403   9.5196801  31.3008530
  64.0875362  -0.1535752  42.8612938  64.8290046   0.3849292  42.5847761
  63.3812347   0.4730536  43.0184490  69.5630701   1.9893388  41.4585099
  69.9714057   1.5475799  40.7139732  68.8407963   1.4146016  41.7119292
  69.8859516   2.5494579  35.2137388  69.2568379   2.7140293  34.5113456
  69.4985178   2.9636188  35.9848352  73.7648748   3.4849017  32.5681752
  73.0799786   3.8647918  32.0178785  73.8492597   4.0944343  33.3013700
  71.0199680   1.1308976  39.1677095  71.2316575   1.7740736  38.4911477
  70.9729428   0.2971292  38.6999026  65.4387478   2.2868987  32.4787473
  65.9025824   2.5656690  31.6892096  65.1744276   1.3852431  32.2960564
  62.3311559   1.8340468  35.4167237  62.9012916   2.2627737  34.7784721
  62.9219671   1.5523053  36.1151422  58.1181698  -3.3324308  34.5894172
  57.3280752  -3.0766780  34.1134283  58.6092945  -2.5175970  34.6946213
  72.1345508   4.0080931  37.3399453  72.9562951   3.6061118  37.0582134
  72.1307910   3.9049165  38.2915569  60.0696443  -2.9679729  31.5477649
  59.2727607  -2.8561035  32.0661144  59.8422036  -2.6293077  30.6818539
  65.9002111   3.5564974  39.4960163  65.9646544   4.0185382  40.3318335
  65.1913035   2.9262339  39.6242473  56.4019401  -3.0793818  37.0209163
  56.6527439  -2.1946808  37.2866739  56.9378949  -3.2589216  36.2484255
  65.6150129   5.2233082  29.3639144  65.4795803   6.0684618  29.7923991
  66.1559941   5.4252360  28.6005077  59.0679526   2.7408520  29.9367069
  59.5804047   3.5351770  30.0872633  59.7202239   2.0434810  29.8700670
  60.8774411   5.8574276  32.0189822  61.0541039   6.7792241  31.8310806
  61.6731244   5.5432695  32.4484202  60.1626767  -2.0961092  41.8951985
  60.0480282  -2.9975835  42.1959084  59.3071285  -1.8497395  41.5436802
  67.2418605   5.8456648  43.4939486  66.7982459   5.0593027  43.1760390
  67.9035819   6.0335799  42.8283377  62.0005726   7.3752450  38.0200164
  62.5513151   7.2469513  37.2477158  61.1617202   7.6747339  37.6695057
  69.3399843   6.1259448  41.5220887  69.3218318   6.9468329  41.0301156
  70.2619763   6.0013524  41.7471028  65.7972897   3.6403578  42.3644395
  66.3301234   2.8791866  42.1343703  65.2686978   3.3477230  43.1068550
  57.0328443   1.0697174  30.7126639  57.8703665   1.4794183  30.4960347
  57.2106711   0.1296616  30.6826833  67.1625610   2.7689570  29.8763207
  66.6346972   2.0342330  29.5636445  66.6613113   3.5464247  29.6303176
  72.1418456   0.9638591  34.9930254  71.4842130   1.6537852  35.0810382
  72.9458855   1.3535023  35.3364240  65.3078210   0.5869781  22.8798180
  64.4005272   0.3559034  23.0789329  65.8049242  -0.2092600  23.0672162
  68.2146289   9.2967288  25.7994867  67.5407988   9.5998984  26.4079824
  68.6012111  10.0996368  25.4500324  66.4866444   0.6882375  27.4022170
  65.5777663   0.4041408  27.4994640  66.5161527   1.1081454  26.5425477
  71.7185711   4.2988965  31.1713338  71.2648038   3.4579875  31.2278529
  71.0879678   4.9350363  31.5088118  70.1618650   6.1365462  32.1063156
  70.4541625   6.6970519  31.3875522  70.6717271   6.4294023  32.8616315
  57.0554614  -1.5912110  31.3837373  56.8579014  -2.1842750  30.6588439
  56.5001278  -1.8959900  32.1013311  66.1842531   2.2291119  24.7410249
  65.7461961   1.5126978  24.2815886  66.9252972   2.4567234  24.1795340
  65.1252275   6.9145813  33.1956609  65.0828454   7.1406659  32.2665141
  66.0414974   6.6809187  33.3442411  74.3285026   2.5724843  35.8097839
  74.7621532   2.4800132  36.6580893  75.0416606   2.5482344  35.1717855
  63.2418076   3.7908842  32.9918572  64.0358675   3.2959162  32.7901147
  62.5309769   3.2626705  32.6286278  68.0612921   6.1726937  37.3430940
  68.1149943   6.7417874  38.1108656  67.1927702   6.3428822  36.9784977
  59.5500840  -2.0648077  29.0678325  58.6198428  -2.1263621  29.2848287
  59.6458312  -2.5872124  28.2714966  75.1900575   2.6148544  38.3430725
  75.3836465   3.5194354  38.5889999  75.0901194   2.1555963  39.1769310
  70.2515684   2.7655287  43.9171605  70.1001190   2.5365838  43.0001689
  70.2420363   3.7225888  43.9302950  67.0201020   0.3387199  38.9017872
  67.9493080   0.4898359  38.7286839  66.5992050   0.4271220  38.0466518
  65.8189352   4.3637864  36.6716409  65.6800438   3.9956648  37.5442347
  65.0303948   4.8785503  36.5000367  66.4137504   9.4646960  28.0141946
  66.5889260   8.9935003  28.8287568  65.7270292  10.0912726  28.2423206
  67.3694567   3.7419466  34.0605247  67.0344400   3.7020236  34.9562897
  66.8698513   3.0764182  33.5875657  61.3438811  -0.8512904  39.5857828
  61.2058609  -1.5832665  40.1869367  62.2543735  -0.9404003  39.3042016
  70.3053759   1.0875501  24.3342307  69.6882930   0.3622329  24.2375359
  69.8370247   1.8484861  23.9909381  63.9721112  -1.1392944  39.0741508
  64.6820731  -1.7799752  39.0328126  63.9290420  -0.8880049  39.9967689
  71.9607891   5.7974409  41.9948087  71.9020437   5.1133629  41.3278670
  72.3627409   6.5393399  41.5428713  60.9798589  12.6136323  34.7881806
  61.2195188  13.2454847  35.4660824  60.1367786  12.2624363  35.0747165
  71.9625298   3.7613993  40.2262067  71.0752077   3.4239915  40.3488466
  72.5323849   3.0297024  40.4630832  53.6154445   0.0938085  33.5505118
  54.3025485  -0.2200185  32.9626133  53.4602574   0.9979449  33.2772370
  65.4926451   8.4215445  37.1923310  65.4196623   9.2270417  37.7042614
  65.0503844   8.6207411  36.3671331  65.2816231   7.6587215  30.7026131
  64.4983753   8.2008896  30.7964356  65.9808976   8.1761195  31.1020373
  67.9525135   8.3202279  39.3481469  68.6653107   8.9549744  39.2757370
  67.4615163   8.4166145  38.5321470  69.6742662   2.2253532  30.9198760
  68.7398940   2.3454995  30.7503465  69.8519330   1.3225999  30.6558770
  63.0037048   6.0696723  40.1687039  63.7046508   6.7033206  40.3216434
  62.5332163   6.4111454  39.4082679  71.1291444   4.4114673  28.4534946
  71.4051288   4.2971267  29.3628820  70.2595943   4.0132157  28.4147119
  67.7645508   8.6601023  32.0967760  67.9467903   7.8422679  32.5595512
  68.5878494   8.8768716  31.6592650  68.0987674   7.5869209  29.3582809
  68.6275440   7.0761663  28.7452971  68.3615893   7.2711739  30.2228342
  66.8525907  -0.6338859  44.4805627  66.1766544  -0.7344729  45.1508002
  67.6753541  -0.7899645  44.9441624  58.6004766   5.6033078  37.1018142
  59.1858203   4.8576766  37.2346046  58.4029605   5.9137035  37.9854806
  61.4543422   8.6384325  32.1180584  60.7853797   9.1230453  31.6344624
  61.3156291   8.8853546  33.0323963  53.1922421  -1.8261322  35.8222585
  53.2306521  -2.3597731  36.6159703  52.6862714  -2.3526116  35.2033562
  65.5948690  10.6728069  38.7163243  66.1466998  10.8359690  39.4812328
  65.9354884  11.2632507  38.0443268  70.4459565   5.4989326  44.5711897
  70.9899469   6.1119285  44.0766852  69.8646409   6.0568905  45.0878910
  56.8230999  -3.0997220  28.8976517  57.1184440  -4.0086541  28.8443570
  55.9219035  -3.1209480  28.5757519  68.7317078   8.6210044  35.7026925
  68.6068217   7.8199784  35.1937870  69.3896169   9.1156238  35.2140895
  70.7951986   6.4219064  37.3306475  69.8482321   6.3024416  37.2584802
  71.1434759   5.5341562  37.4132736  67.7998419   6.2171781  33.5310827
  67.6523382   5.2888488  33.7118397  68.6251913   6.2391871  33.0467903
  71.4032541   7.0400339  34.6175700  72.3279089   6.8343201  34.4800151
  71.2347844   6.7916741  35.5265042  71.1927857   7.5586007  29.9737791
  71.3664735   6.9932429  29.2211644  71.6856749   8.3586902  29.7917281
  57.0104817  -0.4299324  38.0401350  56.4658285   0.3460484  38.1721625
  57.8884167  -0.0828520  37.8820472  72.1803030   6.8752771  27.0734690
  72.8753934   7.4959464  27.2922004  72.5226180   6.0248122  27.3487068
  57.7970839  -1.3029428  40.9331507  57.0552575  -1.1546792  41.5196138
  57.4763583  -1.0421162  40.0698257  74.0794453   4.3252477  28.6022021
  74.6045777   4.6639750  27.8771341  73.9916805   3.3899492  28.4185155
  65.7414502   8.2386550  40.7311897  66.0501628   7.9935697  41.6034597
  66.5389984   8.4433189  40.2430767  65.7635114  10.3924460  32.9617274
  65.3240104   9.9000839  33.6550130  66.5143231   9.8497428  32.7209349
  58.2427453   6.5836001  32.9641902  59.0685473   6.2839773  32.5840545
  57.8921505   5.8143623  33.4131690  63.2108986   5.9362469  35.0339575
  62.5888995   5.2733174  34.7341803  63.8813853   5.9623601  34.3513223
  56.4436058   4.5022327  33.9230835  55.6067966   4.0744502  33.7414837
  56.4159703   4.6954771  34.8601627  73.7688359   4.9585380  43.9073219
  72.9783903   4.9409519  43.3677718  73.5321714   5.4973674  44.6622255
  62.7722493   4.4866392  28.5098036  62.9210613   5.1701857  27.8564709
  63.5788936   4.4671483  29.0247492  75.3904431   4.2274788  41.4647969
  75.0989239   4.5904769  42.3011430  74.7776562   3.5141797  41.2861301
  60.5275126   0.5131570  29.5159105  60.2821168  -0.3906100  29.7139315
  60.6971040   0.5148721  28.5738583  66.2717898   6.9814523  25.9809783
  65.6991865   7.6004710  25.5280255  66.8450692   7.5313885  26.5149705
  69.4915158   7.2651673  27.1118366  70.4245831   7.1997235  27.3151241
  69.4038371   8.1007940  26.6532898  72.1203175   6.5817543  24.0722313
  72.0416806   6.2477407  24.9658071  72.9412841   7.0739311  24.0713786
  66.5403389   2.3693082  44.7826493  67.4606399   2.5471681  44.9766539
  66.5052972   1.4249127  44.6306192  55.7585554  -2.4368325  33.7079767
  55.4388339  -3.2903016  33.4154141  55.2118982  -2.2219746  34.4637735
  59.5365462   0.2794116  37.4249274  59.7551472   1.2111224  37.4437308
  59.9491236  -0.0797909  38.2104078  55.6273814   1.1834587  35.6772889
  54.9337286   0.7688540  35.1642843  56.3746805   1.2255123  35.0806308
  64.2724597  -0.7175539  45.6317085  63.7891679   0.0824821  45.8380974
  64.3585536  -0.7067594  44.6784529  57.5410557   1.1152841  33.5538904
  57.5181245   1.2140528  32.6020787  57.8511193   1.9617992  33.8756070
  60.1997935   3.1728996  37.6685518  61.1541188   3.1412938  37.6015450
  60.0010458   2.7119619  38.4835744  60.7897317   1.7430112  40.2356316
  61.6090206   2.2374190  40.2591153  61.0634124   0.8262080  40.2073884
  58.5548163   8.7148615  34.6855716  58.4202631   7.9549016  34.1193714
  58.1380226   9.4389515  34.2184505  69.6907126   3.8985539  23.6932292
  70.3942977   4.1035541  24.3089947  68.9669775   4.4662301  23.9581375
  61.7117289   9.6117932  34.8974159  61.5949673  10.5563365  34.7952849
  60.8909736   9.3091494  35.2859958  71.5993824   4.3368068  25.7430752
  72.4339428   3.9049266  25.5608226  71.4378167   4.1650082  26.6707646
  71.2539716   0.8400181  27.1087091  71.1988520   0.6744453  26.1675535
  70.6285771   1.5476214  27.2649281  56.0432231  -3.9231754  40.9348513
  56.6891095  -4.4332800  41.4235738  55.8349382  -3.1863073  41.5091938
  68.5685623   3.1449093  46.4340654  69.4376783   3.3189745  46.0727289
  68.0892375   3.9643510  46.3116383  62.7371803  10.2646194  38.1130087
  63.6399050  10.2969804  38.4296582  62.5109174   9.3346645  38.1276423
  64.4925405   9.0177181  34.7740166  63.5421036   9.0179042  34.6604538
  64.7957892   8.2709915  34.2576201  80.2278099  14.8537719  35.8385928
  80.8656509  14.7344466  35.1349268  80.1098942  15.8018563  35.8973880
  77.0367805  14.8065147  35.7747453  76.6986317  14.6906212  34.8867988
  77.9057573  14.4056312  35.7548459  72.8954621  16.6600624  31.7644344
  72.3319486  16.5690561  30.9960632  72.7807016  15.8400528  32.2446836
  77.5187588  15.9599999  41.7333659  77.5076229  15.5652797  40.8614162
  77.6808228  15.2266072  42.3267430  70.4419053  18.1551815  34.6028564
  71.2340345  17.8142640  34.1874864  70.6815703  18.2646790  35.5230718
  78.4754180  20.3271591  27.0758809  77.8242159  20.9125672  26.6892823
  79.2698542  20.8577786  27.1353846  72.4009807  17.4160728  27.4745943
  73.1740683  16.8689716  27.3358819  72.7535206  18.2804978  27.6860405
  74.2394849  18.7437111  40.6812843  73.9484715  19.6482742  40.5659509
  74.8751834  18.7853638  41.3956912  75.1651056  16.1213959  37.2714202
  75.7614628  15.8969982  36.5571165  75.2226028  15.3798705  37.8739650
  74.7376085  13.5753395  25.1064393  74.9901605  13.0534916  24.3447856
  73.8000644  13.4119540  25.2091077  79.7819367  12.5789173  32.9139136
  80.5682457  12.1608596  32.5629553  80.0458072  13.4835265  33.0820785
  79.9529445  18.0162023  27.6127793  79.3175278  18.0896650  28.3248698
  79.6226851  18.6055622  26.9346872  85.1827795  12.5164406  33.8172115
  85.9152967  11.9463623  34.0509944  84.4267150  12.1286007  34.2578620
  74.4572373  15.4781501  27.3088768  74.3408631  14.8026404  27.9769852
  74.5674633  14.9913874  26.4920921  76.8003914  14.9391648  31.0135457
  76.4362122  14.4122269  31.7248379  77.6571030  14.5490117  30.8401943
  82.7053215   6.2285980  38.2766723  82.3736540   7.0981391  38.0527938
  82.1098828   5.9122264  38.9560754  76.4409401   9.9681547  26.0096806
  76.6083804  10.8361784  26.3767277  76.2506570  10.1308829  25.0858095
  79.1984734  18.4298526  37.6762636  78.8985458  19.3323565  37.5678443
  78.8535794  18.1630709  38.5283789  72.6497216  14.8812323  33.7099341
  71.7247712  14.7488537  33.9177032  72.8981629  15.6606542  34.2069283
  82.5981878  10.9481066  35.3560074  81.6898756  10.8796475  35.0618835
  82.5469474  11.4253011  36.1841899  76.4198622  12.4239205  26.9943473
  76.2998247  12.8696256  27.8328953  75.7251211  12.7724523  26.4357011
  70.0106027  14.5245597  34.5443130  70.1398408  14.7780076  35.4582541
  69.3303478  15.1173305  34.2247785  74.1805514  25.1942847  30.6433604
  74.1029544  26.1450672  30.7222084  73.5767158  24.8488719  31.3008530
  76.6722744  12.3670712  43.2994971  75.8956078  12.9264632  43.2897835
  77.3113307  12.8527495  43.8209841  84.4643525   9.1497505  37.1337947
  83.8217905   9.4430038  36.4877742  83.9598453   9.0350425  37.9391144
  82.1183688  12.8960678  27.8223807  83.0301544  13.1288065  27.6471504
  81.6093335  13.4797722  27.2598885  74.9269116  15.1756165  42.8612938
  75.6683801  15.7141209  42.5847761  74.2206102  15.8022454  43.0184490
  80.4024456  17.3185306  41.4585099  80.8107812  16.8767716  40.7139732
  79.6801717  16.7437933  41.7119292  76.7555526  12.2557913  38.8318656
  77.6016721  12.6797326  38.9753305  76.6954164  11.5991537  39.5257219
  80.7253271  17.8786496  35.2137388  80.0962133  18.0432211  34.5113456
  80.3378933  18.2928106  35.9848352  84.6042503  18.8140934  32.5681752
  83.9193541  19.1939836  32.0178785  84.6886352  19.4236261  33.3013700
  79.9054971   9.9162281  40.4899830  79.6615903  10.6704342  39.9534106
  80.1814902  10.2947629  41.3247077  81.8593434  16.4600893  39.1677095
  82.0710329  17.1032653  38.4911477  81.8123182  15.6263210  38.6999026
  79.4619663   9.0718714  36.0713668  78.6004142   9.3699968  36.3630405
  79.4882098   9.2889113  35.1394700  76.2781232  17.6160905  32.4787473
  76.7419578  17.8948608  31.6892096  76.0138031  16.7144349  32.2960564
  73.1705314  17.1632386  35.4167237  73.7406671  17.5919654  34.7784721
  73.7613425  16.8814971  36.1151422  75.2150119  13.7384057  29.2877038
  75.9174162  14.1905101  29.7550965  74.8830747  13.0967876  29.9156932
  73.6630480  12.3295814  43.6628248  73.0329141  13.0112094  43.8963645
  73.5566568  12.2178895  42.7181386  68.9575452  11.9967610  34.5894172
  68.1674506  12.2525138  34.1134283  69.4486700  12.8115947  34.6946213
  82.9739262  19.3372849  37.3399453  83.7956706  18.9353036  37.0582134
  82.9701665  19.2341083  38.2915569  70.9090198  12.3612189  31.5477649
  70.1121361  12.4730883  32.0661144  70.6815790  12.6998841  30.6818539
  76.7395865  18.8856892  39.4960163  76.8040298  19.3477299  40.3318335
  76.0306789  18.2554257  39.6242473  67.2413155  12.2498100  37.0209163
  67.4921194  13.1345110  37.2866739  67.7772704  12.0702702  36.2484255
  91.0645255  15.6811597  33.6884424  90.3108963  15.1118995  33.5328429
  91.1992796  15.6474262  34.6355059  76.4543883  20.5525000  29.3639144
  76.3189558  21.3976535  29.7923991  76.9953696  20.7544277  28.6005077
  72.9411223   6.6316579  46.0253499  72.5478168   6.0782778  46.7001143
  73.7577363   6.9427158  46.4160016  69.9073281  18.0700438  29.9367069
  70.4197801  18.8643688  30.0872633  70.5595993  17.3726728  29.8700670
  71.7168165  21.1866194  32.0189822  71.8934794  22.1084159  31.8310806
  72.5124999  20.8724613  32.4484202  75.8579184   8.0474458  43.6173755
  76.5988897   8.6481612  43.5378218  76.0897107   7.3052096  43.0591798
  71.0020522  13.2330826  41.8951985  70.8874037  12.3316083  42.1959084
  70.1465040  13.4794523  41.5436802  78.0812360  21.1748566  43.4939486
  77.6376214  20.3884945  43.1760390  78.7429573  21.3627717  42.8283377
  72.8399481  22.7044368  38.0200164  73.3906906  22.5761431  37.2477158
  72.0010957  23.0039257  37.6695057  80.1793598  21.4551366  41.5220887
  80.1612073  22.2760247  41.0301156  81.1013518  21.3305441  41.7471028
  76.6366652  18.9695495  42.3644395  77.1694989  18.2083784  42.1343703
  76.1080733  18.6769147  43.1068550  79.8036347   4.0755561  37.8938037
  79.4600616   4.9657203  37.8177148  80.1715309   3.8857219  37.0307622
  67.8722197  16.3989092  30.7126639  68.7097419  16.8086100  30.4960347
  68.0500465  15.4588534  30.6826833  79.7686629  14.0664173  26.4010472
  79.2533253  14.8368777  26.6398860  79.4963938  13.3929309  27.0243534
  77.3533740   8.9113873  31.4595711  76.4975337   8.5220724  31.2801349
  77.7660692   8.9905834  30.5995496  78.8832887   6.4460217  35.8587270
  78.3797683   6.4090352  35.0455076  79.1763494   7.3552959  35.9183927
  75.1275773   6.5298946  34.8653452  75.9928770   6.3341755  34.5059342
  75.1953282   6.3009298  35.7922809  84.7420904  16.8196527  28.3363646
  83.9650346  16.4807687  27.8918808  85.4212385  16.8249150  27.6618611
  79.5572933  11.9391265  28.2270253  79.2523068  12.2537414  29.0780397
  80.5103375  12.0172685  28.2697586  78.0019364  18.0981488  29.8763207
  77.4740726  17.3634248  29.5636445  77.5006867  18.8756164  29.6303176
  82.9812210  16.2930508  34.9930254  82.3235885  16.9829770  35.0810382
  83.7852610  16.6826940  35.3364240  72.7338092   8.7601154  32.2369819
  73.3081844   8.5376336  31.5043012  73.3209075   8.8289849  32.9898420
  81.7917669  14.6474881  33.0434195  82.3049551  15.2804873  33.5455905
  82.4418893  14.0476077  32.6777555  73.0607679  10.7905615  26.2565704
  72.2244991  11.1280302  26.5774979  72.9212449  10.6554595  25.3192841
  75.0360760   5.6342403  30.9644888  74.3825172   5.3191420  30.3401503
  74.9941234   5.0118144  31.6904711  76.1471965  15.9161698  22.8798180
  75.2399026  15.6850952  23.0789329  76.6442997  15.1199317  23.0672162
  79.0540044  24.6259205  25.7994867  78.3801742  24.9290902  26.4079824
  79.4405865  25.4288286  25.4500324  78.2698500  12.1224337  35.2892536
  77.3521062  12.3439284  35.1314224  78.6858644  12.1970647  34.4304243
  79.0533548  13.5215752  30.4195216  79.8005367  14.0337150  30.1102338
  79.3225137  13.1999805  31.2799610  77.3260198  16.0174293  27.4022170
  76.4171417  15.7333326  27.4994640  77.3555282  16.4373372  26.5425477
  82.5579465  19.6280883  31.1713338  82.1041793  18.7871792  31.2278529
  81.9273432  20.2642281  31.5088118  81.5012385  10.5572869  32.4014006
  80.7635142  10.0450255  32.7324248  81.7539159  10.1173250  31.5897282
  81.0012405  21.4657379  32.1063156  81.2935379  22.0262436  31.3875522
  81.5111025  21.7585940  32.8616315  67.8948368  13.7379807  31.3837373
  67.6972768  13.1449168  30.6588439  67.3395032  13.4332017  32.1013311
  75.8745092  13.6302914  33.5031966  75.9293702  12.6776750  33.4274442
  75.0636294  13.7862353  33.9873264  77.0236286  17.5583037  24.7410249
  76.5855716  16.8418896  24.2815886  77.7646727  17.7859152  24.1795340
  73.8137452  12.2479973  31.2622345  73.0005318  12.5474144  31.6687537
  74.3096446  11.8535662  31.9796827  75.9646030  22.2437730  33.1956609
  75.9222209  22.4698577  32.2665141  76.8808729  22.0101105  33.3442411
  79.4111664  12.7121798  40.0937239  79.7661051  12.9393271  40.9531704
  80.0583795  13.0440175  39.4714494  85.1409401  15.8340234  30.7986568
  85.0027299  16.0241830  29.8707757  84.7845619  16.5959617  31.2554619
  73.3051527   9.8198329  36.8783580  73.9450906   9.6787088  36.1806543
  72.4729057   9.5332842  36.5022182  85.1678780  17.9016761  35.8097839
  85.6015287  17.8092050  36.6580893  85.8810361  17.8774261  35.1717855
  74.0811831  19.1200759  32.9918572  74.8752429  18.6251080  32.7901147
  73.3703523  18.5918623  32.6286278  78.9006675  21.5018855  37.3430940
  78.9543697  22.0709791  38.1108656  78.0321457  21.6720740  36.9784977
  70.3894594  13.2643841  29.0678325  69.4592182  13.2028297  29.2848287
  70.4852066  12.7419794  28.2714966  70.3080143   9.7898654  31.6556566
  70.5686961  10.7043987  31.5465727  71.1297316   9.3223097  31.8053179
  71.7805069  11.2036411  38.8255391  72.4528122  10.9953773  38.1768040
  70.9534855  11.0058497  38.3860623  86.0294330  17.9440461  38.3430725
  86.2230220  18.8486272  38.5889999  85.9294948  17.4847881  39.1769310
  77.6830641   7.8298352  40.8421052  77.0358556   8.5288302  40.7485528
  78.4531656   8.2634496  41.2097300  81.0909439  18.0947204  43.9171605
  80.9394945  17.8657756  43.0001689  81.0814118  19.0517806  43.9302950
  77.8594775  15.6679117  38.9017872  78.7886835  15.8190277  38.7286839
  77.4385805  15.7563138  38.0466518  76.6583107  19.6929781  36.6716409
  76.5194192  19.3248566  37.5442347  75.8697703  20.2077421  36.5000367
  77.2531259  24.7938878  28.0141946  77.4283014  24.3226921  28.8287568
  76.5664047  25.4204644  28.2423206  78.2088322  19.0711384  34.0605247
  77.8738154  19.0312154  34.9562897  77.7092268  18.4056100  33.5875657
  72.1832566  14.4779014  39.5857828  72.0452364  13.7459253  40.1869367
  73.0937489  14.3887914  39.3042016  81.1447513  16.4167418  24.3342307
  80.5276684  15.6914247  24.2375359  80.6764002  17.1776779  23.9909381
  74.8114866  14.1898973  39.0741508  75.5214485  13.5492166  39.0328126
  74.7684175  14.4411868  39.9967689  73.5243800  11.1764191  40.8937147
  72.9881157  10.7254930  41.5458744  72.9360509  11.3110100  40.1507612
  71.8192344  27.9428241  34.7881806  72.0588942  28.5746765  35.4660824
  70.9761540  27.5916281  35.0747165  72.9346059  10.6352843  23.4563611
  72.0575526  10.5141643  23.0925858  73.4103812   9.8438921  23.2042500
  82.8019052  19.0905911  40.2262067  81.9145831  18.7531832  40.3488466
  83.3717603  18.3588942  40.4630832  64.4548200  15.4230002  33.5505118
  65.1419239  15.1091732  32.9626133  64.2996328  16.3271367  33.2772370
  69.2582922  10.3120199  37.9790142  69.1741110   9.7045869  37.2440552
  68.4365628  10.8029217  37.9799638  76.3320206  23.7507363  37.1923310
  76.2590377  24.5562335  37.7042614  75.8897599  23.9499329  36.3671331
  76.1209985  22.9879133  30.7026131  75.3377507  23.5300813  30.7964356
  76.8202731  23.5053113  31.1020373  79.4306636   8.7973763  33.3460337
  79.9275335   8.0443725  33.0261407  78.6593617   8.8338079  32.7803546
  87.2836393  14.5014128  34.9878628  87.2726269  15.3838843  34.6172561
  86.4153772  14.1485679  34.7933165  78.7918889  23.6494197  39.3481469
  79.5046862  24.2841662  39.2757370  78.3008918  23.7458063  38.5321470
  80.5136416  17.5545450  30.9198760  79.5792695  17.6746912  30.7503465
  80.6913085  16.6517917  30.6558770  76.0141604  10.9391146  33.0732021
  75.6439392  10.3862186  33.7612927  76.5100697  10.3349279  32.5207021
  83.9008968  13.3962769  31.4548794  84.3669420  14.2290761  31.3809097
  84.3516468  12.9307751  32.1594053  73.8430803  21.3988641  40.1687039
  74.5440262  22.0325123  40.3216434  73.3725918  21.7403372  39.4082679
  81.9685199  19.7406590  28.4534946  82.2445043  19.6263185  29.3628820
  81.0989697  19.3424075  28.4147119  81.8725630   5.7643356  35.4939696
  80.9588710   5.9947583  35.6621903  82.3018732   5.8481800  36.3453728
  81.6432089  13.9533248  37.9939590  80.9903539  14.2009155  37.3392042
  82.0212469  13.1397386  37.6602067  78.6039263  23.9892941  32.0967760
  78.7861657  23.1714597  32.5595512  79.4272249  24.2060633  31.6592650
  78.9381428  22.9161126  29.3582809  79.4669195  22.4053581  28.7452971
  79.2009648  22.6003656  30.2228342  77.6919662  14.6953059  44.4805627
  77.0160299  14.5947188  45.1508002  78.5147296  14.5392273  44.9441624
  69.4398521  20.9324996  37.1018142  70.0251958  20.1868683  37.2346046
  69.2423359  21.2428952  37.9854806  72.2937176  23.9676243  32.1180584
  71.6247551  24.4522371  31.6344624  72.1550046  24.2145463  33.0323963
  64.0316176  13.5030596  35.8222585  64.0700275  12.9694186  36.6159703
  63.5256468  12.9765801  35.2033562  71.4106938   8.3495136  39.3185128
  71.4748264   9.2109967  38.9062525  71.3474058   7.7369138  38.5857486
  70.8859210  10.4218269  42.9658162  71.5131249  10.0395346  43.5795686
  70.0287129  10.2032471  43.3313854  67.6624753  12.2294698  28.8976517
  67.9578194  11.3205376  28.8443570  66.7612789  12.2082437  28.5757519
  71.1919000  10.3050695  34.8804065  70.4705586  10.9186662  34.7411539
  71.9812256  10.8408459  34.8020711  73.9945314   7.6405121  41.1544717
  74.5179716   7.8867418  41.9171026  73.7757647   8.4725156  40.7347854
  69.3912595   9.9108796  29.0215842  69.0625301   9.0306175  28.8390948
  69.7451966   9.8556464  29.9092231  78.6392174  21.5463698  33.5310827
  78.4917136  20.6180406  33.7118397  79.4645667  21.5683789  33.0467903
  72.5054418  10.1981765  29.3891319  72.8450490  10.7267687  28.6669928
  72.9526538  10.5362172  30.1649886  75.1997859   8.5818816  38.8394387
  74.8594679   7.7826629  39.2415067  74.4936865   8.8820527  38.2671221
  75.8514331   5.6668129  37.2921710  76.6740400   5.1928607  37.1700601
  76.0952394   6.4458612  37.7920397  74.4922565   8.6956387  27.5884612
  75.2130928   9.0737640  27.0848329  73.8687869   9.4145264  27.6919590
  78.6353688   9.4001536  28.5242945  78.8517302  10.2826174  28.2231773
  78.1547755   9.0087749  27.7948587  73.3752909  12.3587249  35.1013689
  73.2297490  12.6727552  35.9937971  72.8978113  12.9772150  34.5484588
  75.2349292   9.3489797  35.1494579  75.2210861   8.4530890  34.8126877
  75.9521720   9.3560461  35.7832865  77.0875423   9.7827137  37.1947706
  76.8293201  10.7044208  37.1932037  76.5560463   9.3857572  37.8848170
  82.0321612  22.8877924  29.9737791  82.2058489  22.3224347  29.2211644
  82.5250503  23.6878819  29.7917281  67.8498572  14.8992594  38.0401350
  67.3052040  15.6752402  38.1721625  68.7277921  15.2463398  37.8820472
  74.6386188   8.2304177  30.4182149  74.7602099   7.3020824  30.6173036
  74.3488231   8.2442863  29.5060464  77.5077379   5.9159088  33.5548869
  77.5299075   5.9798421  32.6000848  77.9245438   5.0763597  33.7489375
  87.8861003  15.6514347  31.5928091  88.3292149  14.9021673  31.1947214
  87.0087513  15.6424484  31.2101823  83.0196784  22.2044689  27.0734690
  83.7147689  22.8251382  27.2922004  83.3619934  21.3540040  27.3487068
  68.6364593  14.0262490  40.9331507  67.8946329  14.1745125  41.5196138
  68.3157338  14.2870755  40.0698257  84.9188207  19.6544394  28.6022021
  85.4439531  19.9931667  27.8771341  84.8310560  18.7191410  28.4185155
  76.6028868  25.7216378  32.9617274  76.1633858  25.2292756  33.6550130
  77.3536985  25.1789345  32.7209349  69.0821207  21.9127919  32.9641902
  69.9079227  21.6131690  32.5840545  68.7315259  21.1435541  33.4131690
  74.0502740  21.2654387  35.0339575  73.4282750  20.6025092  34.7341803
  74.7207607  21.2915519  34.3513223  67.2829812  19.8314245  33.9230835
  66.4461720  19.4036419  33.7414837  67.2553458  20.0246688  34.8601627
  74.1227268   9.7436175  44.6272081  74.1715423  10.6198298  44.2449851
  74.6649782   9.2013568  44.0543725  84.7279988  17.1369764  41.2205947
  84.7777993  16.9719772  42.1621470  84.6193912  16.2697023  40.8303828
  73.6116247  19.8158310  28.5098036  73.7604368  20.4993775  27.8564709
  74.4182691  19.7963400  29.0247492  82.0183751  13.1200692  42.5365254
  82.9193614  12.9807157  42.2449252  82.0931725  13.2855147  43.4763431
  76.3526556  10.4967547  41.3818440  75.4829866  10.7901113  41.1101029
  76.5886037  11.0807992  42.1025704  86.2298185  19.5566706  41.4647969
  85.9382994  19.9196687  42.3011430  85.6170317  18.8433714  41.2861301
  87.4293868  17.1219586  33.9850539  88.2640759  17.5609390  34.1488099
  87.5652996  16.6458239  33.1658785  84.4785374  14.6799321  39.9328027
  84.9539495  14.8726967  39.1246878  83.5550939  14.7358506  39.6871410
  71.3668880  15.8423488  29.5159105  71.1214922  14.9385818  29.7139315
  71.5364795  15.8440638  28.5738583  79.0565590   6.7147164  38.8983860
  79.5747534   7.4508191  38.5730349  78.7020723   7.0211157  39.7330620
  70.6364528  11.5751845  27.0145266  69.9433773  11.6496200  26.3585302
  70.3916280  10.8112189  27.5366783  77.1111653  22.3106441  25.9809783
  76.5385620  22.9296628  25.5280255  77.6844446  22.8605802  26.5149705
  83.1787043  11.5565081  38.1656332  84.1304465  11.6563178  38.1868556
  83.0090493  10.7643349  38.6754417  81.2001422   8.6420664  38.3515733
  80.6051354   8.9225677  37.6562222  80.9151119   9.1314565  39.1232474
  80.3308912  22.5943591  27.1118366  81.2639586  22.5289152  27.3151241
  80.2432125  23.4299858  26.6532898  82.9596929  21.9109461  24.0722313
  82.8810561  21.5769325  24.9658071  83.7806596  22.4031229  24.0713786
  85.6575120  14.7771200  37.2798632  85.6251440  13.8387201  37.4658316
  86.2675744  14.8555237  36.5464457  77.4958451  13.6467253  23.3225836
  78.4417556  13.5173461  23.3914254  77.1172696  12.9081915  23.7995264
  85.8069609  11.5682244  37.3256915  85.2908657  10.7840700  37.1386844
  86.6909557  11.2400960  37.4903434  83.4680336   5.3123259  33.2852728
  83.2705157   5.0038348  34.1696060  84.0780041   6.0384898  33.4150658
  91.4751670  15.8387207  36.4204669  92.2055059  15.5772495  36.9812372
  90.8658616  15.1015929  36.4606737  89.5566967  13.9795070  37.0179120
  88.8300131  13.8451035  36.4095611  89.1414254  14.2871898  37.8235838
  77.3797144  17.6984999  44.7826493  78.3000153  17.8763598  44.9766539
  77.3446727  16.7541045  44.6306192  75.6801368  11.5717230  23.2580721
  74.7732824  11.2750342  23.3343435  75.9577349  11.2747048  22.3915007
  66.5979309  12.8923593  33.7079767  66.2782093  12.0388901  33.4154141
  66.0512737  13.1072171  34.4637735  70.3759216  15.6086034  37.4249274
  70.5945226  16.5403142  37.4437308  70.7884990  15.2494009  38.2104078
  77.2963434   6.1154119  29.4124962  76.4864162   5.7701204  29.7880208
  77.9847851   5.8061663  30.0012574  79.2253982   5.1932166  31.0349259
  79.7785021   5.6127620  31.6939282  79.4624069   4.2667914  31.0772215
  75.2487082  11.1819240  46.8152023  75.1483808  12.1313597  46.7464114
  75.0308624  10.8537479  45.9428093  74.4500153   8.4304165  23.3992700
  75.3119317   8.7559063  23.6588518  74.6350497   7.6435661  22.8865766
  66.4667569  16.5126505  35.6772889  65.7731040  16.0980457  35.1642843
  67.2140560  16.5547041  35.0806308  82.6032789   7.3032691  30.5427923
  82.0231459   7.9617495  30.1605976  82.3368722   6.4810036  30.1315341
  81.0536356   6.7037749  32.7449244  81.5536134   6.8154284  31.9363562
  81.6971964   6.3998802  33.3850052  75.1118352  14.6116379  45.6317085
  74.6285433  15.4116739  45.8380974  75.1979291  14.6224324  44.6784529
  68.3804311  16.4444758  33.5538904  68.3574999  16.5432446  32.6020787
  68.6904948  17.2909909  33.8756070  71.0391689  18.5020913  37.6685518
  71.9934943  18.4704856  37.6015450  70.8404213  18.0411537  38.4835744
  71.6291071  17.0722029  40.2356316  72.4483960  17.5666108  40.2591153
  71.9027879  16.1553998  40.2073884  81.3857667   9.4632782  29.5984272
  80.4983522   9.7482432  29.3804466  81.8011657   9.3026545  28.7511548
  84.7372204   9.4879303  33.3138611  85.5132594   9.9775755  33.5863228
  84.0120338   9.9137357  33.7710480  87.1744762  10.2006922  34.3712551
  87.7689253   9.9602658  33.6605860  87.2471346   9.4814053  34.9986088
  69.3941918  24.0440533  34.6855716  69.2596386  23.2840934  34.1193714
  68.9773980  24.7681433  34.2184505  80.5300881  19.2277456  23.6932292
  81.2336731  19.4327459  24.3089947  79.8063530  19.7954218  23.9581375
  81.3598691  14.9787318  29.8134562  81.3033893  15.4355869  28.9742194
  81.9127034  14.2178002  29.6357404  85.1703497  10.7677050  30.6384681
  84.9140431  10.3673685  31.4692889  84.5456365  11.4820844  30.5134820
  89.4815835  13.5073123  33.1455973  88.9215393  13.5766312  33.9187535
  88.8759338  13.3314107  32.4255469  72.5511044  24.9409850  34.8974159
  72.4343428  25.8855282  34.7952849  71.7303490  24.6383411  35.2859958
  82.4387578  19.6659986  25.7430752  83.2733182  19.2341184  25.5608226
  82.2771921  19.4941999  26.6707646  82.0933471  16.1692099  27.1087091
  82.0382274  16.0036370  26.1675535  81.4679526  16.8768132  27.2649281
  66.8825986  11.4060163  40.9348513  67.5284849  10.8959117  41.4235738
  66.6743137  12.1428845  41.5091938  79.4079378  18.4741011  46.4340654
  80.2770537  18.6481663  46.0727289  78.9286129  19.2935428  46.3116383
  75.4029596   5.6700208  26.6872409  75.3908266   6.6142048  26.8440680
  76.2953018   5.4870353  26.3931870  75.3319160  24.3469098  34.7740166
  74.3814791  24.3470960  34.6604538  75.6351646  23.6001833  34.2576201
  71.2223477   8.5527780  45.0323527  72.0854938   8.1964585  45.2426852
  70.6488887   8.2141675  45.7198932  83.2403561  32.7452646  27.4745943
  84.0134437  32.1981633  27.3358819  83.5928960  33.6096895  27.6860405
  85.5769839  28.9045312  25.1064393  85.8295360  28.3826834  24.3447856
  84.6394398  28.7411458  25.2091077  96.0221549  27.8456324  33.8172115
  96.7546721  27.2755541  34.0509944  95.2660905  27.4577924  34.2578620
  85.2966128  30.8073418  27.3088768  85.1802386  30.1318322  27.9769852
  85.4068388  30.3205792  26.4920921  87.2803156  25.2973465  26.0096806
  87.4477558  26.1653701  26.3767277  87.0900325  25.4600747  25.0858095
  92.9577443  28.2252596  27.8223807  93.8695299  28.4579982  27.6471504
  92.4487090  28.8089640  27.2598885 101.9039010  31.0103515  33.6884424
 101.1502718  30.4410913  33.5328429 102.0386551  30.9766179  34.6355059
  90.6430101  19.4047479  37.8938037  90.2994371  20.2949121  37.8177148
  91.0109064  19.2149137  37.0307622  90.6080384  29.3956090  26.4010472
  90.0927007  30.1660695  26.6398860  90.3357692  28.7221226  27.0243534
  89.7226642  21.7752134  35.8587270  89.2191437  21.7382269  35.0455076
  90.0157248  22.6844877  35.9183927  85.9669527  21.8590864  34.8653452
  86.8322524  21.6633673  34.5059342  86.0347036  21.6301216  35.7922809
  95.5814658  32.1488445  28.3363646  94.8044101  31.8099604  27.8918808
  96.2606139  32.1541068  27.6618611  83.5731847  24.0893072  32.2369819
  84.1475598  23.8668253  31.5043012  84.1602829  24.1581766  32.9898420
  83.9001434  26.1197533  26.2565704  83.0638746  26.4572219  26.5774979
  83.7606203  25.9846513  25.3192841  85.8754514  20.9634321  30.9644888
  85.2218927  20.6483338  30.3401503  85.8334988  20.3410061  31.6904711
  86.9865719  31.2453616  22.8798180  86.0792781  31.0142869  23.0789329
  87.4836751  30.4491235  23.0672162  88.1653953  31.3466211  27.4022170
  87.2565172  31.0625244  27.4994640  88.1949036  31.7665289  26.5425477
  92.4417767  18.6641038  32.9955775  92.7476644  17.8038402  32.7081690
  93.1670372  19.2558658  32.7954769  87.8630040  32.8874954  24.7410249
  87.4249470  32.1710813  24.2815886  88.6040481  33.1151069  24.1795340
  95.9803155  31.1632151  30.7986568  95.8421054  31.3533747  29.8707757
  95.6239374  31.9251534  31.2554619  81.2288349  28.5935759  29.0678325
  80.2985937  28.5320214  29.2848287  81.3245821  28.0711712  28.2714966
  81.1473898  25.1190572  31.6556566  81.4080715  26.0335905  31.5465727
  81.9691070  24.6515014  31.8053179  91.9841268  31.7459336  24.3342307
  91.3670439  31.0206164  24.2375359  91.5157756  32.5068696  23.9909381
  83.7739814  25.9644760  23.4563611  82.8969280  25.8433561  23.0925858
  84.2497567  25.1730839  23.2042500  98.1230147  29.8306046  34.9878628
  98.1120024  30.7130761  34.6172561  97.2547527  29.4777597  34.7933165
  94.7402722  28.7254687  31.4548794  95.2063174  29.5582678  31.3809097
  95.1910223  28.2599668  32.1594053  92.7119385  21.0935274  35.4939696
  91.7982465  21.3239501  35.6621903  93.1412486  21.1773718  36.3453728
  78.5018508  27.5586616  28.8976517  78.7971949  26.6497294  28.8443570
  77.6006544  27.5374355  28.5757519  80.2306349  25.2400713  29.0215842
  79.9019055  24.3598092  28.8390948  80.5845720  25.1848382  29.9092231
  83.3448172  25.5273683  29.3891319  83.6844245  26.0559604  28.6669928
  83.7920293  25.8654089  30.1649886  86.6908085  20.9960046  37.2921710
  87.5134154  20.5220524  37.1700601  86.9346149  21.7750530  37.7920397
  85.3316320  24.0248305  27.5884612  86.0524682  24.4029557  27.0848329
  84.7081624  24.7437181  27.6919590  85.4779943  23.5596095  30.4182149
  85.5995854  22.6312741  30.6173036  85.1881985  23.5734781  29.5060464
  88.3471133  21.2451006  33.5548869  88.3692830  21.3090339  32.6000848
  88.7639192  20.4055514  33.7489375  98.7254757  30.9806265  31.5928091
  99.1685903  30.2313590  31.1947214  97.8481268  30.9716401  31.2101823
  93.8590539  37.5336607  27.0734690  94.5541443  38.1543299  27.2922004
  94.2013689  36.6831958  27.3487068  81.4758282  26.9043763  27.0145266
  80.7827527  26.9788118  26.3585302  81.2310034  26.1404107  27.5366783
  90.1471939  18.4639364  34.4184757  90.4273692  17.7962553  35.0445184
  90.9322546  18.6568460  33.9059421  93.7990684  37.2401379  24.0722313
  93.7204315  36.9061242  24.9658071  94.6200350  37.7323147  24.0713786
  88.3352206  28.9759171  23.3225836  89.2811310  28.8465379  23.3914254
  87.9566451  28.2373833  23.7995264  96.6463363  26.8974161  37.3256915
  96.1302412  26.1132618  37.1386844  97.5303312  26.5692878  37.4903434
  94.3074090  20.6415177  33.2852728  94.1098911  20.3330265  34.1696060
  94.9173796  21.3676816  33.4150658 102.3145425  31.1679125  36.4204669
 103.0448813  30.9064413  36.9812372 101.7052370  30.4307847  36.4606737
  86.5195123  26.9009147  23.2580721  85.6126578  26.6042260  23.3343435
  86.7971104  26.6038965  22.3915007  88.1357189  21.4446037  29.4124962
  87.3257917  21.0993122  29.7880208  88.8241605  21.1353581  30.0012574
  90.0647737  20.5224084  31.0349259  90.6178775  20.9419537  31.6939282
  90.3017823  19.5959832  31.0772215  85.2893907  23.7596083  23.3992700
  86.1513071  24.0850981  23.6588518  85.4744252  22.9727579  22.8865766
  93.4426544  22.6324609  30.5427923  92.8625213  23.2909413  30.1605976
  93.1762477  21.8101954  30.1315341  91.8930110  22.0329667  32.7449244
  92.3929889  22.1446201  31.9363562  92.5365718  21.7290720  33.3850052
  95.5765958  24.8171220  33.3138611  96.3526348  25.3067673  33.5863228
  94.8514092  25.2429275  33.7710480  98.0138517  25.5298840  34.3712551
  98.6083008  25.2894576  33.6605860  98.0865100  24.8105970  34.9986088
  91.3694635  34.5569374  23.6932292  92.0730486  34.7619377  24.3089947
  90.6457284  35.1246136  23.9581375  96.0097252  26.0968967  30.6384681
  95.7534186  25.6965603  31.4692889  95.3850120  26.8112761  30.5134820
 100.3209589  28.8365041  33.1455973  99.7609147  28.9058230  33.9187535
  99.7153093  28.6606025  32.4255469  93.2781333  34.9951903  25.7430752
  94.1126937  34.5633102  25.5608226  93.1165676  34.8233917  26.6707646
  92.9327225  31.4984017  27.1087091  92.8776029  31.3328288  26.1675535
  92.3073280  32.2060050  27.2649281  86.2423350  20.9992126  26.6872409
  86.2302020  21.9433966  26.8440680  87.1346772  20.8162271  26.3931870
  90.0575470  17.5934902  30.9418346  89.2907866  17.0393389  31.0875028
  90.4686175  17.6656771  31.8032498 101.9065608  45.5121554  35.8385928
 102.5444018  45.3928302  35.1349268 101.7886451  46.4602398  35.8973880
  98.7155314  45.4648983  35.7747453  98.3773826  45.3490047  34.8867988
  99.5845082  45.0640148  35.7548459  94.5742130  47.3184459  31.7644344
  94.0106995  47.2274396  30.9960632  94.4594525  46.4984363  32.2446836
  99.1975097  46.6183834  41.7333659  99.1863738  46.2236633  40.8614162
  99.3595737  45.8849907  42.3267430  92.1206562  48.8135651  34.6028564
  92.9127854  48.4726475  34.1874864  92.3603212  48.9230626  35.5230718
 100.1541689  50.9855427  27.0758809  99.5029668  51.5709507  26.6892823
 100.9486051  51.5161622  27.1353846  94.0797316  48.0744564  27.4745943
  94.8528192  47.5273551  27.3358819  94.4322715  48.9388813  27.6860405
  95.9182358  49.4020946  40.6812843  95.6272224  50.3066577  40.5659509
  96.5539343  49.4437474  41.3956912  96.8438565  46.7797795  37.2714202
  97.4402137  46.5553817  36.5571165  96.9013537  46.0382540  37.8739650
  96.4163594  44.2337230  25.1064393  96.6689114  43.7118751  24.3447856
  95.4788153  44.0703375  25.2091077 101.4606876  43.2373008  32.9139136
 102.2469966  42.8192431  32.5629553 101.7245581  44.1419100  33.0820785
 101.6316954  48.6745859  27.6127793 100.9962787  48.7480485  28.3248698
 101.3014360  49.2639457  26.9346872 106.8615304  43.1748241  33.8172115
 107.5940475  42.6047458  34.0509944 106.1054659  42.7869842  34.2578620
  96.1359882  46.1365336  27.3088768  96.0196140  45.4610239  27.9769852
  96.2462142  45.6497710  26.4920921  98.4791423  45.5975483  31.0135457
  98.1149630  45.0706104  31.7248379  99.3358539  45.2073952  30.8401943
 104.3840724  36.8869816  38.2766723 104.0524049  37.7565227  38.0527938
 103.7886337  36.5706100  38.9560754  98.1196910  40.6265383  26.0096806
  98.2871313  41.4945619  26.3767277  97.9294079  40.7892664  25.0858095
 100.8772243  49.0882362  37.6762636 100.5772967  49.9907400  37.5678443
 100.5323303  48.8214545  38.5283789  94.3284725  45.5396158  33.7099341
  93.4035221  45.4072373  33.9177032  94.5769138  46.3190378  34.2069283
 104.2769387  41.6064902  35.3560074 103.3686265  41.5380310  35.0618835
 104.2256983  42.0836847  36.1841899  98.0986131  43.0823040  26.9943473
  97.9785756  43.5280091  27.8328953  97.4038719  43.4308358  26.4357011
  95.8593023  55.8526682  30.6433604  95.7817053  56.8034507  30.7222084
  95.2554667  55.5072554  31.3008530 106.1431034  39.8081340  37.1337947
 105.5005414  40.1013873  36.4877742 105.6385962  39.6934261  37.9391144
 103.7971197  43.5544513  27.8223807 104.7089053  43.7871900  27.6471504
 103.2880844  44.1381558  27.2598885  96.6056625  45.8340001  42.8612938
  97.3471310  46.3725045  42.5847761  95.8993611  46.4606289  43.0184490
 102.0811965  47.9769141  41.4585099 102.4895321  47.5351552  40.7139732
 101.3589226  47.4021769  41.7119292 102.4040780  48.5370332  35.2137388
 101.7749642  48.7016046  34.5113456 102.0166442  48.9511941  35.9848352
 106.2830011  49.4724770  32.5681752 105.5981050  49.8523671  32.0178785
 106.3673861  50.0820096  33.3013700 103.5380943  47.1184729  39.1677095
 103.7497838  47.7616489  38.4911477 103.4910691  46.2847045  38.6999026
  97.9568741  48.2744740  32.4787473  98.4207087  48.5532443  31.6892096
  97.6925540  47.3728184  32.2960564  94.8492823  47.8216221  35.4167237
  95.4194180  48.2503490  34.7784721  95.4400934  47.5398806  36.1151422
  96.8937628  44.3967892  29.2877038  97.5961671  44.8488936  29.7550965
  96.5618256  43.7551711  29.9156932 104.6526771  49.9956684  37.3399453
 105.4744215  49.5936871  37.0582134 104.6489174  49.8924918  38.2915569
  98.4183374  49.5440727  39.4960163  98.4827807  50.0061135  40.3318335
  97.7094298  48.9138092  39.6242473 112.7432764  46.3395433  33.6884424
 111.9896472  45.7702831  33.5328429 112.8780305  46.3058097  34.6355059
  98.1331392  51.2108835  29.3639144  97.9977067  52.0560371  29.7923991
  98.6741205  51.4128113  28.6005077  91.5860790  48.7284273  29.9367069
  92.0985310  49.5227523  30.0872633  92.2383502  48.0310563  29.8700670
  93.3955674  51.8450029  32.0189822  93.5722303  52.7667994  31.8310806
  94.1912508  51.5308448  32.4484202  99.7599869  51.8332401  43.4939486
  99.3163723  51.0468780  43.1760390 100.4217082  52.0211552  42.8283377
  94.5186990  53.3628203  38.0200164  95.0694415  53.2345266  37.2477158
  93.6798466  53.6623092  37.6695057 101.8581107  52.1135201  41.5220887
 101.8399582  52.9344082  41.0301156 102.7801027  51.9889277  41.7471028
  98.3154161  49.6279331  42.3644395  98.8482498  48.8667619  42.1343703
  97.7868242  49.3352983  43.1068550  89.5509706  47.0572927  30.7126639
  90.3884928  47.4669936  30.4960347  89.7287974  46.1172369  30.6826833
 101.4474138  44.7248008  26.4010472 100.9320762  45.4952613  26.6398860
 101.1751447  44.0513144  27.0243534  99.0321249  39.5697709  31.4595711
  98.1762846  39.1804559  31.2801349  99.4448201  39.6489669  30.5995496
 106.4208413  47.4780363  28.3363646 105.6437855  47.1391522  27.8918808
 107.0999894  47.4832986  27.6618611 101.2360442  42.5975100  28.2270253
 100.9310577  42.9121249  29.0780397 102.1890884  42.6756520  28.2697586
  99.6806873  48.7565323  29.8763207  99.1528235  48.0218083  29.5636445
  99.1794376  49.5340000  29.6303176 104.6599719  46.9514344  34.9930254
 104.0023394  47.6413605  35.0810382 105.4640119  47.3410776  35.3364240
 103.4705178  45.3058716  33.0434195 103.9837060  45.9388708  33.5455905
 104.1206402  44.7059912  32.6777555  94.7395188  41.4489451  26.2565704
  93.9032500  41.7864137  26.5774979  94.5999958  41.3138430  25.3192841
  97.8259474  46.5745534  22.8798180  96.9186535  46.3434787  23.0789329
  98.3230506  45.7783153  23.0672162 100.7327553  55.2843041  25.7994867
 100.0589251  55.5874738  26.4079824 101.1193374  56.0872121  25.4500324
  99.9486009  42.7808172  35.2892536  99.0308570  43.0023119  35.1314224
 100.3646153  42.8554483  34.4304243 100.7321057  44.1799588  30.4195216
 101.4792876  44.6920985  30.1102338 101.0012646  43.8583640  31.2799610
  99.0047707  46.6758128  27.4022170  98.0958926  46.3917161  27.4994640
  99.0342791  47.0957207  26.5425477 104.2366974  50.2864718  31.1713338
 103.7829302  49.4455628  31.2278529 103.6060941  50.9226116  31.5088118
 103.1799894  41.2156704  32.4014006 102.4422651  40.7034090  32.7324248
 103.4326668  40.7757086  31.5897282 102.6799914  52.1241215  32.1063156
 102.9722888  52.6846272  31.3875522 103.1898534  52.4169776  32.8616315
 103.2811521  33.9932956  32.9955775 103.5870398  33.1330319  32.7081690
 104.0064126  34.5850576  32.7954769  97.5532601  44.2886749  33.5031966
  97.6081211  43.3360585  33.4274442  96.7423803  44.4446188  33.9873264
  98.7023795  48.2166872  24.7410249  98.2643225  47.5002731  24.2815886
  99.4434236  48.4442987  24.1795340  95.4924961  42.9063809  31.2622345
  94.6792827  43.2057979  31.6687537  95.9883955  42.5119498  31.9796827
  97.6433539  52.9021566  33.1956609  97.6009718  53.1282412  32.2665141
  98.5596238  52.6684940  33.3442411 101.0899173  43.3705633  40.0937239
 101.4448560  43.5977106  40.9531704 101.7371304  43.7024010  39.4714494
 106.8196910  46.4924069  30.7986568 106.6814808  46.6825665  29.8707757
 106.4633128  47.2543452  31.2554619 106.8466289  48.5600596  35.8097839
 107.2802796  48.4675885  36.6580893 107.5597870  48.5358097  35.1717855
  95.7599340  49.7784595  32.9918572  96.5539938  49.2834915  32.7901147
  95.0491032  49.2502458  32.6286278 100.5794184  52.1602690  37.3430940
 100.6331206  52.7293627  38.1108656  99.7108966  52.3304575  36.9784977
  92.0682103  43.9227676  29.0678325  91.1379691  43.8612132  29.2848287
  92.1639575  43.4003629  28.2714966 107.7081839  48.6024297  38.3430725
 107.9017729  49.5070107  38.5889999 107.6082457  48.1431716  39.1769310
 102.7696947  48.7531040  43.9171605 102.6182454  48.5241591  43.0001689
 102.7601627  49.7101641  43.9302950  99.5382284  46.3262952  38.9017872
 100.4674344  46.4774112  38.7286839  99.1173314  46.4146973  38.0466518
  98.3370616  50.3513617  36.6716409  98.1981701  49.9832401  37.5442347
  97.5485212  50.8661256  36.5000367  98.9318768  55.4522713  28.0141946
  99.1070523  54.9810756  28.8287568  98.2451556  56.0788479  28.2423206
  99.8875831  49.7295219  34.0605247  99.5525663  49.6895989  34.9562897
  99.3879777  49.0639935  33.5875657 102.8235022  47.0751254  24.3342307
 102.2064193  46.3498082  24.2375359 102.3551511  47.8360614  23.9909381
 104.4789154  51.7850162  41.9948087 104.4201700  51.1009382  41.3278670
 104.8808673  52.5269152  41.5428713  93.4979853  58.6012076  34.7881806
  93.7376451  59.2330600  35.4660824  92.6549049  58.2500116  35.0747165
  94.6133568  41.2936678  23.4563611  93.7363035  41.1725479  23.0925858
  95.0891321  40.5022756  23.2042500 104.4806561  49.7489746  40.2262067
 103.5933340  49.4115668  40.3488466 105.0505112  49.0172777  40.4630832
  98.0107715  54.4091198  37.1923310  97.9377886  55.2146170  37.7042614
  97.5685108  54.6083164  36.3671331  97.7997494  53.6462968  30.7026131
  97.0165016  54.1884649  30.7964356  98.4990240  54.1636948  31.1020373
 101.1094145  39.4557598  33.3460337 101.6062844  38.7027560  33.0261407
 100.3381126  39.4921915  32.7803546 108.9623902  45.1597963  34.9878628
 108.9513778  46.0422679  34.6172561 108.0941281  44.8069514  34.7933165
 100.4706398  54.3078032  39.3481469 101.1834371  54.9425497  39.2757370
  99.9796427  54.4041898  38.5321470 102.1923925  48.2129285  30.9198760
 101.2580204  48.3330748  30.7503465 102.3700594  47.3101752  30.6558770
  97.6929113  41.5974981  33.0732021  97.3226901  41.0446021  33.7612927
  98.1888206  40.9933114  32.5207021 105.5796477  44.0546604  31.4548794
 106.0456929  44.8874596  31.3809097 106.0303977  43.5891586  32.1594053
  95.5218312  52.0572476  40.1687039  96.2227771  52.6908959  40.3216434
  95.0513427  52.3987207  39.4082679 103.6472708  50.3990426  28.4534946
 103.9232552  50.2847020  29.3628820 102.7777206  50.0007911  28.4147119
 103.5513139  36.4227191  35.4939696 102.6376219  36.6531418  35.6621903
 103.9806241  36.5065635  36.3453728 103.3219598  44.6117083  37.9939590
 102.6691048  44.8592991  37.3392042 103.6999978  43.7981222  37.6602067
 100.2826772  54.6476777  32.0967760 100.4649166  53.8298432  32.5595512
 101.1059758  54.8644469  31.6592650 100.6168937  53.5744962  29.3582809
 101.1456704  53.0637416  28.7452971 100.8797157  53.2587492  30.2228342
  99.3707171  45.3536894  44.4805627  98.6947808  45.2531024  45.1508002
 100.1934805  45.1976108  44.9441624  91.1186030  51.5908831  37.1018142
  91.7039467  50.8452519  37.2346046  90.9210868  51.9012788  37.9854806
  93.9724685  54.6260078  32.1180584  93.3035060  55.1106206  31.6344624
  93.8337555  54.8729299  33.0323963  98.1129954  56.6603822  38.7163243
  98.6648262  56.8235443  39.4812328  98.4536147  57.2508260  38.0443268
 102.9640828  51.4865079  44.5711897 103.5080732  52.0995038  44.0766852
 102.3827673  52.0444658  45.0878910 101.2498341  54.6085797  35.7026925
 101.1249480  53.8075537  35.1937870 101.9077432  55.1031991  35.2140895
 103.3133249  52.4094817  37.3306475 102.3663585  52.2900169  37.2584802
 103.6616022  51.5217315  37.4132736 100.3179683  52.2047534  33.5310827
 100.1704645  51.2764241  33.7118397 101.1433176  52.2267624  33.0467903
  94.1841927  40.8565601  29.3891319  94.5237999  41.3851522  28.6669928
  94.6314047  41.1946007  30.1649886 103.9213805  53.0276092  34.6175700
 104.8460352  52.8218954  34.4800151 103.7529108  52.7792494  35.5265042
  96.1710074  39.3540222  27.5884612  96.8918437  39.7321475  27.0848329
  95.5475378  40.0729099  27.6919590 100.3141197  40.0585371  28.5242945
 100.5304811  40.9410009  28.2231773  99.8335264  39.6671585  27.7948587
 103.7109121  53.5461760  29.9737791 103.8845998  52.9808182  29.2211644
 104.2038012  54.3462655  29.7917281 109.5648512  46.3098183  31.5928091
 110.0079658  45.5605508  31.1947214 108.6875022  46.3008319  31.2101823
 104.6984293  52.8628524  27.0734690 105.3935198  53.4835217  27.2922004
 105.0407443  52.0123875  27.3487068 106.5975716  50.3128230  28.6022021
 107.1227040  50.6515503  27.8771341 106.5098069  49.3775245  28.4185155
  98.2595765  54.2262303  40.7311897  98.5682891  53.9811450  41.6034597
  99.0571247  54.4308942  40.2430767  98.2816377  56.3800213  32.9617274
  97.8421367  55.8876592  33.6550130  99.0324494  55.8373181  32.7209349
  90.7608716  52.5711754  32.9641902  91.5866736  52.2715526  32.5840545
  90.4102768  51.8019376  33.4131690  95.7290249  51.9238222  35.0339575
  95.1070259  51.2608927  34.7341803  96.3995116  51.9499354  34.3513223
  88.9617321  50.4898080  33.9230835  88.1249229  50.0620255  33.7414837
  88.9340967  50.6830524  34.8601627 106.2869622  50.9461133  43.9073219
 105.4965166  50.9285272  43.3677718 106.0502977  51.4849427  44.6622255
 106.4067497  47.7953600  41.2205947 106.4565502  47.6303607  42.1621470
 106.2981421  46.9280859  40.8303828  95.2903756  50.4742145  28.5098036
  95.4391877  51.1577610  27.8564709  96.0970200  50.4547236  29.0247492
 103.6971260  43.7784528  42.5365254 104.5981123  43.6390993  42.2449252
 103.7719234  43.9438983  43.4763431 107.9085694  50.2150541  41.4647969
 107.6170503  50.5780522  42.3011430 107.2957826  49.5017550  41.2861301
 109.1081377  47.7803421  33.9850539 109.9428268  48.2193225  34.1488099
 109.2440505  47.3042074  33.1658785 106.1572883  45.3383156  39.9328027
 106.6327004  45.5310802  39.1246878 105.2338448  45.3942342  39.6871410
  93.0456389  46.5007323  29.5159105  92.8002431  45.5969653  29.7139315
  93.2152304  46.5024474  28.5738583  92.3152037  42.2335681  27.0145266
  91.6221282  42.3080036  26.3585302  92.0703789  41.4696024  27.5366783
  98.7899162  52.9690276  25.9809783  98.2173129  53.5880463  25.5280255
  99.3631955  53.5189638  26.5149705 104.8574552  42.2148916  38.1656332
 105.8091974  42.3147014  38.1868556 104.6878002  41.4227185  38.6754417
 102.0096421  53.2527426  27.1118366 102.9427095  53.1872988  27.3151241
 101.9219634  54.0883693  26.6532898 104.6384438  52.5693296  24.0722313
 104.5598070  52.2353160  24.9658071 105.4594105  53.0615064  24.0713786
 107.3362629  45.4355036  37.2798632 107.3038949  44.4971036  37.4658316
 107.9463253  45.5139072  36.5464457  99.1745960  44.3051089  23.3225836
 100.1205065  44.1757297  23.3914254  98.7960205  43.5665751  23.7995264
 107.4857118  42.2266079  37.3256915 106.9696166  41.4424536  37.1386844
 108.3697066  41.8984796  37.4903434 105.1467845  35.9707095  33.2852728
 104.9492666  35.6622183  34.1696060 105.7567550  36.6968734  33.4150658
 113.1539179  46.4971043  36.4204669 113.8842568  46.2356331  36.9812372
 112.5446125  45.7599765  36.4606737 111.2354476  44.6378905  37.0179120
 110.5087640  44.5034870  36.4095611 110.8201763  44.9455734  37.8235838
  99.0584653  48.3568835  44.7826493  99.9787662  48.5347434  44.9766539
  99.0234236  47.4124880  44.6306192  97.3588877  42.2301065  23.2580721
  96.4520333  41.9334178  23.3343435  97.6364858  41.9330883  22.3915007
 100.9041491  35.8516002  31.0349259 101.4572530  36.2711455  31.6939282
 101.1411578  34.9251750  31.0772215  96.1287662  39.0888000  23.3992700
  96.9906826  39.4142899  23.6588518  96.3138006  38.3019496  22.8865766
 104.2820298  37.9616527  30.5427923 103.7018967  38.6201331  30.1605976
 104.0156231  37.1393871  30.1315341 102.7323865  37.3621584  32.7449244
 103.2323643  37.4738119  31.9363562 103.3759473  37.0582637  33.3850052
  96.7905861  45.2700214  45.6317085  96.3072942  46.0700574  45.8380974
  96.8766800  45.2808159  44.6784529  90.0591820  47.1028594  33.5538904
  90.0362508  47.2016281  32.6020787  90.3692457  47.9493745  33.8756070
  92.7179198  49.1604749  37.6685518  93.6722452  49.1288691  37.6015450
  92.5191722  48.6995373  38.4835744 103.0645176  40.1216617  29.5984272
 102.1771031  40.4066268  29.3804466 103.4799166  39.9610381  28.7511548
 106.4159713  40.1463138  33.3138611 107.1920103  40.6359591  33.5863228
 105.6907847  40.5721192  33.7710480 108.8532271  40.8590757  34.3712551
 109.4476762  40.6186493  33.6605860 108.9258855  40.1397888  34.9986088
  91.0729427  54.7024368  34.6855716  90.9383895  53.9424769  34.1193714
  90.6561489  55.4265268  34.2184505 102.2088390  49.8861292  23.6932292
 102.9124240  50.0911294  24.3089947 101.4851039  50.4538054  23.9581375
 103.0386200  45.6371153  29.8134562 102.9821402  46.0939705  28.9742194
 103.5914543  44.8761838  29.6357404 106.8491006  41.4260885  30.6384681
 106.5927940  41.0257521  31.4692889 106.2243874  42.1404679  30.5134820
 111.1603344  44.1656958  33.1455973 110.6002902  44.2350148  33.9187535
 110.5546847  43.9897943  32.4255469  94.2298553  55.5993685  34.8974159
  94.1130937  56.5439118  34.7952849  93.4090999  55.2967247  35.2859958
 104.1175087  50.3243821  25.7430752 104.9520691  49.8925019  25.5608226
 103.9559430  50.1525835  26.6707646 103.7720980  46.8275934  27.1087091
 103.7169783  46.6620206  26.1675535 103.1467035  47.5351967  27.2649281
 101.0866887  49.1324846  46.4340654 101.9558046  49.3065498  46.0727289
 100.6073638  49.9519263  46.3116383  97.0817105  36.3284043  26.6872409
  97.0695775  37.2725883  26.8440680  97.9740527  36.1454189  26.3931870
  95.2553067  56.2521947  38.1130087  96.1580314  56.2845557  38.4296582
  95.0290437  55.3222398  38.1276423  97.0106669  55.0052934  34.7740166
  96.0602300  55.0054795  34.6604538  97.3139155  54.2585668  34.2576201
 100.8969224  32.9226820  30.9418346 100.1301620  32.3685307  31.0875028
 101.3079929  32.9948689  31.8032498 112.7459362  60.8413472  35.8385928
 113.3837772  60.7220219  35.1349268 112.6280205  61.7894316  35.8973880
 109.5549069  60.7940900  35.7747453 109.2167580  60.6781965  34.8867988
 110.4238837  60.3932065  35.7548459 105.4135884  62.6476377  31.7644344
 104.8500750  62.5566314  30.9960632 105.2988279  61.8276281  32.2446836
 110.0368852  61.9475752  41.7333659 110.0257492  61.5528550  40.8614162
 110.1989491  61.2141825  42.3267430 102.9600316  64.1427568  34.6028564
 103.7521608  63.8018393  34.1874864 103.1996966  64.2522543  35.5230718
 110.9935443  66.3147344  27.0758809 110.3423423  66.9001425  26.6892823
 111.7879806  66.8453539  27.1353846 104.9191070  63.4036481  27.4745943
 105.6921946  62.8565469  27.3358819 105.2716469  64.2680731  27.6860405
 106.7576113  64.7312864  40.6812843 106.4665979  65.6358495  40.5659509
 107.3933097  64.7729391  41.3956912 107.6832320  62.1089712  37.2714202
 108.2795892  61.8845735  36.5571165 107.7407291  61.3674458  37.8739650
 107.2557348  59.5629148  25.1064393 107.5082869  59.0410669  24.3447856
 106.3181907  59.3995293  25.2091077 112.3000631  58.5664926  32.9139136
 113.0863720  58.1484349  32.5629553 112.5639335  59.4711018  33.0820785
 112.4710708  64.0037776  27.6127793 111.8356541  64.0772403  28.3248698
 112.1408115  64.5931375  26.9346872 117.7009058  58.5040159  33.8172115
 118.4334230  57.9339376  34.0509944 116.9448414  58.1161760  34.2578620
 106.9753637  61.4657254  27.3088768 106.8589895  60.7902157  27.9769852
 107.0855897  60.9789627  26.4920921 109.3185178  60.9267401  31.0135457
 108.9543385  60.3998022  31.7248379 110.1752294  60.5365870  30.8401943
 115.2234478  52.2161733  38.2766723 114.8917803  53.0857144  38.0527938
 114.6280092  51.8998017  38.9560754 108.9590665  55.9557300  26.0096806
 109.1265067  56.8237537  26.3767277 108.7687834  56.1184582  25.0858095
 111.7165998  64.4174279  37.6762636 111.4166721  65.3199318  37.5678443
 111.3717057  64.1506462  38.5283789 105.1678479  60.8688076  33.7099341
 104.2428976  60.7364290  33.9177032 105.4162893  61.6482295  34.2069283
 115.1163142  56.9356819  35.3560074 114.2080019  56.8672228  35.0618835
 115.0650737  57.4128764  36.1841899 108.9379886  58.4114958  26.9943473
 108.8179511  58.8572009  27.8328953 108.2432474  58.7600276  26.4357011
 102.5287290  60.5121350  34.5443130 102.6579672  60.7655829  35.4582541
 101.8484742  61.1049058  34.2247785 106.6986778  71.1818600  30.6433604
 106.6210807  72.1326425  30.7222084 106.0948421  70.8364472  31.3008530
 109.1904007  58.3546465  43.2994971 108.4137342  58.9140385  43.2897835
 109.8294571  58.8403248  43.8209841 116.9824788  55.1373258  37.1337947
 116.3399168  55.4305791  36.4877742 116.4779717  55.0226178  37.9391144
 114.6364952  58.8836431  27.8223807 115.5482808  59.1163818  27.6471504
 114.1274599  59.4673475  27.2598885 107.4450380  61.1631918  42.8612938
 108.1865064  61.7016962  42.5847761 106.7387365  61.7898207  43.0184490
 112.9205719  63.3061059  41.4585099 113.3289075  62.8643469  40.7139732
 112.1982981  62.7313686  41.7119292 109.2736789  58.2433666  38.8318656
 110.1197985  58.6673079  38.9753305 109.2135427  57.5867290  39.5257219
 113.2434534  63.8662249  35.2137388 112.6143397  64.0307964  34.5113456
 112.8560196  64.2803859  35.9848352 117.1223766  64.8016687  32.5681752
 116.4374804  65.1815589  32.0178785 117.2067615  65.4112014  33.3013700
 112.4236235  55.9038034  40.4899830 112.1797167  56.6580095  39.9534106
 112.6996165  56.2823382  41.3247077 114.3774698  62.4476646  39.1677095
 114.5891593  63.0908406  38.4911477 114.3304446  61.6138963  38.6999026
 111.9800927  55.0594467  36.0713668 111.1185406  55.3575721  36.3630405
 112.0063361  55.2764866  35.1394700 108.7962496  63.6036658  32.4787473
 109.2600841  63.8824361  31.6892096 108.5319294  62.7020102  32.2960564
 105.6886577  63.1508139  35.4167237 106.2587934  63.5795407  34.7784721
 106.2794689  62.8690724  36.1151422 107.7331382  59.7259810  29.2877038
 108.4355425  60.1780854  29.7550965 107.4012011  59.0843629  29.9156932
 106.1811744  58.3171567  43.6628248 105.5510404  58.9987847  43.8963645
 106.0747831  58.2054648  42.7181386 101.4756716  57.9843363  34.5894172
 100.6855770  58.2400891  34.1134283 101.9667963  58.7991700  34.6946213
 115.4920526  65.3248602  37.3399453 116.3137969  64.9228789  37.0582134
 115.4882928  65.2216836  38.2915569 103.4271461  58.3487942  31.5477649
 102.6302625  58.4606636  32.0661144 103.1997054  58.6874594  30.6818539
 109.2577129  64.8732645  39.4960163 109.3221561  65.3353052  40.3318335
 108.5488053  64.2430010  39.6242473  99.7594419  58.2373853  37.0209163
 100.0102457  59.1220863  37.2866739 100.2953967  58.0578455  36.2484255
 108.9725147  66.5400753  29.3639144 108.8370821  67.3852288  29.7923991
 109.5134959  66.7420030  28.6005077 105.4592486  52.6192332  46.0253499
 105.0659432  52.0658531  46.7001143 106.2758627  52.9302911  46.4160016
 102.4254544  64.0576191  29.9367069 102.9379065  64.8519441  30.0872633
 103.0777257  63.3602481  29.8700670 104.2349429  67.1741947  32.0189822
 104.4116057  68.0959912  31.8310806 105.0306262  66.8600366  32.4484202
 108.3760447  54.0350212  43.6173755 109.1170161  54.6357365  43.5378218
 108.6078370  53.2927849  43.0591798 103.5201785  59.2206579  41.8951985
 103.4055300  58.3191836  42.1959084 102.6646303  59.4670276  41.5436802
 110.5993623  67.1624319  43.4939486 110.1557477  66.3760698  43.1760390
 111.2610837  67.3503470  42.8283377 105.3580744  68.6920121  38.0200164
 105.9088169  68.5637184  37.2477158 104.5192220  68.9915010  37.6695057
 112.6974861  67.4427119  41.5220887 112.6793336  68.2636000  41.0301156
 113.6194781  67.3181194  41.7471028 109.1547915  64.9571249  42.3644395
 109.6876252  64.1959537  42.1343703 108.6261996  64.6644900  43.1068550
 112.3217610  50.0631314  37.8938037 111.9781880  50.9532956  37.8177148
 112.6896573  49.8732972  37.0307622 100.3903461  62.3864845  30.7126639
 101.2278683  62.7961853  30.4960347 100.5681728  61.4464287  30.6826833
 112.2867893  60.0539926  26.4010472 111.7714516  60.8244530  26.6398860
 112.0145201  59.3805062  27.0243534 109.8715004  54.8989626  31.4595711
 109.0156600  54.5096477  31.2801349 110.2841956  54.9781587  30.5995496
 111.4014151  52.4335970  35.8587270 110.8978946  52.3966105  35.0455076
 111.6944757  53.3428712  35.9183927 107.6457036  52.5174699  34.8653452
 108.5110033  52.3217508  34.5059342 107.7134545  52.2885051  35.7922809
 117.2602167  62.8072280  28.3363646 116.4831610  62.4683440  27.8918808
 117.9393648  62.8124903  27.6618611 112.0754196  57.9267018  28.2270253
 111.7704332  58.2413167  29.0780397 113.0284638  58.0048438  28.2697586
 110.5200628  64.0857241  29.8763207 109.9921990  63.3510001  29.5636445
 110.0188131  64.8631917  29.6303176 115.4993474  62.2806261  34.9930254
 114.8417148  62.9705523  35.0810382 116.3033873  62.6702693  35.3364240
 105.2519356  54.7476907  32.2369819 105.8263107  54.5252089  31.5043012
 105.8390338  54.8165602  32.9898420 114.3098933  60.6350634  33.0434195
 114.8230815  61.2680626  33.5455905 114.9600157  60.0351830  32.6777555
 105.5788943  56.7781368  26.2565704 104.7426255  57.1156055  26.5774979
 105.4393712  56.6430348  25.3192841 107.5542023  51.6218156  30.9644888
 106.9006436  51.3067173  30.3401503 107.5122497  50.9993897  31.6904711
 108.6653228  61.9037451  22.8798180 107.7580290  61.6726705  23.0789329
 109.1624260  61.1075070  23.0672162 111.5721307  70.6134958  25.7994867
 110.8983006  70.9166655  26.4079824 111.9587129  71.4164039  25.4500324
 110.7879764  58.1100090  35.2892536 109.8702325  58.3315037  35.1314224
 111.2039907  58.1846400  34.4304243 111.5714811  59.5091505  30.4195216
 112.3186630  60.0212903  30.1102338 111.8406401  59.1875558  31.2799610
 109.8441462  62.0050046  27.4022170 108.9352681  61.7209079  27.4994640
 109.8736545  62.4249125  26.5425477 115.0760729  65.6156636  31.1713338
 114.6223056  64.7747545  31.2278529 114.4454696  66.2518034  31.5088118
 114.0193649  56.5448622  32.4014006 113.2816405  56.0326008  32.7324248
 114.2720422  56.1049003  31.5897282 113.5193668  67.4533132  32.1063156
 113.8116643  68.0138189  31.3875522 114.0292289  67.7461693  32.8616315
 114.1205276  49.3224874  32.9955775 114.4264153  48.4622237  32.7081690
 114.8457881  49.9142494  32.7954769 100.4129632  59.7255560  31.3837373
 100.2154032  59.1324921  30.6588439  99.8576296  59.4207770  32.1013311
 108.3926356  59.6178667  33.5031966 108.4474965  58.6652503  33.4274442
 107.5817558  59.7738106  33.9873264 109.5417549  63.5458790  24.7410249
 109.1036979  62.8294649  24.2815886 110.2827990  63.7734905  24.1795340
 106.3318716  58.2355726  31.2622345 105.5186581  58.5349897  31.6687537
 106.8277710  57.8411415  31.9796827 108.4827293  68.2313483  33.1956609
 108.4403472  68.4574330  32.2665141 109.3989992  67.9976858  33.3442411
 111.9292927  58.6997551  40.0937239 112.2842315  58.9269024  40.9531704
 112.5765058  59.0315928  39.4714494 117.6590664  61.8215987  30.7986568
 117.5208563  62.0117583  29.8707757 117.3026883  62.5835370  31.2554619
 105.8232790  55.8074082  36.8783580 106.4632170  55.6662841  36.1806543
 104.9910321  55.5208595  36.5022182 117.6860044  63.8892514  35.8097839
 118.1196550  63.7967803  36.6580893 118.3991624  63.8650014  35.1717855
 106.5993094  65.1076512  32.9918572 107.3933693  64.6126833  32.7901147
 105.8884787  64.5794376  32.6286278 111.4187939  67.4894608  37.3430940
 111.4724961  68.0585544  38.1108656 110.5502720  67.6596493  36.9784977
 102.9075858  59.2519594  29.0678325 101.9773446  59.1904050  29.2848287
 103.0033330  58.7295547  28.2714966 102.8261407  55.7774407  31.6556566
 103.0868224  56.6919740  31.5465727 103.6478579  55.3098850  31.8053179
 104.2986332  57.1912164  38.8255391 104.9709385  56.9829526  38.1768040
 103.4716119  56.9934250  38.3860623 118.5475593  63.9316214  38.3430725
 118.7411483  64.8362025  38.5889999 118.4476211  63.4723634  39.1769310
 110.2011904  53.8174105  40.8421052 109.5539819  54.5164055  40.7485528
 110.9712919  54.2510249  41.2097300 113.6090702  64.0822957  43.9171605
 113.4576208  63.8533509  43.0001689 113.5995381  65.0393559  43.9302950
 110.3776038  61.6554870  38.9017872 111.3068098  61.8066030  38.7286839
 109.9567068  61.7438891  38.0466518 109.1764370  65.6805534  36.6716409
 109.0375456  65.3124319  37.5442347 108.3878966  66.1953174  36.5000367
 109.7712522  70.7814631  28.0141946 109.9464278  70.3102674  28.8287568
 109.0845310  71.4080397  28.2423206 110.7269585  65.0587137  34.0605247
 110.3919418  65.0187907  34.9562897 110.2273531  64.3931853  33.5875657
 104.7013829  60.4654767  39.5857828 104.5633627  59.7335006  40.1869367
 105.6118753  60.3763667  39.3042016 113.6628777  62.4043171  24.3342307
 113.0457948  61.6790000  24.2375359 113.1945265  63.1652532  23.9909381
 107.3296130  60.1774726  39.0741508 108.0395748  59.5367919  39.0328126
 107.2865438  60.4287621  39.9967689 115.3182909  67.1142080  41.9948087
 115.2595455  66.4301300  41.3278670 115.7202427  67.8561070  41.5428713
 106.0425064  57.1639944  40.8937147 105.5062421  56.7130683  41.5458744
 105.4541772  57.2985853  40.1507612 104.3373607  73.9303994  34.7881806
 104.5770206  74.5622518  35.4660824 103.4942804  73.5792034  35.0747165
 105.4527323  56.6228596  23.4563611 104.5756789  56.5017397  23.0925858
 105.9285076  55.8314674  23.2042500 115.3200316  65.0781664  40.2262067
 114.4327095  64.7407586  40.3488466 115.8898867  64.3464695  40.4630832
  96.9729463  61.4105755  33.5505118  97.6600503  61.0967485  32.9626133
  96.8177592  62.3147120  33.2772370 101.7764185  56.2995952  37.9790142
 101.6922374  55.6921622  37.2440552 100.9546892  56.7904970  37.9799638
 108.8501469  69.7383116  37.1923310 108.7771641  70.5438088  37.7042614
 108.4078862  69.9375082  36.3671331 108.6391249  68.9754886  30.7026131
 107.8558771  69.5176566  30.7964356 109.3383994  69.4928866  31.1020373
 111.9487899  54.7849516  33.3460337 112.4456599  54.0319478  33.0261407
 111.1774881  54.8213832  32.7803546 119.8017656  60.4889881  34.9878628
 119.7907533  61.3714597  34.6172561 118.9335036  60.1361432  34.7933165
 111.3100153  69.6369950  39.3481469 112.0228125  70.2717415  39.2757370
 110.8190181  69.7333816  38.5321470 113.0317680  63.5421203  30.9198760
 112.0973958  63.6622665  30.7503465 113.2094348  62.6393670  30.6558770
 108.5322868  56.9266899  33.0732021 108.1620655  56.3737939  33.7612927
 109.0281960  56.3225032  32.5207021 116.4190231  59.3838522  31.4548794
 116.8850683  60.2166514  31.3809097 116.8697732  58.9183504  32.1594053
 106.3612066  67.3864394  40.1687039 107.0621526  68.0200877  40.3216434
 105.8907181  67.7279125  39.4082679 114.4866462  65.7282343  28.4534946
 114.7626306  65.6138938  29.3628820 113.6170961  65.3299828  28.4147119
 114.3906894  51.7519109  35.4939696 113.4769974  51.9823336  35.6621903
 114.8199995  51.8357553  36.3453728 114.1613352  59.9409001  37.9939590
 113.5084803  60.1884908  37.3392042 114.5393732  59.1273139  37.6602067
 111.1220526  69.9768694  32.0967760 111.3042921  69.1590350  32.5595512
 111.9453512  70.1936386  31.6592650 111.4562692  68.9036879  29.3582809
 111.9850458  68.3929334  28.7452971 111.7190911  68.5879410  30.2228342
 110.2100925  60.6828812  44.4805627 109.5341562  60.5822941  45.1508002
 111.0328559  60.5268026  44.9441624 101.9579784  66.9200749  37.1018142
 102.5433221  66.1744437  37.2346046 101.7604623  67.2304705  37.9854806
 104.8118440  69.9551996  32.1180584 104.1428815  70.4398124  31.6344624
 104.6731309  70.2021216  33.0323963  96.5497439  59.4906349  35.8222585
  96.5881539  58.9569940  36.6159703  96.0437732  58.9641554  35.2033562
 108.9523708  71.9895740  38.7163243 109.5042016  72.1527361  39.4812328
 109.2929902  72.5800177  38.0443268 103.9288201  54.3370889  39.3185128
 103.9929528  55.1985720  38.9062525 103.8655322  53.7244891  38.5857486
 103.4040474  56.4094022  42.9658162 104.0312513  56.0271099  43.5795686
 102.5468393  56.1908224  43.3313854 113.8034583  66.8156997  44.5711897
 114.3474487  67.4286955  44.0766852 113.2221427  67.3736575  45.0878910
 100.1806017  58.2170451  28.8976517 100.4759458  57.3081129  28.8443570
  99.2794052  58.1958190  28.5757519 112.0892095  69.9377715  35.7026925
 111.9643235  69.1367455  35.1937870 112.7471187  70.4323908  35.2140895
 103.7100264  56.2926448  34.8804065 102.9886849  56.9062415  34.7411539
 104.4993519  56.8284212  34.8020711 114.1527004  67.7386735  37.3306475
 113.2057339  67.6192086  37.2584802 114.5009777  66.8509233  37.4132736
 106.5126577  53.6280874  41.1544717 107.0360979  53.8743171  41.9171026
 106.2938911  54.4600909  40.7347854 101.9093858  55.8984549  29.0215842
 101.5806564  55.0181928  28.8390948 102.2633229  55.8432217  29.9092231
 111.1573437  67.5339451  33.5310827 111.0098400  66.6056159  33.7118397
 111.9826931  67.5559542  33.0467903 105.0235681  56.1857518  29.3891319
 105.3631754  56.7143440  28.6669928 105.4707802  56.5237925  30.1649886
 114.7607559  68.3568010  34.6175700 115.6854106  68.1510871  34.4800151
 114.5922862  68.1084411  35.5265042 107.7179122  54.5694569  38.8394387
 107.3775943  53.7702382  39.2415067 107.0118129  54.8696280  38.2671221
 108.3695594  51.6543882  37.2921710 109.1921663  51.1804360  37.1700601
 108.6133658  52.4334365  37.7920397 107.0103829  54.6832140  27.5884612
 107.7312191  55.0613393  27.0848329 106.3869133  55.4021017  27.6919590
 111.1534951  55.3877289  28.5242945 111.3698566  56.2701927  28.2231773
 110.6729019  54.9963502  27.7948587 105.8934173  58.3463002  35.1013689
 105.7478754  58.6603305  35.9937971 105.4159376  58.9647903  34.5484588
 107.7530556  55.3365550  35.1494579 107.7392125  54.4406644  34.8126877
 108.4702984  55.3436214  35.7832865 109.6056686  55.7702890  37.1947706
 109.3474464  56.6919961  37.1932037 109.0741727  55.3733325  37.8848170
 114.5502875  68.8753678  29.9737791 114.7239753  68.3100100  29.2211644
 115.0431766  69.6754572  29.7917281 100.3679835  60.8868347  38.0401350
  99.8233303  61.6628155  38.1721625 101.2459185  61.2339151  37.8820472
 107.1567452  54.2179930  30.4182149 107.2783363  53.2896577  30.6173036
 106.8669494  54.2318616  29.5060464 110.0258642  51.9034841  33.5548869
 110.0480339  51.9674174  32.6000848 110.4426701  51.0639350  33.7489375
 120.4042266  61.6390100  31.5928091 120.8473412  60.8897426  31.1947214
 119.5268777  61.6300237  31.2101823 115.5378048  68.1920442  27.0734690
 116.2328952  68.8127135  27.2922004 115.8801198  67.3415793  27.3487068
 101.1545857  60.0138243  40.9331507 100.4127593  60.1620878  41.5196138
 100.8338601  60.2746508  40.0698257 117.4369471  65.6420147  28.6022021
 117.9620795  65.9807420  27.8771341 117.3491823  64.7067163  28.4185155
 109.0989520  69.5554221  40.7311897 109.4076646  69.3103368  41.6034597
 109.8965002  69.7600860  40.2430767 109.1210132  71.7092131  32.9617274
 108.6815122  71.2168509  33.6550130 109.8718249  71.1665098  32.7209349
 101.6002471  67.9003672  32.9641902 102.4260490  67.6007443  32.5840545
 101.2496523  67.1311294  33.4131690 106.5684004  67.2530140  35.0339575
 105.9464013  66.5900845  34.7341803 107.2388871  67.2791272  34.3513223
  99.8011076  65.8189998  33.9230835  98.9642984  65.3912172  33.7414837
  99.7734721  66.0122441  34.8601627 106.6408531  55.7311928  44.6272081
 106.6896687  56.6074051  44.2449851 107.1831045  55.1889321  44.0543725
 117.1263377  66.2753051  43.9073219 116.3358921  66.2577190  43.3677718
 116.8896731  66.8141345  44.6622255 117.2461252  63.1245517  41.2205947
 117.2959257  62.9595525  42.1621470 117.1375175  62.2572776  40.8303828
 106.1297511  65.8034063  28.5098036 106.2785631  66.4869528  27.8564709
 106.9363954  65.7839153  29.0247492 114.5365014  59.1076445  42.5365254
 115.4374877  58.9682910  42.2449252 114.6112989  59.2730900  43.4763431
 108.8707820  56.4843300  41.3818440 108.0011129  56.7776866  41.1101029
 109.1067300  57.0683745  42.1025704 118.7479449  65.5442459  41.4647969
 118.4564257  65.9072440  42.3011430 118.1351580  64.8309467  41.2861301
 119.9475131  63.1095339  33.9850539 120.7822022  63.5485143  34.1488099
 120.0834260  62.6333992  33.1658785 116.9966637  60.6675074  39.9328027
 117.4720759  60.8602720  39.1246878 116.0732202  60.7234259  39.6871410
 103.8850144  61.8299241  29.5159105 103.6396186  60.9261571  29.7139315
 104.0546058  61.8316391  28.5738583 111.5746854  52.7022917  38.8983860
 112.0928797  53.4383944  38.5730349 111.2201986  53.0086910  39.7330620
 103.1545791  57.5627598  27.0145266 102.4615036  57.6371953  26.3585302
 102.9097543  56.7987942  27.5366783 111.8259448  49.1223200  34.4184757
 112.1061201  48.4546389  35.0445184 112.6110055  49.3152295  33.9059421
 109.6292916  68.2982194  25.9809783 109.0566883  68.9172381  25.5280255
 110.2025710  68.8481555  26.5149705 115.6968306  57.5440834  38.1656332
 116.6485729  57.6438931  38.1868556 115.5271756  56.7519102  38.6754417
 113.7182685  54.6296417  38.3515733 113.1232618  54.9101430  37.6562222
 113.4332382  55.1190318  39.1232474 112.8490176  68.5819344  27.1118366
 113.7820849  68.5164905  27.3151241 112.7613389  69.4175611  26.6532898
 115.4778193  67.8985214  24.0722313 115.3991824  67.5645078  24.9658071
 116.2987859  68.3906982  24.0713786 118.1756384  60.7646953  37.2798632
 118.1432704  59.8262954  37.4658316 118.7857007  60.8430990  36.5464457
 110.0139715  59.6343006  23.3225836 110.9598819  59.5049214  23.3914254
 109.6353960  58.8957668  23.7995264 118.3250872  57.5557997  37.3256915
 117.8089921  56.7716453  37.1386844 119.2090821  57.2276713  37.4903434
 115.9861599  51.2999012  33.2852728 115.7886420  50.9914101  34.1696060
 116.5961305  52.0260651  33.4150658 109.8978407  63.6860752  44.7826493
 110.8181417  63.8639352  44.9766539 109.8627990  62.7416798  44.6306192
 108.1982632  57.5592983  23.2580721 107.2914087  57.2626095  23.3343435
 108.4758613  57.2622801  22.3915007  99.1160572  58.8799346  33.7079767
  98.7963357  58.0264654  33.4154141  98.5694000  59.0947924  34.4637735
 102.8940480  61.5961787  37.4249274 103.1126490  62.5278895  37.4437308
 103.3066254  61.2369762  38.2104078 109.8144698  52.1029872  29.4124962
 109.0045426  51.7576957  29.7880208 110.5029114  51.7937416  30.0012574
 111.7435246  51.1807919  31.0349259 112.2966284  51.6003373  31.6939282
 111.9805332  50.2543667  31.0772215 107.7668345  57.1694993  46.8152023
 107.6665072  58.1189350  46.7464114 107.5489887  56.8413232  45.9428093
 106.9681416  54.4179918  23.3992700 107.8300580  54.7434816  23.6588518
 107.1531761  53.6311414  22.8865766  98.9848832  62.5002258  35.6772889
  98.2912304  62.0856210  35.1642843  99.7321823  62.5422794  35.0806308
 115.1214053  53.2908444  30.5427923 114.5412722  53.9493248  30.1605976
 114.8549986  52.4685789  30.1315341 113.5717619  52.6913502  32.7449244
 114.0717398  52.8030037  31.9363562 114.2153227  52.3874555  33.3850052
 107.6299615  60.5992132  45.6317085 107.1466697  61.3992492  45.8380974
 107.7160554  60.6100077  44.6784529 100.8985575  62.4320511  33.5538904
 100.8756263  62.5308199  32.6020787 101.2086211  63.2785662  33.8756070
 103.5572953  64.4896666  37.6685518 104.5116206  64.4580609  37.6015450
 103.3585476  64.0287290  38.4835744 104.1472335  63.0597783  40.2356316
 104.9665224  63.5541861  40.2591153 104.4209142  62.1429751  40.2073884
 113.9038931  55.4508535  29.5984272 113.0164786  55.7358185  29.3804466
 114.3192920  55.2902298  28.7511548 117.2553467  55.4755056  33.3138611
 118.0313857  55.9651508  33.5863228 116.5301601  55.9013110  33.7710480
 119.6926026  56.1882675  34.3712551 120.2870517  55.9478411  33.6605860
 119.7652609  55.4689806  34.9986088 101.9123181  70.0316286  34.6855716
 101.7777649  69.2716687  34.1193714 101.4955244  70.7557186  34.2184505
 113.0482144  65.2153209  23.6932292 113.7517995  65.4203212  24.3089947
 112.3244793  65.7829971  23.9581375 113.8779955  60.9663071  29.8134562
 113.8215156  61.4231622  28.9742194 114.4308297  60.2053755  29.6357404
 117.6884761  56.7552803  30.6384681 117.4321695  56.3549438  31.4692889
 117.0637629  57.4696597  30.5134820 105.0692307  70.9285603  34.8974159
 104.9524691  71.8731035  34.7952849 104.2484754  70.6259165  35.2859958
 114.9568842  65.6535739  25.7430752 115.7914446  65.2216937  25.5608226
 114.7953185  65.4817752  26.6707646 114.6114734  62.1567852  27.1087091
 114.5563538  61.9912123  26.1675535 113.9860789  62.8643885  27.2649281
  99.4007249  57.3935916  40.9348513 100.0466113  56.8834870  41.4235738
  99.1924400  58.1304598  41.5091938 111.9260641  64.4616764  46.4340654
 112.7951801  64.6357416  46.0727289 111.4467393  65.2811181  46.3116383
 107.9210859  51.6575961  26.6872409 107.9089529  52.6017801  26.8440680
 108.8134281  51.4746106  26.3931870 106.0946821  71.5813865  38.1130087
 106.9974068  71.6137475  38.4296582 105.8684191  70.6514316  38.1276423
 107.8500423  70.3344851  34.7740166 106.8996054  70.3346713  34.6604538
 108.1532910  69.5877586  34.2576201 111.7362979  48.2518738  30.9418346
 110.9695375  47.6977224  31.0875028 112.1473684  48.3240606  31.8032498
 103.7404740  54.5403533  45.0323527 104.6036202  54.1840338  45.2426852
 103.1670151  54.2017428  45.7198932 120.3942823  76.1232818  35.7747453
 120.0561335  76.0073883  34.8867988 121.2632591  75.7223983  35.7548459
 116.2529639  77.9768294  31.7644344 115.6894504  77.8858231  30.9960632
 116.1382034  77.1568199  32.2446836 120.8762606  77.2767670  41.7333659
 120.8651247  76.8820468  40.8614162 121.0383246  76.5433742  42.3267430
 113.7994071  79.4719486  34.6028564 114.5915363  79.1310311  34.1874864
 114.0390721  79.5814461  35.5230718 115.7584825  78.7328399  27.4745943
 116.5315701  78.1857386  27.3358819 116.1110224  79.5972648  27.6860405
 117.5969867  80.0604781  40.6812843 117.3059733  80.9650412  40.5659509
 118.2326852  80.1021309  41.3956912 118.5226074  77.4381630  37.2714202
 119.1189646  77.2137652  36.5571165 118.5801046  76.6966375  37.8739650
 118.0951103  74.8921065  25.1064393 118.3476623  74.3702587  24.3447856
 117.1575662  74.7287211  25.2091077 117.8147391  76.7949171  27.3088768
 117.6983649  76.1194075  27.9769852 117.9249651  76.3081545  26.4920921
 120.1578932  76.2559318  31.0135457 119.7937139  75.7289939  31.7248379
 121.0146048  75.8657787  30.8401943 119.7984419  71.2849218  26.0096806
 119.9658822  72.1529454  26.3767277 119.6081588  71.4476500  25.0858095
 116.0072234  76.1979994  33.7099341 115.0822730  76.0656208  33.9177032
 116.2556647  76.9774213  34.2069283 119.7773640  73.7406876  26.9943473
 119.6573265  74.1863926  27.8328953 119.0826228  74.0892193  26.4357011
 113.3681045  75.8413267  34.5443130 113.4973426  76.0947746  35.4582541
 112.6878496  76.4340975  34.2247785 117.5380532  86.5110517  30.6433604
 117.4604562  87.4618342  30.7222084 116.9342176  86.1656390  31.3008530
 120.0297762  73.6838383  43.2994971 119.2531096  74.2432303  43.2897835
 120.6688325  74.1695166  43.8209841 118.2844134  76.4923836  42.8612938
 119.0258819  77.0308880  42.5847761 117.5781120  77.1190125  43.0184490
 120.1130544  73.5725583  38.8318656 120.9591739  73.9964997  38.9753305
 120.0529182  72.9159208  39.5257219 119.6356250  78.9328575  32.4787473
 120.0994596  79.2116278  31.6892096 119.3713049  78.0312020  32.2960564
 116.5280332  78.4800057  35.4167237 117.0981689  78.9087325  34.7784721
 117.1188443  78.1982642  36.1151422 118.5725137  75.0551728  29.2877038
 119.2749180  75.5072771  29.7550965 118.2405765  74.4135546  29.9156932
 117.0205498  73.6463484  43.6628248 116.3904159  74.3279765  43.8963645
 116.9141586  73.5346566  42.7181386 112.3150470  73.3135280  34.5894172
 111.5249524  73.5692809  34.1134283 112.8061718  74.1283618  34.6946213
 114.2665216  73.6779860  31.5477649 113.4696379  73.7898554  32.0661144
 114.0390808  74.0166512  30.6818539 120.0970883  80.2024563  39.4960163
 120.1615316  80.6644970  40.3318335 119.3881807  79.5721928  39.6242473
 110.5988173  73.5665771  37.0209163 110.8496212  74.4512781  37.2866739
 111.1347722  73.3870372  36.2484255 119.8118901  81.8692670  29.3639144
 119.6764576  82.7144206  29.7923991 120.3528714  82.0711948  28.6005077
 116.2986241  67.9484250  46.0253499 115.9053186  67.3950449  46.7001143
 117.1152381  68.2594829  46.4160016 113.2648299  79.3868108  29.9367069
 113.7772819  80.1811359  30.0872633 113.9171011  78.6894399  29.8700670
 115.0743183  82.5033865  32.0189822 115.2509812  83.4251829  31.8310806
 115.8700017  82.1892284  32.4484202 119.2154202  69.3642129  43.6173755
 119.9563915  69.9649282  43.5378218 119.4472125  68.6219767  43.0591798
 114.3595540  74.5498496  41.8951985 114.2449055  73.6483754  42.1959084
 113.5040058  74.7962193  41.5436802 116.1974499  84.0212038  38.0200164
 116.7481924  83.8929102  37.2477158 115.3585975  84.3206927  37.6695057
 119.9941670  80.2863166  42.3644395 120.5270007  79.5251454  42.1343703
 119.4655751  79.9936818  43.1068550 111.2297215  77.7156763  30.7126639
 112.0672437  78.1253771  30.4960347 111.4075483  76.7756205  30.6826833
 120.7108758  70.2281544  31.4595711 119.8550355  69.8388394  31.2801349
 121.1235710  70.3073505  30.5995496 118.4850791  67.8466617  34.8653452
 119.3503788  67.6509426  34.5059342 118.5528300  67.6176969  35.7922809
 121.3594382  79.4149159  29.8763207 120.8315744  78.6801918  29.5636445
 120.8581885  80.1923835  29.6303176 116.0913110  70.0768825  32.2369819
 116.6656862  69.8544006  31.5043012 116.6784092  70.1457519  32.9898420
 116.4182697  72.1073286  26.2565704 115.5820009  72.4447973  26.5774979
 116.2787467  71.9722266  25.3192841 118.3935778  66.9510074  30.9644888
 117.7400190  66.6359091  30.3401503 118.3516252  66.3285814  31.6904711
 119.5046983  77.2329369  22.8798180 118.5974044  77.0018622  23.0789329
 120.0018015  76.4366988  23.0672162 120.6835216  77.3341964  27.4022170
 119.7746435  77.0500997  27.4994640 120.7130300  77.7541042  26.5425477
 111.2523386  75.0547478  31.3837373 111.0547786  74.4616839  30.6588439
 110.6970050  74.7499688  32.1013311 119.2320110  74.9470584  33.5031966
 119.2868720  73.9944421  33.4274442 118.4211312  75.1030023  33.9873264
 120.3811304  78.8750707  24.7410249 119.9430734  78.1586566  24.2815886
 121.1221745  79.1026822  24.1795340 117.1712470  73.5647644  31.2622345
 116.3580336  73.8641815  31.6687537 117.6671464  73.1703333  31.9796827
 119.3221048  83.5605401  33.1956609 119.2797227  83.7866247  32.2665141
 120.2383747  83.3268776  33.3442411 116.6626545  71.1366000  36.8783580
 117.3025924  70.9954759  36.1806543 115.8304075  70.8500513  36.5022182
 117.4386849  80.4368430  32.9918572 118.2327447  79.9418750  32.7901147
 116.7278541  79.9086293  32.6286278 113.7469612  74.5811512  29.0678325
 112.8167200  74.5195967  29.2848287 113.8427084  74.0587465  28.2714966
 113.6655161  71.1066325  31.6556566 113.9261978  72.0211658  31.5465727
 114.4872334  70.6390767  31.8053179 115.1380087  72.5204082  38.8255391
 115.8103140  72.3121444  38.1768040 114.3109873  72.3226168  38.3860623
 120.0158125  81.0097452  36.6716409 119.8769210  80.6416236  37.5442347
 119.2272721  81.5245091  36.5000367 120.6106277  86.1106549  28.0141946
 120.7858032  85.6394592  28.8287568 119.9239065  86.7372315  28.2423206
 121.5663340  80.3879055  34.0605247 121.2313172  80.3479825  34.9562897
 121.0667285  79.7223771  33.5875657 115.5407584  75.7946685  39.5857828
 115.4027382  75.0626924  40.1869367 116.4512507  75.7055585  39.3042016
 118.1689884  75.5066644  39.0741508 118.8789503  74.8659836  39.0328126
 118.1259193  75.7579539  39.9967689 116.8818818  72.4931862  40.8937147
 116.3456175  72.0422600  41.5458744 116.2935527  72.6277771  40.1507612
 115.1767362  89.2595911  34.7881806 115.4163960  89.8914435  35.4660824
 114.3336558  88.9083951  35.0747165 116.2921077  71.9520513  23.4563611
 115.4150544  71.8309314  23.0925858 116.7678830  71.1606592  23.2042500
 107.8123218  76.7397673  33.5505118 108.4994257  76.4259403  32.9626133
 107.6571346  77.6439038  33.2772370 112.6157940  71.6287870  37.9790142
 112.5316128  71.0213539  37.2440552 111.7940646  72.1196888  37.9799638
 119.6895224  85.0675034  37.1923310 119.6165395  85.8730005  37.7042614
 119.2472617  85.2667000  36.3671331 119.4785003  84.3046804  30.7026131
 118.6952525  84.8468484  30.7964356 120.1777749  84.8220783  31.1020373
 119.3716622  72.2558816  33.0732021 119.0014410  71.7029857  33.7612927
 119.8675715  71.6516950  32.5207021 117.2005821  82.7156311  40.1687039
 117.9015280  83.3492794  40.3216434 116.7300936  83.0571043  39.4082679
 112.7973539  82.2492666  37.1018142 113.3826976  81.5036354  37.2346046
 112.5998377  82.5596623  37.9854806 115.6512194  85.2843914  32.1180584
 114.9822569  85.7690041  31.6344624 115.5125064  85.5313134  33.0323963
 107.3891194  74.8198266  35.8222585 107.4275293  74.2861857  36.6159703
 106.8831486  74.2933472  35.2033562 119.7917463  87.3187657  38.7163243
 120.3435771  87.4819279  39.4812328 120.1323656  87.9092095  38.0443268
 114.7681956  69.6662807  39.3185128 114.8323282  70.5277638  38.9062525
 114.7049076  69.0536809  38.5857486 114.2434228  71.7385940  42.9658162
 114.8706267  71.3563017  43.5795686 113.3862147  71.5200141  43.3313854
 111.0199771  73.5462369  28.8976517 111.3153212  72.6373047  28.8443570
 110.1187807  73.5250108  28.5757519 114.5494018  71.6218365  34.8804065
 113.8280604  72.2354333  34.7411539 115.3387274  72.1576130  34.8020711
 117.3520332  68.9572792  41.1544717 117.8754734  69.2035088  41.9171026
 117.1332665  69.7892827  40.7347854 112.7487613  71.2276466  29.0215842
 112.4200319  70.3473845  28.8390948 113.1026983  71.1724135  29.9092231
 115.8629436  71.5149436  29.3891319 116.2025508  72.0435357  28.6669928
 116.3101556  71.8529842  30.1649886 118.5572877  69.8986487  38.8394387
 118.2169697  69.0994300  39.2415067 117.8511883  70.1988198  38.2671221
 119.2089349  66.9835799  37.2921710 120.0315418  66.5096277  37.1700601
 119.4527412  67.7626283  37.7920397 117.8497583  70.0124058  27.5884612
 118.5705946  70.3905310  27.0848329 117.2262887  70.7312935  27.6919590
 116.7327927  73.6754920  35.1013689 116.5872508  73.9895223  35.9937971
 116.2553131  74.2939820  34.5484588 118.5924310  70.6657468  35.1494579
 118.5785879  69.7698561  34.8126877 119.3096738  70.6728132  35.7832865
 120.4450441  71.0994808  37.1947706 120.1868219  72.0211879  37.1932037
 119.9135481  70.7025243  37.8848170 111.2073590  76.2160264  38.0401350
 110.6627058  76.9920072  38.1721625 112.0852939  76.5631069  37.8820472
 117.9961206  69.5471848  30.4182149 118.1177117  68.6188494  30.6173036
 117.7063249  69.5610534  29.5060464 120.8652397  67.2326759  33.5548869
 120.8874093  67.2966092  32.6000848 121.2820456  66.3931267  33.7489375
 111.9939611  75.3430161  40.9331507 111.2521347  75.4912796  41.5196138
 111.6732356  75.6038426  40.0698257 119.9383274  84.8846139  40.7311897
 120.2470400  84.6395286  41.6034597 120.7358756  85.0892777  40.2430767
 119.9603886  87.0384048  32.9617274 119.5208876  86.5460427  33.6550130
 120.7112003  86.4957016  32.7209349 112.4396225  83.2295589  32.9641902
 113.2654245  82.9299361  32.5840545 112.0890277  82.4603212  33.4131690
 117.4077758  82.5822058  35.0339575 116.7857768  81.9192763  34.7341803
 118.0782625  82.6083189  34.3513223 110.6404830  81.1481916  33.9230835
 109.8036738  80.7204090  33.7414837 110.6128476  81.3414359  34.8601627
 117.4802286  71.0603846  44.6272081 117.5290441  71.9365968  44.2449851
 118.0224800  70.5181239  44.0543725 116.9691265  81.1325981  28.5098036
 117.1179386  81.8161445  27.8564709 117.7757709  81.1131071  29.0247492
 119.7101574  71.8135218  41.3818440 118.8404884  72.1068784  41.1101029
 119.9461055  72.3975663  42.1025704 114.7243898  77.1591158  29.5159105
 114.4789940  76.2553488  29.7139315 114.8939813  77.1608309  28.5738583
 113.9939546  72.8919516  27.0145266 113.3008791  72.9663871  26.3585302
 113.7491298  72.1279860  27.5366783 120.4686671  83.6274111  25.9809783
 119.8960638  84.2464298  25.5280255 121.0419464  84.1773473  26.5149705
 119.0376386  72.8884900  23.2580721 118.1307842  72.5918013  23.3343435
 119.3152367  72.5914719  22.3915007 109.9554327  74.2091264  33.7079767
 109.6357111  73.3556572  33.4154141 109.4087755  74.4239842  34.4637735
 113.7334234  76.9253705  37.4249274 113.9520244  77.8570813  37.4437308
 114.1460008  76.5661679  38.2104078 120.6538452  67.4321790  29.4124962
 119.8439180  67.0868875  29.7880208 121.3422869  67.1229334  30.0012574
 118.6062100  72.4986911  46.8152023 118.5058826  73.4481268  46.7464114
 118.3883642  72.1705149  45.9428093 117.8075171  69.7471836  23.3992700
 118.6694335  70.0726734  23.6588518 117.9925515  68.9603332  22.8865766
 109.8242587  77.8294175  35.6772889 109.1306058  77.4148128  35.1642843
 110.5715578  77.8714712  35.0806308 118.4693370  75.9284049  45.6317085
 117.9860451  76.7284410  45.8380974 118.5554309  75.9391994  44.6784529
 111.7379329  77.7612429  33.5538904 111.7150017  77.8600116  32.6020787
 112.0479966  78.6077580  33.8756070 114.3966707  79.8188584  37.6685518
 115.3509961  79.7872526  37.6015450 114.1979231  79.3579208  38.4835744
 114.9866089  78.3889700  40.2356316 115.8058978  78.8833779  40.2591153
 115.2602897  77.4721668  40.2073884 112.7516936  85.3608204  34.6855716
 112.6171404  84.6008605  34.1193714 112.3348998  86.0849103  34.2184505
 115.9086062  86.2577521  34.8974159 115.7918446  87.2022953  34.7952849
 115.0878508  85.9551082  35.2859958 110.2401003  72.7227834  40.9348513
 110.8859867  72.2126788  41.4235738 110.0318155  73.4596516  41.5091938
 118.7604614  66.9867879  26.6872409 118.7483284  67.9309719  26.8440680
 119.6528036  66.8038024  26.3931870 116.9340576  86.9105783  38.1130087
 117.8367823  86.9429393  38.4296582 116.7077946  85.9806233  38.1276423
 118.6894178  85.6636769  34.7740166 117.7389809  85.6638631  34.6604538
 118.9926664  84.9169504  34.2576201 114.5798494  69.8695451  45.0323527
 115.4429956  69.5132256  45.2426852 114.0063905  69.5309346  45.7198932
 118.6516972  92.0689591  33.5505118 119.3388012  91.7551321  32.9626133
 118.4965101  92.9730955  33.2772370 118.2284948  90.1490184  35.8222585
 118.2669048  89.6153775  36.6159703 117.7225241  89.6225390  35.2033562
 121.4798585  96.4773833  33.9230835 120.6430493  96.0496008  33.7414837
 121.4522230  96.6706277  34.8601627 120.7948081  89.5383182  33.7079767
 120.4750866  88.6848490  33.4154141 120.2481509  89.7531760  34.4637735
 120.6636341  93.1586093  35.6772889 119.9699813  92.7440046  35.1642843
 121.4109332  93.2006630  35.0806308  74.1805516   2.2004969  17.3678911
  74.1029545   3.1512794  17.4467391  73.5767159   1.8550842  18.0253837
  71.8192345   4.9490363  21.5127113  72.0588943   5.5808887  22.1906131
  70.9761542   4.5978403  21.7992472  72.2937177   0.9738366  18.8425891
  71.6247553   1.4584493  18.3589931  72.1550047   1.2207586  19.7569270
  76.4342446   3.0082109  25.4408549  76.9860754   3.1713731  26.2057635
  76.7748639   3.5986547  24.7688574  69.3941919   1.0502656  21.4101023
  69.2596387   0.2903056  20.8439021  68.9773981   1.7743555  20.9429812
  72.5511045   1.9471973  21.6219466  72.4343429   2.8917405  21.5198156
  71.7303491   1.6445534  22.0105265  73.5765559   2.6000234  24.8375394
  74.4792806   2.6323845  25.1541889  73.3502929   1.6700685  24.8521730
  87.8761561   7.1419187  22.4992760  87.5380072   7.0260252  21.6113295
  88.7451329   6.7410353  22.4793766  83.7348377   8.9954664  18.4889651
  83.1713242   8.9044601  17.7205938  83.6200772   8.1754568  18.9692143
  88.3581344   8.2954039  28.4578965  88.3469985   7.9006837  27.5859469
  88.5201983   7.5620112  29.0512737  81.2812809  10.4905855  21.3273871
  82.0734101  10.1496680  20.9120170  81.5209459  10.6000831  22.2476024
  89.3147935  12.6625632  13.8004116  88.6635915  13.2479712  13.4138129
  90.1092298  13.1931826  13.8599153  83.2403563   9.7514769  14.1991250
  84.0134439   9.2043756  14.0604126  83.5928961  10.6159018  14.4105711
  85.0788605  11.0791151  27.4058149  84.7878471  11.9836782  27.2904815
  85.7145589  11.1207679  28.1202219  86.0044812   8.4568000  23.9959509
  86.6008384   8.2324022  23.2816472  86.0619783   7.7152745  24.5984957
  85.2966129   7.8135541  14.0334075  85.1802387   7.1380444  14.7015159
  85.4068389   7.3267915  13.2166228  87.6397670   7.2745688  17.7380764
  87.2755877   6.7476309  18.4493685  88.4964786   6.8844157  17.5647249
  90.0378490  10.7652567  24.4007943  89.7379213  11.6677605  24.2923750
  89.6929550  10.4984750  25.2529096  83.4890972   7.2166363  20.4344647
  82.5641468   7.0842577  20.6422339  83.7375385   7.9960583  20.9314590
  80.8499783   6.8599637  21.2688436  80.9792164   7.1134116  22.1827848
  80.1697234   7.4527345  20.9493091  85.0199270  17.5296887  17.3678911
  84.9423300  18.4804712  17.4467391  84.4160914  17.1842759  18.0253837
  85.7662872   7.5110206  29.5858244  86.5077556   8.0495250  29.3093068
  85.0599858   8.1376494  29.7429796  91.2418212   9.6539346  28.1830406
  91.6501568   9.2121757  27.4385038  90.5195473   9.0791974  28.4364599
  91.5647026  10.2140537  21.9382695  90.9355889  10.3786251  21.2358763
  91.1772688  10.6282146  22.7093659  95.4436258  11.1494975  19.2927059
  94.7587296  11.5293876  18.7424092  95.5280108  11.7590301  20.0259006
  92.6987190   8.7954934  25.8922402  92.9104085   9.4386694  25.2156783
  92.6516938   7.9617250  25.4244332  87.1174988   9.9514945  19.2032780
  87.5813334  10.2302648  18.4137402  86.8531786   9.0498389  19.0205871
  84.0099069   9.4986426  22.1412543  84.5800426   9.9273695  21.5030028
  84.6007181   9.2169011  22.8396729  79.7969208   4.3321650  21.3139479
  79.0068262   4.5879178  20.8379589  80.2880456   5.1469988  21.4191519
  93.8133018  11.6726889  24.0644759  94.6350462  11.2707076  23.7827441
  93.8095421  11.5695123  25.0160875  81.7483954   4.6966229  18.2722955
  80.9515117   4.8084923  18.7906451  81.5209546   5.0352881  17.4063846
  87.5789621  11.2210932  26.2205470  87.6434054  11.6831340  27.0563642
  86.8700545  10.5908297  26.3487780  78.0806911   4.5852140  23.7454469
  78.3314950   5.4699150  24.0112045  78.6166460   4.4056742  22.9729561
  87.2937639  12.8879040  16.0884450  87.1583314  13.7330576  16.5169298
  87.8347451  13.0898317  15.3250384  80.7467036  10.4054478  16.6612375
  81.2591557  11.1997728  16.8117940  81.3989749   9.7080768  16.5945977
  82.5561921  13.5220234  18.7435129  82.7328549  14.4438199  18.5556112
  83.3518755  13.2078653  19.1729508  81.8414278   5.5684866  28.6197292
  81.7267793   4.6670123  28.9204391  80.9858795   5.8148563  28.2682108
  88.9206115  13.5102606  30.2184792  88.4769969  12.7238985  29.9005697
  89.5823329  13.6981757  29.5528683  83.6793236  15.0398408  24.7445471
  84.2300662  14.9115471  23.9722465  82.8404712  15.3393297  24.3940364
  91.0187353  13.7905406  28.2466194  91.0005829  14.6114287  27.7546463
  91.9407273  13.6659481  28.4716335  87.4760408  11.3049536  29.0889702
  88.0088744  10.5437824  28.8589010  86.9474489  11.0123188  29.8313856
  78.7115953   8.7343132  17.4371946  79.5491175   9.1440141  17.2205654
  78.8894221   7.7942574  17.4072140  88.8413120  10.4335528  16.6008514
  88.3134482   9.6988288  16.2881751  88.3400623  11.2110205  16.3548482
  93.8205966   8.6284549  21.7175560  93.1629641   9.3183810  21.8055689
  94.6246365   9.0180981  22.0609547  89.8933799  16.9613246  12.5240173
  89.2195498  17.2644942  13.1325131  90.2799621  17.7642326  12.1745630
  93.3973221  11.9634923  17.8958645  92.9435548  11.1225833  17.9523835
  92.7667188  12.5996321  18.2333425  91.8406160  13.8011420  18.8308463
  92.1329135  14.3616477  18.1120828  92.3504781  14.0939981  19.5861622
  78.7342124   6.0733847  18.1082679  78.5366524   5.4803208  17.3833746
  78.1788788   5.7686058  18.8258618  86.8039786  14.5791771  19.9201916
  86.7615964  14.8052617  18.9910448  87.7202485  14.3455145  20.0687717
  96.0072536  10.2370801  22.5343146  96.4409043  10.1446090  23.3826200
  96.7204117  10.2128302  21.8963162  84.9205586  11.4554800  19.7163879
  85.7146185  10.9605120  19.5146454  84.2097279  10.9272663  19.3531584
  89.7400431  13.8372895  24.0676246  89.7937453  14.4063831  24.8353962
  88.8715212  14.0074780  23.7030284  81.2288350   5.5997881  15.7923631
  80.2985938   5.5382337  16.0093594  81.3245822   5.0773834  14.9960273
  91.9303194  10.4301244  30.6416912  91.7788701  10.2011796  29.7246995
  91.9207874  11.3871846  30.6548257  88.6988531   8.0033157  25.6263178
  89.6280591   8.1544317  25.4532146  88.2779561   8.0917178  24.7711825
  87.4976862  12.0283822  23.3961716  87.3587948  11.6602606  24.2687654
  86.7091459  12.5431461  23.2245674  88.0925014  17.1292918  14.7387252
  88.2676770  16.6580961  15.5532875  87.4057802  17.7558684  14.9668513
  89.0482078  11.4065424  20.7850554  88.7131910  11.3666194  21.6808204
  88.5486023  10.7410140  20.3120964  83.0226322   6.8133054  26.3103135
  82.8846119   6.0813293  26.9114674  83.9331245   6.7241954  26.0287323
  85.6508622   6.5253014  25.7986814  86.3608241   5.8846206  25.7573433
  85.6077930   6.7765909  26.7212995  93.6395401  13.4620367  28.7193394
  93.5807947  12.7779587  28.0523977  94.0414919  14.2039357  28.2674020
  82.6586100  20.2782281  21.5127113  82.8982698  20.9100805  22.1906131
  81.8155296  19.9270321  21.7992472  93.6412808  11.4259951  26.9507373
  92.7539587  11.0885873  27.0733772  94.2111359  10.6942982  27.1876139
  75.2941955   7.7584043  20.2750425  75.9812995   7.4445773  19.6871440
  75.1390084   8.6625407  20.0017676  87.1713962  16.0861403  23.9168617
  87.0984133  16.8916375  24.4287921  86.7291355  16.2853369  23.0916638
  86.9603741  15.3233173  17.4271438  86.1771263  15.8654854  17.5209663
  87.6596486  15.8407153  17.8265679  89.6312645  15.9848237  26.0726775
  90.3440617  16.6195702  26.0002677  89.1402674  16.0812103  25.2566777
  91.3530172   9.8899490  17.6444067  90.4186451  10.0100952  17.4748771
  91.5306840   8.9871957  17.3804077  84.6824559  13.7342681  26.8932346
  85.3834018  14.3679164  27.0461740  84.2119674  14.0757412  26.1327985
  89.4433018  16.3246981  18.8213067  89.6255413  15.5068637  19.2840819
  90.2666004  16.5414674  18.3837957  89.7775184  15.2515167  16.0828115
  90.3062950  14.7407621  15.4698277  90.0403404  14.9357697  16.9473648
  88.5313418   7.0307099  31.2050933  87.8554055   6.9301229  31.8753309
  89.3541051   6.8746313  31.6686931  80.2792277  13.2679036  23.8263449
  80.8645714  12.5222724  23.9591353  80.0817115  13.5782993  24.7100113
  83.1330932  16.3030283  18.8425891  82.4641307  16.7876411  18.3589931
  82.9943802  16.5499504  19.7569270  74.8709931   5.8384636  22.5467892
  74.9094031   5.3048227  23.3405010  74.3650224   5.3119842  21.9278869
  87.2736200  18.3374027  25.4408549  87.8254509  18.5005648  26.2057635
  87.6142394  18.9278465  24.7688574  92.1247075  13.1635284  31.2957204
  92.6686979  13.7765243  30.8012159  91.5433920  13.7214863  31.8124217
  78.5018509   4.5648738  15.6221823  78.7971950   3.6559417  15.5688877
  77.6006545   4.5436478  15.3002826  90.4104588  16.2856002  22.4272232
  90.2855727  15.4845742  21.9183177  91.0683679  16.7802196  21.9386202
  92.4739496  14.0865022  24.0551782  91.5269832  13.9670374  23.9830108
  92.8222269  13.1987520  24.1378043  89.4785929  13.8817739  20.2556134
  89.3310892  12.9534446  20.4363704  90.3039423  13.9037829  19.7713209
  93.0820051  14.7046297  21.3421007  94.0066599  14.4989159  21.2045458
  92.9135355  14.4562698  22.2510348  92.8715368  15.2231965  16.6983098
  93.0452245  14.6578387  15.9456951  93.3644259  16.0232860  16.5162588
  78.6892327   7.2346634  24.7646657  78.1445795   8.0106442  24.8966931
  79.5671677   7.5817438  24.6065778  79.4758349   6.3616530  27.6576814
  78.7340085   6.5099165  28.2441444  79.1551093   6.6224796  26.7943563
  87.4202012  15.9032508  27.4557204  87.7289138  15.6581655  28.3279903
  88.2177494  16.1079147  26.9676074  87.4422624  18.0570418  19.6862580
  87.0027614  17.5646797  20.3795437  88.1930741  17.5143386  19.4454656
  79.9214963  14.2481959  19.6887208  80.7472983  13.9485731  19.3085852
  79.5709015  13.4789581  20.1376997  84.8896496  13.6008427  21.7584882
  84.2676505  12.9379132  21.4587110  85.5601363  13.6269559  21.0758530
  78.1223568  12.1668285  20.6476142  77.2855476  11.7390460  20.4660143
  78.0947213  12.3600729  21.5846933  95.4475869  12.6231338  30.6318525
  94.6571413  12.6055477  30.0923025  95.2109224  13.1619632  31.3867562
  84.4510003  12.1512350  15.2343343  84.5998123  12.8347815  14.5810015
  85.2576446  12.1317440  15.7492798  82.2062636   8.1777528  16.2404411
  81.9608678   7.2739858  16.4384622  82.3758550   8.1794678  15.2983889
  87.9505408  14.6460481  12.7055090  87.3779376  15.2650668  12.2525562
  88.5238202  15.1959843  13.2395012  88.2190899  10.0339040  31.5071799
  89.1393909  10.2117639  31.7011846  88.1840483   9.0895085  31.3551499
  77.4373064   5.2277633  20.4325074  77.1175849   4.3742942  20.1399448
  76.8906493   5.4426212  21.1883041  81.2152972   7.9440074  24.1494581
  81.4338982   8.8757182  24.1682614  81.6278746   7.5848049  24.9349384
  77.3061324   8.8480545  22.4018196  76.6124796   8.4334498  21.8888150
  78.0534315   8.8901081  21.8051615  85.9512107   6.9470419  32.3562391
  85.4679189   7.7470779  32.5626280  86.0373046   6.9578364  31.4029835
  79.2198067   8.7798799  20.2784211  79.1968755   8.8786486  19.3266094
  79.5298704   9.6263949  20.6001377  81.8785445  10.8374954  24.3930825
  82.8328698  10.8058896  24.3260757  81.6797968  10.3765577  25.2081051
  82.4684827   9.4076070  26.9601623  83.2877716   9.9020148  26.9836460
  82.7421635   8.4908038  26.9319190  80.2335674  16.3794573  21.4101023
  80.0990142  15.6194974  20.8439021  79.8167736  17.1035473  20.9429812
  83.3904800  17.2763890  21.6219466  83.2737184  18.2209323  21.5198156
  82.5697246  16.9737452  22.0105265  77.7219741   3.7414204  27.6593820
  78.3678605   3.2313158  28.1481045  77.5136892   4.4782885  28.2337245
  90.2473133  10.8095051  33.1585960  91.1164293  10.9835703  32.7972595
  89.7679885  11.6289468  33.0361690  84.4159314  17.9292152  24.8375394
  85.3186560  17.9615762  25.1541889  84.1896684  16.9992603  24.8521730
  86.1712916  16.6823139  21.4985473  85.2208547  16.6825000  21.3849845
  86.4745402  15.9355873  20.9821507 101.9065609  22.5183677  22.5631235
 102.5444019  22.3990424  21.8594575 101.7886452  23.4664521  22.6219187
  98.7155315  22.4711105  22.4992760  98.3773827  22.3552170  21.6113295
  99.5845084  22.0702270  22.4793766  94.5742131  24.3246582  18.4889651
  94.0106996  24.2336519  17.7205938  94.4594526  23.5046486  18.9692143
  99.1975098  23.6245957  28.4578965  99.1863739  23.2298755  27.5859469
  99.3595738  22.8912029  29.0512737  92.1206563  25.8197773  21.3273871
  92.9127855  25.4788598  20.9120170  92.3603213  25.9292748  22.2476024
 100.1541690  27.9917549  13.8004116  99.5029670  28.5771630  13.4138129
 100.9486053  28.5223744  13.8599153  95.9182360  26.4083069  27.4058149
  95.6272226  27.3128700  27.2904815  96.5539344  26.4499596  28.1202219
  96.8438566  23.7859917  23.9959509  97.4402139  23.5615940  23.2816472
  96.9013538  23.0444663  24.5984957  98.4791425  22.6037606  17.7380764
  98.1149632  22.0768227  18.4493685  99.3358540  22.2136075  17.5647249
 104.3840725  13.8931938  25.0012030 104.0524050  14.7627349  24.7773245
 103.7886339  13.5768222  25.6806061 100.8772245  26.0944484  24.4007943
 100.5772968  26.9969523  24.2923750 100.5323304  25.8276667  25.2529096
  94.3284726  22.5458281  20.4344647  93.4035223  22.4134495  20.6422339
  94.5769139  23.3252500  20.9314590 104.2769388  18.6127024  22.0805380
 103.3686266  18.5442433  21.7864141 104.2256984  19.0898969  22.9087206
  91.6893537  22.1891555  21.2688436  91.8185918  22.4426034  22.1827848
  91.0090989  22.7819263  20.9493091  95.8593024  32.8588805  17.3678911
  95.7817054  33.8096630  17.4467391  95.2554668  32.5134677  18.0253837
  98.3510254  20.0316670  30.0240277  97.5743588  20.5910590  30.0143142
  98.9900817  20.5173453  30.5455148  96.6056627  22.8402123  29.5858244
  97.3471311  23.3787167  29.3093068  95.8993612  23.4668412  29.7429796
 102.0811966  24.9831264  28.1830406 102.4895322  24.5413674  27.4385038
 101.3589228  24.4083891  28.4364599  98.4343036  19.9203871  25.5563963
  99.2804231  20.3443284  25.6998612  98.3741674  19.2637495  26.2502526
 102.4040781  25.5432454  21.9382695 101.7749643  25.7078169  21.2358763
 102.0166443  25.9574064  22.7093659 106.2830013  26.4786892  19.2927059
 105.5981051  26.8585794  18.7424092 106.3673862  27.0882219  20.0259006
 101.5842482  17.5808239  27.2145137 101.3403413  18.3350299  26.6779412
 101.8602412  17.9593587  28.0492384 103.5380944  24.1246851  25.8922402
 103.7497840  24.7678611  25.2156783 103.4910693  23.2909168  25.4244332
  97.9568743  25.2806863  19.2032780  98.4207088  25.5594565  18.4137402
  97.6925541  24.3790307  19.0205871  94.8492824  24.8278344  22.1412543
  95.4194181  25.2565612  21.5030028  95.4400936  24.5460929  22.8396729
  96.8937629  21.4030015  16.0122345  97.5961672  21.8551059  16.4796271
  96.5618257  20.7613834  16.6402238  95.3417990  19.9941772  30.3873554
  94.7116651  20.6758052  30.6208951  95.2354078  19.8824853  29.4426693
  90.6362963  19.6613568  21.3139479  89.8462017  19.9171096  20.8379589
  91.1274210  20.4761905  21.4191519 104.6526772  27.0018807  24.0644759
 105.4744216  26.5998994  23.7827441 104.6489175  26.8987041  25.0160875
  92.5877708  20.0258147  18.2722955  91.7908871  20.1376841  18.7906451
  92.3603300  20.3644799  17.4063846  98.4183376  26.5502850  26.2205470
  98.4827808  27.0123257  27.0563642  97.7094300  25.9200215  26.3487780
  88.9200666  19.9144058  23.7454469  89.1708704  20.7991068  24.0112045
  89.4560214  19.7348660  22.9729561  98.1331393  28.2170957  16.0884450
  97.9977068  29.0622493  16.5169298  98.6741206  28.4190235  15.3250384
  94.6198733  14.2962537  32.7498805  94.2265679  13.7428736  33.4246450
  95.4364873  14.6073116  33.1405323  97.5366694  15.7120416  30.3419062
  98.2776407  16.3127570  30.2623525  97.7684617  14.9698054  29.7837105
  92.6808032  20.8976784  28.6197292  92.5661547  19.9962041  28.9204391
  91.8252550  21.1440480  28.2682108  99.7599870  28.8394524  30.2184792
  99.3163724  28.0530903  29.9005697 100.4217083  29.0273675  29.5528683
  94.5186991  30.3690326  24.7445471  95.0694416  30.2407389  23.9722465
  93.6798467  30.6685215  24.3940364 101.8581108  29.1197324  28.2466194
 101.8399583  29.9406205  27.7546463 102.7801028  28.9951399  28.4716335
  98.3154162  26.6341453  29.0889702  98.8482499  25.8729742  28.8589010
  97.7868243  26.3415105  29.8313856  89.5509708  24.0635050  17.4371946
  90.3884930  24.4732058  17.2205654  89.7287975  23.1234492  17.4072140
 100.5620397  14.1106175  22.5832577 100.0585193  14.0736310  21.7700382
 100.8551004  15.0198917  22.6429234  96.8063283  14.1944904  21.5898759
  97.6716280  13.9987713  21.2304648  96.8740792  13.9655256  22.5168115
  99.6806875  25.7627446  16.6008514  99.1528236  25.0280205  16.2881751
  99.1794377  26.5402122  16.3548482 104.6599721  23.9576466  21.7175560
 104.0023395  24.6475728  21.8055689 105.4640120  24.3472898  22.0609547
  94.4125602  16.4247112  18.9615126  94.9869354  16.2022294  18.2288318
  94.9996585  16.4935807  19.7143727 100.7327554  32.2905163  12.5240173
 100.0589253  32.5936860  13.1325131 101.1193376  33.0934244  12.1745630
  99.9486010  19.7870295  22.0137843  99.0308572  20.0085242  21.8559531
 100.3646154  19.8616605  21.1549550 104.2366976  27.2926841  17.8958645
 103.7829303  26.4517750  17.9523835 103.6060942  27.9288239  18.2333425
 102.6799915  29.1303337  18.8308463 102.9722889  29.6908394  18.1120828
 103.1898536  29.4231898  19.5861622  97.5532602  21.2948872  20.2277272
  97.6081212  20.3422708  20.1519749  96.7423804  21.4508311  20.7118571
  97.6433540  29.9083688  19.9201916  97.6009719  30.1344535  18.9910448
  98.5596239  29.6747063  20.0687717 101.0899174  20.3767756  26.8182545
 101.4448562  20.6039229  27.6777011 101.7371305  20.7086133  26.1959801
  94.9839037  17.4844287  23.6028886  95.6238416  17.3433046  22.9051850
  94.1516568  17.1978800  23.2267488 106.8466291  25.5662719  22.5343146
 107.2802797  25.4738008  23.3826200 107.5597871  25.5420219  21.8963162
  95.7599341  26.7846717  19.7163879  96.5539939  26.2897037  19.5146454
  95.0491033  26.2564580  19.3531584 100.5794185  29.1664813  24.0676246
 100.6331208  29.7355749  24.8353962  99.7108967  29.3366698  23.7030284
  92.0682104  20.9289799  15.7923631  91.1379693  20.8674255  16.0093594
  92.1639576  20.4065752  14.9960273  91.9867653  17.4544612  18.3801873
  92.2474471  18.3689945  18.2711034  92.8084826  16.9869054  18.5298486
  93.4592579  18.8682369  25.5500698  94.1315632  18.6599731  24.9013347
  92.6322365  18.6704455  25.1105930 107.7081840  25.6086419  25.0676031
 107.9017730  26.5132230  25.3135306 107.6082458  25.1493838  25.9014616
  99.3618151  15.4944310  27.5666359  98.7146066  16.1934260  27.4730835
 100.1319166  15.9280454  27.9342607 102.7696949  25.7593162  30.6416912
 102.6182455  25.5303714  29.7246995 102.7601628  26.7163764  30.6548257
  99.5382285  23.3325075  25.6263178 100.4674345  23.4836235  25.4532146
  99.1173315  23.4209096  24.7711825  98.3370617  27.3575739  23.3961716
  98.1981703  26.9894524  24.2687654  97.5485213  27.8723379  23.2245674
  98.9318769  32.4584836  14.7387252  99.1070525  31.9872879  15.5532875
  98.2451557  33.0850602  14.9668513  99.8875832  26.7357342  20.7850554
  99.5525665  26.6958112  21.6808204  99.3879778  26.0702058  20.3120964
  93.8620076  22.1424972  26.3103135  93.7239874  21.4105211  26.9114674
  94.7725000  22.0533872  26.0287323  96.4902377  21.8544931  25.7986814
  97.2001995  21.2138124  25.7573433  96.4471685  22.1057826  26.7212995
 104.4789155  28.7912285  28.7193394 104.4201702  28.1071505  28.0523977
 104.8808674  29.5331275  28.2674020  95.2031311  18.8410149  27.6182454
  94.6668668  18.3900888  28.2704050  94.6148019  18.9756058  26.8752918
  93.4979854  35.6074199  21.5127113  93.7376452  36.2392723  22.1906131
  92.6549051  35.2562239  21.7992472 104.4806563  26.7551869  26.9507373
 103.5933341  26.4177790  27.0733772 105.0505114  26.0234900  27.1876139
  86.1335710  23.0875960  20.2750425  86.8206750  22.7737690  19.6871440
  85.9783838  23.9917325  20.0017676  90.9370432  17.9766157  24.7035448
  90.8528621  17.3691826  23.9685858  90.1153138  18.4675175  24.7044945
  98.0107716  31.4153321  23.9168617  97.9377888  32.2208292  24.4287921
  97.5685109  31.6145287  23.0916638  97.7997496  30.6525091  17.4271438
  97.0165018  31.1946771  17.5209663  98.4990241  31.1699071  17.8265679
 100.4706400  31.3140155  26.0726775 101.1834372  31.9487620  26.0002677
  99.9796428  31.4104021  25.2566777 102.1923926  25.2191408  17.6444067
 101.2580205  25.3392870  17.4748771 102.3700595  24.3163874  17.3804077
  95.5218313  29.0634598  26.8932346  96.2227773  29.6971081  27.0461740
  95.0513428  29.4049330  26.1327985 103.3219599  21.6179206  24.7184896
 102.6691049  21.8655113  24.0637349 103.6999979  20.8043344  24.3847374
 100.2826773  31.6538899  18.8213067 100.4649167  30.8360555  19.2840819
 101.1059759  31.8706591  18.3837957 100.6168938  30.5807084  16.0828115
 101.1456705  30.0699539  15.4698277 100.8797158  30.2649614  16.9473648
  99.3707172  22.3599017  31.2050933  98.6947809  22.2593146  31.8753309
 100.1934806  22.2038231  31.6686931  91.1186031  28.5970954  23.8263449
  91.7039468  27.8514641  23.9591353  90.9210870  28.9074910  24.7100113
  93.9724686  31.6322201  18.8425891  93.3035062  32.1168329  18.3589931
  93.8337556  31.8791421  19.7569270  85.7103686  21.1676554  22.5467892
  85.7487785  20.6340144  23.3405010  85.2043979  20.6411759  21.9278869
  98.1129955  33.6665944  25.4408549  98.6648263  33.8297566  26.2057635
  98.4536148  34.2570382  24.7688574  93.0894448  16.0141094  26.0430434
  93.1535775  16.8755925  25.6307832  93.0261568  15.4015096  25.3102793
  92.5646721  18.0864227  29.6903468  93.1918760  17.7041304  30.3040993
  91.7074640  17.8678429  30.0559161 102.9640829  28.4927202  31.2957204
 103.5080733  29.1057160  30.8012159 102.3827674  29.0506780  31.8124217
  89.3412263  19.8940656  15.6221823  89.6365705  18.9851334  15.5688877
  88.4400299  19.8728395  15.3002826 101.2498342  31.6147920  22.4272232
 101.1249482  30.8137660  21.9183177 101.9077433  32.1094113  21.9386202
  92.8706510  17.9696652  21.6049372  92.1493096  18.5832620  21.4656845
  93.6599766  18.5054417  21.5266018 103.3133251  29.4156940  24.0551782
 102.3663586  29.2962291  23.9830108 103.6616024  28.5279438  24.1378043
  95.6732824  15.3051079  27.8790024  96.1967226  15.5513376  28.6416333
  95.4545157  16.1371114  27.4593161  91.0700105  17.5754754  15.7461148
  90.7412811  16.6952132  15.5636254  91.4239476  17.5202422  16.6337538
 100.3179684  29.2109656  20.2556134 100.1704646  28.2826364  20.4363704
 101.1433177  29.2329747  19.7713209  94.1841928  17.8627723  16.1136626
  94.5238001  18.3913645  15.3915234  94.6314049  18.2008129  16.8895193
 103.9213806  30.0338215  21.3421007 104.8460353  29.8281076  21.2045458
 103.7529109  29.7854616  22.2510348  96.8785369  16.2464774  25.5639694
  96.5382189  15.4472587  25.9660374  96.1724375  16.5466485  24.9916527
  97.5301841  13.3314086  24.0167017  98.3527910  12.8574565  23.8945907
  97.7739904  14.1104570  24.5165703  95.0540420  20.0233207  21.8258996
  94.9085000  20.3373510  22.7183277  94.5765623  20.6418107  21.2729894
  96.9136803  17.0135755  21.8739885  96.8998371  16.1176848  21.5372183
  97.6309231  17.0206419  22.5078171  98.7662933  17.4473095  23.9193013
  98.5080711  18.3690166  23.9177343  98.2347974  17.0503530  24.6093477
 103.7109122  30.5523882  16.6983098 103.8846000  29.9870305  15.9456951
 104.2038013  31.3524777  16.5162588  89.5286082  22.5638552  24.7646657
  88.9839550  23.3398359  24.8966931  90.4065432  22.9109356  24.6065778
  90.3152104  21.6908448  27.6576814  89.5733840  21.8391083  28.2441444
  89.9944848  21.9516713  26.7943563  98.2595766  31.2324426  27.4557204
  98.5682893  30.9873573  28.3279903  99.0571248  31.4371064  26.9676074
  98.2816378  33.3862336  19.6862580  97.8421369  32.8938714  20.3795437
  99.0324495  32.8435303  19.4454656  90.7608717  29.5773877  19.6887208
  91.5866737  29.2777648  19.3085852  90.4102769  28.8081499  20.1376997
  95.7290251  28.9300345  21.7584882  95.1070260  28.2671050  21.4587110
  96.3995117  28.9561477  21.0758530  88.9617322  27.4960203  20.6476142
  88.1249231  27.0682377  20.4660143  88.9340968  27.6892646  21.5846933
  95.8014778  17.4082133  31.3517388  95.8502933  18.2844256  30.9695158
  96.3437292  16.8659526  30.7789031 106.2869624  27.9523256  30.6318525
 105.4965167  27.9347395  30.0923025 106.0502978  28.4911550  31.3867562
 106.4067499  24.8015722  27.9451254 106.4565504  24.6365730  28.8866776
 106.2981422  23.9342981  27.5549134  95.2903757  27.4804268  15.2343343
  95.4391878  28.1639732  14.5810015  96.0970201  27.4609358  15.7492798
 103.6971261  20.7846650  29.2610560 104.5981124  20.6453115  28.9694558
 103.7719236  20.9501105  30.2008738  98.0314066  18.1613505  28.1063747
  97.1617376  18.4547071  27.8346335  98.2673547  18.7453950  28.8271010
 107.9085696  27.2212664  28.1893275 107.6170504  27.5842644  29.0256736
 107.2957827  26.5079672  28.0106607 106.1572884  22.3445279  26.6573333
 106.6327005  22.5372925  25.8492185 105.2338449  22.4004464  26.4116717
  93.0456390  23.5069446  16.2404411  92.8002432  22.6031776  16.4384622
  93.2152305  23.5086596  15.2983889  92.3152038  19.2397803  13.7390573
  91.6221283  19.3142158  13.0830609  92.0703790  18.4758147  14.2612090
  98.7899163  29.9752399  12.7055090  98.2173130  30.5942586  12.2525562
  99.3631957  30.5251760  13.2395012 104.8574553  19.2211039  24.8901639
 105.8091976  19.3209136  24.9113863 104.6878003  18.4289307  25.3999723
 102.8788932  16.3066622  25.0761040 102.2838864  16.5871635  24.3807528
 102.5938629  16.7960523  25.8477781 107.3362631  22.4417158  24.0043938
 107.3038951  21.5033159  24.1903622 107.9463254  22.5201195  23.2709763
  99.0584654  25.3630957  31.5071799  99.9787663  25.5409556  31.7011846
  99.0234237  24.4187003  31.3551499  88.2766819  20.5569551  20.4325074
  87.9569603  19.7034859  20.1399448  87.7300247  20.7718129  21.1883041
  92.0546727  23.2731992  24.1494581  92.2732736  24.2049100  24.1682614
  92.4672500  22.9139966  24.9349384  96.9274592  18.8465198  33.5397330
  96.8271319  19.7959555  33.4709421  96.7096134  18.5183437  32.6673400
  88.1455079  24.1772463  22.4018196  87.4518550  23.7626415  21.8888150
  88.8928070  24.2192999  21.8051615  96.7905862  22.2762337  32.3562391
  96.3072944  23.0762697  32.5626280  96.8766801  22.2870282  31.4029835
  90.0591821  24.1090716  20.2784211  90.0362510  24.2078404  19.3266094
  90.3692458  24.9555867  20.6001377  92.7179199  26.1666871  24.3930825
  93.6722453  26.1350814  24.3260757  92.5191723  25.7057495  25.2081051
  93.3078582  24.7367987  26.9601623  94.1271470  25.2312066  26.9836460
  93.5815389  23.8199956  26.9319190  91.0729428  31.7086491  21.4101023
  90.9383896  30.9486892  20.8439021  90.6561490  32.4327391  20.9429812
  94.2298554  32.6055808  21.6219466  94.1130938  33.5501240  21.5198156
  93.4091000  32.3029369  22.0105265  88.5613496  19.0706121  27.6593820
  89.2072359  18.5605075  28.1481045  88.3530647  19.8074803  28.2337245
 101.0866888  26.1386969  33.1585960 101.9558048  26.3127621  32.7972595
 100.6073639  26.9581386  33.0361690  95.2553068  33.2584070  24.8375394
  96.1580315  33.2907680  25.1541889  95.0290438  32.3284521  24.8521730
  97.0106670  32.0115056  21.4985473  96.0602301  32.0116918  21.3849845
  97.3139156  31.2647791  20.9821507  92.9010987  16.2173738  31.7568834
  93.7642448  15.8610543  31.9672159  92.3276397  15.8787633  32.4444238
 112.7459364  37.8475595  22.5631235 113.3837774  37.7282342  21.8594575
 112.6280207  38.7956439  22.6219187 109.5549070  37.8003023  22.4992760
 109.2167581  37.6844088  21.6113295 110.4238838  37.3994188  22.4793766
 105.4135886  39.6538499  18.4889651 104.8500751  39.5628436  17.7205938
 105.2988281  38.8338404  18.9692143 110.0368853  38.9537875  28.4578965
 110.0257494  38.5590673  27.5859469 110.1989492  38.2203947  29.0512737
 102.9600318  41.1489691  21.3273871 103.7521610  40.8080515  20.9120170
 103.1996968  41.2584666  22.2476024 110.9935444  43.3209467  13.8004116
 110.3423424  43.9063547  13.4138129 111.7879807  43.8515662  13.8599153
 104.9191072  40.4098604  14.1991250 105.6921948  39.8627591  14.0604126
 105.2716470  41.2742853  14.4105711 106.7576114  41.7374986  27.4058149
 106.4665980  42.6420617  27.2904815 107.3933098  41.7791514  28.1202219
 107.6832321  39.1151835  23.9959509 108.2795893  38.8907857  23.2816472
 107.7407292  38.3736580  24.5984957 106.9753638  38.4719376  14.0334075
 106.8589896  37.7964280  14.7015159 107.0855898  37.9851750  13.2166228
 109.3185179  37.9329523  17.7380764 108.9543386  37.4060144  18.4493685
 110.1752295  37.5427992  17.5647249 115.2234480  29.2223856  25.0012030
 114.8917804  30.0919267  24.7773245 114.6280093  28.9060140  25.6806061
 111.7165999  41.4236402  24.4007943 111.4166722  42.3261441  24.2923750
 111.3717059  41.1568585  25.2529096 105.1678481  37.8750199  20.4344647
 104.2428977  37.7426413  20.6422339 105.4162894  38.6544418  20.9314590
 115.1163143  33.9418942  22.0805380 114.2080020  33.8734350  21.7864141
 115.0650739  34.4190887  22.9087206 102.5287292  37.5183472  21.2688436
 102.6579673  37.7717951  22.1827848 101.8484743  38.1111180  20.9493091
 106.6986779  48.1880722  17.3678911 106.6210809  49.1388547  17.4467391
 106.0948423  47.8426595  18.0253837 109.1904009  35.3608588  30.0240277
 108.4137343  35.9202508  30.0143142 109.8294572  35.8465371  30.5455148
 107.4450381  38.1694041  29.5858244 108.1865065  38.7079085  29.3093068
 106.7387367  38.7960330  29.7429796 112.9205721  40.3123181  28.1830406
 113.3289077  39.8705592  27.4385038 112.1982982  39.7375809  28.4364599
 109.2736791  35.2495788  25.5563963 110.1197986  35.6735202  25.6998612
 109.2135428  34.5929413  26.2502526 113.2434535  40.8724372  21.9382695
 112.6143398  41.0370086  21.2358763 112.8560197  41.2865982  22.7093659
 117.1223767  41.8078810  19.2927059 116.4374805  42.1877711  18.7424092
 117.2067617  42.4174137  20.0259006 112.4236236  32.9100157  27.2145137
 112.1797168  33.6642217  26.6779412 112.6996167  33.2885504  28.0492384
 114.3774699  39.4538769  25.8922402 114.5891594  40.0970529  25.2156783
 114.3304447  38.6201086  25.4244332 111.9800928  32.0656590  22.7958974
 111.1185407  32.3637843  23.0875712 112.0063362  32.2826989  21.8640007
 108.7962497  40.6098780  19.2032780 109.2600843  40.8886483  18.4137402
 108.5319295  39.7082225  19.0205871 105.6886578  40.1570262  22.1412543
 106.2587935  40.5857530  21.5030028 106.2794690  39.8752846  22.8396729
 107.7331383  36.7321933  16.0122345 108.4355427  37.1842976  16.4796271
 107.4012012  36.0905751  16.6402238 106.1811745  35.3233689  30.3873554
 105.5510405  36.0049970  30.6208951 106.0747833  35.2116771  29.4426693
 101.4756717  34.9905485  21.3139479 100.6855771  35.2463014  20.8379589
 101.9667965  35.8053823  21.4191519 115.4920527  42.3310724  24.0644759
 116.3137971  41.9290912  23.7827441 115.4882930  42.2278959  25.0160875
 103.4271463  35.3550064  18.2722955 102.6302626  35.4668759  18.7906451
 103.1997055  35.6936717  17.4063846 109.2577130  41.8794768  26.2205470
 109.3221563  42.3415175  27.0563642 108.5488054  41.2492133  26.3487780
  99.7594420  35.2435976  23.7454469 100.0102459  36.1282986  24.0112045
 100.2953969  35.0640577  22.9729561 108.9725148  43.5462875  16.0884450
 108.8370823  44.3914411  16.5169298 109.5134960  43.7482153  15.3250384
 105.4592488  29.6254455  32.7498805 105.0659433  29.0720654  33.4246450
 106.2758628  29.9365033  33.1405323 102.4254545  41.0638313  16.6612375
 102.9379066  41.8581563  16.8117940 103.0777258  40.3664604  16.5945977
 104.2349430  44.1804069  18.7435129 104.4116058  45.1022034  18.5556112
 105.0306264  43.8662489  19.1729508 108.3760449  31.0412334  30.3419062
 109.1170162  31.6419487  30.2623525 108.6078371  30.2989972  29.7837105
 103.5201787  36.2268701  28.6197292 103.4055302  35.3253959  28.9204391
 102.6646304  36.4732398  28.2682108 110.5993624  44.1686442  30.2184792
 110.1557478  43.3822820  29.9005697 111.2610838  44.3565592  29.5528683
 105.3580745  45.6982243  24.7445471 105.9088171  45.5699307  23.9722465
 104.5192221  45.9977132  24.3940364 112.6974862  44.4489242  28.2466194
 112.6793338  45.2698123  27.7546463 113.6194782  44.3243317  28.4716335
 109.1547916  41.9633371  29.0889702 109.6876253  41.2021659  28.8589010
 108.6261998  41.6707023  29.8313856 100.3903462  39.3926968  17.4371946
 101.2278684  39.8023976  17.2205654 100.5681730  38.4526410  17.4072140
 111.4014152  29.4398092  22.5832577 110.8978947  29.4028227  21.7700382
 111.6944759  30.3490835  22.6429234 107.6457038  29.5236822  21.5898759
 108.5110034  29.3279631  21.2304648 107.7134547  29.2947174  22.5168115
 110.5200629  41.0919364  16.6008514 109.9921991  40.3572123  16.2881751
 110.0188132  41.8694040  16.3548482 115.4993475  39.2868384  21.7175560
 114.8417150  39.9767645  21.8055689 116.3033874  39.6764816  22.0609547
 105.2519357  31.7539030  18.9615126 105.8263109  31.5314211  18.2288318
 105.8390339  31.8227724  19.7143727 111.5721308  47.6197081  12.5240173
 110.8983007  47.9228778  13.1325131 111.9587130  48.4226161  12.1745630
 110.7879765  35.1162212  22.0137843 109.8702326  35.3377159  21.8559531
 111.2039909  35.1908523  21.1549550 115.0760730  42.6218758  17.8958645
 114.6223057  41.7809668  17.9523835 114.4454697  43.2580157  18.2333425
 113.5193669  44.4595255  18.8308463 113.8116644  45.0200312  18.1120828
 114.0292290  44.7523816  19.5861622 100.4129633  36.7317683  18.1082679
 100.2154033  36.1387044  17.3833746  99.8576297  36.4269893  18.8258618
 108.3926357  36.6240789  20.2277272 108.4474967  35.6714626  20.1519749
 107.5817559  36.7800228  20.7118571 106.3318717  35.2417849  17.9867651
 105.5186582  35.5412020  18.3932843 106.8277711  34.8473538  18.7042134
 108.4827295  45.2375606  19.9201916 108.4403473  45.4636452  18.9910448
 109.3989994  45.0038981  20.0687717 111.9292928  35.7059674  26.8182545
 112.2842316  35.9331147  27.6777011 112.5765060  36.0378050  26.1959801
 105.8232792  32.8136205  23.6028886 106.4632171  32.6724964  22.9051850
 104.9910322  32.5270718  23.2267488 117.6860045  40.8954636  22.5343146
 118.1196552  40.8029926  23.3826200 118.3991626  40.8712137  21.8963162
 106.5993095  42.1138635  19.7163879 107.3933694  41.6188955  19.5146454
 105.8884788  41.5856498  19.3531584 111.4187940  44.4956731  24.0676246
 111.4724962  45.0647667  24.8353962 110.5502721  44.6658616  23.7030284
 102.9075859  36.2581717  15.7923631 101.9773447  36.1966172  16.0093594
 103.0033331  35.7357669  14.9960273 102.8261408  32.7836530  18.3801873
 103.0868225  33.6981863  18.2711034 103.6478580  32.3160972  18.5298486
 104.2986333  34.1974287  25.5500698 104.9709387  33.9891649  24.9013347
 103.4716120  33.9996373  25.1105930 118.5475595  40.9378337  25.0676031
 118.7411485  41.8424148  25.3135306 118.4476213  40.4785756  25.9014616
 110.2011905  30.8236228  27.5666359 109.5539820  31.5226177  27.4730835
 110.9712921  31.2572372  27.9342607 113.6090703  41.0885080  30.6416912
 113.4576210  40.8595632  29.7246995 113.5995383  42.0455681  30.6548257
 110.3776040  38.6616993  25.6263178 111.3068100  38.8128152  25.4532146
 109.9567070  38.7501013  24.7711825 109.1764371  42.6867657  23.3961716
 109.0375457  42.3186441  24.2687654 108.3878968  43.2015296  23.2245674
 109.7712523  47.7876753  14.7387252 109.9464279  47.3164797  15.5532875
 109.0845311  48.4142520  14.9668513 110.7269587  42.0649260  20.7850554
 110.3919419  42.0250030  21.6808204 110.2273532  41.3993976  20.3120964
 104.7013831  37.4716890  26.3103135 104.5633628  36.7397129  26.9114674
 105.6118754  37.3825790  26.0287323 107.3296131  37.1836849  25.7986814
 108.0395750  36.5430041  25.7573433 107.2865439  37.4349744  26.7212995
 115.3182910  44.1204202  28.7193394 115.2595456  43.4363423  28.0523977
 115.7202428  44.8623192  28.2674020 106.0425065  34.1702067  27.6182454
 105.5062422  33.7192805  28.2704050 105.4541774  34.3047976  26.8752918
 104.3373609  50.9366116  21.5127113 104.5770207  51.5684640  22.1906131
 103.4942805  50.5854156  21.7992472 115.3200317  42.0843786  26.9507373
 114.4327096  41.7469708  27.0733772 115.8898868  41.3526818  27.1876139
  96.9729464  38.4167878  20.2750425  97.6600504  38.1029608  19.6871440
  96.8177593  39.3209243  20.0017676 101.7764186  33.3058075  24.7035448
 101.6922375  32.6983744  23.9685858 100.9546893  33.7967093  24.7044945
 108.8501471  46.7445239  23.9168617 108.7771642  47.5500210  24.4287921
 108.4078864  46.9437204  23.0916638 108.6391250  45.9817009  17.4271438
 107.8558772  46.5238689  17.5209663 109.3383995  46.4990988  17.8265679
 111.3100154  46.6432073  26.0726775 112.0228126  47.2779538  26.0002677
 110.8190183  46.7395939  25.2566777 113.0317681  40.5483325  17.6444067
 112.0973960  40.6684788  17.4748771 113.2094349  39.6455792  17.3804077
 108.5322869  33.9329021  19.7977328 108.1620657  33.3800062  20.4858234
 109.0281961  33.3287155  19.2452328 106.3612068  44.3926516  26.8932346
 107.0621527  45.0262999  27.0461740 105.8907183  44.7341248  26.1327985
 114.1613354  36.9471124  24.7184896 113.5084804  37.1947031  24.0637349
 114.5393733  36.1335262  24.3847374 111.1220527  46.9830817  18.8213067
 111.3042922  46.1652473  19.2840819 111.9453513  47.1998509  18.3837957
 111.4562693  45.9099002  16.0828115 111.9850459  45.3991456  15.4698277
 111.7190913  45.5941532  16.9473648 110.2100927  37.6890935  31.2050933
 109.5341564  37.5885064  31.8753309 111.0328560  37.5330148  31.6686931
 101.9579786  43.9262871  23.8263449 102.5433222  43.1806559  23.9591353
 101.7604624  44.2366828  24.7100113 104.8118441  46.9614119  18.8425891
 104.1428816  47.4460246  18.3589931 104.6731311  47.2083339  19.7569270
  96.5497440  36.4968471  22.5467892  96.5881540  35.9632062  23.3405010
  96.0437733  35.9703677  21.9278869 108.9523709  48.9957862  25.4408549
 109.5042018  49.1589484  26.2057635 109.2929903  49.5862300  24.7688574
 103.9288203  31.3433012  26.0430434 103.9929529  32.2047843  25.6307832
 103.8655323  30.7307014  25.3102793 103.4040475  33.4156144  29.6903468
 104.0312514  33.0333222  30.3040993 102.5468394  33.1970346  30.0559161
 113.8034584  43.8219120  31.2957204 114.3474488  44.4349078  30.8012159
 113.2221429  44.3798698  31.8124217 100.1806018  35.2232574  15.6221823
 100.4759459  34.3143252  15.5688877  99.2794054  35.2020313  15.3002826
 112.0892097  46.9439838  22.4272232 111.9643236  46.1429577  21.9183177
 112.7471188  47.4386031  21.9386202 103.7100265  33.2988570  21.6049372
 102.9886851  33.9124538  21.4656845 104.4993521  33.8346335  21.5266018
 114.1527005  44.7448858  24.0551782 113.2057341  44.6254209  23.9830108
 114.5009778  43.8571356  24.1378043 106.5126579  30.6342997  27.8790024
 107.0360980  30.8805293  28.6416333 106.2938912  31.4663031  27.4593161
 101.9093860  32.9046671  15.7461148 101.5806566  32.0244050  15.5636254
 102.2633230  32.8494340  16.6337538 111.1573438  44.5401574  20.2556134
 111.0098401  43.6118281  20.4363704 111.9826932  44.5621665  19.7713209
 105.0235683  33.1919641  16.1136626 105.3631755  33.7205562  15.3915234
 105.4707803  33.5300047  16.8895193 114.7607560  45.3630133  21.3421007
 115.6854108  45.1572994  21.2045458 114.5922864  45.1146534  22.2510348
 107.7179124  31.5756692  25.5639694 107.3775944  30.7764505  25.9660374
 107.0118130  31.8758403  24.9916527 108.3695595  28.6606004  24.0167017
 109.1921665  28.1866482  23.8945907 108.6133659  29.4396488  24.5165703
 105.8934174  35.3525125  21.8258996 105.7478755  35.6665428  22.7183277
 105.4159378  35.9710025  21.2729894 107.7530557  32.3427673  21.8739885
 107.7392126  31.4468766  21.5372183 108.4702985  32.3498337  22.5078171
 109.6056688  32.7765013  23.9193013 109.3474466  33.6982084  23.9177343
 109.0741728  32.3795448  24.6093477 114.5502876  45.8815800  16.6983098
 114.7239754  45.3162223  15.9456951 115.0431768  46.6816695  16.5162588
 100.3679836  37.8930469  24.7646657  99.8233304  38.6690277  24.8966931
 101.2459186  38.2401274  24.6065778 101.1545858  37.0200365  27.6576814
 100.4127594  37.1683001  28.2441444 100.8338602  37.2808631  26.7943563
 109.0989521  46.5616344  27.4557204 109.4076647  46.3165490  28.3279903
 109.8965003  46.7662982  26.9676074 109.1210133  48.7154253  19.6862580
 108.6815123  48.2230632  20.3795437 109.8718250  48.1727221  19.4454656
 101.6002472  44.9065794  19.6887208 102.4260492  44.6069566  19.3085852
 101.2496524  44.1373417  20.1376997 106.5684005  44.2592262  21.7584882
 105.9464014  43.5962967  21.4587110 107.2388872  44.2853394  21.0758530
  99.8011077  42.8252121  20.6476142  98.9642985  42.3974295  20.4660143
  99.7734722  43.0184564  21.5846933 106.6408532  32.7374050  31.3517388
 106.6896688  33.6136173  30.9695158 107.1831047  32.1951443  30.7789031
 117.1263378  43.2815174  30.6318525 116.3358922  43.2639313  30.0923025
 116.8896733  43.8203467  31.3867562 117.2461253  40.1307640  27.9451254
 117.2959258  39.9657648  28.8866776 117.1375177  39.2634899  27.5549134
 106.1297512  42.8096186  15.2343343 106.2785632  43.4931650  14.5810015
 106.9363955  42.7901276  15.7492798 114.5365016  36.1138568  29.2610560
 115.4374878  35.9745033  28.9694558 114.6112990  36.2793023  30.2008738
 108.8707821  33.4905423  28.1063747 108.0011130  33.7838989  27.8346335
 109.1067301  34.0745868  28.8271010 118.7479450  42.5504582  28.1893275
 118.4564258  42.9134562  29.0256736 118.1351581  41.8371590  28.0106607
 116.9966638  37.6737196  26.6573333 117.4720760  37.8664843  25.8492185
 116.0732204  37.7296382  26.4116717 103.8850145  38.8361363  16.2404411
 103.6396187  37.9323693  16.4384622 104.0546059  38.8378514  15.2983889
 111.5746855  29.7085040  25.6229167 112.0928799  30.4446067  25.2975656
 111.2201988  30.0149033  26.4575926 103.1545792  34.5689721  13.7390573
 102.4615037  34.6434076  13.0830609 102.9097544  33.8050065  14.2612090
 109.6292917  45.3044316  12.7055090 109.0566885  45.9234503  12.2525562
 110.2025711  45.8543678  13.2395012 115.6968307  34.5502956  24.8901639
 116.6485730  34.6501054  24.9113863 115.5271758  33.7581225  25.3999723
 113.7182687  31.6358540  25.0761040 113.1232619  31.9163552  24.3807528
 113.4332383  32.1252440  25.8477781 118.1756385  37.7709076  24.0043938
 118.1432705  36.8325077  24.1903622 118.7857009  37.8493113  23.2709763
 109.8978408  40.6922875  31.5071799 110.8181418  40.8701474  31.7011846
 109.8627991  39.7478920  31.3551499  99.1160573  35.8861469  20.4325074
  98.7963358  35.0326777  20.1399448  98.5694002  36.1010047  21.1883041
 102.8940481  38.6023910  24.1494581 103.1126491  39.5341018  24.1682614
 103.3066255  38.2431884  24.9349384 107.7668346  34.1757116  33.5397330
 107.6665073  35.1251472  33.4709421 107.5489888  33.8475354  32.6673400
  98.9848833  39.5064380  22.4018196  98.2912305  39.0918333  21.8888150
  99.7321824  39.5484917  21.8051615 107.6299616  37.6054254  32.3562391
 107.1466698  38.4054614  32.5626280 107.7160555  37.6162199  31.4029835
 100.8985576  39.4382634  20.2784211 100.8756264  39.5370321  19.3266094
 101.2086212  40.2847785  20.6001377 103.5572954  41.4958789  24.3930825
 104.5116207  41.4642731  24.3260757 103.3585477  41.0349413  25.2081051
 104.1472336  40.0659905  26.9601623 104.9665225  40.5603984  26.9836460
 104.4209144  39.1491873  26.9319190 101.9123183  47.0378409  21.4101023
 101.7777651  46.2778809  20.8439021 101.4955245  47.7619308  20.9429812
 105.0692309  47.9347726  21.6219466 104.9524693  48.8793158  21.5198156
 104.2484755  47.6321287  22.0105265  99.4007250  34.3998039  27.6593820
 100.0466114  33.8896993  28.1481045  99.1924401  35.1366721  28.2337245
 111.9260642  41.4678886  33.1585960 112.7951802  41.6419539  32.7972595
 111.4467394  42.2873303  33.0361690 106.0946823  48.5875987  24.8375394
 106.9974069  48.6199598  25.1541889 105.8684193  47.6576438  24.8521730
 107.8500425  47.3406974  21.4985473 106.8996056  47.3408836  21.3849845
 108.1532911  46.5939709  20.9821507 103.7404741  31.5465656  31.7568834
 104.6036203  31.1902461  31.9672159 103.1670152  31.2079551  32.4444238
 120.3942824  53.1294941  22.4992760 120.0561336  53.0136005  21.6113295
 121.2632593  52.7286106  22.4793766 116.2529640  54.9830417  18.4889651
 115.6894505  54.8920354  17.7205938 116.1382035  54.1630321  18.9692143
 120.8762607  54.2829792  28.4578965 120.8651248  53.8882590  27.5859469
 121.0383247  53.5495865  29.0512737 113.7994072  56.4781609  21.3273871
 114.5915364  56.1372433  20.9120170 114.0390722  56.5876584  22.2476024
 115.7584826  55.7390522  14.1991250 116.5315702  55.1919509  14.0604126
 116.1110225  56.6034771  14.4105711 117.5969869  57.0666904  27.4058149
 117.3059735  57.9712535  27.2904815 118.2326853  57.1083432  28.1202219
 118.5226075  54.4443753  23.9959509 119.1189648  54.2199775  23.2816472
 118.5801047  53.7028498  24.5984957 117.8147393  53.8011294  14.0334075
 117.6983651  53.1256197  14.7015159 117.9249652  53.3143668  13.2166228
 120.1578934  53.2621441  17.7380764 119.7937141  52.7352062  18.4493685
 121.0146049  52.8719910  17.5647249 116.0072235  53.2042116  20.4344647
 115.0822732  53.0718330  20.6422339 116.2556648  53.9836336  20.9314590
 113.3681046  52.8475390  21.2688436 113.4973427  53.1009869  22.1827848
 112.6878497  53.4403098  20.9493091 117.5380533  63.5172640  17.3678911
 117.4604563  64.4680465  17.4467391 116.9342177  63.1718512  18.0253837
 120.0297763  50.6900505  30.0240277 119.2531097  51.2494425  30.0143142
 120.6688326  51.1757288  30.5455148 118.2844136  53.4985959  29.5858244
 119.0258820  54.0371003  29.3093068 117.5781121  54.1252247  29.7429796
 120.1130545  50.5787706  25.5563963 120.9591740  51.0027119  25.6998612
 120.0529183  49.9221330  26.2502526 119.6356252  55.9390698  19.2032780
 120.0994597  56.2178401  18.4137402 119.3713050  55.0374142  19.0205871
 116.5280333  55.4862179  22.1412543 117.0981690  55.9149448  21.5030028
 117.1188445  55.2044764  22.8396729 118.5725138  52.0613850  16.0122345
 119.2749181  52.5134894  16.4796271 118.2405766  51.4197669  16.6402238
 117.0205499  50.6525607  30.3873554 116.3904160  51.3341888  30.6208951
 116.9141587  50.5408688  29.4426693 112.3150472  50.3197403  21.3139479
 111.5249526  50.5754931  20.8379589 112.8061719  51.1345741  21.4191519
 114.2665217  50.6841982  18.2722955 113.4696380  50.7960676  18.7906451
 114.0390809  51.0228634  17.4063846 120.0970885  57.2086685  26.2205470
 120.1615317  57.6707093  27.0563642 119.3881809  56.5784050  26.3487780
 110.5988175  50.5727893  23.7454469 110.8496213  51.4574903  24.0112045
 111.1347723  50.3932495  22.9729561 119.8118902  58.8754793  16.0884450
 119.6764577  59.7206329  16.5169298 120.3528715  59.0774070  15.3250384
 116.2986242  44.9546373  32.7498805 115.9053188  44.4012571  33.4246450
 117.1152382  45.2656951  33.1405323 113.2648300  56.3930231  16.6612375
 113.7772820  57.1873481  16.8117940 113.9171013  55.6956521  16.5945977
 115.0743184  59.5095987  18.7435129 115.2509813  60.4313952  18.5556112
 115.8700018  59.1954406  19.1729508 119.2154203  46.3704252  30.3419062
 119.9563916  46.9711405  30.2623525 119.4472126  45.6281890  29.7837105
 114.3595541  51.5560619  28.6197292 114.2449056  50.6545876  28.9204391
 113.5040059  51.8024316  28.2682108 116.1974500  61.0274161  24.7445471
 116.7481925  60.8991224  23.9722465 115.3585976  61.3269050  24.3940364
 119.9941671  57.2925289  29.0889702 120.5270008  56.5313577  28.8589010
 119.4655752  56.9998941  29.8313856 111.2297217  54.7218885  17.4371946
 112.0672439  55.1315894  17.2205654 111.4075484  53.7818327  17.4072140
 118.4850792  44.8528740  21.5898759 119.3503789  44.6571548  21.2304648
 118.5528301  44.6239091  22.5168115 121.3594384  56.4211281  16.6008514
 120.8315745  55.6864041  16.2881751 120.8581886  57.1985958  16.3548482
 116.0913111  47.0830948  18.9615126 116.6656863  46.8606129  18.2288318
 116.6784094  47.1519642  19.7143727 111.2523388  52.0609601  18.1082679
 111.0547788  51.4678961  17.3833746 110.6970052  51.7561811  18.8258618
 119.2320111  51.9532707  20.2277272 119.2868721  51.0006543  20.1519749
 118.4211313  52.1092146  20.7118571 117.1712471  50.5709767  17.9867651
 116.3580337  50.8703937  18.3932843 117.6671465  50.1765456  18.7042134
 119.3221049  60.5667524  19.9201916 119.2797228  60.7928370  18.9910448
 120.2383748  60.3330898  20.0687717 116.6626546  48.1428122  23.6028886
 117.3025925  48.0016881  22.9051850 115.8304077  47.8562636  23.2267488
 117.4386850  57.4430553  19.7163879 118.2327448  56.9480873  19.5146454
 116.7278542  56.9148416  19.3531584 113.7469613  51.5873634  15.7923631
 112.8167201  51.5258090  16.0093594 113.8427085  51.0649587  14.9960273
 113.6655162  48.1128447  18.3801873 113.9261980  49.0273780  18.2711034
 114.4872335  47.6452890  18.5298486 115.1380088  49.5266204  25.5500698
 115.8103141  49.3183567  24.9013347 114.3109874  49.3288290  25.1105930
 120.0158126  58.0159575  23.3961716 119.8769212  57.6478359  24.2687654
 119.2272722  58.5307214  23.2245674 120.6106278  63.1168671  14.7387252
 120.7858034  62.6456714  15.5532875 119.9239066  63.7434437  14.9668513
 121.5663341  57.3941177  20.7850554 121.2313174  57.3541947  21.6808204
 121.0667287  56.7285893  20.3120964 115.5407585  52.8008807  26.3103135
 115.4027383  52.0689046  26.9114674 116.4512508  52.7117707  26.0287323
 118.1689886  52.5128767  25.7986814 118.8789504  51.8721959  25.7573433
 118.1259194  52.7641662  26.7212995 116.8818820  49.4993985  27.6182454
 116.3456177  49.0484723  28.2704050 116.2935528  49.6339893  26.8752918
 115.1767363  66.2658034  21.5127113 115.4163961  66.8976558  22.1906131
 114.3336560  65.9146074  21.7992472 107.8123219  53.7459796  20.2750425
 108.4994259  53.4321526  19.6871440 107.6571347  54.6501160  20.0017676
 112.6157941  48.6349992  24.7035448 112.5316130  48.0275662  23.9685858
 111.7940647  49.1259011  24.7044945 119.6895225  62.0737156  23.9168617
 119.6165397  62.8792128  24.4287921 119.2472618  62.2729122  23.0916638
 119.4785005  61.3108926  17.4271438 118.6952527  61.8530607  17.5209663
 120.1777750  61.8282906  17.8265679 119.3716624  49.2620939  19.7977328
 119.0014411  48.7091979  20.4858234 119.8675716  48.6579072  19.2452328
 117.2005822  59.7218434  26.8932346 117.9015282  60.3554917  27.0461740
 116.7300937  60.0633165  26.1327985 112.7973540  59.2554789  23.8263449
 113.3826977  58.5098477  23.9591353 112.5998379  59.5658746  24.7100113
 115.6512195  62.2906036  18.8425891 114.9822571  62.7752164  18.3589931
 115.5125065  62.5375257  19.7569270 107.3891195  51.8260389  22.5467892
 107.4275294  51.2923980  23.3405010 106.8831488  51.2995595  21.9278869
 119.7917464  64.3249780  25.4408549 120.3435772  64.4881401  26.2057635
 120.1323657  64.9154218  24.7688574 114.7681957  46.6724930  26.0430434
 114.8323284  47.5339760  25.6307832 114.7049077  46.0598931  25.3102793
 114.2434230  48.7448062  29.6903468 114.8706269  48.3625139  30.3040993
 113.3862149  48.5262264  30.0559161 111.0199772  50.5524491  15.6221823
 111.3153214  49.6435170  15.5688877 110.1187808  50.5312231  15.3002826
 114.5494019  48.6280488  21.6049372 113.8280605  49.2416456  21.4656845
 115.3387275  49.1638253  21.5266018 117.3520333  45.9634914  27.8790024
 117.8754735  46.2097211  28.6416333 117.1332666  46.7954949  27.4593161
 112.7487614  48.2338589  15.7461148 112.4200320  47.3535968  15.5636254
 113.1026985  48.1786258  16.6337538 115.8629437  48.5211559  16.1136626
 116.2025510  49.0497480  15.3915234 116.3101558  48.8591965  16.8895193
 118.5572878  46.9048609  25.5639694 118.2169698  46.1056422  25.9660374
 117.8511884  47.2050320  24.9916527 119.2089350  43.9897922  24.0167017
 120.0315419  43.5158400  23.8945907 119.4527413  44.7688406  24.5165703
 116.7327929  50.6817042  21.8258996 116.5872509  50.9957346  22.7183277
 116.2553132  51.3001943  21.2729894 118.5924312  47.6719590  21.8739885
 118.5785880  46.7760684  21.5372183 119.3096740  47.6790254  22.5078171
 120.4450442  48.1056931  23.9193013 120.1868220  49.0274001  23.9177343
 119.9135483  47.7087365  24.6093477 111.2073591  53.2222387  24.7646657
 110.6627059  53.9982195  24.8966931 112.0852941  53.5693191  24.6065778
 111.9939613  52.3492283  27.6576814 111.2521349  52.4974919  28.2441444
 111.6732357  52.6100549  26.7943563 119.9383275  61.8908261  27.4557204
 120.2470402  61.6457408  28.3279903 120.7358757  62.0954900  26.9676074
 119.9603887  64.0446171  19.6862580 119.5208878  63.5522550  20.3795437
 120.7112004  63.5019139  19.4454656 112.4396226  60.2357712  19.6887208
 113.2654246  59.9361484  19.3085852 112.0890278  59.4665334  20.1376997
 117.4077759  59.5884180  21.7584882 116.7857769  58.9254885  21.4587110
 118.0782626  59.6145312  21.0758530 110.6404831  58.1544038  20.6476142
 109.8036740  57.7266213  20.4660143 110.6128477  58.3476482  21.5846933
 117.4802287  48.0665968  31.3517388 117.5290442  48.9428091  30.9695158
 118.0224801  47.5243361  30.7789031 116.9691266  58.1388103  15.2343343
 117.1179387  58.8223568  14.5810015 117.7757710  58.1193193  15.7492798
 119.7101575  48.8197341  28.1063747 118.8404885  49.1130907  27.8346335
 119.9461056  49.4037786  28.8271010 114.7243899  54.1653281  16.2404411
 114.4789941  53.2615611  16.4384622 114.8939814  54.1670432  15.2983889
 113.9939547  49.8981639  13.7390573 113.3008792  49.9725994  13.0830609
 113.7491299  49.1341982  14.2612090 120.4686672  60.6336234  12.7055090
 119.8960639  61.2526421  12.2525562 121.0419466  61.1835596  13.2395012
 109.9554328  51.2153386  20.4325074 109.6357112  50.3618695  20.1399448
 109.4087756  51.4301965  21.1883041 113.7334236  53.9315827  24.1494581
 113.9520245  54.8632935  24.1682614 114.1460009  53.5723802  24.9349384
 118.6062101  49.5049033  33.5397330 118.5058828  50.4543390  33.4709421
 118.3883643  49.1767272  32.6673400 109.8242588  54.8356298  22.4018196
 109.1306059  54.4210251  21.8888150 110.5715579  54.8776834  21.8051615
 118.4693371  52.9346172  32.3562391 117.9860453  53.7346532  32.5626280
 118.5554310  52.9454117  31.4029835 111.7379330  54.7674552  20.2784211
 111.7150019  54.8662239  19.3266094 112.0479967  55.6139703  20.6001377
 114.3966708  56.8250707  24.3930825 115.3509962  56.7934649  24.3260757
 114.1979232  56.3641330  25.2081051 114.9866090  55.3951823  26.9601623
 115.8058979  55.8895901  26.9836460 115.2602898  54.4783791  26.9319190
 112.7516937  62.3670326  21.4101023 112.6171405  61.6070727  20.8439021
 112.3348999  63.0911226  20.9429812 115.9086063  63.2639643  21.6219466
 115.7918447  64.2085076  21.5198156 115.0878509  62.9613205  22.0105265
 110.2401005  49.7289957  27.6593820 110.8859868  49.2188911  28.1481045
 110.0318156  50.4658638  28.2337245 116.9340577  63.9167905  24.8375394
 117.8367824  63.9491515  25.1541889 116.7077947  62.9868356  24.8521730
 118.6894179  62.6698892  21.4985473 117.7389810  62.6700753  21.3849845
 118.9926665  61.9231626  20.9821507 114.5798496  46.8757574  31.7568834
 115.4429957  46.5194379  31.9672159 114.0063906  46.5371469  32.4444238
 118.6516973  69.0751713  20.2750425 119.3388013  68.7613443  19.6871440
 118.4965102  69.9793078  20.0017676 118.2284949  67.1552307  22.5467892
 118.2669049  66.6215897  23.3405010 117.7225242  66.6287512  21.9278869
 121.4798586  73.4835956  20.6476142 120.6430494  73.0558130  20.4660143
 121.4522231  73.6768399  21.5846933 120.7948082  66.5445304  20.4325074
 120.4750867  65.6910612  20.1399448 120.2481511  66.7593882  21.1883041
 120.6636342  70.1648216  22.4018196 119.9699814  69.7502168  21.8888150
 121.4109333  70.2068752  21.8051615   4.3495213  54.0041396 100.0657888
   3.5958921  53.4348794  99.9101892   4.4842754  53.9704060 101.0128523
   0.7143825  55.4449384 100.3624003   1.5490717  55.8839188 100.5261563
   0.8502954  54.9688038  99.5432248   4.7601628  54.1617006 102.7978132
   5.4905016  53.9002294 103.3585836   4.1508573  53.4245728 102.8380200
   2.8416925  52.3024868 103.3952584   2.1150089  52.1680833 102.7869075
   2.4264212  52.6101697 104.2009302   0.4594720  48.5236721 100.7486015
   1.0539211  48.2832457 100.0379323   0.5321304  47.8043851 101.3759551
   2.7665793  51.8302921  99.5229436   2.2065351  51.8996111 100.2960998
   2.1609296  51.6543906  98.8028933   4.3521811  68.5059435 102.2159392
   4.9900221  68.3866183 101.5122732   4.2342654  69.4540279 102.2747344
   1.1611518  68.4586864 102.1520917   0.8230029  68.3427928 101.2641452
   2.0301286  68.0578029 102.1321923   2.5997892  73.9793308  93.4532273
   1.9485872  74.5647388  93.0666286   3.3942255  74.5099503  93.5127310
   3.9063080  66.2310889  99.2912600   4.6926169  65.8130312  98.9403017
   4.1701784  67.1356981  99.4594248   4.0773157  71.6683740  93.9901257
   3.4418990  71.7418366  94.7022162   3.7470563  72.2577338  93.3120336
   9.3071507  66.1686122 100.1945579  10.0396679  65.5985339 100.4283408
   8.5510863  65.7807723 100.6352084   0.9247627  68.5913364  97.3908921
   0.5605834  68.0643985  98.1021843   1.7814742  68.2011833  97.2175406
   6.8296927  59.8807697 104.6540187   6.4980252  60.7503108 104.4301402
   6.2342541  59.5643981 105.3334218   3.3228447  72.0820243 104.0536100
   3.0229170  72.9845281 103.9451907   2.9779506  71.8152426 104.9057253
   6.7225591  64.6002783 101.7333537   5.8142468  64.5318191 101.4392298
   6.6713186  65.0774728 102.5615363   8.5887237  62.8019221 103.5111411
   7.9461617  63.0951754 102.8651206   8.0842165  62.6872141 104.3164608
   6.2427401  66.5482394  94.1997270   7.1545257  66.7809781  94.0244968
   5.7337048  67.1319439  93.6372349   0.8799238  65.9079629 105.2092120
   1.7260433  66.3319042 105.3526769   0.8197876  65.2513253 105.9030683
   4.8496983  71.5308213 101.5910852   4.2205845  71.6953927 100.8886920
   4.4622645  71.9449822 102.3621816   8.7286215  72.4662651  98.9455216
   8.0437253  72.8461552  98.3952249   8.8130064  73.0757977  99.6787163
   4.0298684  63.5683997 106.8673294   3.7859615  64.3226058 106.3307569
   4.3058614  63.9469345 107.7020541   5.9837146  70.1122610 105.5450559
   6.1954042  70.7554370 104.8684940   5.9366895  69.2784926 105.0772489
   3.5863375  62.7240430 102.4487131   2.7247854  63.0221684 102.7403869
   3.6125810  62.9410829 101.5168164   7.0982974  72.9894565 103.7172917
   7.9200418  72.5874752 103.4355598   7.0945377  72.8862799 104.6689032
  15.1888967  69.3333314 100.0657888  14.4352676  68.7640712  99.9101892
  15.3236509  69.2995978 101.0128523   0.5787595  74.2046716  95.7412607
   0.4433270  75.0498252  96.1697455   1.1197408  74.4065994  94.9778541
   3.9280059  57.7277278 104.2711501   3.5844328  58.6178919 104.1950611
   4.2959022  57.5378935 103.4081086   3.8930342  67.7185889  92.7783936
   3.3776965  68.4890493  93.0172323   3.6207650  67.0451025  93.4016997
   1.4777453  62.5635590  97.8369174   0.6219049  62.1742440  97.6574813
   1.8904405  62.6427550  96.9768960   3.0076599  60.0981933 102.2360734
   2.5041395  60.0612068 101.4228539   3.3007206  61.0074676 102.2957391
   8.8664616  70.4718244  94.7137109   8.0894059  70.1329403  94.2692272
   9.5456097  70.4770867  94.0392074   3.6816645  65.5912981  94.6043717
   3.3766780  65.9059130  95.4553860   4.6347087  65.6694401  94.6471050
   2.1263077  71.7503204  96.2536671   1.5984438  71.0155964  95.9409909
   1.6250579  72.5277881  96.0076639   7.1055923  69.9452225 101.3703717
   6.4479597  70.6351486 101.4583846   7.9096322  70.3348657 101.7137704
   5.9161382  68.2996597  99.4207659   6.4293263  68.9326589  99.9229369
   6.5662605  67.6997793  99.0551019   3.1783756  78.2780922  92.1768330
   2.5045455  78.5812618  92.7853288   3.5649578  79.0810002  91.8273787
   2.3942212  65.7746053 101.6666000   1.4764774  65.9961000 101.5087688
   2.8102356  65.8492363 100.8077707   3.1777260  67.1737469  96.7968680
   3.9249079  67.6858866  96.4875802   3.4468850  66.8521521  97.6573074
   1.4503910  69.6696009  93.7795634   0.5415130  69.3855042  93.8768104
   1.4798994  70.0895088  92.9198941   6.6823178  73.2802599  97.5486802
   6.2285505  72.4393509  97.6051992   6.0517144  73.9163997  97.8861582
   5.6256097  64.2094585  98.7787469   4.8878854  63.6971971  99.1097712
   5.8782871  63.7694967  97.9670746   5.1256117  75.1179096  98.4836620
   5.4179091  75.6784153  97.7648986   5.6354738  75.4107657  99.2389779
   5.7267725  56.9870837  99.3729239   6.0326601  56.1268200  99.0855154
   6.4520329  57.5788457  99.1728232   1.1479998  71.2104753  91.1183713
   0.7099428  70.4940612  90.6589350   1.8890439  71.4380868  90.5568804
   3.5355376  66.3643514 106.4710702   3.8904764  66.5914987 107.3305168
   4.1827507  66.6961891 105.8487958   9.2653113  69.4861950  97.1760031
   9.1271012  69.6763546  96.2481221   8.9089332  70.2481333  97.6328083
   9.2922493  71.5538477 102.1871303   9.7258999  71.4613766 103.0354357
  10.0054073  71.5295978 101.5491319  10.1538042  71.5962178 104.7204188
  10.3473932  72.5007988 104.9663463  10.0538660  71.1369597 105.5542773
   1.8074353  61.4820068 107.2194516   1.1602268  62.1810018 107.1258992
   2.5775368  61.9156212 107.5870764   1.9838487  69.3200833 105.2791335
   2.9130547  69.4711993 105.1060303   1.5629517  69.4084854 104.4239982
   1.3774971  78.4460594  94.3915409   1.5526727  77.9748637  95.2061032
   0.6907759  79.0726360  94.6196670   2.3332034  72.7233100 100.4378711
   1.9981867  72.6833870 101.3336361   1.8335980  72.0577816  99.9649121
   5.2691226  70.0689135  90.7115770   4.6520396  69.3435963  90.6148823
   4.8007714  70.8298495  90.3682845   6.9262765  72.7427627 106.6035530
   6.0389543  72.4053549 106.7261929   7.4961316  72.0110658 106.8404296
   3.5550348  62.4495479  99.7233801   4.0519047  61.6965441  99.4034871
   2.7837329  62.4859795  99.1577010  11.4080105  68.1535844 101.3652092
  11.3969981  69.0360560 100.9946025  10.5397485  67.8007395 101.1706629
   4.6380129  71.2067166  97.2972224   3.7036407  71.3268629  97.1276928
   4.8156797  70.3039633  97.0332234   8.0252680  67.0484485  97.8322258
   8.4913132  67.8812477  97.7582561   8.4760180  66.5829467  98.5367517
   6.0928911  73.3928307  94.8308410   6.3688755  73.2784901  95.7402284
   5.2233410  72.9945791  94.7920583   5.9969343  59.4165072 101.8713159
   5.0832422  59.6469299 102.0395366   6.4262444  59.5003516 102.7227192
   5.7675801  67.6054964 104.3713053   5.1147251  67.8530872 103.7165506
   6.1456181  66.7919102 104.0375531   2.7282975  77.6414657  98.4741224
   2.9105370  76.8236313  98.9368976   3.5515961  77.8582350  98.0366114
   3.0625140  76.5682843  95.7356272   3.5912907  76.0575297  95.1226434
   3.3253360  76.2525373  96.6001805   3.6954544  77.6023678 102.0800389
   3.5705684  76.8013418 101.5711334   4.3533635  78.0969872 101.5914359
   5.7589453  75.4032698 103.7079939   4.8119788  75.2838050 103.6358266
   6.1072226  74.5155196 103.7906200   2.7635886  75.1985415  99.9084291
   2.6160848  74.2702122 100.0891861   3.5889379  75.2205505  99.4241366
   6.3670008  76.0213973 100.9949164   7.2916555  75.8156835 100.8573615
   6.1985311  75.7730375 101.9038505   2.7597400  63.0523252  94.9016408
   2.9761015  63.9347890  94.6005236   2.2791467  62.6609466  94.1722050
   1.2119135  63.4348854 103.5721170   0.9536913  64.3565924 103.5705500
   0.6804176  63.0379288 104.2621634   6.1565324  76.5399641  96.3511255
   6.3302202  75.9746063  95.5985108   6.6494215  77.3400536  96.1690745
   1.6321091  59.5680804  99.9322332   1.6542788  59.6320137  98.9774312
   2.0489150  58.7285313 100.1262839  12.0104715  69.3036064  97.9701555
  12.4535861  68.5543389  97.5720678  11.1331225  69.2946200  97.5875287
   7.1440497  75.8566405  93.4508154   7.8391401  76.4773098  93.6695468
   7.4863647  75.0061756  93.7260531   9.0431920  73.3066111  94.9795484
   9.5683244  73.6453384  94.2544804   8.9554272  72.3713126  94.7958619
   8.8523701  70.7891481 107.5979411   8.9021706  70.6241488 108.5394934
   8.7437624  69.9218740 107.2077292   6.1427463  66.7722409 108.9138717
   7.0437326  66.6328874 108.6222715   6.2175438  66.9376864 109.8536895
  10.3541898  73.2088422 107.8421432  10.0626706  73.5718403 108.6784893
   9.7414029  72.4955431 107.6634764  11.5537580  70.7741302 100.3624003
  12.3884471  71.2131106 100.5261563  11.6896709  70.2979955  99.5432248
   8.6029086  68.3321037 106.3101490   9.0783207  68.5248683 105.5020342
   7.6794651  68.3880223 106.0644874   3.1809302  60.3668880 105.2757324
   3.6991246  61.1029907 104.9503813   2.8264435  60.6732874 106.1104083
   3.4321896  56.7869163 100.7958221   3.7123650  56.1192352 101.4218647
   4.2172503  56.9798259 100.2832885   1.2355365  75.9628157  92.3583247
   0.6629332  76.5818344  91.9053719   1.8088159  76.5127519  92.8923169
   7.3030755  65.2086797 104.5429796   8.2548178  65.3084895 104.5642020
   7.1334205  64.4165066 105.0527880   5.3245134  62.2942380 104.7289197
   4.7295066  62.5747393 104.0335685   5.0394831  62.7836281 105.5005938
   4.4552625  76.2465307  93.4891829   5.3883298  76.1810869  93.6924705
   4.3675838  77.0821574  93.0306362   7.0840641  75.5631177  90.4495777
   7.0054273  75.2291041  91.3431535   7.9050308  76.0552945  90.4487249
   9.7818833  68.4292917 103.6572096   9.7495153  67.4908917 103.8431779
  10.3919456  68.5076953 102.9237920   1.6202163  67.2988970  89.6999300
   2.5661268  67.1695178  89.7687718   1.2416408  66.5603632  90.1768728
   9.9313321  65.2203960 103.7030379   9.4152370  64.4362417 103.5160308
  10.8153270  64.8922677 103.8676898   7.5924048  58.9644976  99.6626191
   7.3948869  58.6560064 100.5469523   8.2023754  59.6906615  99.7924121
  15.5995382  69.4908924 102.7978132  16.3298771  69.2294212 103.3585836
  14.9902328  68.7537645 102.8380200  13.6810680  67.6316786 103.3952584
  12.9543843  67.4972751 102.7869075  13.2657966  67.9393615 104.2009302
   1.4207146  59.7675836  95.7898426   0.6107875  59.4222921  96.1653672
   2.1091563  59.4583379  96.3786038   3.3497695  58.8453883  97.4122723
   3.9028733  59.2649336  98.0712746   3.5867781  57.9189631  97.4545679
   6.7276502  60.9554408  96.9201387   6.1475171  61.6139212  96.5379439
   6.4612434  60.1331752  96.5088805   5.1780068  60.3559465  99.1222707
   5.6779846  60.4676000  98.3137026   5.8215676  60.0520518  99.7623516
   5.5101380  63.1154498  95.9757735   4.6227235  63.4004149  95.7577930
   5.9255369  62.9548261  95.1285012   8.8615916  63.1401019  99.6912075
   9.6376306  63.6297472  99.9636691   8.1364050  63.5659073 100.1483944
  11.2988475  63.8528638 100.7486015  11.8932965  63.6124374 100.0379323
  11.3715058  63.1335769 101.3759551   4.6544593  72.8799173  90.0705755
   5.3580443  73.0849175  90.6863411   3.9307242  73.4475935  90.3354839
   5.4842403  68.6309034  96.1908025   5.4277605  69.0877585  95.3515658
   6.0370746  67.8699719  96.0130868   9.2947209  64.4198766  97.0158145
   9.0384144  64.0195402  97.8466353   8.6700077  65.1342560  96.8908284
  13.6059547  67.1594839  99.5229436  13.0459105  67.2288028 100.2960998
  13.0003051  66.9835824  98.8028933   6.5631291  73.3181702  92.1204215
   7.3976895  72.8862900  91.9381690   6.4015634  73.1463716  93.0481110
   6.2177183  69.8213815  93.4860555   6.1625987  69.6558087  92.5448999
   5.5923238  70.5289848  93.6422744   3.3425428  55.9164701  97.3191810
   2.5757824  55.3623188  97.4648492   3.7536133  55.9886570  98.1805961
  15.1915566  83.8351353 102.2159392  15.8293976  83.7158100 101.5122732
  15.0736409  84.7832197 102.2747344  12.0005272  83.7878781 102.1520917
  11.6623784  83.6719846 101.2641452  12.8695040  83.3869946 102.1321923
   7.8592088  85.6414258  98.1417808   7.2956953  85.5504195  97.3734095
   7.7444483  84.8214162  98.6220300  13.4391646  89.3085225  93.4532273
  12.7879626  89.8939306  93.0666286  14.2336009  89.8391420  93.5127310
   7.3647274  86.3974362  93.8519407   8.1378150  85.8503350  93.7132283
   7.7172672  87.2618612  94.0633868  10.1288523  85.1027593 103.6487666
  10.7252095  84.8783616 102.9344629  10.1863495  84.3612339 104.2513114
   9.7013551  82.5567029  91.4837857   9.9539072  82.0348550  90.7221320
   8.7638110  82.3933174  91.5864540  14.7456834  81.5602807  99.2912600
  15.5319923  81.1422230  98.9403017  15.0095539  82.4648899  99.4594248
  14.9166912  86.9975657  93.9901257  14.2812745  87.0710284  94.7022162
  14.5864318  87.5869256  93.3120336  20.1465261  81.4978040 100.1945579
  20.8790433  80.9277257 100.4283408  19.3904617  81.1099641 100.6352084
   9.4209840  84.4595135  93.6862232   9.3046098  83.7840038  94.3543316
   9.5312100  83.9727508  92.8694385  11.7641381  83.9205282  97.3908921
  11.3999588  83.3935903  98.1021843  12.6208497  83.5303751  97.2175406
  17.6690682  75.2099614 104.6540187  17.3374006  76.0795025 104.4301402
  17.0736295  74.8935898 105.3334218  11.4046868  78.9495181  92.3870270
  11.5721270  79.8175418  92.7540741  11.2144037  79.1122463  91.4631559
  14.1622201  87.4112160 104.0536100  13.8622924  88.3137199 103.9451907
  13.8173261  87.1444343 104.9057253   7.6134683  83.8625957 100.0872804
   6.6885179  83.7302171 100.2950496   7.8619096  84.6420176 100.5842747
  17.5619345  79.9294700 101.7333537  16.6536222  79.8610109 101.4392298
  17.5106941  80.4066645 102.5615363  11.3836089  81.4052839  93.3716936
  11.2635714  81.8509890  94.2102417  10.6888677  81.7538157  92.8130475
   9.1442981  94.1756481  97.0207068   9.0667011  95.1264306  97.0995548
   8.5404625  93.8302353  97.6781994  19.4280991  78.1311139 103.5111411
  18.7855372  78.4243672 102.8651206  18.9235920  78.0164059 104.3164608
  17.0821155  81.8774312  94.1997270  17.9939011  82.1101699  94.0244968
  16.5730802  82.4611356  93.6372349  11.7192993  81.2371547 105.2092120
  12.5654188  81.6610960 105.3526769  11.6591630  80.5805171 105.9030683
  15.6890737  86.8600130 101.5910852  15.0599600  87.0245845 100.8886920
  15.3016399  87.2741740 102.3621816  19.5679969  87.7954568  98.9455216
  18.8831007  88.1753470  98.3952249  19.6523819  88.4049895  99.6787163
  14.8692438  78.8975915 106.8673294  14.6253370  79.6517975 106.3307569
  15.1452369  79.2761263 107.7020541  16.8230901  85.4414527 105.5450559
  17.0347796  86.0846287 104.8684940  16.7760649  84.6076844 105.0772489
  14.4257130  78.0532348 102.4487131  13.5641609  78.3513602 102.7403869
  14.4519564  78.2702747 101.5168164  11.2418699  86.5974539  98.8560937
  11.7057045  86.8762242  98.0665560  10.9775497  85.6957983  98.6734028
   8.1342780  86.1446020 101.7940700   8.7044137  86.5733288 101.1558185
   8.7250892  85.8628605 102.4924886  10.1787585  82.7197691  95.6650502
  10.8811629  83.1718735  96.1324429   9.8468214  82.0781510  96.2930395
   3.9212919  80.9781244 100.9667636   3.1311973  81.2338772 100.4907746
   4.4124167  81.7929581 101.0719676  17.9376729  88.3186483 103.7172917
  18.7594173  87.9166670 103.4355598  17.9339132  88.2154717 104.6689032
   5.8727665  81.3425823  97.9251112   5.0758828  81.4544517  98.4434608
   5.6453257  81.6812475  97.0592003  26.0282722  84.6625231 100.0657888
  25.2746430  84.0932629  99.9101892  26.1630263  84.6287896 101.0128523
  11.4181350  89.5338634  95.7412607  11.2827025  90.3790169  96.1697455
  11.9591162  89.7357911  94.9778541   4.8710747  87.0514072  96.3140532
   5.3835268  87.8457322  96.4646097   5.5233460  86.3540362  96.2474134
   6.6805632  90.1679828  98.3963286   6.8572260  91.0897793  98.2084270
   7.4762466  89.8538247  98.8257665  14.7673814  73.0569195 104.2711501
  14.4238083  73.9470837 104.1950611  15.1352776  72.8670853 103.4081086
   2.8359664  85.3802726  97.0900103   3.6734886  85.7899734  96.8733811
   3.0137932  84.4402168  97.0600297  14.7324096  83.0477807  92.7783936
  14.2170720  83.8182411  93.0172323  14.4601405  82.3742943  93.4016997
  12.3171207  77.8927507  97.8369174  11.4612804  77.5034358  97.6574813
  12.7298159  77.9719468  96.9768960  13.8470354  75.4273851 102.2360734
  13.3435149  75.3903986 101.4228539  14.1400961  76.3366593 102.2957391
  10.0913240  75.5112580 101.2426916  10.9566237  75.3155389 100.8832805
  10.1590749  75.2822932 102.1696273  19.7058370  85.8010161  94.7137109
  18.9287813  85.4621321  94.2692272  20.3849851  85.8062784  94.0392074
  14.5210399  80.9204899  94.6043717  14.2160535  81.2351048  95.4553860
  15.4740842  80.9986319  94.6471050  12.9656831  87.0795122  96.2536671
  12.4378193  86.3447882  95.9409909  12.4644334  87.8569798  96.0076639
  17.9449677  85.2744142 101.3703717  17.2873352  85.9643404 101.4583846
  18.7490076  85.6640574 101.7137704   7.6975559  77.7414788  98.6143283
   8.2719311  77.5189970  97.8816476   8.2846541  77.8103483  99.3671884
  16.7555136  83.6288515  99.4207659  17.2687018  84.2618507  99.9229369
  17.4056360  83.0289711  99.0551019   8.0245146  79.7719249  92.6339168
   7.1882458  80.1093936  92.9548443   7.8849916  79.6368229  91.6966305
   9.9998227  74.6156037  97.3418352   9.3462639  74.3005054  96.7174967
   9.9578701  73.9931778  98.0678175  11.1109431  84.8975332  89.2571644
  10.2036493  84.6664586  89.4562793  11.6080463  84.1012951  89.4445626
  14.0177510  93.6072839  92.1768330  13.3439209  93.9104536  92.7853288
  14.4043332  94.4101920  91.8273787  13.2335967  81.1037971 101.6666000
  12.3158528  81.3252918 101.5087688  13.6496111  81.1784281 100.8077707
  14.0171015  82.5029386  96.7968680  14.7642834  83.0150784  96.4875802
  14.2862604  82.1813439  97.6573074  12.2897665  84.9987927  93.7795634
  11.3808884  84.7146960  93.8768104  12.3192749  85.4187006  92.9198941
  17.5216932  88.6094517  97.5486802  17.0679259  87.7685426  97.6051992
  16.8910899  89.2455915  97.8861582  16.4649852  79.5386503  98.7787469
  15.7272609  79.0263889  99.1097712  16.7176625  79.0986884  97.9670746
  15.9649872  90.4471013  98.4836620  16.2572846  91.0076070  97.7648986
  16.4748492  90.7399574  99.2389779  16.5661479  72.3162755  99.3729239
  16.8720356  71.4560118  99.0855154  17.2914084  72.9080375  99.1728232
   2.8585835  82.7193441  97.7610836   2.6610235  82.1262802  97.0361903
   2.3032499  82.4145651  98.4786775  10.8382559  82.6116548  99.8805430
  10.8931169  81.6590384  99.8047906  10.0273761  82.7675987 100.3646728
  11.9873753  86.5396671  91.1183713  11.5493183  85.8232530  90.6589350
  12.7284194  86.7672786  90.5568804   8.7774919  81.2293607  97.6395808
   7.9642784  81.5287778  98.0461001   9.2733913  80.8349296  98.3570291
  10.9283497  91.2251364  99.5730073  10.8859675  91.4512211  98.6438605
  11.8446196  90.9914739  99.7215874  14.3749130  81.6935432 106.4710702
  14.7298518  81.9206905 107.3305168  15.0221262  82.0253809 105.8487958
  20.1046867  84.8153868  97.1760031  19.9664766  85.0055464  96.2481221
  19.7483086  85.5773251  97.6328083   8.2688994  78.8011963 103.2557043
   8.9088373  78.6600722 102.5580007   7.4366524  78.5146476 102.8795645
  20.1316247  86.8830395 102.1871303  20.5652754  86.7905684 103.0354357
  20.8447828  86.8587895 101.5491319   9.0449297  88.1014393  99.3692036
   9.8389896  87.6064714  99.1674611   8.3340990  87.5732256  99.0059741
   5.3532061  82.2457475  95.4451789   4.4229649  82.1841931  95.6621751
   5.4489533  81.7233428  94.6488430   5.2717610  78.7712288  98.0330030
   5.5324427  79.6857621  97.9239191   6.0934782  78.3036730  98.1826643
  20.9931797  86.9254095 104.7204188  21.1867687  87.8299906 104.9663463
  20.8932415  86.4661515 105.5542773  12.6468107  76.8111986 107.2194516
  11.9996022  77.5101936 107.1258992  13.4169123  77.2448130 107.5870764
  12.8232242  84.6492751 105.2791335  13.7524302  84.8003911 105.1060303
  12.4023272  84.7376772 104.4239982  12.2168725  93.7752512  94.3915409
  12.3920481  93.3040555  95.2061032  11.5301513  94.4018278  94.6196670
  13.1725789  88.0525018 100.4378711  12.8375621  88.0125788 101.3336361
  12.6729734  87.3869734  99.9649121  16.1084980  85.3981052  90.7115770
  15.4914151  84.6727881  90.6148823  15.6401469  86.1590413  90.3682845
   7.8983526  79.6166477  89.8337075   7.0212992  79.4955277  89.4699321
   8.3741279  78.8252555  89.5815963  17.7656519  88.0719545 106.6035530
  16.8783298  87.7345466 106.7261929  18.3355070  87.3402576 106.8404296
  11.0847452  91.9692767  97.0799595  10.3014974  92.5114447  97.1737820
  11.7840197  92.4866747  97.4793836  14.3944102  77.7787397  99.7233801
  14.8912802  77.0257359  99.4034871  13.6231084  77.8151713  99.1577010
  22.2473860  83.4827762 101.3652092  22.2363736  84.3652477 100.9946025
  21.3791239  83.1299313 101.1706629  15.4773883  86.5359084  97.2972224
  14.5430162  86.6560546  97.1276928  15.6550551  85.6331551  97.0332234
  10.9779071  79.9204780  99.4505485  10.6076859  79.3675820 100.1386391
  11.4738164  79.3162913  98.8980485  18.8646434  82.3776403  97.8322258
  19.3306887  83.2104395  97.7582561  19.3153935  81.9121385  98.5367517
  16.9322665  88.7220224  94.8308410  17.2082509  88.6076819  95.7402284
  16.0627164  88.3237709  94.7920583  16.8363097  74.7456990 101.8713159
  15.9226177  74.9761217 102.0395366  17.2656199  74.8295434 102.7227192
  16.6069556  82.9346882 104.3713053  15.9541006  83.1822789 103.7165506
  16.9849936  82.1211020 104.0375531  13.5676729  92.9706575  98.4741224
  13.7499124  92.1528231  98.9368976  14.3909716  93.1874267  98.0366114
  13.9018895  91.8974760  95.7356272  14.4306661  91.3867215  95.1226434
  14.1647115  91.5817290  96.6001805   6.3744405  77.3308770 105.6958591
   6.4385731  78.1923601 105.2835989   6.3111525  76.7182772 104.9630950
   2.6262220  81.2108332  95.2749980   2.9215661  80.3019010  95.2217034
   1.7250256  81.1896071  94.9530983  14.5348299  92.9315596 102.0800389
  14.4099438  92.1305336 101.5711334  15.1927390  93.4261789 101.5914359
   6.1556467  79.2864329 101.2577529   5.4343053  79.9000296 101.1185002
   6.9449723  79.8222093 101.1794175  16.5983207  90.7324616 103.7079939
  15.6513543  90.6129967 103.6358266  16.9465980  89.8447114 103.7906200
   8.9582781  76.6218755 107.5318181   9.4817182  76.8681052 108.2944490
   8.7395114  77.4538790 107.1121318   4.3550062  78.8922430  95.3989305
   4.0262768  78.0119809  95.2164411   4.7089432  78.8370098  96.2865695
  13.6029640  90.5277332  99.9084291  13.4554603  89.5994040 100.0891861
  14.4283134  90.5497423  99.4241366   7.4691885  79.1795399  95.7664783
   7.8087957  79.7081321  95.0443392   7.9164005  79.5175806  96.5423350
  17.2063762  91.3505891 100.9949164  18.1310310  91.1448752 100.8573615
  17.0379066  91.1022292 101.9038505  10.1635326  77.5632450 105.2167851
   9.8232146  76.7640263 105.6188531   9.4574332  77.8634161 104.6444684
  10.8151797  74.6481763 103.6695174  11.6377867  74.1742241 103.5474065
  11.0589861  75.4272246 104.1693861   9.4560032  77.6770021  93.9658076
  10.1768394  78.0551274  93.4621793   8.8325336  78.3958898  94.0693054
  13.5991155  78.3815170  94.9016408  13.8154769  79.2639808  94.6005236
  13.1185222  77.9901383  94.1722050   8.3390376  81.3400883 101.4787153
   8.1934957  81.6541186 102.3711434   7.8615580  81.9585784 100.9258051
  10.1986759  78.3303431 101.5268042  10.1848328  77.4344524 101.1900340
  10.9159187  78.3374095 102.1606328  12.0512890  78.7640771 103.5721170
  11.7930668  79.6857842 103.5705500  11.5197930  78.3671206 104.2621634
  16.9959079  91.8691558  96.3511255  17.1695956  91.3037981  95.5985108
  17.4887970  92.6692453  96.1690745   9.6023655  77.2117811  96.7955613
   9.7239566  76.2834458  96.9946500   9.3125697  77.2256497  95.8833928
  12.4714845  74.8972722  99.9322332  12.4936542  74.9612055  98.9774312
  12.8882904  74.0577231 100.1262839  22.8498470  84.6327981  97.9701555
  23.2929616  83.8835307  97.5720678  21.9724980  84.6238118  97.5875287
  17.9834251  91.1858323  93.4508154  18.6785156  91.8065016  93.6695468
  18.3257401  90.3353674  93.7260531  19.8825674  88.6358028  94.9795484
  20.4076998  88.9745301  94.2544804  19.7948027  87.7005044  94.7958619
  19.6917455  86.1183398 107.5979411  19.7415460  85.9533406 108.5394934
  19.5831379  85.2510657 107.2077292   8.5753714  88.7971944  94.8871500
   8.7241834  89.4807409  94.2338172   9.3820157  88.7777034  95.4020955
  16.9821218  82.1014326 108.9138717  17.8831080  81.9620791 108.6222715
  17.0569192  82.2668781 109.8536895  11.3164023  79.4781181 107.7591904
  10.4467332  79.7714747 107.4874492  11.5523503  80.0621626 108.4799167
  21.1935652  88.5380340 107.8421432  20.9020460  88.9010321 108.6784893
  20.5807783  87.8247348 107.6634764  22.3931334  86.1033220 100.3624003
  23.2278226  86.5423024 100.5261563  22.5290463  85.6271873  99.5432248
  19.4422840  83.6612955 106.3101490  19.9176962  83.8540601 105.5020342
  18.5188406  83.7172140 106.0644874   6.3306347  84.8237122  95.8932569
   6.0852389  83.9199452  96.0912779   6.5002261  84.8254272  94.9512047
  14.0203057  75.6960798 105.2757324  14.5385001  76.4321825 104.9503813
  13.6658190  76.0024791 106.1104083   5.6001994  80.5565479  93.3918730
   4.9071239  80.6309834  92.7358766   5.3553746  79.7925823  93.9140247
  14.2715651  72.1161081 100.7958221  14.5517405  71.4484270 101.4218647
  15.0566258  72.3090176 100.2832885  12.0749119  91.2920075  92.3583247
  11.5023087  91.9110262  91.9053719  12.6481913  91.8419436  92.8923169
  18.1424509  80.5378715 104.5429796  19.0941932  80.6376812 104.5642020
  17.9727960  79.7456983 105.0527880  16.1638889  77.6234298 104.7289197
  15.5688821  77.9039311 104.0335685  15.8788585  78.1128199 105.5005938
  15.2946379  91.5757225  93.4891829  16.2277052  91.5102786  93.6924705
  15.2069592  92.4113492  93.0306362  17.9234396  90.8923095  90.4495777
  17.8448027  90.5582959  91.3431535  18.7444063  91.3844863  90.4487249
  20.6212587  83.7584834 103.6572096  20.5888907  82.8200835 103.8431779
  21.2313211  83.8368871 102.9237920  12.4595918  82.6280887  89.6999300
  13.4055023  82.4987095  89.7687718  12.0810163  81.8895549  90.1768728
  20.7707076  80.5495878 103.7030379  20.2546124  79.7654334 103.5160308
  21.6547024  80.2214594 103.8676898  18.4317803  74.2936893  99.6626191
  18.2342624  73.9851982 100.5469523  19.0417508  75.0198532  99.7924121
  26.4389137  84.8200841 102.7978132  27.1692525  84.5586129 103.3585836
  25.8296082  84.0829563 102.8380200  24.5204434  82.9608704 103.3952584
  23.7937598  82.8264669 102.7869075  24.1051721  83.2685532 104.2009302
  10.6438835  80.5530864  89.6354185   9.7370291  80.2563976  89.7116898
  10.9214816  80.2560682  88.7688471  12.2600901  75.0967753  95.7898426
  11.4501629  74.7514838  96.1653672  12.9485318  74.7875297  96.3786038
  14.1891449  74.1745800  97.4122723  14.7422488  74.5941254  98.0712746
  14.4261535  73.2481548  97.4545679   9.4137620  77.4117799  89.7766164
  10.2756784  77.7372697  90.0361981   9.5987964  76.6249295  89.2639230
  17.5670256  76.2846325  96.9201387  16.9868925  76.9431129  96.5379439
  17.3006189  75.4623670  96.5088805  16.0173823  75.6851383  99.1222707
  16.5173601  75.7967918  98.3137026  16.6609431  75.3812436  99.7623516
  16.3495134  78.4446416  95.9757735  15.4620989  78.7296066  95.7577930
  16.7649123  78.2840179  95.1285012  19.7009670  78.4692937  99.6912075
  20.4770060  78.9589389  99.9636691  18.9757805  78.8950991 100.1483944
  22.1382229  79.1820556 100.7486015  22.7326720  78.9416292 100.0379323
  22.2108813  78.4627687 101.3759551  15.4938348  88.2091090  90.0705755
  16.1974198  88.4141093  90.6863411  14.7700996  88.7767852  90.3354839
  16.3236158  83.9600952  96.1908025  16.2671359  84.4169503  95.3515658
  16.8764500  83.1991636  96.0130868  20.1340964  79.7490684  97.0158145
  19.8777898  79.3487319  97.8466353  19.5093832  80.4634478  96.8908284
  24.4453302  82.4886757  99.5229436  23.8852860  82.5579946 100.2960998
  23.8396805  82.3127741  98.8028933  17.4025045  88.6473620  92.1204215
  18.2370649  88.2154818  91.9381690  17.2409388  88.4755633  93.0481110
  17.0570937  85.1505733  93.4860555  17.0019741  84.9850004  92.5448999
  16.4316993  85.8581766  93.6422744  10.3667063  74.6513842  93.0645873
  10.3545733  75.5955682  93.2214144  11.2590485  74.4683987  92.7705334
  14.1819182  71.2456619  97.3191810  13.4151578  70.6915105  97.4648492
  14.5929887  71.3178487  98.1805961  26.0309320  99.1643271 102.2159392
  26.6687730  99.0450018 101.5122732  25.9130163 100.1124115 102.2747344
  22.8399026  99.1170699 102.1520917  22.5017538  99.0011764 101.2641452
  23.7088795  98.7161864 102.1321923  18.6985842 100.9706175  98.1417808
  18.1350707 100.8796112  97.3734095  18.5838237 100.1506080  98.6220300
  24.2785401 104.6377143  93.4532273  23.6273381 105.2231223  93.0666286
  25.0729764 105.1683338  93.5127310  18.2041028 101.7266280  93.8519407
  18.9771904 101.1795267  93.7132283  18.5566427 102.5910529  94.0633868
  20.9682277 100.4319511 103.6487666  21.5645850 100.2075533 102.9344629
  21.0257249  99.6904256 104.2513114  20.5407306  97.8858946  91.4837857
  20.7932827  97.3640468  90.7221320  19.6031865  97.7225092  91.5864540
  25.5850589  96.8894725  99.2912600  26.3713678  96.4714148  98.9403017
  25.8489293  97.7940817  99.4594248  25.7560666 102.3267575  93.9901257
  25.1206499 102.4002201  94.7022162  25.4258072 102.9161174  93.3120336
  30.9859016  96.8269958 100.1945579  31.7184188  96.2569175 100.4283408
  30.2298372  96.4391558 100.6352084  20.2603595  99.7887052  93.6862232
  20.1439853  99.1131956  94.3543316  20.3705855  99.3019426  92.8694385
  22.6035136  99.2497199  97.3908921  22.2393343  98.7227820  98.1021843
  23.4602251  98.8595668  97.2175406  28.5084436  90.5391532 104.6540187
  28.1767761  91.4086943 104.4301402  27.9130050  90.2227816 105.3334218
  22.2440623  94.2787099  92.3870270  22.4115025  95.1467335  92.7540741
  22.0537792  94.4414381  91.4631559  25.0015956 102.7404078 104.0536100
  24.7016679 103.6429117 103.9451907  24.6567015 102.4736261 104.9057253
  18.4528437  99.1917875 100.0872804  17.5278934  99.0594089 100.2950496
  18.7012850  99.9712094 100.5842747  28.4013099  95.2586618 101.7333537
  27.4929977  95.1902027 101.4392298  28.3500695  95.7358563 102.5615363
  22.2229843  96.7344757  93.3716936  22.1029469  97.1801807  94.2102417
  21.5282432  97.0830074  92.8130475  19.9836736 109.5048398  97.0207068
  19.9060765 110.4556223  97.0995548  19.3798379 109.1594271  97.6781994
  30.2674746  93.4603056 103.5111411  29.6249126  93.7535590 102.8651206
  29.7629674  93.3455977 104.3164608  27.9214910  97.2066230  94.1997270
  28.8332766  97.4393616  94.0244968  27.4124557  97.7903274  93.6372349
  22.5586747  96.5663464 105.2092120  23.4047942  96.9902878 105.3526769
  22.4985385  95.9097089 105.9030683  26.5284492 102.1892048 101.5910852
  25.8993354 102.3537762 100.8886920  26.1410154 102.6033658 102.3621816
  30.4073724 103.1246486  98.9455216  29.7224762 103.5045387  98.3952249
  30.4917573 103.7341813  99.6787163  25.7086193  94.2267833 106.8673294
  25.4647124  94.9809893 106.3307569  25.9846123  94.6053180 107.7020541
  27.6624655 100.7706445 105.5450559  27.8741551 101.4138205 104.8684940
  27.6154404  99.9368762 105.0772489  25.2650884  93.3824266 102.4487131
  24.4035363  93.6805519 102.7403869  25.2913319  93.5994665 101.5168164
  22.0812454 101.9266456  98.8560937  22.5450799 102.2054159  98.0665560
  21.8169252 101.0249901  98.6734028  18.9736535 101.4737938 101.7940700
  19.5437892 101.9025206 101.1558185  19.5644647 101.1920522 102.4924886
  21.0181340  98.0489609  95.6650502  21.7205383  98.5010652  96.1324429
  20.6861968  97.4073427  96.2930395  14.7606674  96.3073161 100.9667636
  13.9705728  96.5630690 100.4907746  15.2517921  97.1221499 101.0719676
  28.7770483 103.6478400 103.7172917  29.5987927 103.2458588 103.4355598
  28.7732886 103.5446635 104.6689032  16.7121419  96.6717741  97.9251112
  15.9152582  96.7836435  98.4434608  16.4847011  97.0104393  97.0592003
  36.8676476  99.9917149 100.0657888  36.1140185  99.4224547  99.9101892
  37.0024018  99.9579813 101.0128523  22.2575104 104.8630551  95.7412607
  22.1220779 105.7082087  96.1697455  22.7984917 105.0649829  94.9778541
  15.7104502 102.3805989  96.3140532  16.2229022 103.1749240  96.4646097
  16.3627215 101.6832280  96.2474134  17.5199387 105.4971746  98.3963286
  17.6966015 106.4189710  98.2084270  18.3156220 105.1830165  98.8257665
  25.6067568  88.3861113 104.2711501  25.2631837  89.2762755 104.1950611
  25.9746531  88.1962771 103.4081086  13.6753419 100.7094644  97.0900103
  14.5128641 101.1191652  96.8733811  13.8531686  99.7694086  97.0600297
  25.5717851  98.3769724  92.7783936  25.0564474  99.1474329  93.0172323
  25.2995159  97.7034860  93.4016997  23.1564962  93.2219425  97.8369174
  22.3006558  92.8326275  97.6574813  23.5691914  93.3011386  96.9768960
  24.6864108  90.7565768 102.2360734  24.1828904  90.7195903 101.4228539
  24.9794715  91.6658511 102.2957391  20.9306994  90.8404498 101.2426916
  21.7959991  90.6447307 100.8832805  20.9984503  90.6114850 102.1696273
  30.5452125 101.1302079  94.7137109  29.7681568 100.7913238  94.2692272
  31.2243606 101.1354702  94.0392074  25.3604154  96.2496816  94.6043717
  25.0554289  96.5642965  95.4553860  26.3134596  96.3278236  94.6471050
  23.8050586 102.4087040  96.2536671  23.2771947 101.6739799  95.9409909
  23.3038088 103.1861716  96.0076639  28.7843432 100.6036060 101.3703717
  28.1267106 101.2935321 101.4583846  29.5883831 100.9932492 101.7137704
  18.5369313  93.0706706  98.6143283  19.1113065  92.8481887  97.8816476
  19.1240296  93.1395400  99.3671884  27.5948891  98.9580433  99.4207659
  28.1080772  99.5910425  99.9229369  28.2450114  98.3581628  99.0551019
  18.8638900  95.1011167  92.6339168  18.0276213  95.4385853  92.9548443
  18.7243670  94.9660147  91.6966305  20.8391981  89.9447955  97.3418352
  20.1856393  89.6296972  96.7174967  20.7972455  89.3223695  98.0678175
  21.9503186 100.2267250  89.2571644  21.0430248  99.9956503  89.4562793
  22.4474218  99.4304869  89.4445626  24.8571265 108.9364757  92.1768330
  24.1832964 109.2396454  92.7853288  25.2437087 109.7393837  91.8273787
  24.0729721  96.4329888 101.6666000  23.1552283  96.6544835 101.5087688
  24.4889865  96.5076199 100.8077707  24.8564769  97.8321304  96.7968680
  25.6036588  98.3442701  96.4875802  25.1256359  97.5105357  97.6573074
  23.1291419 100.3279845  93.7795634  22.2202639 100.0438878  93.8768104
  23.1586503 100.7478923  92.9198941  28.3610687 103.9386434  97.5486802
  27.9073014 103.0977344  97.6051992  27.7304653 104.5747833  97.8861582
  27.3043606  94.8678420  98.7787469  26.5666363  94.3555806  99.1097712
  27.5570380  94.4278802  97.9670746  26.8043626 105.7762931  98.4836620
  27.0966600 106.3367988  97.7648986  27.3142247 106.0691492  99.2389779
  27.4055234  87.6454672  99.3729239  27.7114110  86.7852036  99.0855154
  28.1307838  88.2372292  99.1728232  13.6979590  98.0485359  97.7610836
  13.5003990  97.4554720  97.0361903  13.1426254  97.7437569  98.4786775
  21.6776313  97.9408465  99.8805430  21.7324923  96.9882302  99.8047906
  20.8667515  98.0967904 100.3646728  22.8267507 101.8688588  91.1183713
  22.3886937 101.1524447  90.6589350  23.5677948 102.0964703  90.5568804
  19.6168673  96.5585525  97.6395808  18.8036539  96.8579696  98.0461001
  20.1127667  96.1641214  98.3570291  21.7677251 106.5543282  99.5730073
  21.7253430 106.7804128  98.6438605  22.6839950 106.3206657  99.7215874
  25.2142885  97.0227350 106.4710702  25.5692273  97.2498823 107.3305168
  25.8615016  97.3545726 105.8487958  30.9440622 100.1445785  97.1760031
  30.8058521 100.3347381  96.2481221  30.5876841 100.9065168  97.6328083
  19.1082748  94.1303881 103.2557043  19.7482127  93.9892640 102.5580007
  18.2760279  93.8438394 102.8795645  30.9710002 102.2122312 102.1871303
  31.4046508 102.1197602 103.0354357  31.6841582 102.1879813 101.5491319
  19.8843052 103.4306311  99.3692036  20.6783650 102.9356631  99.1674611
  19.1734744 102.9024174  99.0059741  16.1925815  97.5749393  95.4451789
  15.2623404  97.5133848  95.6621751  16.2883287  97.0525346  94.6488430
  16.1111364  94.1004206  98.0330030  16.3718182  95.0149539  97.9239191
  16.9328537  93.6328648  98.1826643  31.8325551 102.2546013 104.7204188
  32.0261441 103.1591824 104.9663463  31.7326169 101.7953432 105.5542773
  23.4861862  92.1403904 107.2194516  22.8389777  92.8393853 107.1258992
  24.2562877  92.5740048 107.5870764  23.6625996  99.9784669 105.2791335
  24.5918056 100.1295828 105.1060303  23.2417026 100.0668689 104.4239982
  23.0562480 109.1044429  94.3915409  23.2314236 108.6332473  95.2061032
  22.3695268 109.7310196  94.6196670  24.0119543 103.3816936 100.4378711
  23.6769376 103.3417706 101.3336361  23.5123489 102.7161652  99.9649121
  26.9478735 100.7272970  90.7115770  26.3307905 100.0019798  90.6148823
  26.4795223 101.4882330  90.3682845  18.7377281  94.9458394  89.8337075
  17.8606747  94.8247195  89.4699321  19.2135034  94.1544473  89.5815963
  28.6050274 103.4011462 106.6035530  27.7177052 103.0637384 106.7261929
  29.1748825 102.6694494 106.8404296  21.9241207 107.2984685  97.0799595
  21.1408729 107.8406365  97.1737820  22.6233952 107.8158664  97.4793836
  25.2337857  93.1079314  99.7233801  25.7306556  92.3549277  99.4034871
  24.4624838  93.1443631  99.1577010  33.0867614  98.8119680 101.3652092
  33.0757490  99.6944395 100.9946025  32.2184994  98.4591231 101.1706629
  26.3167638 101.8651001  97.2972224  25.3823916 101.9852464  97.1276928
  26.4944306 100.9623468  97.0332234  21.8172826  95.2496697  99.4505485
  21.4470613  94.6967738 100.1386391  22.3131918  94.6454831  98.8980485
  29.7040189  97.7068321  97.8322258  30.1700641  98.5396312  97.7582561
  30.1547689  97.2413302  98.5367517  27.7716420 104.0512142  94.8308410
  28.0476264 103.9368737  95.7402284  26.9020919 103.6529627  94.7920583
  27.6756852  90.0748908 101.8713159  26.7619931  90.3053135 102.0395366
  28.1049953  90.1587352 102.7227192  27.4463310  98.2638800 104.3713053
  26.7934760  98.5114707 103.7165506  27.8243690  97.4502938 104.0375531
  24.4070484 108.2998493  98.4741224  24.5892879 107.4820149  98.9368976
  25.2303470 108.5166185  98.0366114  24.7412649 107.2266678  95.7356272
  25.2700416 106.7159133  95.1226434  25.0040869 106.9109208  96.6001805
  17.2138159  92.6600688 105.6958591  17.2779486  93.5215519 105.2835989
  17.1505279  92.0474690 104.9630950  13.4655975  96.5400250  95.2749980
  13.7609416  95.6310928  95.2217034  12.5644010  96.5187989  94.9530983
  25.3742053 108.2607514 102.0800389  25.2493193 107.4597254 101.5711334
  26.0321144 108.7553707 101.5914359  16.9950222  94.6156246 101.2577529
  16.2736807  95.2292214 101.1185002  17.7843477  95.1514011 101.1794175
  27.4376962 106.0616534 103.7079939  26.4907297 105.9421885 103.6358266
  27.7859735 105.1739032 103.7906200  19.7976535  91.9510673 107.5318181
  20.3210937  92.1972969 108.2944490  19.5788868  92.7830707 107.1121318
  15.1943816  94.2214347  95.3989305  14.8656522  93.3411726  95.2164411
  15.5483187  94.1662016  96.2865695  24.4423395 105.8569250  99.9084291
  24.2948357 104.9285957 100.0891861  25.2676888 105.8789341  99.4241366
  18.3085639  94.5087317  95.7664783  18.6481712  95.0373238  95.0443392
  18.7557760  94.8467723  96.5423350  28.0457517 106.6797809 100.9949164
  28.9704064 106.4740670 100.8573615  27.8772820 106.4314210 101.9038505
  21.0029080  92.8924368 105.2167851  20.6625900  92.0932181 105.6188531
  20.2968086  93.1926079 104.6444684  21.6545552  89.9773680 103.6695174
  22.4771621  89.5034158 103.5474065  21.8983615  90.7564164 104.1693861
  20.2953786  93.0061939  93.9658076  21.0162149  93.3843191  93.4621793
  19.6719091  93.7250815  94.0693054  24.4384909  93.7107088  94.9016408
  24.6548524  94.5931726  94.6005236  23.9578976  93.3193301  94.1722050
  19.1784131  96.6692801 101.4787153  19.0328711  96.9833104 102.3711434
  18.7009334  97.2877701 100.9258051  21.0380514  93.6595349 101.5268042
  21.0242082  92.7636442 101.1900340  21.7552942  93.6666013 102.1606328
  22.8906644  94.0932689 103.5721170  22.6324422  95.0149760 103.5705500
  22.3591685  93.6963124 104.2621634  27.8352833 107.1983476  96.3511255
  28.0089711 106.6329899  95.5985108  28.3281724 107.9984371  96.1690745
  20.4417409  92.5409729  96.7955613  20.5633321  91.6126375  96.9946500
  20.1519452  92.5548415  95.8833928  23.3108600  90.2264640  99.9322332
  23.3330297  90.2903973  98.9774312  23.7276659  89.3869148 100.1262839
  33.6892224  99.9619899  97.9701555  34.1323370  99.2127224  97.5720678
  32.8118734  99.9530035  97.5875287  28.8228006 106.5150241  93.4508154
  29.5178910 107.1356933  93.6695468  29.1651156 105.6645592  93.7260531
  30.7219429 103.9649946  94.9795484  31.2470753 104.3037219  94.2544804
  30.6341781 103.0296961  94.7958619  30.5311210 101.4475316 107.5979411
  30.5809215 101.2825324 108.5394934  30.4225133 100.5802575 107.2077292
  19.4147468 104.1263862  94.8871500  19.5635589 104.8099326  94.2338172
  20.2213912 104.1068952  95.4020955  27.8214972  97.4306244 108.9138717
  28.7224835  97.2912709 108.6222715  27.8962947  97.5960699 109.8536895
  22.1557777  94.8073099 107.7591904  21.2861087  95.1006665 107.4874492
  22.3917258  95.3913544 108.4799167  32.0329407 103.8672258 107.8421432
  31.7414215 104.2302238 108.6784893  31.4201538 103.1539266 107.6634764
  33.2325089 101.4325137 100.3624003  34.0671980 101.8714941 100.5261563
  33.3684218 100.9563791  99.5432248  30.2816595  98.9904872 106.3101490
  30.7570716  99.1832519 105.5020342  29.3582160  99.0464058 106.0644874
  17.1700101 100.1529039  95.8932569  16.9246143  99.2491369  96.0912779
  17.3396016 100.1546190  94.9512047  24.8596811  91.0252716 105.2757324
  25.3778755  91.7613743 104.9503813  24.5051944  91.3316709 106.1104083
  16.4395749  95.8857397  93.3918730  15.7464994  95.9601752  92.7358766
  16.1947501  95.1217741  93.9140247  25.1109405  87.4452998 100.7958221
  25.3911159  86.7776187 101.4218647  25.8960012  87.6382094 100.2832885
  22.9142874 106.6211992  92.3583247  22.3416841 107.2402179  91.9053719
  23.4875668 107.1711354  92.8923169  28.9818264  95.8670632 104.5429796
  29.9335687  95.9668730 104.5642020  28.8121714  95.0748901 105.0527880
  27.0032643  92.9526216 104.7289197  26.4082575  93.2331228 104.0335685
  26.7182340  93.4420116 105.5005938  26.1340134 106.9049142  93.4891829
  27.0670807 106.8394704  93.6924705  26.0463347 107.7405409  93.0306362
  28.7628150 106.2215013  90.4495777  28.6841782 105.8874876  91.3431535
  29.5837817 106.7136781  90.4487249  31.4606342  99.0876752 103.6572096
  31.4282662  98.1492753 103.8431779  32.0706965  99.1660789 102.9237920
  23.2989672  97.9572805  89.6999300  24.2448777  97.8279013  89.7687718
  22.9203917  97.2187467  90.1768728  31.6100830  95.8787795 103.7030379
  31.0939879  95.0946252 103.5160308  32.4940779  95.5506512 103.8676898
  29.2711557  89.6228811  99.6626191  29.0736378  89.3143899 100.5469523
  29.8811263  90.3490450  99.7924121  37.2782891 100.1492759 102.7978132
  38.0086280  99.8878047 103.3585836  36.6689837  99.4121481 102.8380200
  35.3598189  98.2900621 103.3952584  34.6331352  98.1556586 102.7869075
  34.9445475  98.5977450 104.2009302  21.4832590  95.8822781  89.6354185
  20.5764045  95.5855894  89.7116898  21.7608571  95.5852599  88.7688471
  23.0994655  90.4259671  95.7898426  22.2895384  90.0806756  96.1653672
  23.7879072  90.1167215  96.3786038  25.0285204  89.5037718  97.4122723
  25.5816242  89.9233171  98.0712746  25.2655290  88.5773466  97.4545679
  20.2531374  92.7409717  89.7766164  21.1150538  93.0664615  90.0361981
  20.4381718  91.9541213  89.2639230  28.4064011  91.6138243  96.9201387
  27.8262680  92.2723047  96.5379439  28.1399943  90.7915588  96.5088805
  26.8567577  91.0143301  99.1222707  27.3567355  91.1259835  98.3137026
  27.5003185  90.7104354  99.7623516  27.1888889  93.7738333  95.9757735
  26.3014744  94.0587984  95.7577930  27.6042878  93.6132097  95.1285012
  30.5403425  93.7984854  99.6912075  31.3163815  94.2881307  99.9636691
  29.8151559  94.2242909 100.1483944  32.9775983  94.5112474 100.7486015
  33.5720474  94.2708210 100.0379323  33.0502567  93.7919604 101.3759551
  26.3332102 103.5383008  90.0705755  27.0367952 103.7433011  90.6863411
  25.6094751 104.1059770  90.3354839  27.1629912  99.2892869  96.1908025
  27.1065114  99.7461421  95.3515658  27.7158255  98.5283554  96.0130868
  30.9734718  95.0782601  97.0158145  30.7171653  94.6779237  97.8466353
  30.3487586  95.7926395  96.8908284  35.2847056  97.8178674  99.5229436
  34.7246614  97.8871864 100.2960998  34.6790560  97.6419659  98.8028933
  28.2418800 103.9765537  92.1204215  29.0764404 103.5446736  91.9381690
  28.0803143 103.8047551  93.0481110  27.8964692 100.4797651  93.4860555
  27.8413496 100.3141922  92.5448999  27.2710747 101.1873684  93.6422744
  21.2060817  89.9805760  93.0645873  21.1939487  90.9247600  93.2214144
  22.0984239  89.7975905  92.7705334  25.0212937  86.5748536  97.3191810
  24.2545333  86.0207023  97.4648492  25.4323642  86.6470405  98.1805961
  36.8703075 114.4935188 102.2159392  37.5081485 114.3741936 101.5122732
  36.7523918 115.4416032 102.2747344  33.6792781 114.4462617 102.1520917
  33.3411292 114.3303681 101.2641452  34.5482549 114.0453782 102.1321923
  31.3801060 113.2150864  91.4837857  31.6326581 112.6932385  90.7221320
  30.4425619 113.0517009  91.5864540  36.4244343 112.2186642  99.2912600
  37.2107432 111.8006065  98.9403017  36.6883048 113.1232734  99.4594248
  41.8252770 112.1561875 100.1945579  42.5577942 111.5861092 100.4283408
  41.0692126 111.7683476 100.6352084  33.4428890 114.5789117  97.3908921
  33.0787097 114.0519738  98.1021843  34.2996006 114.1887586  97.2175406
  39.3478191 105.8683450 104.6540187  39.0161515 106.7378861 104.4301402
  38.7523804 105.5519734 105.3334218  33.0834377 109.6079017  92.3870270
  33.2508779 110.4759253  92.7540741  32.8931546 109.7706298  91.4631559
  39.2406854 110.5878536 101.7333537  38.3323731 110.5193944 101.4392298
  39.1894450 111.0650481 102.5615363  33.0623598 112.0636674  93.3716936
  32.9423223 112.5093725  94.2102417  32.3676186 112.4121992  92.8130475
  41.1068500 108.7894974 103.5111411  40.4642881 109.0827507 102.8651206
  40.6023429 108.6747895 104.3164608  38.7608664 112.5358147  94.1997270
  39.6726520 112.7685534  94.0244968  38.2518311 113.1195192  93.6372349
  33.3980502 111.8955382 105.2092120  34.2441697 112.3194796 105.3526769
  33.3379139 111.2389006 105.9030683  36.5479947 109.5559750 106.8673294
  36.3040879 110.3101811 106.3307569  36.8239878 109.9345098 107.7020541
  38.5018410 116.0998363 105.5450559  38.7135305 116.7430123 104.8684940
  38.4548158 115.2660679 105.0772489  36.1044639 108.7116183 102.4487131
  35.2429118 109.0097437 102.7403869  36.1307073 108.9286582 101.5168164
  31.8575094 113.3781526  95.6650502  32.5599138 113.8302570  96.1324429
  31.5255723 112.7365345  96.2930395  25.6000428 111.6365079 100.9667636
  24.8099482 111.8922607 100.4907746  26.0911676 112.4513417 101.0719676
  27.5515174 112.0009658  97.9251112  26.7546337 112.1128352  98.4434608
  27.3240766 112.3396310  97.0592003  47.7070231 115.3209067 100.0657888
  46.9533939 114.7516465  99.9101892  47.8417772 115.2871731 101.0128523
  36.4461322 103.7153031 104.2711501  36.1025592 104.6054672 104.1950611
  36.8140285 103.5254688 103.4081086  36.4111605 113.7061642  92.7783936
  35.8958229 114.4766247  93.0172323  36.1388914 113.0326778  93.4016997
  33.9958716 108.5511343  97.8369174  33.1400313 108.1618193  97.6574813
  34.4085668 108.6303303  96.9768960  35.5257863 106.0857686 102.2360734
  35.0222658 106.0487821 101.4228539  35.8188470 106.9950429 102.2957391
  31.7700749 106.1696416 101.2426916  32.6353746 105.9739224 100.8832805
  31.8378258 105.9406767 102.1696273  41.3845879 116.4593997  94.7137109
  40.6075322 116.1205156  94.2692272  42.0637360 116.4646620  94.0392074
  36.1997908 111.5788734  94.6043717  35.8948044 111.8934883  95.4553860
  37.1528350 111.6570154  94.6471050  39.6237186 115.9327978 101.3703717
  38.9660861 116.6227239 101.4583846  40.4277585 116.3224410 101.7137704
  29.3763068 108.3998624  98.6143283  29.9506820 108.1773805  97.8816476
  29.9634050 108.4687318  99.3671884  38.4342645 114.2872350  99.4207659
  38.9474527 114.9202342  99.9229369  39.0843869 113.6873546  99.0551019
  29.7032655 110.4303085  92.6339168  28.8669967 110.7677771  92.9548443
  29.5637425 110.2952064  91.6966305  31.6785736 105.2739872  97.3418352
  31.0250148 104.9588890  96.7174967  31.6366210 104.6515613  98.0678175
  34.9123476 111.7621806 101.6666000  33.9946037 111.9836753 101.5087688
  35.3283620 111.8368116 100.8077707  35.6958524 113.1613222  96.7968680
  36.4430343 113.6734619  96.4875802  35.9650113 112.8397274  97.6573074
  38.1437361 110.1970338  98.7787469  37.4060118 109.6847724  99.1097712
  38.3964134 109.7570720  97.9670746  38.2448988 102.9746590  99.3729239
  38.5507865 102.1143953  99.0855154  38.9701593 103.5664210  99.1728232
  32.5170068 113.2700383  99.8805430  32.5718678 112.3174219  99.8047906
  31.7061270 113.4259822 100.3646728  30.4562428 111.8877443  97.6395808
  29.6430293 112.1871613  98.0461001  30.9521422 111.4933132  98.3570291
  36.0536639 112.3519267 106.4710702  36.4086027 112.5790740 107.3305168
  36.7008771 112.6837644 105.8487958  41.7834376 115.4737703  97.1760031
  41.6452275 115.6639299  96.2481221  41.4270595 116.2357086  97.6328083
  29.9476503 109.4595798 103.2557043  30.5875882 109.3184557 102.5580007
  29.1154033 109.1730312 102.8795645  41.8103756 117.5414230 102.1871303
  42.2440263 117.4489519 103.0354357  42.5235337 117.5171731 101.5491319
  27.0319570 112.9041310  95.4451789  26.1017158 112.8425766  95.6621751
  27.1277042 112.3817263  94.6488430  26.9505119 109.4296123  98.0330030
  27.2111936 110.3441457  97.9239191  27.7722291 108.9620566  98.1826643
  42.6719306 117.5837931 104.7204188  42.8655196 118.4883741 104.9663463
  42.5719924 117.1245350 105.5542773  34.3255616 107.4695821 107.2194516
  33.6783531 108.1685771 107.1258992  35.0956632 107.9031965 107.5870764
  34.5019751 115.3076586 105.2791335  35.4311811 115.4587746 105.1060303
  34.0810781 115.3960607 104.4239982  37.7872489 116.0564888  90.7115770
  37.1701660 115.3311716  90.6148823  37.3188978 116.8174248  90.3682845
  29.5771035 110.2750312  89.8337075  28.7000501 110.1539113  89.4699321
  30.0528788 109.4836390  89.5815963  36.0731611 108.4371232  99.7233801
  36.5700311 107.6841194  99.4034871  35.3018593 108.4735549  99.1577010
  43.9261369 114.1411597 101.3652092  43.9151245 115.0236313 100.9946025
  43.0578748 113.7883148 101.1706629  32.6566580 110.5788615  99.4505485
  32.2864368 110.0259655 100.1386391  33.1525673 109.9746748  98.8980485
  40.5433943 113.0360238  97.8322258  41.0094396 113.8688230  97.7582561
  40.9941444 112.5705220  98.5367517  38.5150606 105.4040825 101.8713159
  37.6013686 105.6345052 102.0395366  38.9443708 105.4879269 102.7227192
  38.2857065 113.5930717 104.3713053  37.6328515 113.8406625 103.7165506
  38.6637444 112.7794856 104.0375531  28.0531914 107.9892606 105.6958591
  28.1173240 108.8507437 105.2835989  27.9899034 107.3766607 104.9630950
  24.3049729 111.8692167  95.2749980  24.6003170 110.9602846  95.2217034
  23.4037765 111.8479907  94.9530983  27.8343976 109.9448164 101.2577529
  27.1130562 110.5584132 101.1185002  28.6237232 110.4805929 101.1794175
  30.6370290 107.2802590 107.5318181  31.1604691 107.5264887 108.2944490
  30.4182623 108.1122625 107.1121318  26.0337571 109.5506265  95.3989305
  25.7050277 108.6703644  95.2164411  26.3876941 109.4953934  96.2865695
  29.1479394 109.8379235  95.7664783  29.4875466 110.3665156  95.0443392
  29.5951514 110.1759641  96.5423350  31.8422835 108.2216285 105.2167851
  31.5019655 107.4224099 105.6188531  31.1361841 108.5217996 104.6444684
  32.4939306 105.3065598 103.6695174  33.3165376 104.8326076 103.5474065
  32.7377370 106.0856082 104.1693861  31.1347541 108.3353856  93.9658076
  31.8555903 108.7135109  93.4621793  30.5112845 109.0542733  94.0693054
  35.2778664 109.0399005  94.9016408  35.4942278 109.9223643  94.6005236
  34.7972731 108.6485219  94.1722050  30.0177885 111.9984719 101.4787153
  29.8722466 112.3125022 102.3711434  29.5403089 112.6169619 100.9258051
  31.8774268 108.9887267 101.5268042  31.8635837 108.0928360 101.1900340
  32.5946696 108.9957930 102.1606328  33.7300399 109.4224607 103.5721170
  33.4718177 110.3441677 103.5705500  33.1985439 109.0255041 104.2621634
  31.2811164 107.8701647  96.7955613  31.4027075 106.9418293  96.9946500
  30.9913206 107.8840333  95.8833928  34.1502354 105.5556557  99.9322332
  34.1724051 105.6195890  98.9774312  34.5670413 104.7161066 100.1262839
  44.5285979 115.2911817  97.9701555  44.9717125 114.5419142  97.5720678
  43.6512489 115.2821953  97.5875287  41.3704964 116.7767234 107.5979411
  41.4202969 116.6117241 108.5394934  41.2618888 115.9094493 107.2077292
  38.6608727 112.7598162 108.9138717  39.5618589 112.6204627 108.6222715
  38.7356701 112.9252617 109.8536895  32.9951532 110.1365017 107.7591904
  32.1254841 110.4298583 107.4874492  33.2311012 110.7205462 108.4799167
  44.0718843 116.7617055 100.3624003  44.9065735 117.2006859 100.5261563
  44.2077972 116.2855708  99.5432248  41.1210349 114.3196790 106.3101490
  41.5964471 114.5124436 105.5020342  40.1975915 114.3755976 106.0644874
  35.6990566 106.3544633 105.2757324  36.2172510 107.0905660 104.9503813
  35.3445699 106.6608627 106.1104083  27.2789503 111.2149315  93.3918730
  26.5858748 111.2893670  92.7358766  27.0341255 110.4509658  93.9140247
  35.9503160 102.7744916 100.7958221  36.2304914 102.1068105 101.4218647
  36.7353767 102.9674012 100.2832885  39.8212018 111.1962550 104.5429796
  40.7729441 111.2960648 104.5642020  39.6515469 110.4040819 105.0527880
  37.8426398 108.2818133 104.7289197  37.2476330 108.5623146 104.0335685
  37.5576094 108.7712034 105.5005938  42.3000096 114.4168670 103.6572096
  42.2676416 113.4784670 103.8431779  42.9100720 114.4952706 102.9237920
  34.1383427 113.2864723  89.6999300  35.0842532 113.1570931  89.7687718
  33.7597672 112.5479385  90.1768728  42.4494585 111.2079713 103.7030379
  41.9333633 110.4238170 103.5160308  43.3334533 110.8798430 103.8676898
  40.1105311 104.9520729  99.6626191  39.9130133 104.6435817 100.5469523
  40.7205017 105.6782368  99.7924121  48.1176646 115.4784677 102.7978132
  48.8480034 115.2169965 103.3585836  47.5083591 114.7413398 102.8380200
  46.1991943 113.6192539 103.3952584  45.4725107 113.4848504 102.7869075
  45.7839230 113.9269368 104.2009302  32.3226344 111.2114699  89.6354185
  31.4157799 110.9147812  89.7116898  32.6002325 110.9144517  88.7688471
  33.9388410 105.7551589  95.7898426  33.1289138 105.4098674  96.1653672
  34.6272827 105.4459133  96.3786038  35.8678958 104.8329636  97.4122723
  36.4209997 105.2525089  98.0712746  36.1049044 103.9065384  97.4545679
  31.0925129 108.0701634  89.7766164  31.9544293 108.3956533  90.0361981
  31.2775473 107.2833130  89.2639230  39.2457765 106.9430161  96.9201387
  38.6656434 107.6014965  96.5379439  38.9793698 106.1207505  96.5088805
  37.6961332 106.3435218  99.1222707  38.1961110 106.4551753  98.3137026
  38.3396939 106.0396271  99.7623516  38.0282643 109.1030251  95.9757735
  37.1408498 109.3879902  95.7577930  38.4436632 108.9424015  95.1285012
  41.3797179 109.1276772  99.6912075  42.1557569 109.6173225  99.9636691
  40.6545314 109.5534826 100.1483944  43.8169738 109.8404391 100.7486015
  44.4114229 109.6000127 100.0379323  43.8896322 109.1211522 101.3759551
  38.0023667 114.6184787  96.1908025  37.9458868 115.0753338  95.3515658
  38.5552009 113.8575472  96.0130868  41.8128473 110.4074519  97.0158145
  41.5565407 110.0071155  97.8466353  41.1881341 111.1218313  96.8908284
  46.1240811 113.1470592  99.5229436  45.5640369 113.2163781 100.2960998
  45.5184314 112.9711577  98.8028933  38.7358446 115.8089568  93.4860555
  38.6807250 115.6433840  92.5448999  38.1104502 116.5165601  93.6422744
  32.0454572 105.3097677  93.0645873  32.0333242 106.2539517  93.2214144
  32.9377994 105.1267823  92.7705334  35.8606691 101.9040454  97.3191810
  35.0939087 101.3498941  97.4648492  36.2717396 101.9762323  98.1805961
  47.2855077 119.0444948 104.2711501  46.9419346 119.9346590 104.1950611
  47.6534040 118.8546606 103.4081086  49.0842743 118.3038508  99.3729239
  49.3901619 117.4435871  99.0855154  49.8095347 118.8956128  99.1728232
  46.7896914 118.1036834 100.7958221  47.0698668 117.4360023 101.4218647
  47.5747521 118.2965929 100.2832885  50.9499066 120.2812646  99.6626191
  50.7523887 119.9727735 100.5469523  51.5598772 121.0074285  99.7924121
  46.7000446 117.2332372  97.3191810  45.9332841 116.6790858  97.4648492
  47.1111151 117.3054240  98.1805961   4.3495214  31.0103518  86.7903195
   3.5958923  30.4410917  86.6347199   4.4842755  30.9766183  87.7373829
   0.7143827  32.4511507  87.0869309   1.5490718  32.8901311  87.2506870
   0.8502955  31.9750160  86.2677555   4.7601629  31.1679128  89.5223439
   5.4905018  30.9064417  90.0831142   4.1508575  30.4307850  89.5625507
   2.8416926  29.3086991  90.1197890   2.1150090  29.1742956  89.5114382
   2.4264213  29.6163820  90.9254608   0.4594721  25.5298843  87.4731322
   1.0539212  25.2894579  86.7624630   0.5321305  24.8105974  88.1004858
   2.7665794  28.8365044  86.2474743   2.2065352  28.9058233  87.0206305
   2.1609297  28.6606029  85.5274239   4.3521812  45.5121558  88.9404699
   4.9900222  45.3928305  88.2368039   4.2342655  46.4602402  88.9992651
   1.1611519  45.4648986  88.8766223   0.8230030  45.3490051  87.9886758
   2.0301287  45.0640151  88.8567230   1.6431302  46.6183838  94.8352429
   1.6319943  46.2236636  93.9632933   1.8051941  45.8849910  95.4286200
   2.5997893  50.9855430  80.1777579   1.9485873  51.5709511  79.7911593
   3.3942256  51.5161625  80.2372617   3.9063081  43.2373012  86.0157907
   4.6926170  42.8192435  85.6648324   4.1701785  44.1419104  86.1839555
   4.0773158  48.6745862  80.7146564   3.4418991  48.7480489  81.4267468
   3.7470565  49.2639461  80.0365643   9.3071508  43.1748245  86.9190885
  10.0396680  42.6047462  87.1528715   8.5510864  42.7869846  87.3597391
   0.9247628  45.5975487  84.1154228   0.5605835  45.0706108  84.8267149
   1.7814744  45.2073956  83.9420713   6.8296928  36.8869819  91.3785494
   6.4980253  37.7565230  91.1546709   6.2342542  36.5706103  92.0579524
   3.3228448  49.0882365  90.7781407   3.0229171  49.9907404  90.6697214
   2.9779507  48.8214548  91.6302559   6.7225592  41.6064905  88.4578844
   5.8142469  41.5380314  88.1637605   6.6713188  42.0836850  89.2860669
   8.5887238  39.8081344  90.2356718   7.9461618  40.1013877  89.5896512
   8.0842167  39.6934264  91.0409914   6.2427402  43.5544517  80.9242577
   7.1545258  43.7871904  80.7490275   5.7337049  44.1381561  80.3617656
   4.5268169  47.9769145  94.5603870   4.9351526  47.5351555  93.8158502
   3.8045431  47.4021772  94.8138063   0.8799240  42.9141752  91.9337427
   1.7260435  43.3381165  92.0772076   0.8197877  42.2575376  92.6275990
   4.8496984  48.5370335  88.3156159   4.2205847  48.7016050  87.6132226
   4.4622646  48.9511945  89.0867123   8.7286216  49.4724773  85.6700522
   8.0437254  49.8523675  85.1197556   8.8130065  50.0820100  86.4032470
   4.0298685  40.5746120  93.5918600   3.7859617  41.3288180  93.0552876
   4.3058615  40.9531467  94.4265847   5.9837148  47.1184732  92.2695866
   6.1954043  47.7616492  91.5930247   5.9366896  46.2847049  91.8017796
   3.5863377  39.7302553  89.1732438   2.7247856  40.0283806  89.4649176
   3.6125811  39.9472952  88.2413471   7.0982976  49.9956688  90.4418223
   7.9200419  49.5936875  90.1600905   7.0945378  49.8924922  91.3934339
  15.1888969  46.3395436  86.7903195  14.4352677  45.7702834  86.6347199
  15.3236510  46.3058101  87.7373829   0.5787597  51.2108838  82.4657914
   0.4433271  52.0560374  82.8942762   1.1197409  51.4128116  81.7023848
   2.2056073  51.8332405  96.5958256   1.7619927  51.0468784  96.2779161
   2.8673287  52.0211555  95.9302147   4.3037311  52.1135205  94.6239657
   4.2855786  52.9344086  94.1319927   5.2257231  51.9889280  94.8489799
   3.9280060  34.7339400  90.9956807   3.5844330  35.6241042  90.9195918
   4.2959023  34.5441058  90.1326392   3.8930343  44.7248011  79.5029243
   3.3776966  45.4952616  79.7417630   3.6207651  44.0513148  80.1262304
   1.4777454  39.5697712  84.5614481   0.6219050  39.1804563  84.3820120
   1.8904406  39.6489673  83.7014266   3.0076601  37.1044055  88.9606041
   2.5041396  37.0674191  88.1473846   3.3007208  38.0136798  89.0202697
   8.8664617  47.4780366  81.4382416   8.0894060  47.1391526  80.9937578
   9.5456098  47.4832989  80.7637381   3.6816646  42.5975104  81.3289024
   3.3766782  42.9121253  82.1799167   4.6347088  42.6756523  81.3716357
   2.1263078  48.7565327  82.9781978   1.5984440  48.0218086  82.6655215
   1.6250581  49.5340003  82.7321946   7.1055924  46.9514347  88.0949024
   6.4479598  47.6413609  88.1829153   7.9096323  47.3410779  88.4383010
   5.9161383  45.3058720  86.1452966   6.4293265  45.9388712  86.6474676
   6.5662607  44.7059916  85.7796326   3.1783757  55.2843044  78.9013637
   2.5045456  55.5874741  79.5098595   3.5649579  56.0872125  78.5519094
   2.3942214  42.7808176  88.3911306   1.4764775  43.0023123  88.2332994
   2.8102357  42.8554486  87.5323014   3.1777261  44.1799591  83.5213987
   3.9249080  44.6920988  83.2121109   3.4468851  43.8583644  84.3818380
   1.4503912  46.6758132  80.5040941   0.5415131  46.3917165  80.6013411
   1.4798995  47.0957211  79.6444248   6.6823179  50.2864721  84.2732108
   6.2285506  49.4455631  84.3297299   6.0517146  50.9226120  84.6106889
   5.6256099  41.2156708  85.5032776   4.8878855  40.7034094  85.8343018
   5.8782872  40.7757089  84.6916053   5.1256118  52.1241218  85.2081927
   5.4179093  52.6846275  84.4894292   5.6354739  52.4169779  85.9635086
   5.7267726  33.9932960  86.0974545   6.0326603  33.1330323  85.8100460
   6.4520331  34.5850580  85.8973539   1.1479999  48.2166876  77.8429019
   0.7099429  47.5002735  77.3834657   1.8890440  48.4442990  77.2814111
   3.5355377  43.3705637  93.1956009   3.8904765  43.5977110  94.0550475
   4.1827508  43.7024014  92.5733264   9.2653114  46.4924073  83.9005338
   9.1271013  46.6825669  82.9726527   8.9089333  47.2543456  84.3573389
   9.2922494  48.5600600  88.9116610   9.7259000  48.4675889  89.7599664
  10.0054075  48.5358100  88.2736626   3.0250389  52.1602694  90.4449710
   3.0787411  52.7293630  91.2127426   2.1565170  52.3304579  90.0803747
  10.1538043  48.6024300  91.4449495  10.3473933  49.5070111  91.6908770
  10.0538662  48.1431719  92.2788080   1.8074354  38.4882191  93.9439822
   1.1602269  39.1872141  93.8504299   2.5775370  38.9218335  94.3116070
   5.2153152  48.7531043  97.0190376   5.0638658  48.5241595  96.1020459
   5.2057832  49.7101645  97.0321721   1.9838488  46.3262956  92.0036642
   2.9130548  46.4774115  91.8305609   1.5629518  46.4146977  91.1485288
   1.3774972  55.4522717  81.1160716   1.5526728  54.9810760  81.9306339
   0.6907760  56.0788483  81.3441977   2.3332035  49.7295223  87.1624017
   1.9981868  49.6895993  88.0581667   1.8335981  49.0639939  86.6894428
   5.2691227  47.0751257  77.4361077   4.6520398  46.3498085  77.3394130
   4.8007715  47.8360618  77.0928151   6.9245359  51.7850166  95.0966857
   6.8657905  51.1009386  94.4297440   7.3264877  52.5269156  94.6447483
   6.9262766  49.7489750  93.3280837   6.0389545  49.4115671  93.4507236
   7.4961317  49.0172781  93.5649602   3.5550349  39.4557601  86.4479107
   4.0519049  38.7027564  86.1280177   2.7837331  39.4921918  85.8822317
  11.4080106  45.1597967  88.0897399  11.3969983  46.0422682  87.7191332
  10.5397486  44.8069518  87.8951936   2.9162603  54.3078036  92.4500239
   3.6290575  54.9425501  92.3776140   2.4252632  54.4041902  91.6340241
   4.6380130  48.2129289  84.0217531   3.7036409  48.3330751  83.8522235
   4.8156798  47.3101755  83.7577540   8.0252681  44.0546608  84.5567565
   8.4913133  44.8874600  84.4827867   8.4760182  43.5891590  85.2612823
   6.0928912  50.3990429  81.5553717   6.3688756  50.2847024  82.4647591
   5.2233411  50.0007914  81.5165890   5.9969344  36.4227195  88.5958466
   5.0832424  36.6531422  88.7640673   6.4262445  36.5065639  89.4472498
   5.7675802  44.6117087  91.0958360   5.1147253  44.8592994  90.4410813
   6.1456182  43.7981225  90.7620837   2.7282976  54.6476780  85.1986530
   2.9105371  53.8298436  85.6614283   3.5515962  54.8644472  84.7611420
   3.0625142  53.5744965  82.4601579   3.5912908  53.0637420  81.8471741
   3.3253361  53.2587495  83.3247112   1.8163375  45.3536898  97.5824397
   1.1404012  45.2531027  98.2526772   2.6391009  45.1976112  98.0460394
   0.5586158  56.6603825  91.8182013   1.1104466  56.8235447  92.5831098
   0.8992352  57.2508263  91.1462038   5.4097033  51.4865083  97.6730668
   5.9536937  52.0995041  97.1785622   4.8283877  52.0444661  98.1897681
   3.6954546  54.6085801  88.8045695   3.5705685  53.8075541  88.2956641
   4.3533637  55.1031994  88.3159665   5.7589454  52.4094821  90.4325245
   4.8119789  52.2900172  90.3603572   6.1072227  51.5217319  90.5151507
   2.7635887  52.2047537  86.6329598   2.6160850  51.2764245  86.8137168
   3.5889381  52.2267628  86.1486673   6.3670009  53.0276096  87.7194470
   7.2916557  52.8218957  87.5818922   6.1985312  52.7792497  88.6283812
   2.7597402  40.0585375  81.6261715   2.9761016  40.9410013  81.3250543
   2.2791469  39.6671588  80.8967357   1.2119137  40.4410976  90.2966476
   0.9536914  41.3628047  90.2950807   0.6804177  40.0441411  90.9866941
   6.1565325  53.5461763  83.0756562   6.3302203  52.9808186  82.3230414
   6.6494217  54.3462658  82.8936052   1.6321092  36.5742927  86.6567639
   1.6542789  36.6382260  85.7019619   2.0489151  35.7347435  86.8508145
  12.0104716  46.3098186  84.6946862  12.4535862  45.5605512  84.2965985
  11.1331227  46.3008323  84.3120594   7.1440498  52.8628528  80.1753460
   7.8391402  53.4835220  80.3940775   7.4863648  52.0123879  80.4505838
   9.0431921  50.3128233  81.7040791   9.5683245  50.6515506  80.9790111
   8.9554273  49.3775249  81.5203926   0.7051970  54.2262307  93.8330668
   1.0139096  53.9811454  94.7053367   1.5027452  54.4308945  93.3449538
   8.7325827  50.9461137  97.0091989   7.9421371  50.9285276  96.4696488
   8.4959182  51.4849431  97.7641025   8.8523702  47.7953603  94.3224717
   8.9021707  47.6303611  95.2640240   8.7437625  46.9280862  93.9322598
   6.1427464  43.7784531  95.6384024   7.0437327  43.6390996  95.3468022
   6.2175439  43.9438986  96.5782202  10.3541899  50.2150545  94.5666739
  10.0626707  50.5780525  95.4030200   9.7414030  49.5017553  94.3880071
  11.5537581  47.7803425  87.0869309  12.3884473  48.2193229  87.2506870
  11.6896710  47.3042078  86.2677555   8.6029087  45.3383159  93.0346797
   9.0783209  45.5310806  92.2265648   7.6794652  45.3942345  92.7890181
   3.1809304  37.3731003  92.0002631   3.6991247  38.1092030  91.6749119
   2.8264436  37.6794996  92.8349390   3.4321898  33.7931286  87.5203527
   3.7123652  33.1254475  88.1463954   4.2172505  33.9860381  87.0078191
   1.2355366  52.9690279  79.0828554   0.6629333  53.5880467  78.6299026
   1.8088160  53.5189641  79.6168476   7.3030756  42.2148920  91.2675103
   8.2548179  42.3147017  91.2887327   7.1334207  41.4227188  91.7773187
   5.3245136  39.3004503  91.4534503   4.7295068  39.5809516  90.7580992
   5.0394832  39.7898404  92.2251245   4.4552626  53.2527430  80.2137136
   5.3883299  53.1872991  80.4170012   4.3675839  54.0883696  79.7551669
   7.0840643  52.5693300  77.1741084   7.0054274  52.2353164  78.0676841
   7.9050309  53.0615068  77.1732556   9.7818834  45.4355039  90.3817402
   9.7495154  44.4971040  90.5677086  10.3919458  45.5139076  89.6483227
   1.6202165  44.3051092  76.4244606   2.5661269  44.1757300  76.4933024
   1.2416410  43.5665754  76.9014034   9.9313322  42.2266083  90.4275685
   9.4152371  41.4424539  90.2405614  10.8153271  41.8984799  90.5922205
   7.5924049  35.9707098  86.3871498   7.3948870  35.6622186  87.2714830
   8.2023755  36.6968737  86.5169428  15.5995384  46.4971046  89.5223439
  16.3298772  46.2356334  90.0831142  14.9902329  45.7599768  89.5625507
  13.6810681  44.6378909  90.1197890  12.9543844  44.5034874  89.5114382
  13.2657968  44.9455737  90.9254608   1.5040857  48.3568838  97.8845263
   2.4243867  48.5347437  98.0785310   1.4690440  47.4124884  97.7324962
   1.4207148  36.7737958  82.5143733   0.6107876  36.4285043  82.8898979
   2.1091565  36.4645502  83.1031344   3.3497696  35.8516005  84.1368029
   3.9028735  36.2711459  84.7958052   3.5867782  34.9251753  84.1790985
   6.7276503  37.9616530  83.6446694   6.1475172  38.6201334  83.2624746
   6.4612436  37.1393875  83.2334111   5.1780069  37.3621588  85.8468014
   5.6779848  37.4738123  85.0382333   5.8215677  37.0582641  86.4868822
   5.5101381  40.1216621  82.7003042   4.6227236  40.4066271  82.4823237
   5.9255370  39.9610384  81.8530319   8.8615917  40.1463142  86.4157381
   9.6376307  40.6359594  86.6881998   8.1364051  40.5721196  86.8729251
  11.2988476  40.8590761  87.4731322  11.8932967  40.6186497  86.7624630
  11.3715059  40.1397891  88.1004858   4.6544594  49.8861295  76.7951062
   5.3580445  50.0911298  77.4108717   3.9307243  50.4538057  77.0600145
   5.4842405  45.6371157  82.9153332   5.4277606  46.0939708  82.0760964
   6.0370747  44.8761841  82.7376175   9.2947211  41.4260888  83.7403452
   9.0384145  41.0257524  84.5711659   8.6700079  42.1404682  83.6153591
  13.6059549  44.1656962  86.2474743  13.0459106  44.2350151  87.0206305
  13.0003052  43.9897946  85.5274239   6.5631292  50.3243825  78.8449522
   7.3976896  49.8925023  78.6626997   6.4015635  50.1525838  79.7726416
   6.2177184  46.8275938  80.2105861   6.1625988  46.6620209  79.2694305
   5.5923239  47.5351971  80.3668051   3.5323091  49.1324850  99.5359424
   4.4014251  49.3065502  99.1746059   3.0529843  49.9519267  99.4135153
   3.3425429  32.9226824  84.0437116   2.5757825  32.3685310  84.1893799
   3.7536134  32.9948692  84.9051268  15.1915567  60.8413476  88.9404699
  15.8293977  60.7220223  88.2368039  15.0736410  61.7894320  88.9992651
  12.0005273  60.7940904  88.8766223  11.6623785  60.6781968  87.9886758
  12.8695041  60.3932069  88.8567230   7.8592089  62.6476380  84.8663114
   7.2956954  62.5566317  84.0979402   7.7444484  61.8276285  85.3465607
  12.4825056  61.9475756  94.8352429  12.4713697  61.5528554  93.9632933
  12.6445696  61.2141828  95.4286200   5.4056521  64.1427572  87.7047335
   6.1977813  63.8018396  87.2893634   5.6453171  64.2522547  88.6249488
  13.4391648  66.3147348  80.1777579  12.7879627  66.9001428  79.7911593
  14.2336010  66.8453543  80.2372617   7.3647275  63.4036485  80.5764714
   8.1378151  62.8565472  80.4377589   7.7172674  64.2680734  80.7879175
   9.2032317  64.7312867  93.7831613   8.9122183  65.6358498  93.6678279
   9.8389302  64.7729395  94.4975682  10.1288524  62.1089716  90.3732973
  10.7252096  61.8845738  89.6589935  10.1863496  61.3674461  90.9758420
   9.7013553  59.5629151  78.2083163   9.9539073  59.0410672  77.4466627
   8.7638112  59.3995297  78.3109847  14.7456835  58.5664930  86.0157907
  15.5319925  58.1484353  85.6648324  15.0095540  59.4711022  86.1839555
  14.9166913  64.0037780  80.7146564  14.2812746  64.0772406  81.4267468
  14.5864319  64.5931379  80.0365643  20.1465263  58.5040163  86.9190885
  20.8790435  57.9339380  87.1528715  19.3904618  58.1161763  87.3597391
   9.4209841  61.4657257  80.4107538   9.3046099  60.7902161  81.0788623
   9.5312101  60.9789631  79.5939692  11.7641382  60.9267404  84.1154228
  11.3999590  60.3998025  84.8267149  12.6208498  60.5365873  83.9420713
  17.6690683  52.2161737  91.3785494  17.3374008  53.0857148  91.1546709
  17.0736296  51.8998021  92.0579524  11.4046869  55.9557304  79.1115576
  11.5721272  56.8237540  79.4786047  11.2144038  56.1184586  78.1876865
  14.1622202  64.4174283  90.7781407  13.8622926  65.3199322  90.6697214
  13.8173262  64.1506466  91.6302559   7.6134684  60.8688080  86.8118111
   6.6885180  60.7364294  87.0195803   7.8619097  61.6482299  87.3088053
  17.5619346  56.9356823  88.4578844  16.6536224  56.8672231  88.1637605
  17.5106942  57.4128768  89.2860669  11.3836090  58.4114961  80.0962243
  11.2635715  58.8572012  80.9347723  10.6888679  58.7600279  79.5375781
   4.9743495  60.5121353  87.6461900   5.1035876  60.7655832  88.5601312
   4.2940946  61.1049061  87.3266555   9.1442982  71.1818603  83.7452374
   9.0667012  72.1326428  83.8240855   8.5404626  70.8364476  84.4027301
  11.6360212  58.3546469  96.4013741  10.8593546  58.9140389  96.3916606
  12.2750775  58.8403252  96.9228611  19.4280993  55.1373261  90.2356718
  18.7855373  55.4305795  89.5896512  18.9235921  55.0226182  91.0409914
  17.0821156  58.8836435  80.9242577  17.9939012  59.1163821  80.7490275
  16.5730803  59.4673479  80.3617656   9.8906584  61.1631922  95.9631708
  10.6321269  61.7016966  95.6866532   9.1843570  61.7898211  96.1203260
  15.3661924  63.3061062  94.5603870  15.7745280  62.8643473  93.8158502
  14.6439185  62.7313690  94.8138063  11.7192994  58.2433669  91.9337427
  12.5654189  58.6673083  92.0772076  11.6591632  57.5867294  92.6275990
  15.6890739  63.8662253  88.3156159  15.0599601  64.0307967  87.6132226
  15.3016401  64.2803863  89.0867123  19.5679971  64.8016691  85.6700522
  18.8831009  65.1815592  85.1197556  19.6523820  65.4112018  86.4032470
  14.8692439  55.9038038  93.5918600  14.6253371  56.6580098  93.0552876
  15.1452370  56.2823385  94.4265847  16.8230902  62.4476650  92.2695866
  17.0347797  63.0908410  91.5930247  16.7760650  61.6138966  91.8017796
  14.4257131  55.0594471  89.1732438  13.5641610  55.3575724  89.4649176
  14.4519566  55.2764869  88.2413471  11.2418701  63.6036661  85.5806244
  11.7057046  63.8824364  84.7910866  10.9775499  62.7020106  85.3979334
   8.1342782  63.1508143  88.5186007   8.7044139  63.5795411  87.8803491
   8.7250893  62.8690727  89.2170193  10.1787587  59.7259814  82.3895809
  10.8811630  60.1780857  82.8569735   9.8468215  59.0843632  83.0175702
   8.6267948  58.3171570  96.7647018   7.9966609  58.9987851  96.9982415
   8.5204036  58.2054652  95.8200156   3.9212921  57.9843366  87.6912942
   3.1311975  58.2400895  87.2153053   4.4124168  58.7991704  87.7964983
  17.9376730  65.3248605  90.4418223  18.7594174  64.9228793  90.1600905
  17.9339133  65.2216840  91.3934339   5.8727666  58.3487945  84.6496419
   5.0758829  58.4606640  85.1679915   5.6453258  58.6874598  83.7837310
  11.7033334  64.8732649  92.5978934  11.7677766  65.3353056  93.4337106
  10.9944257  64.2430014  92.7261244   2.2050624  58.2373857  90.1227933
   2.4558662  59.1220867  90.3885509   2.7410172  58.0578458  89.3503025
  26.0282723  61.6687354  86.7903195  25.2746432  61.0994752  86.6347199
  26.1630264  61.6350018  87.7373829  11.4181351  66.5400756  82.4657914
  11.2827026  67.3852292  82.8942762  11.9591164  66.7420034  81.7023848
   7.9048691  52.6192336  99.1272269   7.5115636  52.0658535  99.8019913
   8.7214831  52.9302914  99.5178787   4.8710749  64.0576194  83.0385839
   5.3835269  64.8519444  83.1891404   5.5233461  63.3602485  82.9719441
   6.6805633  67.1741950  85.1208592   6.8572262  68.0959915  84.9329576
   7.4762467  66.8600370  85.5502972  10.8216652  54.0350215  96.7192526
  11.5626365  54.6357368  96.6396988  11.0534575  53.2927853  96.1610568
   5.9657990  59.2206582  94.9970755   5.8511505  58.3191840  95.2977854
   5.1102508  59.4670279  94.6455572  13.0449828  67.1624323  96.5958256
  12.6013682  66.3760701  96.2779161  13.7067041  67.3503473  95.9302147
   7.8036949  68.6920124  91.1218935   8.3544374  68.5637188  90.3495929
   6.9648425  68.9915013  90.7713827  15.1431066  67.4427123  94.6239657
  15.1249541  68.2636004  94.1319927  16.0650986  67.3181198  94.8489799
  11.6004120  64.9571252  95.4663166  12.1332457  64.1959540  95.2362474
  11.0718201  64.6644904  96.2087320  14.7673815  50.0631318  90.9956807
  14.4238084  50.9532960  90.9195918  15.1352777  49.8732976  90.1326392
   2.8359665  62.3864848  83.8145410   3.6734887  62.7961857  83.5979117
   3.0137933  61.4464291  83.7845604  14.7324097  60.0539929  79.5029243
  14.2170721  60.8244534  79.7417630  14.4601406  59.3805065  80.1262304
  12.3171209  54.8989630  84.5614481  11.4612805  54.5096480  84.3820120
  12.7298160  54.9781591  83.7014266  13.8470355  52.4335973  88.9606041
  13.3435151  52.3966108  88.1473846  14.1400962  53.3428716  89.0202697
  10.0913241  52.5174703  87.9672222  10.9566238  52.3217512  87.6078112
  10.1590750  52.2885055  88.8941579  19.7058372  62.8072284  81.4382416
  18.9287814  62.4683443  80.9937578  20.3849853  62.8124907  80.7637381
  14.5210401  57.9267021  81.3289024  14.2160536  58.2413170  82.1799167
  15.4740843  58.0048441  81.3716357  12.9656832  64.0857245  82.9781978
  12.4378194  63.3510004  82.6655215  12.4644335  64.8631921  82.7321946
  17.9449679  62.2806265  88.0949024  17.2873353  62.9705526  88.1829153
  18.7490078  62.6702697  88.4383010   7.6975560  54.7476911  85.3388589
   8.2719312  54.5252092  84.6061782   8.2846543  54.8165605  86.0917191
  16.7555137  60.6350638  86.1452966  17.2687019  61.2680630  86.6474676
  17.4056361  60.0351833  85.7796326   8.0245147  56.7781372  79.3584475
   7.1882459  57.1156058  79.6793749   7.8849917  56.6430352  78.4211612
   9.9998228  51.6218160  84.0663659   9.3462640  51.3067177  83.4420273
   9.9578702  50.9993900  84.7923482  11.1109433  61.9037455  75.9816951
  10.2036494  61.6726708  76.1808100  11.6080465  61.1075074  76.1690932
  14.0177512  70.6134962  78.9013637  13.3439210  70.9166659  79.5098595
  14.4043334  71.4164042  78.5519094  13.2335968  58.1100093  88.3911306
  12.3158530  58.3315040  88.2332994  13.6496112  58.1846404  87.5323014
  14.0171016  59.5091509  83.5213987  14.7642835  60.0212906  83.2121109
  14.2862605  59.1875562  84.3818380  12.2897666  62.0050050  80.5040941
  11.3808885  61.7209082  80.6013411  12.3192750  62.4249128  79.6444248
  17.5216934  65.6156639  84.2732108  17.0679261  64.7747549  84.3297299
  16.8910900  66.2518038  84.6106889  16.4649853  56.5448625  85.5032776
  15.7272610  56.0326011  85.8343018  16.7176627  56.1049007  84.6916053
  15.9649873  67.4533136  85.2081927  16.2572847  68.0138193  84.4894292
  16.4748493  67.7461697  85.9635086  16.5661480  49.3224877  86.0974545
  16.8720357  48.4622241  85.8100460  17.2914085  49.9142497  85.8973539
   2.8585836  59.7255564  84.4856143   2.6610236  59.1324924  83.7607210
   2.3032500  59.4207774  85.2032082  10.8382560  59.6178670  86.6050736
  10.8931170  58.6652507  86.5293213  10.0273762  59.7738109  87.0892035
  11.9873754  63.5458793  77.8429019  11.5493184  62.8294652  77.3834657
  12.7284195  63.7734908  77.2814111   8.7774920  58.2355730  84.3641115
   7.9642786  58.5349901  84.7706307   9.2733914  57.8411419  85.0815597
  10.9283498  68.2313487  86.2975380  10.8859677  68.4574333  85.3683912
  11.8446197  67.9976862  86.4461181  14.3749132  58.6997554  93.1956009
  14.7298519  58.9269028  94.0550475  15.0221263  59.0315931  92.5733264
  20.1046869  61.8215990  83.9005338  19.9664767  62.0117586  82.9726527
  19.7483088  62.5835373  84.3573389   8.2688995  55.8074086  89.9802350
   8.9088374  55.6662845  89.2825313   7.4366525  55.5208599  89.6040952
  20.1316248  63.8892517  88.9116610  20.5652755  63.7967806  89.7599664
  20.8447829  63.8650018  88.2736626   9.0449299  65.1076516  86.0937342
   9.8389897  64.6126836  85.8919917   8.3340991  64.5794379  85.7305048
  13.8644143  67.4894611  90.4449710  13.9181165  68.0585548  91.2127426
  12.9958925  67.6596497  90.0803747   5.3532062  59.2519598  82.1697095
   4.4229650  59.1904053  82.3867057   5.4489534  58.7295550  81.3733736
   5.2717611  55.7774411  84.7575337   5.5324429  56.6919744  84.6484497
   6.0934784  55.3098853  84.9071950   6.7442537  57.1912168  91.9274161
   7.4165590  56.9829530  91.2786810   5.9172323  56.9934254  91.4879394
  20.9931798  63.9316218  91.4449495  21.1867688  64.8362029  91.6908770
  20.8932416  63.4723637  92.2788080  12.6468109  53.8174109  93.9439822
  11.9996024  54.5164058  93.8504299  13.4169124  54.2510253  94.3116070
  16.0546907  64.0822961  97.0190376  15.9032413  63.8533512  96.1020459
  16.0451586  65.0393562  97.0321721  12.8232243  61.6554874  92.0036642
  13.7524303  61.8066033  91.8305609  12.4023273  61.7438894  91.1485288
  11.6220575  65.6805538  89.7735180  11.4831660  65.3124322  90.6461118
  10.8335171  66.1953177  89.6019137  12.2168727  70.7814634  81.1160716
  12.3920482  70.3102678  81.9306339  11.5301515  71.4080401  81.3441977
  13.1725790  65.0587141  87.1624017  12.8375622  65.0187911  88.0581667
  12.6729736  64.3931857  86.6894428   7.1470034  60.4654771  92.6876599
   7.0089832  59.7335009  93.2888138   8.0574957  60.3763671  92.4060786
  16.1084982  62.4043175  77.4361077  15.4914152  61.6790003  77.3394130
  15.6401470  63.1652535  77.0928151   9.7752335  60.1774730  92.1760278
  10.4851953  59.5367922  92.1346897   9.7321643  60.4287625  93.0986459
  17.7639113  67.1142083  95.0966857  17.7051659  66.4301303  94.4297440
  18.1658632  67.8561073  94.6447483   8.4881268  57.1639948  93.9955918
   7.9518625  56.7130686  94.6477514   7.8997977  57.2985857  93.2526382
   6.7829812  73.9303997  87.8900576   7.0226410  74.5622521  88.5679595
   5.9399008  73.5792037  88.1765936   7.8983527  56.6228599  76.5582381
   7.0212994  56.5017400  76.1944628   8.3741281  55.8314678  76.3061270
  17.7656520  65.0781667  93.3280837  16.8783299  64.7407589  93.4507236
  18.3355072  64.3464699  93.5649602   4.2220390  56.2995956  91.0808912
   4.1378578  55.6921625  90.3459322   3.4003096  56.7904974  91.0818408
  11.2957674  69.7383120  90.2942080  11.2227845  70.5438091  90.8061385
  10.8535067  69.9375085  89.4690102  11.0847453  68.9754890  83.8044902
  10.3014975  69.5176570  83.8983126  11.7840199  69.4928869  84.2039143
  14.3944104  54.7849519  86.4479107  14.8912803  54.0319481  86.1280177
  13.6231085  54.8213836  85.8822317  22.2473861  60.4889885  88.0897399
  22.2363737  61.3714600  87.7191332  21.3791240  60.1361435  87.8951936
  13.7556357  69.6369954  92.4500239  14.4684330  70.2717418  92.3776140
  13.2646386  69.7333820  91.6340241  15.4773884  63.5421206  84.0217531
  14.5430163  63.6622669  83.8522235  15.6550553  62.6393673  83.7577540
  10.9779072  56.9266902  86.1750792  10.6076860  56.3737942  86.8631697
  11.4738165  56.3225036  85.6225792  18.8646436  59.3838526  84.5567565
  19.3306888  60.2166517  84.4827867  19.3153936  58.9183507  85.2612823
   8.8068271  67.3864397  93.2705810   9.5077730  68.0200880  93.4235204
   8.3363386  67.7279129  92.5101449  16.9322667  65.7282347  81.5553717
  17.2082511  65.6138941  82.4647591  16.0627165  65.3299832  81.5165890
  16.8363098  51.7519113  88.5958466  15.9226178  51.9823339  88.7640673
  17.2656200  51.8357557  89.4472498  16.6069557  59.9409005  91.0958360
  15.9541007  60.1884912  90.4410813  16.9849937  59.1273143  90.7620837
  13.5676731  69.9768698  85.1986530  13.7499125  69.1590354  85.6614283
  14.3909717  70.1936390  84.7611420  13.9018896  68.9036883  82.4601579
  14.4306663  68.3929337  81.8471741  14.1647116  68.5879413  83.3247112
  12.6557130  60.6828816  97.5824397  11.9797767  60.5822945  98.2526772
  13.4784764  60.5268029  98.0460394   4.4035989  66.9200752  90.2036912
   4.9889426  66.1744440  90.3364817   4.2060827  67.2304709  91.0873576
   7.2574644  69.9552000  85.2199355   6.5885019  70.4398127  84.7363395
   7.1187514  70.2021220  86.1342733  11.3979913  71.9895743  91.8182013
  11.9498221  72.1527365  92.5831098  11.7386106  72.5800181  91.1462038
   6.3744406  54.3370893  92.4203898   6.4385732  55.1985724  92.0081296
   6.3111526  53.7244895  91.6876256   5.8496679  56.4094025  96.0676932
   6.4768717  56.0271103  96.6814456   4.9924597  56.1908227  96.4332625
  16.2490787  66.8157001  97.6730668  16.7930691  67.4286959  97.1785622
  15.6677632  67.3736579  98.1897681   2.6262221  58.2170455  81.9995287
   2.9215662  57.3081133  81.9462341   1.7250257  58.1958194  81.6776289
  14.5348300  69.9377719  88.8045695  14.4099439  69.1367458  88.2956641
  15.1927391  70.4323912  88.3159665   6.1556468  56.2926451  87.9822836
   5.4343054  56.9062419  87.8430309   6.9449724  56.8284216  87.9039482
  16.5983208  67.7386739  90.4325245  15.6513544  67.6192090  90.3603572
  16.9465982  66.8509237  90.5151507   8.9582782  53.6280878  94.2563487
   9.4817184  53.8743174  95.0189797   8.7395115  54.4600912  93.8366625
   4.3550063  55.8984552  82.1234612   4.0262769  55.0181931  81.9409718
   4.7089434  55.8432221  83.0111001  13.6029642  67.5339455  86.6329598
  13.4554604  66.6056162  86.8137168  14.4283135  67.5559546  86.1486673
   7.4691886  56.1857522  82.4910090   7.8087959  56.7143443  81.7688698
   7.9164006  56.5237928  83.2668656  17.2063764  68.3568014  87.7194470
  18.1310311  68.1510875  87.5818922  17.0379067  68.1084415  88.6283812
  10.1635327  54.5694573  91.9413158   9.8232147  53.7702386  92.3433838
   9.4574333  54.8696284  91.3689991  10.8151799  51.6543885  90.3940481
  11.6377868  51.1804363  90.2719371  11.0589862  52.4334369  90.8939167
   9.4560033  54.6832144  80.6903383  10.1768396  55.0613396  80.1867099
   8.8325337  55.4021020  80.7938361  13.5991156  55.3877293  81.6261715
  13.8154770  56.2701930  81.3250543  13.1185223  54.9963506  80.8967357
   8.3390377  58.3463006  88.2032459   8.1934958  58.6603309  89.0956741
   7.8615581  58.9647906  87.6503358  10.1986760  55.3365554  88.2513349
  10.1848329  54.4406647  87.9145647  10.9159188  55.3436218  88.8851635
  12.0512891  55.7702894  90.2966476  11.7930669  56.6919965  90.2950807
  11.5197931  55.3733328  90.9866941  16.9959080  68.8753681  83.0756562
  17.1695957  68.3100104  82.3230414  17.4887971  69.6754576  82.8936052
   2.8136040  60.8868350  91.1420121   2.2689508  61.6628158  91.2740395
   3.6915389  61.2339155  90.9839242   9.6023656  54.2179934  83.5200919
   9.7239567  53.2896580  83.7191807   9.3125699  54.2318620  82.6079235
  12.4714847  51.9034844  86.6567639  12.4936543  51.9674178  85.7019619
  12.8882906  51.0639353  86.8508145  22.8498471  61.6390104  84.6946862
  23.2929617  60.8897429  84.2965985  21.9724981  61.6300240  84.3120594
  17.9834252  68.1920445  80.1753460  18.6785157  68.8127138  80.3940775
  18.3257402  67.3415797  80.4505838   3.6002061  60.0138246  94.0350278
   2.8583797  60.1620882  94.6214908   3.2794806  60.2746512  93.1717027
  19.8825675  65.6420151  81.7040791  20.4076999  65.9807424  80.9790111
  19.7948028  64.7067166  81.5203926  11.5445724  69.5554225  93.8330668
  11.8532851  69.3103371  94.7053367  12.3421206  69.7600863  93.3449538
  11.5666336  71.7092134  86.0636044  11.1271326  71.2168513  86.7568901
  12.3174453  71.1665102  85.8228119   4.0458675  67.9003675  86.0660672
   4.8716695  67.6007447  85.6859316   3.6952727  67.1311298  86.5150461
   9.0140208  67.2530143  88.1358346   8.3920218  66.5900848  87.8360574
   9.6845075  67.2791275  87.4531994   2.2467280  65.8190002  87.0249606
   1.4099188  65.3912176  86.8433607   2.2190926  66.0122445  87.9620397
   9.0864736  55.7311931  97.7290852   9.1352891  56.6074054  97.3468621
   9.6287250  55.1889324  97.1562495  19.5719581  66.2753055  97.0091989
  18.7815125  66.2577194  96.4696488  19.3352936  66.8141348  97.7641025
  19.6917457  63.1245521  94.3224717  19.7415461  62.9595528  95.2640240
  19.5831380  62.2572780  93.9322598   8.5753715  65.8034067  81.6116806
   8.7241836  66.4869531  80.9583479   9.3820159  65.7839157  82.1266262
  16.9821219  59.1076449  95.6384024  17.8831082  58.9682914  95.3468022
  17.0569193  59.2730904  96.5782202  11.3164024  56.4843304  94.4837210
  10.4467334  56.7776870  94.2119799  11.5523505  57.0683749  95.2044474
  21.1935653  65.5442463  94.5666739  20.9020462  65.9072443  95.4030200
  20.5807785  64.8309471  94.3880071  22.3931336  63.1095342  87.0869309
  23.2278227  63.5485146  87.2506870  22.5290464  62.6333996  86.2677555
  19.4422842  60.6675077  93.0346797  19.9176963  60.8602723  92.2265648
  18.5188407  60.7234263  92.7890181   6.3306348  61.8299244  82.6177875
   6.0852390  60.9261574  82.8158085   6.5002263  61.8316395  81.6757353
  14.0203058  52.7022921  92.0002631  14.5385002  53.4383948  91.6749119
  13.6658191  53.0086914  92.8349390   5.6001996  57.5627602  80.1164037
   4.9071241  57.6371957  79.4604073   5.3553748  56.7987946  80.6385554
  14.2715652  49.1223203  87.5203527  14.5517406  48.4546392  88.1463954
  15.0566259  49.3152299  87.0078191  12.0749121  68.2982197  79.0828554
  11.5023088  68.9172384  78.6299026  12.6481914  68.8481559  79.6168476
  18.1424511  57.5440837  91.2675103  19.0941933  57.6438935  91.2887327
  17.9727961  56.7519106  91.7773187  16.1638890  54.6296420  91.4534503
  15.5688822  54.9101433  90.7580992  15.8788587  55.1190321  92.2251245
  15.2946381  68.5819347  80.2137136  16.2277054  68.5164909  80.4170012
  15.2069593  69.4175614  79.7551669  17.9234397  67.8985218  77.1741084
  17.8448029  67.5645081  78.0676841  18.7444064  68.3906986  77.1732556
  20.6212588  60.7646957  90.3817402  20.5888908  59.8262958  90.5677086
  21.2313212  60.8430994  89.6483227  12.4595919  59.6343010  76.4244606
  13.4055024  59.5049218  76.4933024  12.0810164  58.8957672  76.9014034
  20.7707077  57.5558000  90.4275685  20.2546125  56.7716457  90.2405614
  21.6547025  57.2276717  90.5922205  18.4317804  51.2999016  86.3871498
  18.2342625  50.9914104  87.2714830  19.0417509  52.0260655  86.5169428
  26.4389138  61.8262964  89.5223439  27.1692527  61.5648252  90.0831142
  25.8296084  61.0891686  89.5625507  24.5204435  59.9670826  90.1197890
  23.7937599  59.8326791  89.5114382  24.1051722  60.2747655  90.9254608
  12.3434612  63.6860756  97.8845263  13.2637621  63.8639355  98.0785310
  12.3084195  62.7416801  97.7324962  10.6438836  57.5592986  76.3599491
   9.7370292  57.2626099  76.4362205  10.9214817  57.2622804  75.4933778
   1.5616777  58.8799350  86.8098538   1.2419561  58.0264658  86.5172912
   1.0150205  59.0947928  87.5656505   5.3396684  61.5961791  90.5268044
   5.5582694  62.5278899  90.5456078   5.7522458  61.2369765  91.3122848
  12.2600902  52.1029876  82.5143733  11.4501630  51.7576961  82.8898979
  12.9485319  51.7937420  83.1031344  14.1891450  51.1807923  84.1368029
  14.7422489  51.6003376  84.7958052  14.4261537  50.2543671  84.1790985
  10.2124550  57.1694996  99.9170793  10.1121277  58.1189353  99.8482884
   9.9946092  56.8413235  99.0446863   9.4137621  54.4179922  76.5011471
  10.2756785  54.7434820  76.7607288   9.5987965  53.6311417  75.9884536
   1.4305037  62.5002261  88.7791659   0.7368508  62.0856214  88.2661614
   2.1778028  62.5422798  88.1825078  17.5670257  53.2908448  83.6446694
  16.9868927  53.9493252  83.2624746  17.3006190  52.4685793  83.2334111
  16.0173824  52.6913506  85.8468014  16.5173602  52.8030040  85.0382333
  16.6609432  52.3874559  86.4868822  10.0755820  60.5992135  98.7335855
   9.5922901  61.3992495  98.9399744  10.1616759  60.6100080  97.7803299
   3.3441779  62.4320515  86.6557674   3.3212467  62.5308202  85.7039557
   3.6542416  63.2785666  86.9774840   6.0029157  64.4896670  90.7704289
   6.9572411  64.4580612  90.7034220   5.8041681  64.0287294  91.5854515
   6.5928539  63.0597786  93.3375086   7.4121428  63.5541865  93.3609924
   6.8665347  62.1429754  93.3092654  16.3495135  55.4508538  82.7003042
  15.4620991  55.7358189  82.4823237  16.7649125  55.2902302  81.8530319
  19.7009672  55.4755059  86.4157381  20.4770062  55.9651512  86.6881998
  18.9757806  55.9013114  86.8729251  22.1382230  56.1882679  87.4731322
  22.7326721  55.9478415  86.7624630  22.2108814  55.4689809  88.1004858
   4.3579386  70.0316290  87.7874487   4.2233854  69.2716690  87.2212485
   3.9411448  70.7557189  87.3203275  15.4938349  65.2153213  76.7951062
  16.1974199  65.4203216  77.4108717  14.7700998  65.7829975  77.0600145
  16.3236159  60.9663074  82.9153332  16.2671361  61.4231626  82.0760964
  16.8764502  60.2053759  82.7376175  20.1340965  56.7552806  83.7403452
  19.8777899  56.3549442  84.5711659  19.5093833  57.4696600  83.6153591
  24.4453303  59.4948879  86.2474743  23.8852861  59.5642069  87.0206305
  23.8396806  59.3189864  85.5274239   7.5148512  70.9285607  87.9992929
   7.3980896  71.8731039  87.8971620   6.6940958  70.6259168  88.3878728
  17.4025046  65.6535742  78.8449522  18.2370650  65.2216941  78.6626997
  17.2409389  65.4817756  79.7726416  17.0570939  62.1567856  80.2105861
  17.0019742  61.9912127  79.2694305  16.4316994  62.8643888  80.3668051
   1.8463454  57.3935920  94.0367283   2.4922317  56.8834874  94.5254509
   1.6380605  58.1304602  94.6110709  14.3716846  64.4616767  99.5359424
  15.2408005  64.6357420  99.1746059  13.8923597  65.2811184  99.4135153
  10.3667064  51.6575965  79.7891180  10.3545734  52.6017804  79.9459451
  11.2590486  51.4746110  79.4950641   8.5403026  71.5813868  91.2148858
   9.4430273  71.6137479  91.5315353   8.3140396  70.6514319  91.2295193
  10.2956628  70.3344855  87.8758936   9.3452259  70.3346717  87.7623309
  10.5989114  69.5877590  87.3594971  14.1819183  48.2518741  84.0437116
  13.4151579  47.6977228  84.1893799  14.5929888  48.3240610  84.9051268
   6.1860945  54.5403537  98.1342298   7.0492406  54.1840342  98.3445622
   5.6126355  54.2017432  98.8217702  26.0309321  76.1705393  88.9404699
  26.6687731  76.0512141  88.2368039  25.9130164  77.1186237  88.9992651
  22.8399028  76.1232821  88.8766223  22.5017539  76.0073886  87.9886758
  23.7088796  75.7223987  88.8567230  18.6985843  77.9768298  84.8663114
  18.1350709  77.8858235  84.0979402  18.5838238  77.1568202  85.3465607
  23.3218811  77.2767673  94.8352429  23.3107452  76.8820471  93.9632933
  23.4839450  76.5433746  95.4286200  16.2450275  79.4719489  87.7047335
  17.0371567  79.1310314  87.2893634  16.4846926  79.5814465  88.6249488
  24.2785402  81.6439266  80.1777579  23.6273382  82.2293346  79.7911593
  25.0729765  82.1745460  80.2372617  18.2041029  78.7328403  80.5764714
  18.9771905  78.1857390  80.4377589  18.5566428  79.5972652  80.7879175
  20.0426072  80.0604785  93.7831613  19.7515938  80.9650416  93.6678279
  20.6783056  80.1021313  94.4975682  20.9682279  77.4381634  90.3732973
  21.5645851  77.2137656  89.6589935  21.0257250  76.6966379  90.9758420
  20.5407307  74.8921069  78.2083163  20.7932828  74.3702590  77.4466627
  19.6031866  74.7287214  78.3109847  25.5850590  73.8956847  86.0157907
  26.3713679  73.4776270  85.6648324  25.8489294  74.8002939  86.1839555
  25.7560667  79.3329698  80.7146564  25.1206500  79.4064324  81.4267468
  25.4258074  79.9223296  80.0365643  20.2603596  76.7949175  80.4107538
  20.1439854  76.1194078  81.0788623  20.3705856  76.3081549  79.5939692
  22.6035137  76.2559322  84.1154228  22.2393344  75.7289943  84.8267149
  23.4602253  75.8657791  83.9420713  22.2440624  71.2849222  79.1115576
  22.4115026  72.1529458  79.4786047  22.0537793  71.4476503  78.1876865
  25.0015957  79.7466201  90.7781407  24.7016680  80.6491239  90.6697214
  24.6567016  79.4798384  91.6302559  18.4528438  76.1979997  86.8118111
  17.5278935  76.0656211  87.0195803  18.7012852  76.9774217  87.3088053
  22.2229845  73.7406879  80.0962243  22.1029470  74.1863930  80.9347723
  21.5282433  74.0892197  79.5375781  15.8137249  75.8413271  87.6461900
  15.9429631  76.0947750  88.5601312  15.1334701  76.4340979  87.3266555
  19.9836737  86.5110521  83.7452374  19.9060766  87.4618346  83.8240855
  19.3798380  86.1656393  84.4027301  22.4753967  73.6838386  96.4013741
  21.6987301  74.2432306  96.3916606  23.1144530  74.1695169  96.9228611
  27.9214911  74.2128352  80.9242577  28.8332767  74.4455739  80.7490275
  27.4124558  74.7965396  80.3617656  20.7300339  76.4923840  95.9631708
  21.4715023  77.0308884  95.6866532  20.0237324  77.1190128  96.1203260
  26.2055678  78.6352980  94.5603870  26.6139035  78.1935391  93.8158502
  25.4832940  78.0605608  94.8138063  22.5586749  73.5725587  91.9337427
  23.4047944  73.9965000  92.0772076  22.4985386  72.9159211  92.6275990
  26.5284493  79.1954171  88.3156159  25.8993356  79.3599885  87.6132226
  26.1410155  79.6095780  89.0867123  30.4073725  80.1308609  85.6700522
  29.7224763  80.5107510  85.1197556  30.4917574  80.7403935  86.4032470
  27.6624657  77.7768568  92.2695866  27.8741552  78.4200327  91.5930247
  27.6154405  76.9430884  91.8017796  25.2650886  70.3886388  89.1732438
  24.4035365  70.6867642  89.4649176  25.2913320  70.6056787  88.2413471
  22.0812455  78.9328579  85.5806244  22.5450801  79.2116282  84.7910866
  21.8169253  78.0312023  85.3979334  18.9736536  78.4800060  88.5186007
  19.5437893  78.9087329  87.8803491  19.5644648  78.1982645  89.2170193
  21.0181341  75.0551731  82.3895809  21.7205384  75.5072775  82.8569735
  20.6861970  74.4135550  83.0175702  19.4661703  73.6463488  96.7647018
  18.8360363  74.3279769  96.9982415  19.3597790  73.5346569  95.8200156
  14.7606675  73.3135284  87.6912942  13.9705729  73.5692812  87.2153053
  15.2517922  74.1283622  87.7964983  28.7770485  80.6540523  90.4418223
  29.5987928  80.2520710  90.1600905  28.7732887  80.5508757  91.3934339
  16.7121420  73.6779863  84.6496419  15.9152584  73.7898557  85.1679915
  16.4847013  74.0166515  83.7837310  22.5427088  80.2024566  92.5978934
  22.6071521  80.6644974  93.4337106  21.8338012  79.5721931  92.7261244
  13.0444378  73.5665774  90.1227933  13.2952416  74.4512784  90.3885509
  13.5803926  73.3870376  89.3503025  22.2575106  81.8692674  82.4657914
  22.1220780  82.7144210  82.8942762  22.7984918  82.0711951  81.7023848
  18.7442445  67.9484254  99.1272269  18.3509391  67.3950452  99.8019913
  19.5608586  68.2594832  99.5178787  15.7104503  79.3868112  83.0385839
  16.2229024  80.1811362  83.1891404  16.3627216  78.6894402  82.9719441
  17.5199388  82.5033868  85.1208592  17.6966016  83.4251833  84.9329576
  18.3156221  82.1892287  85.5502972  21.6610406  69.3642133  96.7192526
  22.4020120  69.9649286  96.6396988  21.8928329  68.6219771  96.1610568
  16.8051744  74.5498500  94.9970755  16.6905259  73.6483757  95.2977854
  15.9496262  74.7962197  94.6455572  23.8843582  82.4916240  96.5958256
  23.4407436  81.7052619  96.2779161  24.5460796  82.6795391  95.9302147
  18.6430703  84.0212042  91.1218935  19.1938128  83.8929105  90.3495929
  17.8042179  84.3206931  90.7713827  25.9824820  82.7719040  94.6239657
  25.9643295  83.5927921  94.1319927  26.9044740  82.6473115  94.8489799
  22.4397874  80.2863170  95.4663166  22.9726211  79.5251458  95.2362474
  21.9111955  79.9936822  96.2087320  25.6067569  65.3923236  90.9956807
  25.2631839  66.2824877  90.9195918  25.9746532  65.2024893  90.1326392
  13.6753420  77.7156766  83.8145410  14.5128642  78.1253775  83.5979117
  13.8531688  76.7756208  83.7845604  25.5717852  75.3831847  79.5029243
  25.0564475  76.1536451  79.7417630  25.2995160  74.7096983  80.1262304
  23.1564963  70.2281548  84.5614481  22.3006559  69.8388398  84.3820120
  23.5691915  70.3073508  83.7014266  24.6864110  67.7627891  88.9606041
  24.1828905  67.7258026  88.1473846  24.9794716  68.6720634  89.0202697
  20.9306996  67.8466621  87.9672222  21.7959992  67.6509429  87.6078112
  20.9984504  67.6176972  88.8941579  30.5452126  78.1364201  81.4382416
  29.7681569  77.7975361  80.9937578  31.2243607  78.1416825  80.7637381
  25.3604155  73.2558939  81.3289024  25.0554291  73.5705088  82.1799167
  26.3134597  73.3340359  81.3716357  23.8050587  79.4149162  82.9781978
  23.2771949  78.6801922  82.6655215  23.3038090  80.1923839  82.7321946
  28.7843433  77.6098183  88.0949024  28.1267107  78.2997444  88.1829153
  29.5883832  77.9994615  88.4383010  18.5369315  70.0768828  85.3388589
  19.1113066  69.8544010  84.6061782  19.1240297  70.1457523  86.0917191
  27.5948892  75.9642555  86.1452966  28.1080774  76.5972547  86.6474676
  28.2450116  75.3643751  85.7796326  18.8638902  72.1073290  79.3584475
  18.0276214  72.4447976  79.6793749  18.7243671  71.9722269  78.4211612
  20.8391982  66.9510077  84.0663659  20.1856395  66.6359095  83.4420273
  20.7972456  66.3285818  84.7923482  21.9503187  77.2329372  75.9816951
  21.0430249  77.0018626  76.1808100  22.4474219  76.4366992  76.1690932
  24.8571266  85.9426880  78.9013637  24.1832965  86.2458576  79.5098595
  25.2437088  86.7455960  78.5519094  24.0729723  73.4392011  88.3911306
  23.1552284  73.6606958  88.2332994  24.4889866  73.5138321  87.5323014
  24.8564770  74.8383427  83.5213987  25.6036589  75.3504824  83.2121109
  25.1256360  74.5167479  84.3818380  23.1291421  77.3341967  80.5040941
  22.2202640  77.0501000  80.6013411  23.1586504  77.7541046  79.6444248
  28.3610688  80.9448557  84.2732108  27.9073015  80.1039467  84.3297299
  27.7304655  81.5809955  84.6106889  27.3043608  71.8740543  85.5032776
  26.5666364  71.3617929  85.8343018  27.5570381  71.4340924  84.6916053
  26.8043627  82.7825054  85.2081927  27.0966602  83.3430111  84.4894292
  27.3142248  83.0753615  85.9635086  27.4055235  64.6516795  86.0974545
  27.7114112  63.7914158  85.8100460  28.1307840  65.2434415  85.8973539
  13.6979591  75.0547481  84.4856143  13.5003991  74.4616842  83.7607210
  13.1426255  74.7499692  85.2032082  21.6776315  74.9470588  86.6050736
  21.7324924  73.9944424  86.5293213  20.8667517  75.1030027  87.0892035
  22.8267508  78.8750711  77.8429019  22.3886938  78.1586570  77.3834657
  23.5677949  79.1026826  77.2814111  19.6168675  73.5647648  84.3641115
  18.8036540  73.8641818  84.7706307  20.1127669  73.1703336  85.0815597
  21.7677252  83.5605405  86.2975380  21.7253431  83.7866251  85.3683912
  22.6839951  83.3268779  86.4461181  25.2142886  74.0289472  93.1956009
  25.5692274  74.2560945  94.0550475  25.8615017  74.3607849  92.5733264
  30.9440623  77.1507908  83.9005338  30.8058522  77.3409504  82.9726527
  30.5876842  77.9127291  84.3573389  19.1082749  71.1366003  89.9802350
  19.7482129  70.9954762  89.2825313  18.2760280  70.8500517  89.6040952
  19.8843053  80.4368434  86.0937342  20.6783652  79.9418754  85.8919917
  19.1734746  79.9086297  85.7305048  24.7037898  82.8186529  90.4449710
  24.7574920  83.3877465  91.2127426  23.8352679  82.9888414  90.0803747
  16.1925817  74.5811515  82.1697095  15.2623405  74.5195971  82.3867057
  16.2883289  74.0587468  81.3733736  16.1111366  71.1066328  84.7575337
  16.3718183  72.0211661  84.6484497  16.9328538  70.6390771  84.9071950
  17.5836291  72.5204085  91.9274161  18.2559344  72.3121448  91.2786810
  16.7566078  72.3226171  91.4879394  23.4861863  69.1466026  93.9439822
  22.8389778  69.8455976  93.8504299  24.2562878  69.5802170  94.3116070
  26.8940661  79.4114878  97.0190376  26.7426167  79.1825430  96.1020459
  26.8845340  80.3685480  97.0321721  23.6625997  76.9846791  92.0036642
  24.5918057  77.1357951  91.8305609  23.2417027  77.0730812  91.1485288
  22.4614329  81.0097456  89.7735180  22.3225415  80.6416240  90.6461118
  21.6728925  81.5245095  89.6019137  23.0562481  86.1106552  81.1160716
  23.2314237  85.6394595  81.9306339  22.3695269  86.7372318  81.3441977
  24.0119544  80.3879058  87.1624017  23.6769377  80.3479828  88.0581667
  23.5123490  79.7223774  86.6894428  17.9863788  75.7946688  92.6876599
  17.8483586  75.0626927  93.2888138  18.8968712  75.7055588  92.4060786
  26.9478736  77.7335093  77.4361077  26.3307907  77.0081921  77.3394130
  26.4795224  78.4944453  77.0928151  20.6146089  75.5066648  92.1760278
  21.3245708  74.8659840  92.1346897  20.5715397  75.7579543  93.0986459
  28.6032868  82.4434001  95.0966857  28.5445414  81.7593221  94.4297440
  29.0052386  83.1852991  94.6447483  19.3275023  72.4931866  93.9955918
  18.7912380  72.0422604  94.6477514  18.7391731  72.6277774  93.2526382
  17.6223566  89.2595915  87.8900576  17.8620165  89.8914439  88.5679595
  16.7792763  88.9083955  88.1765936  18.7377282  71.9520517  76.5582381
  17.8606748  71.8309318  76.1944628  19.2135035  71.1606595  76.3061270
  28.6050275  80.4073585  93.3280837  27.7177054  80.0699507  93.4507236
  29.1748826  79.6756616  93.5649602  10.2579422  76.7397677  86.6523888
  10.9450462  76.4259407  86.0644904  10.1027551  77.6439041  86.3791140
  15.0614144  71.6287873  91.0808912  14.9772333  71.0213543  90.3459322
  14.2396851  72.1196892  91.0818408  22.1351428  85.0675037  90.2942080
  22.0621600  85.8730009  90.8061385  21.6928821  85.2667003  89.4690102
  21.9241208  84.3046807  83.8044902  21.1408730  84.8468488  83.8983126
  22.6233953  84.8220787  84.2039143  25.2337858  70.1141437  86.4479107
  25.7306558  69.3611399  86.1280177  24.4624840  70.1505753  85.8822317
  24.5950112  84.9661871  92.4500239  25.3078084  85.6009336  92.3776140
  24.1040140  85.0625737  91.6340241  26.3167639  78.8713124  84.0217531
  25.3823917  78.9914586  83.8522235  26.4944307  77.9685591  83.7577540
  21.8172827  72.2558820  86.1750792  21.4470614  71.7029860  86.8631697
  22.3131919  71.6516953  85.6225792  29.7040190  74.7130443  84.5567565
  30.1700642  75.5458435  84.4827867  30.1547691  74.2475425  85.2612823
  19.6462025  82.7156315  93.2705810  20.3471485  83.3492798  93.4235204
  19.1757140  83.0571046  92.5101449  27.7716421  81.0574265  81.5553717
  28.0476265  80.9430859  82.4647591  26.9020920  80.6591749  81.5165890
  27.6756853  67.0811030  88.5958466  26.7619933  67.3115257  88.7640673
  28.1049954  67.1649474  89.4472498  24.4070485  85.3060615  85.1986530
  24.5892880  84.4882271  85.6614283  25.2303471  85.5228308  84.7611420
  24.7412651  84.2328801  82.4601579  25.2700417  83.7221255  81.8471741
  25.0040870  83.9171331  83.3247112  23.4950884  76.0120733  97.5824397
  22.8191521  75.9114863  98.2526772  24.3178518  75.8559947  98.0460394
  15.2429743  82.2492670  90.2036912  15.8283180  81.5036358  90.3364817
  15.0454582  82.5596627  91.0873576  18.0968399  85.2843917  85.2199355
  17.4278774  85.7690045  84.7363395  17.9581268  85.5313138  86.1342733
   9.8347398  74.8198270  88.9241356   9.8731498  74.2861861  89.7178474
   9.3287691  74.2933476  88.3052333  22.2373667  87.3187661  91.8182013
  22.7891975  87.4819282  92.5831098  22.5779861  87.9092099  91.1462038
  17.2138160  69.6662811  92.4203898  17.2779487  70.5277641  92.0081296
  17.1505281  69.0536812  91.6876256  16.6890433  71.7385943  96.0676932
  17.3162472  71.3563020  96.6814456  15.8318352  71.5200145  96.4332625
  27.0884542  82.1448918  97.6730668  27.6324446  82.7578877  97.1785622
  26.5071386  82.7028497  98.1897681  13.4655976  73.5462372  81.9995287
  13.7609417  72.6373051  81.9462341  12.5644012  73.5250112  81.6776289
  25.3742055  85.2669636  88.8045695  25.2493194  84.4659376  88.2956641
  26.0321146  85.7615830  88.3159665  16.9950223  71.6218369  87.9822836
  16.2736809  72.2354336  87.8430309  17.7843479  72.1576134  87.9039482
  27.4376963  83.0678656  90.4325245  26.4907298  82.9484008  90.3603572
  27.7859736  82.1801154  90.5151507  19.7976536  68.9572795  94.2563487
  20.3210938  69.2035092  95.0189797  19.5788870  69.7892830  93.8366625
  15.1943817  71.2276470  82.1234612  14.8656524  70.3473849  81.9409718
  15.5483188  71.1724139  83.0111001  24.4423396  82.8631373  86.6329598
  24.2948359  81.9348080  86.8137168  25.2676890  82.8851463  86.1486673
  18.3085641  71.5149440  82.4910090  18.6481713  72.0435361  81.7688698
  18.7557761  71.8529846  83.2668656  28.0457518  83.6859931  87.7194470
  28.9704066  83.4802793  87.5818922  27.8772821  83.4376332  88.6283812
  21.0029081  69.8986490  91.9413158  20.6625902  69.0994303  92.3433838
  20.2968088  70.1988201  91.3689991  21.6545553  66.9835803  90.3940481
  22.4771622  66.5096281  90.2719371  21.8983617  67.7626287  90.8939167
  20.2953788  70.0124061  80.6903383  21.0162150  70.3905314  80.1867099
  19.6719092  70.7312938  80.7938361  24.4384911  70.7169210  81.6261715
  24.6548525  71.5993848  81.3250543  23.9578978  70.3255424  80.8967357
  19.1784132  73.6754923  88.2032459  19.0328713  73.9895227  89.0956741
  18.7009336  74.2939824  87.6503358  21.0380515  70.6657471  88.2513349
  21.0242084  69.7698565  87.9145647  21.7552943  70.6728135  88.8851635
  22.8906646  71.0994812  90.2966476  22.6324423  72.0211882  90.2950807
  22.3591686  70.7025246  90.9866941  27.8352834  84.2045599  83.0756562
  28.0089712  83.6392021  82.3230414  28.3281726  85.0046494  82.8936052
  13.6529794  76.2160268  91.1420121  13.1083262  76.9920076  91.2740395
  14.5309144  76.5631072  90.9839242  20.4417411  69.5471852  83.5200919
  20.5633322  68.6188498  83.7191807  20.1519453  69.5610538  82.6079235
  23.3108601  67.2326762  86.6567639  23.3330298  67.2966095  85.7019619
  23.7276660  66.3931271  86.8508145  33.6892225  76.9682022  84.6946862
  34.1323371  76.2189347  84.2965985  32.8118736  76.9592158  84.3120594
  28.8228007  83.5212363  80.1753460  29.5178911  84.1419056  80.3940775
  29.1651157  82.6707714  80.4505838  14.4395816  75.3430164  94.0350278
  13.6977552  75.4912799  94.6214908  14.1188560  75.6038430  93.1717027
  30.7219430  80.9712069  81.7040791  31.2470754  81.3099341  80.9790111
  30.6341782  80.0359084  81.5203926  22.3839479  84.8846142  93.8330668
  22.6926605  84.6395289  94.7053367  23.1814961  85.0892781  93.3449538
  22.4060091  87.0384052  86.0636044  21.9665081  86.5460431  86.7568901
  23.1568208  86.4957020  85.8228119  14.8852430  83.2295593  86.0660672
  15.7110450  82.9299365  85.6859316  14.5346482  82.4603215  86.5150461
  19.8533963  82.5822061  88.1358346  19.2313972  81.9192766  87.8360574
  20.5238830  82.6083193  87.4531994  13.0861035  81.1481919  87.0249606
  12.2492943  80.7204094  86.8433607  13.0584680  81.3414363  87.9620397
  19.9258490  71.0603849  97.7290852  19.9746646  71.9365972  97.3468621
  20.4681004  70.5181242  97.1562495  19.4147470  81.1325984  81.6116806
  19.5635590  81.8161449  80.9583479  20.2213913  81.1131074  82.1266262
  22.1557779  71.8135221  94.4837210  21.2861088  72.1068788  94.2119799
  22.3917259  72.3975666  95.2044474  33.2325090  78.4387260  87.0869309
  34.0671982  78.8777064  87.2506870  33.3684219  77.9625913  86.2677555
  17.1700103  77.1591162  82.6177875  16.9246145  76.2553492  82.8158085
  17.3396017  77.1608312  81.6757353  24.8596813  68.0314838  92.0002631
  25.3778756  68.7675865  91.6749119  24.5051945  68.3378832  92.8349390
  16.4395750  72.8919520  80.1164037  15.7464995  72.9663875  79.4604073
  16.1947502  72.1279863  80.6385554  25.1109407  64.4515121  87.5203527
  25.3911160  63.7838310  88.1463954  25.8960014  64.6444217  87.0078191
  22.9142875  83.6274115  79.0828554  22.3416842  84.2464302  78.6299026
  23.4875669  84.1773477  79.6168476  26.1340135  83.9111265  80.2137136
  27.0670808  83.8456827  80.4170012  26.0463348  84.7467532  79.7551669
  28.7628152  83.2277135  77.1741084  28.6841783  82.8936999  78.0676841
  29.5837818  83.7198903  77.1732556  23.2989674  74.9634928  76.4244606
  24.2448778  74.8341136  76.4933024  22.9203919  74.2249590  76.9014034
  29.2711558  66.6290934  86.3871498  29.0736379  66.3206022  87.2714830
  29.8811264  67.3552573  86.5169428  23.1828366  79.0152674  97.8845263
  24.1031376  79.1931273  98.0785310  23.1477949  78.0708719  97.7324962
  21.4832591  72.8884904  76.3599491  20.5764046  72.5918017  76.4362205
  21.7608572  72.5914722  75.4933778  12.4010531  74.2091267  86.8098538
  12.0813316  73.3556576  86.5172912  11.8543959  74.4239846  87.5656505
  16.1790439  76.9253708  90.5268044  16.3976449  77.8570816  90.5456078
  16.5916213  76.5661683  91.3122848  23.0994657  67.4321794  82.5143733
  22.2895385  67.0868879  82.8898979  23.7879074  67.1229337  83.1031344
  25.0285205  66.5099841  84.1368029  25.5816243  66.9295294  84.7958052
  25.2655291  65.5835589  84.1790985  21.0518304  72.4986914  99.9170793
  20.9515031  73.4481271  99.8482884  20.8339846  72.1705153  99.0446863
  20.2531375  69.7471839  76.5011471  21.1150539  70.0726738  76.7607288
  20.4381720  68.9603335  75.9884536  12.2698791  77.8294179  88.7791659
  11.5762263  77.4148132  88.2661614  13.0171782  77.8714715  88.1825078
  28.4064012  68.6200366  83.6446694  27.8262681  69.2785170  83.2624746
  28.1399945  67.7977710  83.2334111  26.8567578  68.0205423  85.8468014
  27.3567357  68.1321958  85.0382333  27.5003186  67.7166476  86.4868822
  20.9149574  75.9284053  98.7335855  20.4316656  76.7284413  98.9399744
  21.0010513  75.9391998  97.7803299  14.1835534  77.7612433  86.6557674
  14.1606222  77.8600120  85.7039557  14.4936170  78.6077583  86.9774840
  16.8422912  79.8188588  90.7704289  17.7966165  79.7872530  90.7034220
  16.6435435  79.3579211  91.5854515  17.4322294  78.3889704  93.3375086
  18.2515183  78.8833782  93.3609924  17.7059101  77.4721672  93.3092654
  27.1888890  70.7800456  82.7003042  26.3014745  71.0650107  82.4823237
  27.6042879  70.6194219  81.8530319  15.1973140  85.3608207  87.7874487
  15.0627608  84.6008608  87.2212485  14.7805203  86.0849107  87.3203275
  26.3332103  80.5445131  76.7951062  27.0367954  80.7495133  77.4108717
  25.6094752  81.1121893  77.0600145  27.1629914  76.2954992  82.9153332
  27.1065115  76.7523543  82.0760964  27.7158256  75.5345677  82.7376175
  30.9734720  72.0844724  83.7403452  30.7171654  71.6841360  84.5711659
  30.3487588  72.7988518  83.6153591  18.3542266  86.2577524  87.9992929
  18.2374650  87.2022957  87.8971620  17.5334713  85.9551086  88.3878728
  28.2418801  80.9827660  78.8449522  29.0764405  80.5508858  78.6626997
  28.0803144  80.8109674  79.7726416  27.8964693  77.4859773  80.2105861
  27.8413497  77.3204045  79.2694305  27.2710748  78.1935806  80.3668051
  12.6857208  72.7227838  94.0367283  13.3316072  72.2126792  94.5254509
  12.4774359  73.4596519  94.6110709  25.2110600  79.7908685  99.5359424
  26.0801760  79.9649337  99.1746059  24.7317352  80.6103102  99.4135153
  21.2060819  66.9867882  79.7891180  21.1939488  67.9309722  79.9459451
  22.0984240  66.8038028  79.4950641  19.3796780  86.9105786  91.2148858
  20.2824027  86.9429396  91.5315353  19.1534151  85.9806237  91.2295193
  21.1350382  85.6636773  87.8758936  20.1846013  85.6638634  87.7623309
  21.4382869  84.9169507  87.3594971  25.0212938  63.5810659  84.0437116
  24.2545334  63.0269146  84.1893799  25.4323643  63.6532528  84.9051268
  17.0254699  69.8695455  98.1342298  17.8886161  69.5132260  98.3445622
  16.4520110  69.5309350  98.8217702  36.8703076  91.4997311  88.9404699
  37.5081486  91.3804058  88.2368039  36.7523919  92.4478155  88.9992651
  33.6792782  91.4524739  88.8766223  33.3411294  91.3365804  87.9886758
  34.5482550  91.0515904  88.8567230  29.5379598  93.3060216  84.8663114
  28.9744463  93.2150152  84.0979402  29.4231993  92.4860120  85.3465607
  34.1612565  92.6059591  94.8352429  34.1501206  92.2112389  93.9632933
  34.3233205  91.8725663  95.4286200  27.0844030  94.8011407  87.7047335
  27.8765322  94.4602232  87.2893634  27.3240680  94.9106382  88.6249488
  35.1179157  96.9731183  80.1777579  34.4667136  97.5585264  79.7911593
  35.9123519  97.5037378  80.2372617  29.0434784  94.0620320  80.5764714
  29.8165660  93.5149307  80.4377589  29.3960183  94.9264570  80.7879175
  30.8819826  95.3896703  93.7831613  30.5909692  96.2942334  93.6678279
  31.5176811  95.4313230  94.4975682  31.8076033  92.7673551  90.3732973
  32.4039605  92.5429574  89.6589935  31.8651005  92.0258297  90.9758420
  31.3801062  90.2212987  78.2083163  31.6326582  89.6994508  77.4466627
  30.4425621  90.0579132  78.3109847  36.4244344  89.2248765  86.0157907
  37.2107434  88.8068188  85.6648324  36.6883049  90.1294857  86.1839555
  36.5954422  94.6621615  80.7146564  35.9600255  94.7356242  81.4267468
  36.2651828  95.2515214  80.0365643  41.8252772  89.1623998  86.9190885
  42.5577944  88.5923215  87.1528715  41.0692127  88.7745599  87.3597391
  31.0997350  92.1241092  80.4107538  30.9833608  91.4485996  81.0788623
  31.2099610  91.6373466  79.5939692  33.4428891  91.5851240  84.1154228
  33.0787099  91.0581861  84.8267149  34.2996007  91.1949709  83.9420713
  39.3478192  82.8745572  91.3785494  39.0161517  83.7440983  91.1546709
  38.7523805  82.5581856  92.0579524  33.0834378  86.6141139  79.1115576
  33.2508781  87.4821376  79.4786047  32.8931547  86.7768421  78.1876865
  35.8409711  95.0758118  90.7781407  35.5410435  95.9783157  90.6697214
  35.4960771  94.8090301  91.6302559  29.2922193  91.5271915  86.8118111
  28.3672689  91.3948129  87.0195803  29.5406606  92.3066134  87.3088053
  39.2406855  87.5940658  88.4578844  38.3323733  87.5256067  88.1637605
  39.1894451  88.0712603  89.2860669  33.0623599  89.0698797  80.0962243
  32.9423224  89.5155848  80.9347723  32.3676188  89.4184114  79.5375781
  26.6531004  91.1705189  87.6461900  26.7823385  91.4239668  88.5601312
  25.9728455  91.7632897  87.3266555  30.8230491 101.8402439  83.7452374
  30.7454521 102.7910264  83.8240855  30.2192135 101.4948311  84.4027301
  33.3147721  89.0130304  96.4013741  32.5381055  89.5724224  96.3916606
  33.9538284  89.4987087  96.9228611  41.1068502  85.7957097  90.2356718
  40.4642882  86.0889630  89.5896512  40.6023430  85.6810017  91.0409914
  38.7608665  89.5420270  80.9242577  39.6726521  89.7747657  80.7490275
  38.2518312  90.1257314  80.3617656  31.5694093  91.8215757  95.9631708
  32.3108778  92.3600801  95.6866532  30.8631079  92.4482046  96.1203260
  37.0449433  93.9644898  94.5603870  37.4532789  93.5227308  93.8158502
  36.3226694  93.3897525  94.8138063  33.3980503  88.9017505  91.9337427
  34.2441698  89.3256918  92.0772076  33.3379141  88.2451129  92.6275990
  37.3678248  94.5246088  88.3156159  36.7387110  94.6891803  87.6132226
  36.9803910  94.9387698  89.0867123  41.2467480  95.4600526  85.6700522
  40.5618518  95.8399428  85.1197556  41.3311329  96.0695853  86.4032470
  36.5479948  86.5621873  93.5918600  36.3040880  87.3163933  93.0552876
  36.8239879  86.9407221  94.4265847  38.5018411  93.1060485  92.2695866
  38.7135306  93.7492245  91.5930247  38.4548159  92.2722802  91.8017796
  36.1044640  85.7178306  89.1732438  35.2429119  86.0159559  89.4649176
  36.1307075  85.9348705  88.2413471  32.9206209  94.2620496  85.5806244
  33.3844555  94.5408199  84.7910866  32.6563008  93.3603941  85.3979334
  29.8130291  93.8091978  88.5186007  30.3831648  94.2379246  87.8803491
  30.4038402  93.5274563  89.2170193  31.8575096  90.3843649  82.3895809
  32.5599139  90.8364693  82.8569735  31.5255724  89.7427468  83.0175702
  30.3055457  88.9755405  96.7647018  29.6754118  89.6571686  96.9982415
  30.1991545  88.8638487  95.8200156  25.6000429  88.6427202  87.6912942
  24.8099483  88.8984730  87.2153053  26.0911677  89.4575539  87.7964983
  39.6164239  95.9832441  90.4418223  40.4381683  95.5812628  90.1600905
  39.6126642  95.8800675  91.3934339  27.5515175  89.0071781  84.6496419
  26.7546338  89.1190475  85.1679915  27.3240767  89.3458433  83.7837310
  33.3820843  95.5316484  92.5978934  33.4465275  95.9936891  93.4337106
  32.6731766  94.9013849  92.7261244  23.8838132  88.8957692  90.1227933
  24.1346171  89.7804702  90.3885509  24.4197681  88.7162294  89.3503025
  47.7070232  92.3271189  86.7903195  46.9533941  91.7578587  86.6347199
  47.8417773  92.2933854  87.7373829  33.0968860  97.1984591  82.4657914
  32.9614535  98.0436127  82.8942762  33.6378673  97.4003869  81.7023848
  26.5498258  94.7160030  83.0385839  27.0622778  95.5103280  83.1891404
  27.2020970  94.0186320  82.9719441  28.3593142  97.8325786  85.1208592
  28.5359771  98.7543751  84.9329576  29.1549976  97.5184205  85.5502972
  27.6445499  89.8790418  94.9970755  27.5299014  88.9775675  95.2977854
  26.7890017  90.1254114  94.6455572  34.7237337  97.8208158  96.5958256
  34.2801191  97.0344537  96.2779161  35.3854550  98.0087309  95.9302147
  29.4824458  99.3503960  91.1218935  30.0331883  99.2221023  90.3495929
  28.6435934  99.6498849  90.7713827  36.8218575  98.1010958  94.6239657
  36.8037050  98.9219839  94.1319927  37.7438495  97.9765033  94.8489799
  33.2791629  95.6155087  95.4663166  33.8119966  94.8543376  95.2362474
  32.7505710  95.3228739  96.2087320  24.5147174  93.0448684  83.8145410
  25.3522396  93.4545692  83.5979117  24.6925442  92.1048126  83.7845604
  36.4111606  90.7123764  79.5029243  35.8958230  91.4828369  79.7417630
  36.1388915  90.0388901  80.1262304  33.9958717  85.5573465  84.5614481
  33.1400314  85.1680316  84.3820120  34.4085669  85.6365426  83.7014266
  31.7700750  83.1758538  87.9672222  32.6353747  82.9801347  87.6078112
  31.8378259  82.9468890  88.8941579  41.3845881  93.4656119  81.4382416
  40.6075323  93.1267279  80.9937578  42.0637362  93.4708742  80.7637381
  36.1997910  88.5850857  81.3289024  35.8948045  88.8997006  82.1799167
  37.1528352  88.6632276  81.3716357  34.6444341  94.7441080  82.9781978
  34.1165703  94.0093839  82.6655215  34.1431844  95.5215756  82.7321946
  39.6237187  92.9390100  88.0949024  38.9660862  93.6289362  88.1829153
  40.4277587  93.3286532  88.4383010  29.3763069  85.4060746  85.3388589
  29.9506821  85.1835928  84.6061782  29.9634052  85.4749441  86.0917191
  38.4342646  91.2934473  86.1452966  38.9474528  91.9264465  86.6474676
  39.0843870  90.6935669  85.7796326  29.7032656  87.4365207  79.3584475
  28.8669968  87.7739894  79.6793749  29.5637426  87.3014187  78.4211612
  31.6785737  82.2801995  84.0663659  31.0250149  81.9651012  83.4420273
  31.6366211  81.6577736  84.7923482  32.7896942  92.5621290  75.9816951
  31.8824003  92.3310544  76.1808100  33.2867974  91.7658909  76.1690932
  35.6965021 101.2718797  78.9013637  35.0226719 101.5750494  79.5098595
  36.0830843 102.0747878  78.5519094  34.9123477  88.7683929  88.3911306
  33.9946039  88.9898876  88.2332994  35.3283621  88.8430239  87.5323014
  35.6958525  90.1675344  83.5213987  36.4430344  90.6796742  83.2121109
  35.9650114  89.8459397  84.3818380  33.9685175  92.6633885  80.5040941
  33.0596394  92.3792918  80.6013411  33.9980259  93.0832964  79.6444248
  39.2004443  96.2740475  84.2732108  38.7466770  95.4331384  84.3297299
  38.5698409  96.9101873  84.6106889  38.1437362  87.2032461  85.5032776
  37.4060119  86.6909847  85.8343018  38.3964136  86.7632842  84.6916053
  37.6437382  98.1116971  85.2081927  37.9360356  98.6722028  84.4894292
  38.1536002  98.4045532  85.9635086  38.2448989  79.9808713  86.0974545
  38.5507866  79.1206076  85.8100460  38.9701594  80.5726333  85.8973539
  24.5373345  90.3839399  84.4856143  24.3397745  89.7908760  83.7607210
  23.9820009  90.0791609  85.2032082  32.5170069  90.2762506  86.6050736
  32.5718679  89.3236342  86.5293213  31.7061271  90.4321945  87.0892035
  33.6661263  94.2042629  77.8429019  33.2280693  93.4878488  77.3834657
  34.4071704  94.4318744  77.2814111  30.4562429  88.8939565  84.3641115
  29.6430295  89.1933736  84.7706307  30.9521423  88.4995254  85.0815597
  32.6071007  98.8897322  86.2975380  32.5647186  99.1158169  85.3683912
  33.5233706  98.6560697  86.4461181  36.0536641  89.3581390  93.1956009
  36.4086028  89.5852863  94.0550475  36.7008772  89.6899767  92.5733264
  41.7834378  92.4799826  83.9005338  41.6452276  92.6701422  82.9726527
  41.4270596  93.2419209  84.3573389  29.9476504  86.4657921  89.9802350
  30.5875883  86.3246680  89.2825313  29.1154034  86.1792434  89.6040952
  41.8103757  94.5476353  88.9116610  42.2440264  94.4551642  89.7599664
  42.5235338  94.5233853  88.2736626  30.7236808  95.7660351  86.0937342
  31.5177406  95.2710671  85.8919917  30.0128500  95.2378214  85.7305048
  35.5431652  98.1478447  90.4449710  35.5968674  98.7169383  91.2127426
  34.6746434  98.3180332  90.0803747  27.0319571  89.9103433  82.1697095
  26.1017159  89.8487889  82.3867057  27.1277043  89.3879386  81.3733736
  26.9505120  86.4358246  84.7575337  27.2111938  87.3503579  84.6484497
  27.7722293  85.9682688  84.9071950  28.4230046  87.8496003  91.9274161
  29.0953099  87.6413365  91.2786810  27.5959832  87.6518089  91.4879394
  42.6719307  94.5900053  91.4449495  42.8655197  95.4945864  91.6908770
  42.5719925  94.1307472  92.2788080  34.3255618  84.4757944  93.9439822
  33.6783533  85.1747894  93.8504299  35.0956633  84.9094088  94.3116070
  37.7334416  94.7406796  97.0190376  37.5819922  94.5117348  96.1020459
  37.7239095  95.6977398  97.0321721  34.5019752  92.3138709  92.0036642
  35.4311812  92.4649868  91.8305609  34.0810782  92.4022730  91.1485288
  33.3008084  96.3389373  89.7735180  33.1619169  95.9708158  90.6461118
  32.5122680  96.8537013  89.6019137  33.8956236 101.4398470  81.1160716
  34.0707991 100.9686513  81.9306339  33.2089024 102.0664236  81.3441977
  34.8513299  95.7170976  87.1624017  34.5163131  95.6771746  88.0581667
  34.3517245  95.0515692  86.6894428  28.8257543  91.1238606  92.6876599
  28.6877341  90.3918845  93.2888138  29.7362466  91.0347506  92.4060786
  37.7872491  93.0627010  77.4361077  37.1701661  92.3373838  77.3394130
  37.3188979  93.8236371  77.0928151  31.4539843  90.8358565  92.1760278
  32.1639462  90.1951758  92.1346897  31.4109152  91.0871460  93.0986459
  39.4426622  97.7725919  95.0966857  39.3839168  97.0885139  94.4297440
  39.8446141  98.5144909  94.6447483  30.1668777  87.8223783  93.9955918
  29.6306134  87.3714522  94.6477514  29.5785486  87.9569692  93.2526382
  28.4617321 104.5887833  87.8900576  28.7013919 105.2206357  88.5679595
  27.6186517 104.2375873  88.1765936  29.5771036  87.2812435  76.5582381
  28.7000503  87.1601235  76.1944628  30.0528789  86.4898513  76.3061270
  39.4444029  95.7365503  93.3280837  38.5570808  95.3991424  93.4507236
  40.0142580  95.0048534  93.5649602  21.0973177  92.0689594  86.6523888
  21.7844216  91.7551324  86.0644904  20.9421305  92.9730959  86.3791140
  25.9007899  86.9579791  91.0808912  25.8166087  86.3505460  90.3459322
  25.0790605  87.4488809  91.0818408  32.9745183 100.3966955  90.2942080
  32.9015354 101.2021926  90.8061385  32.5322576 100.5958921  89.4690102
  32.7634962  99.6338725  83.8044902  31.9802484 100.1760405  83.8983126
  33.4627708 100.1512705  84.2039143  36.0731613  85.4433354  86.4479107
  36.5700312  84.6903317  86.1280177  35.3018594  85.4797671  85.8822317
  43.9261370  91.1473720  88.0897399  43.9151246  92.0298435  87.7191332
  43.0578749  90.7945271  87.8951936  35.4343866 100.2953789  92.4500239
  36.1471839 100.9301254  92.3776140  34.9433895 100.3917655  91.6340241
  37.1561393  94.2005042  84.0217531  36.2217672  94.3206504  83.8522235
  37.3338062  93.2977508  83.7577540  32.6566581  87.5850737  86.1750792
  32.2864369  87.0321778  86.8631697  33.1525674  86.9808871  85.6225792
  40.5433945  90.0422361  84.5567565  41.0094397  90.8750353  84.4827867
  40.9941445  89.5767343  85.2612823  30.4855780  98.0448232  93.2705810
  31.1865239  98.6784715  93.4235204  30.0150895  98.3862964  92.5101449
  38.6110176  96.3866182  81.5553717  38.8870020  96.2722777  82.4647591
  37.7414674  95.9883667  81.5165890  38.5150607  82.4102948  88.5958466
  37.6013687  82.6407175  88.7640673  38.9443709  82.4941392  89.4472498
  38.2857066  90.5992840  91.0958360  37.6328516  90.8468747  90.4410813
  38.6637446  89.7856978  90.7620837  35.2464240 100.6352533  85.1986530
  35.4286634  99.8174189  85.6614283  36.0697226 100.8520225  84.7611420
  35.5806405  99.5620718  82.4601579  36.1094172  99.0513173  81.8471741
  35.8434625  99.2463248  83.3247112  34.3344639  91.3412651  97.5824397
  33.6585276  91.2406780  98.2526772  35.1572273  91.1851865  98.0460394
  26.0823498  97.5784588  90.2036912  26.6676935  96.8328275  90.3364817
  25.8848336  97.8888544  91.0873576  28.9362153 100.6135835  85.2199355
  28.2672528 101.0981963  84.7363395  28.7975023 100.8605055  86.1342733
  20.6741153  90.1490188  88.9241356  20.7125252  89.6153778  89.7178474
  20.1681446  89.6225393  88.3052333  33.0767422 102.6479578  91.8182013
  33.6285730 102.8111200  92.5831098  33.4173615 103.2384016  91.1462038
  28.0531915  84.9954728  92.4203898  28.1173241  85.8569559  92.0081296
  27.9899035  84.3828730  91.6876256  27.5284188  87.0677861  96.0676932
  28.1556226  86.6854938  96.6814456  26.6712106  86.8492063  96.4332625
  37.9278296  97.4740836  97.6730668  38.4718200  98.0870794  97.1785622
  37.3465141  98.0320414  98.1897681  24.3049730  88.8754290  81.9995287
  24.6003171  87.9664968  81.9462341  23.4037766  88.8542029  81.6776289
  36.2135809 100.5961554  88.8045695  36.0886948  99.7951294  88.2956641
  36.8714900 101.0907747  88.3159665  27.8343977  86.9510286  87.9822836
  27.1130563  87.5646254  87.8430309  28.6237233  87.4868051  87.9039482
  38.2770717  98.3970574  90.4325245  37.3301053  98.2775925  90.3603572
  38.6253491  97.5093072  90.5151507  30.6370291  84.2864713  94.2563487
  31.1604693  84.5327009  95.0189797  30.4182624  85.1184748  93.8366625
  26.0337572  86.5568388  82.1234612  25.7050278  85.6765766  81.9409718
  26.3876943  86.5016056  83.0111001  35.2817151  98.1923290  86.6329598
  35.1342113  97.2639998  86.8137168  36.1070644  98.2143381  86.1486673
  29.1479395  86.8441357  82.4910090  29.4875468  87.3727279  81.7688698
  29.5951515  87.1821763  83.2668656  38.8851273  99.0151849  87.7194470
  39.8097820  98.8094710  87.5818922  38.7166576  98.7668250  88.6283812
  31.8422836  85.2278408  91.9413158  31.5019656  84.4286221  92.3433838
  31.1361842  85.5280119  91.3689991  31.1347542  85.3415979  80.6903383
  31.8555905  85.7197232  80.1867099  30.5112846  86.0604856  80.7938361
  35.2778665  86.0461128  81.6261715  35.4942279  86.9285766  81.3250543
  34.7972732  85.6547341  80.8967357  30.0177886  89.0046841  88.2032459
  29.8722467  89.3187144  89.0956741  29.5403090  89.6231741  87.6503358
  31.8774269  85.9949389  88.2513349  31.8635838  85.0990482  87.9145647
  32.5946697  86.0020053  88.8851635  33.7300400  86.4286729  90.2966476
  33.4718178  87.3503800  90.2950807  33.1985440  86.0317164  90.9866941
  38.6746589  99.5337516  83.0756562  38.8483466  98.9683939  82.3230414
  39.1675480 100.3338411  82.8936052  24.4923549  91.5452186  91.1420121
  23.9477017  92.3211993  91.2740395  25.3702898  91.8922990  90.9839242
  31.2811165  84.8763769  83.5200919  31.4027076  83.9480416  83.7191807
  30.9913208  84.8902455  82.6079235  34.1502356  82.5618680  86.6567639
  34.1724052  82.6258013  85.7019619  34.5670415  81.7223188  86.8508145
  44.5285980  92.2973939  84.6946862  44.9717126  91.5481265  84.2965985
  43.6512490  92.2884076  84.3120594  39.6621761  98.8504281  80.1753460
  40.3572666  99.4710974  80.3940775  40.0044911  97.9999632  80.4505838
  25.2789570  90.6722082  94.0350278  24.5371306  90.8204717  94.6214908
  24.9582315  90.9330347  93.1717027  41.5613184  96.3003986  81.7040791
  42.0864508  96.6391259  80.9790111  41.4735537  95.3651002  81.5203926
  33.2233233 100.2138060  93.8330668  33.5320360  99.9687207  94.7053367
  34.0208715 100.4184698  93.3449538  33.2453845 102.3675970  86.0636044
  32.8058835 101.8752348  86.7568901  33.9961962 101.8248937  85.8228119
  25.7246184  98.5587511  86.0660672  26.5504204  98.2591282  85.6859316
  25.3740236  97.7895133  86.5150461  30.6927717  97.9113979  88.1358346
  30.0707727  97.2484684  87.8360574  31.3632584  97.9375111  87.4531994
  23.9254789  96.4773837  87.0249606  23.0886697  96.0496011  86.8433607
  23.8978435  96.6706280  87.9620397  30.7652245  86.3895767  97.7290852
  30.8140400  87.2657890  97.3468621  31.3074759  85.8473160  97.1562495
  41.2507090  96.9336890  97.0091989  40.4602634  96.9161029  96.4696488
  41.0140445  97.4725184  97.7641025  41.3704965  93.7829356  94.3224717
  41.4202970  93.6179364  95.2640240  41.2618889  92.9156615  93.9322598
  30.2541224  96.4617902  81.6116806  30.4029345  97.1453366  80.9583479
  31.0607668  96.4422992  82.1266262  38.6608728  89.7660284  95.6384024
  39.5618591  89.6266749  95.3468022  38.7356702  89.9314739  96.5782202
  32.9951533  87.1427139  94.4837210  32.1254843  87.4360705  94.2119799
  33.2311014  87.7267584  95.2044474  42.8723162  96.2026298  94.5666739
  42.5807971  96.5656278  95.4030200  42.2595294  95.4893306  94.3880071
  44.0718845  93.7679178  87.0869309  44.9065736  94.2068982  87.2506870
  44.2077973  93.2917831  86.2677555  41.1210351  91.3258913  93.0346797
  41.5964472  91.5186559  92.2265648  40.1975916  91.3818098  92.7890181
  28.0093857  92.4883080  82.6177875  27.7639899  91.5845410  82.8158085
  28.1789772  92.4900230  81.6757353  27.2789505  88.2211437  80.1164037
  26.5858750  88.2955792  79.4604073  27.0341257  87.4571781  80.6385554
  35.9503161  79.7807039  87.5203527  36.2304915  79.1130228  88.1463954
  36.7353768  79.9736134  87.0078191  33.7536630  98.9566033  79.0828554
  33.1810597  99.5756220  78.6299026  34.3269423  99.5065394  79.6168476
  39.8212020  88.2024673  91.2675103  40.7729442  88.3022770  91.2887327
  39.6515470  87.4102941  91.7773187  37.8426399  85.2880256  91.4534503
  37.2476331  85.5685269  90.7580992  37.5576096  85.7774157  92.2251245
  36.9733889  99.2403183  80.2137136  37.9064563  99.1748744  80.4170012
  36.8857102 100.0759450  79.7551669  39.6021906  98.5569053  77.1741084
  39.5235538  98.2228917  78.0676841  40.4231573  99.0490821  77.1732556
  42.3000097  91.4230792  90.3817402  42.2676417  90.4846793  90.5677086
  42.9100721  91.5014829  89.6483227  34.1383428  90.2926845  76.4244606
  35.0842533  90.1633053  76.4933024  33.7597673  89.5541507  76.9014034
  42.4494586  88.2141836  90.4275685  41.9333634  87.4300292  90.2405614
  43.3334534  87.8860552  90.5922205  40.1105313  81.9582851  86.3871498
  39.9130134  81.6497939  87.2714830  40.7205018  82.6844490  86.5169428
  48.1176647  92.4846799  89.5223439  48.8480036  92.2232087  90.0831142
  47.5083593  91.7475521  89.5625507  46.1991944  90.6254662  90.1197890
  45.4725108  90.4910627  89.5114382  45.7839231  90.9331490  90.9254608
  34.0222121  94.3444591  97.8845263  34.9425130  94.5223190  98.0785310
  33.9871704  93.4000637  97.7324962  32.3226345  88.2176822  76.3599491
  31.4157801  87.9209934  76.4362205  32.6002326  87.9206640  75.4933778
  23.2404286  89.5383185  86.8098538  22.9207070  88.6848493  86.5172912
  22.6937714  89.7531763  87.5656505  27.0184193  92.2545626  90.5268044
  27.2370203  93.1862734  90.5456078  27.4309967  91.8953600  91.3122848
  33.9388411  82.7613711  82.5143733  33.1289139  82.4160796  82.8898979
  34.6272828  82.4521255  83.1031344  35.8678959  81.8391758  84.1368029
  36.4209998  82.2587212  84.7958052  36.1049046  80.9127506  84.1790985
  31.8912059  87.8278832  99.9170793  31.7908785  88.7773189  99.8482884
  31.6733601  87.4997071  99.0446863  31.0925130  85.0763757  76.5011471
  31.9544294  85.4018655  76.7607288  31.2775474  84.2895253  75.9884536
  23.1092546  93.1586097  88.7791659  22.4156017  92.7440049  88.2661614
  23.8565537  93.2006633  88.1825078  39.2457766  83.9492283  83.6446694
  38.6656436  84.6077087  83.2624746  38.9793699  83.1269628  83.2334111
  37.6961333  83.3497341  85.8468014  38.1961111  83.4613876  85.0382333
  38.3396941  83.0458394  86.4868822  31.7543329  91.2575971  98.7335855
  31.2710410  92.0576331  98.9399744  31.8404268  91.2683916  97.7803299
  25.0229288  93.0904350  86.6557674  24.9999976  93.1892038  85.7039557
  25.3329925  93.9369501  86.9774840  27.6816666  95.1480505  90.7704289
  28.6359920  95.1164448  90.7034220  27.4829190  94.6871129  91.5854515
  28.2716048  93.7181621  93.3375086  29.0908937  94.2125700  93.3609924
  28.5452856  92.8013590  93.3092654  38.0282644  86.1092374  82.7003042
  37.1408500  86.3942024  82.4823237  38.4436634  85.9486137  81.8530319
  41.3797181  86.1338895  86.4157381  42.1557571  86.6235347  86.6881998
  40.6545315  86.5596949  86.8729251  43.8169739  86.8466514  87.4731322
  44.4114230  86.6062250  86.7624630  43.8896323  86.1273644  88.1004858
  26.0366895 100.6900125  87.7874487  25.9021363  99.9300526  87.2212485
  25.6198957 101.4141025  87.3203275  37.1725858  95.8737048  76.7951062
  37.8761708  96.0787051  77.4108717  36.4488507  96.4413810  77.0600145
  38.0023668  91.6246910  82.9153332  37.9458870  92.0815461  82.0760964
  38.5552011  90.8637594  82.7376175  41.8128474  87.4136642  83.7403452
  41.5565408  87.0133277  84.5711659  41.1881342  88.1280435  83.6153591
  46.1240812  90.1532715  86.2474743  45.5640370  90.2225904  87.0206305
  45.5184315  89.9773699  85.5274239  29.1936021 101.5869442  87.9992929
  29.0768405 102.5314874  87.8971620  28.3728467 101.2843003  88.3878728
  39.0812555  96.3119578  78.8449522  39.9158159  95.8800776  78.6626997
  38.9196898  96.1401591  79.7726416  38.7358448  92.8151691  80.2105861
  38.6807251  92.6495962  79.2694305  38.1104503  93.5227724  80.3668051
  23.5250963  88.0519755  94.0367283  24.1709826  87.5418709  94.5254509
  23.3168114  88.7888437  94.6110709  36.0504355  95.1200603  99.5359424
  36.9195514  95.2941255  99.1746059  35.5711106  95.9395020  99.4135153
  32.0454573  82.3159800  79.7891180  32.0333243  83.2601640  79.9459451
  32.9377995  82.1329945  79.4950641  30.2190535 102.2397704  91.2148858
  31.1217782 102.2721314  91.5315353  29.9927905 101.3098155  91.2295193
  31.9744137 100.9928690  87.8758936  31.0239768 100.9930552  87.7623309
  32.2776623 100.2461425  87.3594971  27.8648454  85.1987372  98.1342298
  28.7279915  84.8424177  98.3445622  27.2913864  84.8601267  98.8217702
  47.7096830 106.8289229  88.9404699  48.3475240 106.7095976  88.2368039
  47.5917673 107.7770073  88.9992651  44.5186537 106.7816657  88.8766223
  44.1805048 106.6657722  87.9886758  45.3876305 106.3807822  88.8567230
  40.3773352 108.6352133  84.8663114  39.8138218 108.5442070  84.0979402
  40.2625747 107.8152038  85.3465607  45.0006320 107.9351509  94.8352429
  44.9894960 107.5404307  93.9632933  45.1626959 107.2017581  95.4286200
  37.9237784 110.1303325  87.7047335  38.7159076 109.7894149  87.2893634
  38.1634435 110.2398300  88.6249488  45.9572911 112.3023101  80.1777579
  45.3060891 112.8877181  79.7911593  46.7517274 112.8329296  80.2372617
  39.8828538 109.3912238  80.5764714  40.6559414 108.8441225  80.4377589
  40.2353937 110.2556487  80.7879175  41.7213581 110.7188620  93.7831613
  41.4303447 111.6234251  93.6678279  42.3570565 110.7605148  94.4975682
  42.6469788 108.0965469  90.3732973  43.2433360 107.8721491  89.6589935
  42.7044759 107.3550214  90.9758420  42.2194816 105.5504904  78.2083163
  42.4720337 105.0286425  77.4466627  41.2819375 105.3871050  78.3109847
  47.2638099 104.5540683  86.0157907  48.0501188 104.1360106  85.6648324
  47.5276803 105.4586775  86.1839555  47.4348176 109.9913533  80.7146564
  46.7994009 110.0648159  81.4267468  47.1045583 110.5807132  80.0365643
  52.6646526 104.4915916  86.9190885  53.3971698 103.9215133  87.1528715
  51.9085882 104.1037516  87.3597391  41.9391105 107.4533010  80.4107538
  41.8227363 106.7777914  81.0788623  42.0493365 106.9665384  79.5939692
  44.2822646 106.9143157  84.1154228  43.9180853 106.3873778  84.8267149
  45.1389762 106.5241626  83.9420713  50.1871946  98.2037490  91.3785494
  49.8555271  99.0732901  91.1546709  49.5917560  97.8873774  92.0579524
  43.9228133 101.9433057  79.1115576  44.0902535 102.8113293  79.4786047
  43.7325302 102.1060339  78.1876865  46.6803466 110.4050036  90.7781407
  46.3804189 111.3075075  90.6697214  46.3354525 110.1382219  91.6302559
  40.1315947 106.8563833  86.8118111  39.2066444 106.7240047  87.0195803
  40.3800361 107.6358052  87.3088053  50.0800610 102.9232576  88.4578844
  49.1717487 102.8547984  88.1637605  50.0288206 103.4004521  89.2860669
  43.9017354 104.3990714  80.0962243  43.7816979 104.8447765  80.9347723
  43.2069942 104.7476032  79.5375781  37.4924758 106.4997106  87.6461900
  37.6217140 106.7531585  88.5601312  36.8122210 107.0924814  87.3266555
  41.6624246 117.1694356  83.7452374  41.5848275 118.1202181  83.8240855
  41.0585889 116.8240229  84.4027301  44.1541476 104.3422222  96.4013741
  43.3774810 104.9016142  96.3916606  44.7932039 104.8279005  96.9228611
  51.9462256 101.1249014  90.2356718  51.3036636 101.4181548  89.5896512
  51.4417185 101.0101935  91.0409914  49.6002420 104.8712188  80.9242577
  50.5120276 105.1039574  80.7490275  49.0912067 105.4549232  80.3617656
  42.4087848 107.1507675  95.9631708  43.1502532 107.6892719  95.6866532
  41.7024833 107.7773964  96.1203260  47.8843187 109.2936815  94.5603870
  48.2926543 108.8519226  93.8158502  47.1620449 108.7189443  94.8138063
  44.2374258 104.2309422  91.9337427  45.0835453 104.6548836  92.0772076
  44.1772895 103.5743047  92.6275990  48.2072002 109.8538006  88.3156159
  47.5780865 110.0183720  87.6132226  47.8197664 110.2679616  89.0867123
  52.0861234 110.7892444  85.6700522  51.4012272 111.1691345  85.1197556
  52.1705083 111.3987771  86.4032470  47.3873703 101.8913791  93.5918600
  47.1434635 102.6455851  93.0552876  47.6633633 102.2699138  94.4265847
  49.3412166 108.4352403  92.2695866  49.5529061 109.0784163  91.5930247
  49.2941914 107.6014720  91.8017796  46.9438395 101.0470224  89.1732438
  46.0822874 101.3451477  89.4649176  46.9700829 101.2640623  88.2413471
  43.7599964 109.5912414  85.5806244  44.2238310 109.8700117  84.7910866
  43.4956762 108.6895859  85.3979334  40.6524045 109.1383896  88.5186007
  41.2225402 109.5671164  87.8803491  41.2432157 108.8566480  89.2170193
  42.6968850 105.7135567  82.3895809  43.3992893 106.1656610  82.8569735
  42.3649479 105.0719385  83.0175702  41.1449212 104.3047323  96.7647018
  40.5147872 104.9863604  96.9982415  41.0385299 104.1930405  95.8200156
  36.4394184 103.9719119  87.6912942  35.6493238 104.2276648  87.2153053
  36.9305431 104.7867457  87.7964983  50.4557994 111.3124358  90.4418223
  51.2775437 110.9104546  90.1600905  50.4520396 111.2092593  91.3934339
  38.3908929 104.3363698  84.6496419  37.5940093 104.4482393  85.1679915
  38.1634522 104.6750351  83.7837310  44.2214597 110.8608402  92.5978934
  44.2859030 111.3228809  93.4337106  43.5125521 110.2305767  92.7261244
  34.7231887 104.2249610  90.1227933  34.9739925 105.1096620  90.3885509
  35.2591435 104.0454211  89.3503025  58.5463987 107.6563107  86.7903195
  57.7927695 107.0870505  86.6347199  58.6811528 107.6225771  87.7373829
  43.9362615 112.5276509  82.4657914  43.8008289 113.3728045  82.8942762
  44.4772427 112.7295787  81.7023848  40.4229954  98.6068089  99.1272269
  40.0296900  98.0534288  99.8019913  41.2396095  98.9178667  99.5178787
  37.3892012 110.0451947  83.0385839  37.9016533 110.8395197  83.1891404
  38.0414725 109.3478238  82.9719441  39.1986897 113.1617703  85.1208592
  39.3753525 114.0835668  84.9329576  39.9943730 112.8476123  85.5502972
  43.3397915 100.0225968  96.7192526  44.0807629 100.6233121  96.6396988
  43.5715838  99.2803606  96.1610568  38.4839253 105.2082335  94.9970755
  38.3692768 104.3067593  95.2977854  37.6283771 105.4546032  94.6455572
  45.5631091 113.1500076  96.5958256  45.1194945 112.3636454  96.2779161
  46.2248305 113.3379226  95.9302147  40.3218212 114.6795877  91.1218935
  40.8725637 114.5512941  90.3495929  39.4829688 114.9790766  90.7713827
  47.6612329 113.4302876  94.6239657  47.6430804 114.2511757  94.1319927
  48.5832249 113.3056951  94.8489799  44.1185383 110.9447005  95.4663166
  44.6513720 110.1835293  95.2362474  43.5899464 110.6520657  96.2087320
  47.2855078  96.0507071  90.9956807  46.9419348  96.9408713  90.9195918
  47.6534041  95.8608729  90.1326392  35.3540929 108.3740602  83.8145410
  36.1916151 108.7837610  83.5979117  35.5319197 107.4340044  83.7845604
  47.2505361 106.0415682  79.5029243  46.7351984 106.8120287  79.7417630
  46.9782669 105.3680818  80.1262304  44.8352472 100.8865383  84.5614481
  43.9794068 100.4972233  84.3820120  45.2479424 100.9657344  83.7014266
  46.3651619  98.4211726  88.9606041  45.8616414  98.3841861  88.1473846
  46.6582225  99.3304469  89.0202697  42.6094504  98.5050456  87.9672222
  43.4747501  98.3093265  87.6078112  42.6772013  98.2760808  88.8941579
  52.2239635 108.7948037  81.4382416  51.4469078 108.4559196  80.9937578
  52.9031116 108.8000660  80.7637381  47.0391664 103.9142774  81.3289024
  46.7341800 104.2288923  82.1799167  47.9922106 103.9924194  81.3716357
  45.4838096 110.0732998  82.9781978  44.9559458 109.3385757  82.6655215
  44.9825599 110.8507674  82.7321946  50.4630942 108.2682018  88.0949024
  49.8054616 108.9581279  88.1829153  51.2671341 108.6578450  88.4383010
  40.2156824 100.7352664  85.3388589  40.7900575 100.5127845  84.6061782
  40.8027806 100.8041358  86.0917191  49.2736401 106.6226391  86.1452966
  49.7868283 107.2556383  86.6474676  49.9237625 106.0227586  85.7796326
  40.5426411 102.7657125  79.3584475  39.7063723 103.1031811  79.6793749
  40.4031180 102.6306105  78.4211612  42.5179491  97.6093913  84.0663659
  41.8643904  97.2942930  83.4420273  42.4759965  96.9869653  84.7923482
  43.6290696 107.8913208  75.9816951  42.7217758 107.6602461  76.1808100
  44.1261728 107.0950827  76.1690932  46.5358775 116.6010715  78.9013637
  45.8620474 116.9042412  79.5098595  46.9224597 117.4039795  78.5519094
  45.7517232 104.0975846  88.3911306  44.8339793 104.3190793  88.2332994
  46.1677375 104.1722157  87.5323014  46.5352279 105.4967262  83.5213987
  47.2824098 106.0088659  83.2121109  46.8043869 105.1751315  84.3818380
  44.8078930 107.9925803  80.5040941  43.8990149 107.7084836  80.6013411
  44.8374013 108.4124881  79.6444248  50.0398197 111.6032392  84.2732108
  49.5860524 110.7623302  84.3297299  49.4092164 112.2393791  84.6106889
  48.9831117 102.5324378  85.5032776  48.2453873 102.0201764  85.8343018
  49.2357890 102.0924760  84.6916053  48.4831136 113.4408889  85.2081927
  48.7754111 114.0013946  84.4894292  48.9929757 113.7337450  85.9635086
  49.0842744  95.3100630  86.0974545  49.3901621  94.4497994  85.8100460
  49.8095349  95.9018250  85.8973539  35.3767100 105.7131317  84.4856143
  35.1791500 105.1200678  83.7607210  34.8213764 105.4083527  85.2032082
  43.3563824 105.6054423  86.6050736  43.4112433 104.6528260  86.5293213
  42.5455026 105.7613862  87.0892035  44.5055017 109.5334546  77.8429019
  44.0674447 108.8170405  77.3834657  45.2465458 109.7610661  77.2814111
  41.2956184 104.2231483  84.3641115  40.4824049 104.5225654  84.7706307
  41.7915178 103.8287172  85.0815597  43.4464761 114.2189240  86.2975380
  43.4040940 114.4450086  85.3683912  44.3627460 113.9852615  86.4461181
  46.8930395 104.6873308  93.1956009  47.2479783 104.9144781  94.0550475
  47.5402526 105.0191684  92.5733264  52.6228132 107.8091743  83.9005338
  52.4846031 107.9993339  82.9726527  52.2664351 108.5711126  84.3573389
  40.7870258 101.7949839  89.9802350  41.4269638 101.6538598  89.2825313
  39.9547789 101.5084352  89.6040952  52.6497512 109.8768270  88.9116610
  53.0834018 109.7843560  89.7599664  53.3629092 109.8525771  88.2736626
  41.5630562 111.0952269  86.0937342  42.3571161 110.6002589  85.8919917
  40.8522255 110.5670132  85.7305048  46.3825407 113.4770365  90.4449710
  46.4362429 114.0461301  91.2127426  45.5140188 113.6472250  90.0803747
  37.8713326 105.2395351  82.1697095  36.9410914 105.1779806  82.3867057
  37.9670798 104.7171303  81.3733736  37.7898875 101.7650164  84.7575337
  38.0505692 102.6795497  84.6484497  38.6116047 101.2974606  84.9071950
  39.2623800 103.1787921  91.9274161  39.9346853 102.9705283  91.2786810
  38.4353587 102.9810007  91.4879394  53.5113061 109.9191971  91.4449495
  53.7048951 110.8237782  91.6908770  53.4113679 109.4599390  92.2788080
  45.1649372  99.8049862  93.9439822  44.5177287 100.5039811  93.8504299
  45.9350387 100.2386006  94.3116070  48.5728170 110.0698714  97.0190376
  48.4213676 109.8409266  96.1020459  48.5632849 111.0269315  97.0321721
  45.3413506 107.6430627  92.0036642  46.2705566 107.7941786  91.8305609
  44.9204536 107.7314647  91.1485288  44.1401838 111.6681291  89.7735180
  44.0012924 111.3000075  90.6461118  43.3516434 112.1828930  89.6019137
  44.7349990 116.7690387  81.1160716  44.9101746 116.2978431  81.9306339
  44.0482778 117.3956154  81.3441977  45.6907053 111.0462894  87.1624017
  45.3556886 111.0063664  88.0581667  45.1910999 110.3807610  86.6894428
  39.6651297 106.4530524  92.6876599  39.5271095 105.7210763  93.2888138
  40.5756221 106.3639424  92.4060786  48.6266245 108.3918928  77.4361077
  48.0095416 107.6665756  77.3394130  48.1582733 109.1528288  77.0928151
  42.2933598 106.1650483  92.1760278  43.0033217 105.5243675  92.1346897
  42.2502906 106.4163378  93.0986459  50.2820377 113.1017836  95.0966857
  50.2232923 112.4177056  94.4297440  50.6839895 113.8436826  94.6447483
  41.0062532 103.1515701  93.9955918  40.4699889 102.7006439  94.6477514
  40.4179240 103.2861610  93.2526382  40.4164791 102.6104352  76.5582381
  39.5394257 102.4893153  76.1944628  40.8922544 101.8190431  76.3061270
  50.2837784 111.0657420  93.3280837  49.3964563 110.7283342  93.4507236
  50.8536335 110.3340452  93.5649602  31.9366931 107.3981512  86.6523888
  32.6237971 107.0843242  86.0644904  31.7815060 108.3022877  86.3791140
  36.7401653 102.2871709  91.0808912  36.6559842 101.6797378  90.3459322
  35.9184360 102.7780727  91.0818408  43.8138937 115.7258873  90.2942080
  43.7409109 116.5313844  90.8061385  43.3716330 115.9250838  89.4690102
  43.6028717 114.9630643  83.8044902  42.8196239 115.5052323  83.8983126
  44.3021462 115.4804622  84.2039143  46.9125367 100.7725272  86.4479107
  47.4094067 100.0195234  86.1280177  46.1412349 100.8089589  85.8822317
  54.7655124 106.4765638  88.0897399  54.7545001 107.3590353  87.7191332
  53.8972504 106.1237188  87.8951936  46.2737621 115.6245707  92.4500239
  46.9865593 116.2593172  92.3776140  45.7827649 115.7209573  91.6340241
  47.9955148 109.5296959  84.0217531  47.0611426 109.6498422  83.8522235
  48.1731816 108.6269426  83.7577540  43.4960336 102.9142655  86.1750792
  43.1258123 102.3613696  86.8631697  43.9919428 102.3100789  85.6225792
  51.3827699 105.3714279  84.5567565  51.8488151 106.2042270  84.4827867
  51.8335200 104.9059260  85.2612823  41.3249534 113.3740150  93.2705810
  42.0258994 114.0076633  93.4235204  40.8544649 113.7154882  92.5101449
  49.4503930 111.7158100  81.5553717  49.7263774 111.6014695  82.4647591
  48.5808429 111.3175585  81.5165890  49.3544362  97.7394866  88.5958466
  48.4407442  97.9699092  88.7640673  49.7837463  97.8233310  89.4472498
  49.1250820 105.9284758  91.0958360  48.4722271 106.1760665  90.4410813
  49.5031200 105.1148896  90.7620837  46.0857994 115.9644451  85.1986530
  46.2680389 115.1466107  85.6614283  46.9090980 116.1812143  84.7611420
  46.4200160 114.8912636  82.4601579  46.9487926 114.3805090  81.8471741
  46.6828379 114.5755166  83.3247112  45.1738393 106.6704569  97.5824397
  44.4979030 106.5698698  98.2526772  45.9966027 106.5143782  98.0460394
  36.9217252 112.9076505  90.2036912  37.5070689 112.1620193  90.3364817
  36.7242091 113.2180462  91.0873576  39.7755908 115.9427753  85.2199355
  39.1066283 116.4273880  84.7363395  39.6368777 116.1896973  86.1342733
  31.5134907 105.4782105  88.9241356  31.5519007 104.9445696  89.7178474
  31.0075200 104.9517311  88.3052333  43.9161176 117.9771496  91.8182013
  44.4679484 118.1403118  92.5831098  44.2567370 118.5675934  91.1462038
  38.8925669 100.3246646  92.4203898  38.9566996 101.1861477  92.0081296
  38.8292790  99.7120648  91.6876256  38.3677942 102.3969778  96.0676932
  38.9949981 102.0146856  96.6814456  37.5105861 102.1783980  96.4332625
  48.7672051 112.8032754  97.6730668  49.3111955 113.4162712  97.1785622
  48.1858895 113.3612332  98.1897681  35.1443485 104.2046208  81.9995287
  35.4396926 103.2956886  81.9462341  34.2431521 104.1833947  81.6776289
  47.0529564 115.9253472  88.8045695  46.9280703 115.1243211  88.2956641
  47.7108655 116.4199665  88.3159665  38.6737732 102.2802204  87.9822836
  37.9524318 102.8938172  87.8430309  39.4630988 102.8159969  87.9039482
  49.1164472 113.7262492  90.4325245  48.1694807 113.6067843  90.3603572
  49.4647245 112.8384990  90.5151507  41.4764045  99.6156631  94.2563487
  41.9998447  99.8618927  95.0189797  41.2576379 100.4476665  93.8366625
  36.8731326 101.8860305  82.1234612  36.5444032 101.0057684  81.9409718
  37.2270697 101.8307974  83.0111001  46.1210905 113.5215208  86.6329598
  45.9735868 112.5931915  86.8137168  46.9464399 113.5435299  86.1486673
  39.9873149 102.1733275  82.4910090  40.3269222 102.7019196  81.7688698
  40.4345270 102.5113681  83.2668656  49.7245027 114.3443767  87.7194470
  50.6491575 114.1386628  87.5818922  49.5560330 114.0960168  88.6283812
  42.6816590 100.5570326  91.9413158  42.3413411  99.7578139  92.3433838
  41.9755597 100.8572037  91.3689991  43.3333062  97.6419638  90.3940481
  44.1559131  97.1680116  90.2719371  43.5771126  98.4210122  90.8939167
  41.9741297 100.6707897  80.6903383  42.6949659 101.0489149  80.1867099
  41.3506601 101.3896773  80.7938361  46.1172420 101.3753046  81.6261715
  46.3336034 102.2577683  81.3250543  45.6366487 100.9839259  80.8967357
  40.8571641 104.3338759  88.2032459  40.7116222 104.6479062  89.0956741
  40.3796845 104.9523659  87.6503358  42.7168024 101.3241307  88.2513349
  42.7029593 100.4282400  87.9145647  43.4340452 101.3311971  88.8851635
  44.5694154 101.7578647  90.2966476  44.3111932 102.6795718  90.2950807
  44.0379195 101.3609082  90.9866941  49.5140343 114.8629434  83.0756562
  49.6877221 114.2975857  82.3230414  50.0069234 115.6630329  82.8936052
  35.3317303 106.8744103  91.1420121  34.7870771 107.6503911  91.2740395
  36.2096653 107.2214908  90.9839242  42.1204920 100.2055687  83.5200919
  42.2420831  99.2772333  83.7191807  41.8306962 100.2194373  82.6079235
  44.9896110  97.8910598  86.6567639  45.0117807  97.9549931  85.7019619
  45.4064169  97.0515106  86.8508145  55.3679734 107.6265857  84.6946862
  55.8110880 106.8773182  84.2965985  54.4906245 107.6175993  84.3120594
  50.5015516 114.1796199  80.1753460  51.1966420 114.8002891  80.3940775
  50.8438666 113.3291550  80.4505838  36.1183325 106.0013999  94.0350278
  35.3765061 106.1496635  94.6214908  35.7976069 106.2622265  93.1717027
  52.4006939 111.6295904  81.7040791  52.9258263 111.9683177  80.9790111
  52.3129291 110.6942919  81.5203926  44.0626988 115.5429978  93.8330668
  44.3714114 115.2979124  94.7053367  44.8602470 115.7476616  93.3449538
  44.0847600 117.6967887  86.0636044  43.6452590 117.2044266  86.7568901
  44.8355717 117.1540855  85.8228119  36.5639939 113.8879428  86.0660672
  37.3897959 113.5883200  85.6859316  36.2133991 113.1187051  86.5150461
  41.5321472 113.2405896  88.1358346  40.9101481 112.5776601  87.8360574
  42.2026339 113.2667028  87.4531994  34.7648544 111.8065755  87.0249606
  33.9280452 111.3787929  86.8433607  34.7372189 111.9998198  87.9620397
  41.6045999 101.7187684  97.7290852  41.6534155 102.5949807  97.3468621
  42.1468513 101.1765077  97.1562495  52.0900845 112.2628808  97.0091989
  51.2996389 112.2452947  96.4696488  51.8534200 112.8017101  97.7641025
  52.2098720 109.1121274  94.3224717  52.2596725 108.9471282  95.2640240
  52.1012643 108.2448533  93.9322598  41.0934979 111.7909820  81.6116806
  41.2423099 112.4745284  80.9583479  41.9001422 111.7714910  82.1266262
  49.5002482 105.0952202  95.6384024  50.4012345 104.9558667  95.3468022
  49.5750457 105.2606657  96.5782202  43.8345288 102.4719057  94.4837210
  42.9648597 102.7652623  94.2119799  44.0704768 103.0559502  95.2044474
  53.7116917 111.5318216  94.5666739  53.4201725 111.8948196  95.4030200
  53.0989048 110.8185224  94.3880071  54.9112599 109.0971095  87.0869309
  55.7459491 109.5360899  87.2506870  55.0471728 108.6209749  86.2677555
  51.9604105 106.6550830  93.0346797  52.4358227 106.8478477  92.2265648
  51.0369670 106.7110016  92.7890181  38.8487612 107.8174997  82.6177875
  38.6033654 106.9137327  82.8158085  39.0183526 107.8192148  81.6757353
  46.5384322  98.6898674  92.0002631  47.0566265  99.4259701  91.6749119
  46.1839454  98.9962667  92.8349390  38.1183259 103.5503355  80.1164037
  37.4252504 103.6247710  79.4604073  37.8735011 102.7863699  80.6385554
  46.7896916  95.1098956  87.5203527  47.0698669  94.4422145  88.1463954
  47.5747523  95.3028052  87.0078191  44.5930384 114.2857950  79.0828554
  44.0204351 114.9048137  78.6299026  45.1663178 114.8357312  79.6168476
  50.6605774 103.5316590  91.2675103  51.6123197 103.6314688  91.2887327
  50.4909224 102.7394859  91.7773187  48.6820154 100.6172174  91.4534503
  48.0870086 100.8977186  90.7580992  48.3969850 101.1066074  92.2251245
  47.8127644 114.5695100  80.2137136  48.7458317 114.5040662  80.4170012
  47.7250857 115.4051367  79.7551669  50.4415661 113.8860971  77.1741084
  50.3629292 113.5520834  78.0676841  51.2625327 114.3782739  77.1732556
  53.1393852 106.7522710  90.3817402  53.1070172 105.8138711  90.5677086
  53.7494475 106.8306747  89.6483227  44.9777183 105.6218763  76.4244606
  45.9236287 105.4924971  76.4933024  44.5991428 104.8833425  76.9014034
  53.2888340 103.5433753  90.4275685  52.7727389 102.7592210  90.2405614
  54.1728289 103.2152470  90.5922205  50.9499067  97.2874769  86.3871498
  50.7523888  96.9789857  87.2714830  51.5598773  98.0136408  86.5169428
  58.9570402 107.8138717  89.5223439  59.6873790 107.5524005  90.0831142
  58.3477347 107.0767439  89.5625507  57.0385699 105.9546579  90.1197890
  56.3118862 105.8202544  89.5114382  56.6232986 106.2623408  90.9254608
  44.8615875 109.6736509  97.8845263  45.7818885 109.8515108  98.0785310
  44.8265458 108.7292554  97.7324962  43.1620100 103.5468739  76.3599491
  42.2551555 103.2501852  76.4362205  43.4396081 103.2498557  75.4933778
  34.0798040 104.8675103  86.8098538  33.7600825 104.0140411  86.5172912
  33.5331468 105.0823681  87.5656505  37.8577948 107.5837544  90.5268044
  38.0763958 108.5154652  90.5456078  38.2703722 107.2245518  91.3122848
  44.7782166  98.0905629  82.5143733  43.9682894  97.7452714  82.8898979
  45.4666583  97.7813173  83.1031344  46.7072714  97.1683676  84.1368029
  47.2603752  97.5879129  84.7958052  46.9442800  96.2419424  84.1790985
  42.7305813 103.1570750  99.9170793  42.6302540 104.1065106  99.8482884
  42.5127355 102.8288988  99.0446863  41.9318884 100.4055675  76.5011471
  42.7938048 100.7310573  76.7607288  42.1169229  99.6187170  75.9884536
  33.9486300 108.4878014  88.7791659  33.2549772 108.0731967  88.2661614
  34.6959291 108.5298551  88.1825078  50.0851521  99.2784201  83.6446694
  49.5050190  99.9369005  83.2624746  49.8187454  98.4561546  83.2334111
  48.5355087  98.6789259  85.8468014  49.0354866  98.7905793  85.0382333
  49.1790695  98.3750312  86.4868822  42.5937083 106.5867888  98.7335855
  42.1104165 107.3868248  98.9399744  42.6798022 106.5975833  97.7803299
  35.8623043 108.4196268  86.6557674  35.8393731 108.5183955  85.7039557
  36.1723679 109.2661419  86.9774840  38.5210421 110.4772423  90.7704289
  39.4753674 110.4456365  90.7034220  38.3222944 110.0163047  91.5854515
  39.1109803 109.0473539  93.3375086  39.9302692 109.5417618  93.3609924
  39.3846610 108.1305507  93.3092654  48.8676399 101.4384291  82.7003042
  47.9802254 101.7233942  82.4823237  49.2830388 101.2778055  81.8530319
  52.2190935 101.4630812  86.4157381  52.9951325 101.9527265  86.6881998
  51.4939069 101.8888867  86.8729251  54.6563494 102.1758432  87.4731322
  55.2507985 101.9354168  86.7624630  54.7290077 101.4565562  88.1004858
  48.0119612 111.2028966  76.7951062  48.7155463 111.4078969  77.4108717
  47.2882261 111.7705728  77.0600145  48.8417423 106.9538827  82.9153332
  48.7852624 107.4107379  82.0760964  49.3945765 106.1929512  82.7376175
  52.6522229 102.7428559  83.7403452  52.3959163 102.3425195  84.5711659
  52.0275097 103.4572353  83.6153591  56.9634566 105.4824632  86.2474743
  56.4034124 105.5517822  87.0206305  56.3578070 105.3065617  85.5274239
  49.9206310 111.6411495  78.8449522  50.7551914 111.2092694  78.6626997
  49.7590653 111.4693509  79.7726416  49.5752202 108.1443609  80.2105861
  49.5201006 107.9787880  79.2694305  48.9498257 108.8519641  80.3668051
  34.3644717 103.3811673  94.0367283  35.0103581 102.8710627  94.5254509
  34.1561868 104.1180355  94.6110709  46.8898109 110.4492520  99.5359424
  47.7589269 110.6233173  99.1746059  46.4104861 111.2686937  99.4135153
  42.8848327  97.6451718  79.7891180  42.8726997  98.5893558  79.9459451
  43.7771749  97.4621863  79.4950641  41.0584289 117.5689621  91.2148858
  41.9611536 117.6013232  91.5315353  40.8321659 116.6390072  91.2295193
  42.8137891 116.3220608  87.8758936  41.8633522 116.3222470  87.7623309
  43.1170378 115.5753343  87.3594971  46.7000447  94.2394494  84.0437116
  45.9332843  93.6852981  84.1893799  47.1111152  94.3116363  84.9051268
  38.7042208 100.5279290  98.1342298  39.5673670 100.1716095  98.3445622
  38.1307619 100.1893185  98.8217702  58.5490585 122.1581146  88.9404699
  59.1868995 122.0387894  88.2368039  58.4311428 123.1061990  88.9992651
  55.3580291 122.1108574  88.8766223  55.0198803 121.9949639  87.9886758
  56.2270059 121.7099740  88.8567230  55.8400074 123.2643426  94.8352429
  55.8288715 122.8696224  93.9632933  56.0020714 122.5309499  95.4286200
  53.0588571 120.8796822  78.2083163  53.3114091 120.3578343  77.4466627
  52.1213130 120.7162967  78.3109847  58.1031853 119.8832600  86.0157907
  58.8894943 119.4652023  85.6648324  58.3670558 120.7878692  86.1839555
  63.5040281 119.8207833  86.9190885  64.2365452 119.2507050  87.1528715
  62.7479636 119.4329434  87.3597391  55.1216400 122.2435075  84.1154228
  54.7574607 121.7165696  84.8267149  55.9783516 121.8533544  83.9420713
  61.0265701 113.5329408  91.3785494  60.6949026 114.4024819  91.1546709
  60.4311314 113.2165692  92.0579524  54.7621887 117.2724975  79.1115576
  54.9296290 118.1405211  79.4786047  54.5719056 117.4352256  78.1876865
  60.9194364 118.2524494  88.4578844  60.0111242 118.1839902  88.1637605
  60.8681960 118.7296439  89.2860669  54.7411108 119.7282632  80.0962243
  54.6210733 120.1739683  80.9347723  54.0463697 120.0767950  79.5375781
  54.9935230 119.6714139  96.4013741  54.2168564 120.2308059  96.3916606
  55.6325793 120.1570922  96.9228611  62.7856011 116.4540932  90.2356718
  62.1430391 116.7473465  89.5896512  62.2810939 116.3393852  91.0409914
  60.4396174 120.2004105  80.9242577  61.3514030 120.4331492  80.7490275
  59.9305821 120.7841150  80.3617656  55.0768012 119.5601340  91.9337427
  55.9229207 119.9840753  92.0772076  55.0166650 118.9034964  92.6275990
  58.2267457 117.2205708  93.5918600  57.9828389 117.9747769  93.0552876
  58.5027388 117.5991056  94.4265847  60.1805920 123.7644321  92.2695866
  60.3922815 124.4076081  91.5930247  60.1335668 122.9306637  91.8017796
  57.7832149 116.3762141  89.1732438  56.9216628 116.6743395  89.4649176
  57.8094584 116.5932540  88.2413471  53.5362605 121.0427484  82.3895809
  54.2386648 121.4948528  82.8569735  53.2043233 120.4011303  83.0175702
  51.9842966 119.6339241  96.7647018  51.3541627 120.3155522  96.9982415
  51.8779054 119.5222322  95.8200156  47.2787938 119.3011037  87.6912942
  46.4886992 119.5568565  87.2153053  47.7699186 120.1159375  87.7964983
  49.2302684 119.6655616  84.6496419  48.4333847 119.7774310  85.1679915
  49.0028276 120.0042268  83.7837310  69.3857741 122.9855025  86.7903195
  68.6321449 122.4162423  86.6347199  69.5205282 122.9517689  87.7373829
  51.2623709 113.9360007  99.1272269  50.8690654 113.3826205  99.8019913
  52.0789849 114.2470585  99.5178787  54.1791670 115.3517886  96.7192526
  54.9201383 115.9525039  96.6396988  54.4109593 114.6095524  96.1610568
  58.1248833 111.3798989  90.9956807  57.7813102 112.2700630  90.9195918
  58.4927795 111.1900646  90.1326392  58.0899115 121.3707600  79.5029243
  57.5745739 122.1412204  79.7417630  57.8176424 120.6972736  80.1262304
  55.6746226 116.2157301  84.5614481  54.8187823 115.8264151  84.3820120
  56.0873178 116.2949261  83.7014266  57.2045373 113.7503644  88.9606041
  56.7010169 113.7133779  88.1473846  57.4975980 114.6596387  89.0202697
  53.4488259 113.8342374  87.9672222  54.3141256 113.6385182  87.6078112
  53.5165768 113.6052725  88.8941579  63.0633390 124.1239954  81.4382416
  62.2862832 123.7851114  80.9937578  63.7424871 124.1292578  80.7637381
  57.8785419 119.2434692  81.3289024  57.5735554 119.5580841  82.1799167
  58.8315861 119.3216112  81.3716357  61.3024696 123.5973936  88.0949024
  60.6448371 124.2873197  88.1829153  62.1065096 123.9870368  88.4383010
  51.0550578 116.0644582  85.3388589  51.6294330 115.8419763  84.6061782
  51.6421561 116.1333276  86.0917191  60.1130155 121.9518308  86.1452966
  60.6262037 122.5848300  86.6474676  60.7631379 121.3519504  85.7796326
  51.3820165 118.0949043  79.3584475  50.5457477 118.4323729  79.6793749
  51.2424935 117.9598022  78.4211612  53.3573246 112.9385830  84.0663659
  52.7037658 112.6234848  83.4420273  53.3153720 112.3161571  84.7923482
  56.5910986 119.4267764  88.3911306  55.6733548 119.6482711  88.2332994
  57.0071130 119.5014074  87.5323014  57.3746034 120.8259180  83.5213987
  58.1217853 121.3380577  83.2121109  57.6437623 120.5043232  84.3818380
  59.8224871 117.8616296  85.5032776  59.0847628 117.3493682  85.8343018
  60.0751645 117.4216678  84.6916053  59.9236498 110.6392548  86.0974545
  60.2295375 109.7789911  85.8100460  60.6489103 111.2310168  85.8973539
  54.1957578 120.9346341  86.6050736  54.2506188 119.9820177  86.5293213
  53.3848780 121.0905780  87.0892035  52.1349938 119.5523401  84.3641115
  51.3217804 119.8517571  84.7706307  52.6308932 119.1579089  85.0815597
  57.7324150 120.0165225  93.1956009  58.0873537 120.2436698  94.0550475
  58.3796281 120.3483602  92.5733264  63.4621887 123.1383661  83.9005338
  63.3239785 123.3285257  82.9726527  63.1058105 123.9003044  84.3573389
  51.6264013 117.1241756  89.9802350  52.2663392 116.9830515  89.2825313
  50.7941543 116.8376270  89.6040952  63.4891266 125.2060188  88.9116610
  63.9227773 125.1135477  89.7599664  64.2022847 125.1817689  88.2736626
  48.7107080 120.5687268  82.1697095  47.7804668 120.5071724  82.3867057
  48.8064552 120.0463221  81.3733736  48.6292629 117.0942081  84.7575337
  48.8899447 118.0087414  84.6484497  49.4509802 116.6266524  84.9071950
  50.1017555 118.5079838  91.9274161  50.7740608 118.2997201  91.2786810
  49.2747341 118.3101924  91.4879394  64.3506816 125.2483889  91.4449495
  64.5442706 126.1529699  91.6908770  64.2507434 124.7891308  92.2788080
  56.0043127 115.1341779  93.9439822  55.3571042 115.8331729  93.8504299
  56.7744142 115.5677923  94.3116070  56.1807261 122.9722544  92.0036642
  57.1099321 123.1233704  91.8305609  55.7598291 123.0606565  91.1485288
  59.4659999 123.7210846  77.4361077  58.8489170 122.9957674  77.3394130
  58.9976488 124.4820206  77.0928151  53.1327352 121.4942401  92.1760278
  53.8426971 120.8535593  92.1346897  53.0896661 121.7455296  93.0986459
  51.8456286 118.4807619  93.9955918  51.3093643 118.0298357  94.6477514
  51.2572995 118.6153527  93.2526382  51.2558545 117.9396270  76.5582381
  50.3788012 117.8185071  76.1944628  51.7316298 117.1482348  76.3061270
  47.5795408 117.6163626  91.0808912  47.4953596 117.0089296  90.3459322
  46.7578114 118.1072645  91.0818408  57.7519122 116.1017190  86.4479107
  58.2487821 115.3487152  86.1280177  56.9806103 116.1381506  85.8822317
  65.6048879 121.8057555  88.0897399  65.5938755 122.6882271  87.7191332
  64.7366258 121.4529106  87.8951936  54.3354090 118.2434573  86.1750792
  53.9651878 117.6905613  86.8631697  54.8313183 117.6392706  85.6225792
  62.2221454 120.7006196  84.5567565  62.6881906 121.5334188  84.4827867
  62.6728954 120.2351178  85.2612823  60.1938116 113.0686783  88.5958466
  59.2801196 113.2991010  88.7640673  60.6231218 113.1525227  89.4472498
  59.9644575 121.2576675  91.0958360  59.3116025 121.5052583  90.4410813
  60.3424955 120.4440813  90.7620837  56.0132148 121.9996486  97.5824397
  55.3372785 121.8990616  98.2526772  56.8359782 121.8435700  98.0460394
  49.7319424 115.6538564  92.4203898  49.7960750 116.5153394  92.0081296
  49.6686544 115.0412565  91.6876256  49.2071696 117.7261696  96.0676932
  49.8343735 117.3438773  96.6814456  48.3499615 117.5075898  96.4332625
  45.9837239 119.5338125  81.9995287  46.2790680 118.6248804  81.9462341
  45.0825275 119.5125865  81.6776289  49.5131486 117.6094122  87.9822836
  48.7918072 118.2230090  87.8430309  50.3024742 118.1451887  87.9039482
  52.3157800 114.9448548  94.2563487  52.8392202 115.1910845  95.0189797
  52.0970133 115.7768583  93.8366625  47.7125081 117.2152223  82.1234612
  47.3837787 116.3349602  81.9409718  48.0664452 117.1599892  83.0111001
  50.8266904 117.5025193  82.4910090  51.1662976 118.0311114  81.7688698
  51.2739024 117.8405599  83.2668656  53.5210345 115.8862243  91.9413158
  53.1807165 115.0870056  92.3433838  52.8149351 116.1863954  91.3689991
  54.1726817 112.9711556  90.3940481  54.9952886 112.4972034  90.2719371
  54.4164880 113.7502040  90.8939167  52.8135051 115.9999814  80.6903383
  53.5343414 116.3781067  80.1867099  52.1900355 116.7188691  80.7938361
  56.9566174 116.7044963  81.6261715  57.1729788 117.5869601  81.3250543
  56.4760241 116.3131177  80.8967357  51.6965395 119.6630676  88.2032459
  51.5509976 119.9770980  89.0956741  51.2190599 120.2815577  87.6503358
  53.5561778 116.6533224  88.2513349  53.5423347 115.7574318  87.9145647
  54.2734206 116.6603888  88.8851635  55.4087909 117.0870565  90.2966476
  55.1505687 118.0087635  90.2950807  54.8772949 116.6900999  90.9866941
  52.9598674 115.5347605  83.5200919  53.0814585 114.6064251  83.7191807
  52.6700717 115.5486291  82.6079235  55.8289865 113.2202515  86.6567639
  55.8511561 113.2841848  85.7019619  56.2457924 112.3807024  86.8508145
  66.2073489 122.9557775  84.6946862  66.6504635 122.2065100  84.2965985
  65.3299999 122.9467911  84.3120594  52.4439754 117.0479602  97.7290852
  52.4927909 117.9241725  97.3468621  52.9862268 116.5056995  97.1562495
  63.0492474 124.4413192  94.3224717  63.0990479 124.2763199  95.2640240
  62.9406398 123.5740451  93.9322598  60.3396237 120.4244120  95.6384024
  61.2406100 120.2850585  95.3468022  60.4144211 120.5898575  96.5782202
  54.6739042 117.8010975  94.4837210  53.8042352 118.0944541  94.2119799
  54.9098523 118.3851420  95.2044474  65.7506354 124.4263013  87.0869309
  66.5853245 124.8652817  87.2506870  65.8865482 123.9501666  86.2677555
  62.7997860 121.9842748  93.0346797  63.2751981 122.1770394  92.2265648
  61.8763425 122.0401934  92.7890181  57.3778076 114.0190591  92.0002631
  57.8960020 114.7551618  91.6749119  57.0233209 114.3254585  92.8349390
  48.9577014 118.8795273  80.1164037  48.2646259 118.9539628  79.4604073
  48.7128766 118.1155616  80.6385554  57.6290670 110.4390874  87.5203527
  57.9092424 109.7714063  88.1463954  58.4141277 110.6319970  87.0078191
  61.4999529 118.8608508  91.2675103  62.4516951 118.9606606  91.2887327
  61.3302979 118.0686777  91.7773187  59.5213908 115.9464091  91.4534503
  58.9263840 116.2269104  90.7580992  59.2363605 116.4357992  92.2251245
  63.9787606 122.0814628  90.3817402  63.9463926 121.1430628  90.5677086
  64.5888230 122.1598664  89.6483227  55.8170937 120.9510681  76.4244606
  56.7630042 120.8216889  76.4933024  55.4385182 120.2125343  76.9014034
  64.1282095 118.8725671  90.4275685  63.6121143 118.0884128  90.2405614
  65.0122043 118.5444388  90.5922205  61.7892822 112.6166687  86.3871498
  61.5917643 112.3081775  87.2714830  62.3992527 113.3428326  86.5169428
  69.7964156 123.1430634  89.5223439  70.5267545 122.8815923  90.0831142
  69.1871102 122.4059356  89.5625507  67.8779453 121.2838497  90.1197890
  67.1512617 121.1494462  89.5114382  67.4626740 121.5915326  90.9254608
  54.0013854 118.8760657  76.3599491  53.0945310 118.5793770  76.4362205
  54.2789835 118.5790475  75.4933778  55.6175920 113.4197547  82.5143733
  54.8076648 113.0744632  82.8898979  56.3060337 113.1105090  83.1031344
  57.5466468 112.4975594  84.1368029  58.0997507 112.9171047  84.7958052
  57.7836555 111.5711342  84.1790985  53.5699568 118.4862667  99.9170793
  53.4696294 119.4357024  99.8482884  53.3521110 118.1580906  99.0446863
  52.7712639 115.7347592  76.5011471  53.6331803 116.0602491  76.7607288
  52.9562983 114.9479088  75.9884536  60.9245275 114.6076119  83.6446694
  60.3443944 115.2660923  83.2624746  60.6581208 113.7853463  83.2334111
  59.3748842 114.0081176  85.8468014  59.8748620 114.1197711  85.0382333
  60.0184450 113.7042229  86.4868822  59.7070153 116.7676209  82.7003042
  58.8196008 117.0525860  82.4823237  60.1224143 116.6069972  81.8530319
  63.0584690 116.7922730  86.4157381  63.8345080 117.2819183  86.6881998
  62.3332824 117.2180784  86.8729251  65.4957248 117.5050349  87.4731322
  66.0901739 117.2646085  86.7624630  65.5683832 116.7857480  88.1004858
  59.6811177 122.2830745  82.9153332  59.6246379 122.7399296  82.0760964
  60.2339520 121.5221430  82.7376175  63.4915983 118.0720477  83.7403452
  63.2352917 117.6717113  84.5711659  62.8668851 118.7864271  83.6153591
  67.8028321 120.8116550  86.2474743  67.2427879 120.8809739  87.0206305
  67.1971824 120.6357535  85.5274239  60.4145957 123.4735526  80.2105861
  60.3594760 123.3079798  79.2694305  59.7892012 124.1811559  80.3668051
  45.2038471 118.7103591  94.0367283  45.8497335 118.2002545  94.5254509
  44.9955623 119.4472272  94.6110709  53.7242082 112.9743635  79.7891180
  53.7120752 113.9185475  79.9459451  54.6165504 112.7913781  79.4950641
  57.5394201 109.5686412  84.0437116  56.7726597 109.0144899  84.1893799
  57.9504906 109.6408281  84.9051268  49.5435962 115.8571208  98.1342298
  50.4067424 115.5008013  98.3445622  48.9701373 115.5185103  98.8217702
  68.9642587 126.7090906  90.9956807  68.6206857 127.5992548  90.9195918
  69.3321550 126.5192564  90.1326392  70.7630253 125.9684466  86.0974545
  71.0689130 125.1081829  85.8100460  71.4882858 126.5602086  85.8973539
  68.4684425 125.7682792  87.5203527  68.7486178 125.1005981  88.1463954
  69.2535032 125.9611887  87.0078191  72.6286576 127.9458604  86.3871498
  72.4311397 127.6373693  87.2714830  73.2386282 128.6720243  86.5169428
  68.3787956 124.8978330  84.0437116  67.6120352 124.3436816  84.1893799
  68.7898661 124.9700198  84.9051268   4.3521814  22.5183681  75.6650005
   4.9900224  22.3990428  74.9613345   4.2342657  23.4664525  75.7237957
   1.1611520  22.4711109  75.6011530   0.8230032  22.3552173  74.7132065
   2.0301288  22.0702274  75.5812536   1.6431303  23.6245960  81.5597736
   1.6319944  23.2298759  80.6878239   1.8051942  22.8912033  82.1531507
   2.5997894  27.9917553  66.9022886   1.9485874  28.5771633  66.5156900
   3.3942257  28.5223748  66.9617923   3.9063082  20.2435134  72.7403213
   4.6926171  19.8254558  72.3893630   4.1701787  21.1481227  72.9084862
   4.0773160  25.6807985  67.4391870   3.4418993  25.7542611  68.1512775
   3.7470566  26.2701584  66.7610949   9.3071509  20.1810368  73.6436192
  10.0396681  19.6109584  73.8774021   8.5510865  19.7931968  74.0842697
   0.9247629  22.6037609  70.8399534   0.5605836  22.0768230  71.5512456
   1.7814745  22.2136078  70.6666020   3.3228449  26.0944488  77.5026713
   3.0229172  26.9969527  77.3942520   2.9779509  25.8276671  78.3547866
   6.7225593  18.6127028  75.1824151   5.8142470  18.5442436  74.8882912
   6.6713189  19.0898973  76.0105976   8.5887239  16.8143466  76.9602024
   7.9461620  17.1075999  76.3141819   8.0842168  16.6996387  77.7655221
   6.2427403  20.5606640  67.6487884   7.1545259  20.7934026  67.4735581
   5.7337050  21.1443684  67.0862962   4.5268171  24.9831267  81.2849176
   4.9351527  24.5413678  80.5403809   3.8045432  24.4083895  81.5383369
   0.8799241  19.9203874  78.6582733   1.7260436  20.3443288  78.8017382
   0.8197878  19.2637498  79.3521296   4.8496985  25.5432458  75.0401465
   4.2205848  25.7078172  74.3377533   4.4622647  25.9574068  75.8112429
   8.7286217  26.4786896  72.3945829   8.0437255  26.8585797  71.8442862
   8.8130067  27.0882222  73.1277777   4.0298686  17.5808242  80.3163907
   3.7859618  18.3350303  79.7798183   4.3058617  17.9593590  81.1511154
   5.9837149  24.1246855  78.9941172   6.1954044  24.7678615  78.3175554
   5.9366897  23.2909171  78.5263103   3.5863378  16.7364675  75.8977745
   2.7247857  17.0345929  76.1894482   3.6125813  16.9535074  74.9658777
   7.0982977  27.0018810  77.1663530   7.9200421  26.5998998  76.8846211
   7.0945380  26.8987044  78.1179646  15.1888970  23.3457559  73.5148501
  14.4352678  22.7764957  73.3592506  15.3236511  23.3120223  74.4619136
   0.5787598  28.2170961  69.1903221   0.4433273  29.0622497  69.6188068
   1.1197410  28.4190239  68.4269154   2.2056074  28.8394528  83.3203563
   1.7619929  28.0530906  83.0024467   2.8673288  29.0273678  82.6547454
   4.3037312  29.1197327  81.3484964   4.2855788  29.9406209  80.8565233
   5.2257232  28.9951403  81.5735105   3.8930344  21.7310134  66.2274549
   3.3776968  22.5014739  66.4662937   3.6207653  21.0575270  66.8507611
   8.8664618  24.4842489  68.1627723   8.0894061  24.1453648  67.7182885
   9.5456099  24.4895112  67.4882688   3.6816647  19.6037226  68.0534330
   3.3766783  19.9183375  68.9044474   4.6347090  19.6818646  68.0961663
   2.1263079  25.7627449  69.7027284   1.5984441  25.0280209  69.3900522
   1.6250582  26.5402126  69.4567253   7.1055925  23.9576470  74.8194331
   6.4479600  24.6475731  74.9074459   7.9096324  24.3472902  75.1628317
   5.9161384  22.3120843  72.8698272   6.4293266  22.9450834  73.3719982
   6.5662608  21.7122038  72.5041632   3.1783758  32.2905167  65.6258944
   2.5045457  32.5936864  66.2343901   3.5649580  33.0934247  65.2764401
   2.3942215  19.7870298  75.1156613   1.4764776  20.0085245  74.9578301
   2.8102359  19.8616609  74.2568320   3.1777263  21.1861714  70.2459293
   3.9249082  21.6983111  69.9366415   3.4468852  20.8645767  71.1063687
   1.4503913  23.6820255  67.2286248   0.5415132  23.3979287  67.3258717
   1.4798997  24.1019333  66.3689554   6.6823180  27.2926844  70.9977415
   6.2285507  26.4517754  71.0542606   6.0517147  27.9288242  71.3352195
   5.6256100  18.2218830  72.2278083   4.8878857  17.7096216  72.5588325
   5.8782873  17.7819212  71.4161359   5.1256120  29.1303341  71.9327233
   5.4179094  29.6908398  71.2139599   5.6354740  29.4231902  72.6880392
   1.1480001  25.2228998  64.5674326   0.7099431  24.5064857  64.1079963
   1.8890442  25.4505113  64.0059417   3.5355379  20.3767759  79.9201316
   3.8904766  20.6039233  80.7795781   4.1827510  20.7086136  79.2978571
   9.2653115  23.4986195  70.6250645   9.1271014  23.6887791  69.6971834
   8.9089334  24.2605578  71.0818696   9.2922495  25.5662722  75.6361916
   9.7259002  25.4738011  76.4844970  10.0054076  25.5420223  74.9981932
   3.0250390  29.1664816  77.1695017   3.0787412  29.7355753  77.9372733
   2.1565171  29.3366701  76.8049054  10.1538045  25.6086423  78.1694802
  10.3473935  26.5132233  78.4154076  10.0538663  25.1493842  79.0033387
   5.2153153  25.7593166  83.7435682   5.0638660  25.5303717  82.8265766
   5.2057833  26.7163767  83.7567027   1.9838490  23.3325078  78.7281949
   2.9130550  23.4836238  78.5550916   1.5629520  23.4209099  77.8730595
   1.3774973  32.4584839  67.8406023   1.5526729  31.9872883  68.6551645
   0.6907761  33.0850606  68.0687283   2.3332037  26.7357346  73.8869324
   1.9981869  26.6958116  74.7826974   1.8335982  26.0702061  73.4139734
   5.2691228  24.0813380  64.1606384   4.6520399  23.3560208  64.0639436
   4.8007717  24.8422740  63.8173458   6.9245360  28.7912288  81.8212164
   6.8657906  28.1071508  81.1542747   7.3264878  29.5331278  81.3692790
   6.9262767  26.7551872  80.0526144   6.0389546  26.4177794  80.1752543
   7.4961318  26.0234903  80.2894909   3.5550350  16.4619724  73.1724414
   4.0519050  15.7089686  72.8525484   2.7837332  16.4984041  72.6067623
  11.4080108  22.1660090  74.8142705  11.3969984  23.0484805  74.4436638
  10.5397487  21.8131640  74.6197242   2.9162604  31.3140159  79.1745546
   3.6290576  31.9487623  79.1021447   2.4252633  31.4104025  78.3585547
   4.6380131  25.2191411  70.7462837   3.7036410  25.3392874  70.5767542
   4.8156800  24.3163878  70.4822847   8.0252682  21.0608731  71.2812871
   8.4913135  21.8936722  71.2073174   8.4760183  20.5953712  71.9858130
   6.0928914  27.4052552  68.2799023   6.3688757  27.2909146  69.1892897
   5.2233412  27.0070037  68.2411197   5.7675804  21.6179209  77.8203667
   5.1147254  21.8655117  77.1656119   6.1456184  20.8043348  77.4866144
   2.7282978  31.6538903  71.9231837   2.9105372  30.8360559  72.3859589
   3.5515964  31.8706595  71.4856727   3.0625143  30.5807088  69.1846886
   3.5912909  30.0699542  68.5717048   3.3253363  30.2649618  70.0492419
   1.8163377  22.3599021  84.3069704   1.1404014  22.2593150  84.9772079
   2.6391011  22.2038234  84.7705701   0.5586160  33.6665948  78.5427320
   1.1104468  33.8297569  79.3076405   0.8992353  34.2570386  77.8707345
   5.4097034  28.4927206  84.3975974   5.9536938  29.1057164  83.9030929
   4.8283879  29.0506784  84.9142987   3.6954547  31.6147924  75.5291002
   3.5705686  30.8137663  75.0201947   4.3533638  32.1094117  75.0404972
   5.7589455  29.4156944  77.1570552   4.8119791  29.2962295  77.0848879
   6.1072228  28.5279442  77.2396813   2.7635889  29.2109660  73.3574904
   2.6160851  28.2826367  73.5382474   3.5889382  29.2329751  72.8731980
   6.3670010  30.0338219  74.4439777   7.2916558  29.8281080  74.3064228
   6.1985314  29.7854620  75.3529119   6.1565327  30.5523886  69.8001869
   6.3302204  29.9870308  69.0475721   6.6494218  31.3524781  69.6181358
  12.0104718  23.3160309  71.4192168  12.4535864  22.5667634  71.0211292
  11.1331228  23.3070445  71.0365900   7.1440499  29.8690650  66.8998767
   7.8391404  30.4897343  67.1186081   7.4863649  29.0186002  67.1751145
   9.0431922  27.3190356  68.4286098   9.5683246  27.6577629  67.7035418
   8.9554275  26.3837371  68.2449232   0.7051971  31.2324430  80.5575974
   1.0139097  30.9873576  81.4298674   1.5027453  31.4371068  80.0694844
   8.7325828  27.9523260  83.7337296   7.9421372  27.9347398  83.1941795
   8.4959183  28.4911553  84.4886332   8.8523703  24.8015726  81.0470024
   8.9021708  24.6365733  81.9885547   8.7437627  23.9342985  80.6567905
   6.1427466  20.7846654  82.3629331   7.0437328  20.6453119  82.0713329
   6.2175440  20.9501109  83.3027508  10.3541900  27.2212667  81.2912046
  10.0626708  27.5842648  82.1275507   9.7414031  26.5079676  81.1125378
  11.5537582  24.7865547  73.8114616  12.3884474  25.2255351  73.9752176
  11.6896711  24.3104200  72.9922862   8.6029088  22.3445282  79.7592104
   9.0783210  22.5372928  78.9510955   7.6794654  22.4004468  79.5135487
   1.2355367  29.9752402  65.8073860   0.6629335  30.5942589  65.3544332
   1.8088161  30.5251764  66.3413782   7.3030757  19.2211042  77.9920409
   8.2548180  19.3209140  78.0132633   7.1334208  18.4289311  78.5018494
   5.3245137  16.3066625  78.1779810   4.7295069  16.5871638  77.4826299
   5.0394834  16.7960526  78.9496551   4.4552627  30.2589552  66.9382443
   5.3883300  30.1935114  67.1415318   4.3675840  31.0945819  66.4796975
   7.0840644  29.5755423  63.8986390   7.0054275  29.2415286  64.7922148
   7.9050311  30.0677190  63.8977863   9.7818835  22.4417162  77.1062709
   9.7495155  21.5033163  77.2922393  10.3919459  22.5201199  76.3728534
   1.6202166  21.3113215  63.1489913   2.5661271  21.1819423  63.2178331
   1.2416411  20.5727877  63.6259341   9.9313324  19.2328205  77.1520992
   9.4152372  18.4486662  76.9650921  10.8153272  18.9046922  77.3167511
  15.5995385  23.5033169  76.2468746  16.3298773  23.2418457  76.8076449
  14.9902330  22.7661891  76.2870814  13.6810682  21.6441031  76.8443197
  12.9543846  21.5096996  76.2359688  13.2657969  21.9517860  77.6499915
   1.5040859  25.3630961  84.6090570   2.4243868  25.5409560  84.8030616
   1.4690442  24.4187006  84.4570269   6.7276504  14.9678653  70.3692000
   6.1475173  15.6263457  69.9870053   6.4612437  14.1455998  69.9579418
   5.5101382  17.1278743  69.4248349   4.6227237  17.4128394  69.2068543
   5.9255371  16.9672507  68.5775625   8.8615918  17.1525264  73.1402688
   9.6376309  17.6421717  73.4127305   8.1364053  17.5783318  73.5974557
  11.2988477  17.8652883  74.1976628  11.8932968  17.6248619  73.4869937
  11.3715061  17.1460014  74.8250165   4.6544596  26.8923418  63.5196369
   5.3580446  27.0973420  64.1354024   3.9307244  27.4600180  63.7845452
   5.4842406  22.6433279  69.6398639   5.4277607  23.1001831  68.8006271
   6.0370748  21.8823964  69.4621481   9.2947212  18.4323011  70.4648758
   9.0384146  18.0319647  71.2956966   8.6700080  19.1466805  70.3398897
  13.6059550  21.1719084  72.9720050  13.0459108  21.2412274  73.7451612
  13.0003053  20.9960069  72.2519546   6.5631293  27.3305947  65.5694829
   7.3976897  26.8987146  65.3872303   6.4015636  27.1587961  66.4971723
   6.2177185  23.8338060  66.9351168   6.1625989  23.6682332  65.9939612
   5.5923241  24.5414093  67.0913358   3.5323092  26.1386972  86.2604731
   4.4014252  26.3127625  85.8991366   3.0529844  26.9581389  86.1380460
  15.1915568  37.8475598  75.6650005  15.8293978  37.7282346  74.9613345
  15.0736411  38.7956442  75.7237957  12.0005275  37.8003026  75.6011530
  11.6623786  37.6844091  74.7132065  12.8695043  37.3994191  75.5812536
   7.8592090  39.6538503  71.5908421   7.2956955  39.5628440  70.8224709
   7.7444485  38.8338407  72.0710914  12.4825058  38.9537878  81.5597736
  12.4713698  38.5590676  80.6878239  12.6445697  38.2203951  82.1531507
   5.4056522  41.1489694  74.4292641   6.1977814  40.8080519  74.0138941
   5.6453172  41.2584669  75.3494795  13.4391649  43.3209470  66.9022886
  12.7879629  43.9063551  66.5156900  14.2336012  43.8515665  66.9617923
   7.3647276  40.4098608  67.3010020   8.1378152  39.8627595  67.1622896
   7.7172675  41.2742857  67.5124482   9.2032319  41.7374990  80.5076920
   8.9122185  42.6420621  80.3923586   9.8389303  41.7791518  81.2220989
  10.1288525  39.1151838  77.0978279  10.7252098  38.8907861  76.3835242
  10.1863497  38.3736584  77.7003727   9.7013554  36.5691274  64.9328470
   9.9539075  36.0472795  64.1711933   8.7638113  36.4057419  65.0355154
  14.7456837  35.5727052  72.7403213  15.5319926  35.1546475  72.3893630
  15.0095541  36.4773144  72.9084862  14.9166914  41.0099902  67.4391870
  14.2812747  41.0834529  68.1512775  14.5864320  41.5993501  66.7610949
  20.1465264  35.5102285  73.6436192  20.8790436  34.9401502  73.8774021
  19.3904620  35.1223886  74.0842697   9.4209843  38.4719380  67.1352845
   9.3046101  37.7964283  67.8033929   9.5312103  37.9851754  66.3184998
  11.7641384  37.9329527  70.8399534  11.3999591  37.4060148  71.5512456
  12.6208499  37.5427996  70.6666020  17.6690684  29.2223859  78.1030800
  17.3374009  30.0919270  77.8792015  17.0736298  28.9060143  78.7824831
  11.4046871  32.9619427  65.8360883  11.5721273  33.8299663  66.2031354
  11.2144040  33.1246708  64.9122172  14.1622204  41.4236405  77.5026713
  13.8622927  42.3261444  77.3942520  13.8173263  41.1568589  78.3547866
   7.6134685  37.8750202  73.5363418   6.6885182  37.7426416  73.7441109
   7.8619098  38.6544422  74.0333360  17.5619348  33.9418946  75.1824151
  16.6536225  33.8734354  74.8882912  17.5106943  34.4190891  76.0105976
  11.3836091  35.4177084  66.8207550  11.2635717  35.8634135  67.6593030
  10.6888680  35.7662402  66.2621088   4.9743496  37.5183476  74.3707207
   5.1035877  37.7717955  75.2846618   4.2940948  38.1111184  74.0511862
   9.1442984  48.1880726  70.4697681   9.0667013  49.1388551  70.5486161
   8.5404627  47.8426598  71.1272607  11.6360213  35.3608591  83.1259048
  10.8593547  35.9202511  83.1161912  12.2750776  35.8465374  83.6473918
  19.4280994  32.1435384  76.9602024  18.7855374  32.4367917  76.3141819
  18.9235922  32.0288304  77.7655221  17.0821158  35.8898557  67.6487884
  17.9939014  36.1225944  67.4735581  16.5730805  36.4735601  67.0862962
   9.8906586  38.1694045  82.6877015  10.6321270  38.7079089  82.4111838
   9.1843571  38.7960333  82.8448567  15.3661925  40.3123185  81.2849176
  15.7745281  39.8705596  80.5403809  14.6439187  39.7375813  81.5383369
  11.7192995  35.2495792  78.6582733  12.5654190  35.6735205  78.8017382
  11.6591633  34.5929416  79.3521296  15.6890740  40.8724376  75.0401465
  15.0599602  41.0370090  74.3377533  15.3016402  41.2865985  75.8112429
  19.5679972  41.8078814  72.3945829  18.8831010  42.1877715  71.8442862
  19.6523821  42.4174140  73.1277777  14.8692441  32.9100160  80.3163907
  14.6253373  33.6642221  79.7798183  15.1452371  33.2885508  81.1511154
  16.8230903  39.4538773  78.9941172  17.0347799  40.0970532  78.3175554
  16.7760652  38.6201089  78.5263103  14.4257132  32.0656593  75.8977745
  13.5641611  32.3637847  76.1894482  14.4519567  32.2826992  74.9658777
  11.2418702  40.6098784  72.3051550  11.7057047  40.8886487  71.5156173
  10.9775500  39.7082228  72.1224641   8.1342783  40.1570265  75.2431314
   8.7044140  40.5857534  74.6048798   8.7250895  39.8752850  75.9415499
  10.1787588  36.7321936  69.1141115  10.8811631  37.1842980  69.5815042
   9.8468216  36.0905755  69.7421009   8.6267949  35.3233693  83.4892325
   7.9966610  36.0049974  83.7227722   8.5204037  35.2116774  82.5445463
   3.9212922  34.9905489  74.4158249   3.1311976  35.2463017  73.9398360
   4.4124169  35.8053827  74.5210290  17.9376731  42.3310728  77.1663530
  18.7594175  41.9290915  76.8846211  17.9339134  42.2278962  78.1179646
   5.8727667  35.3550068  71.3741726   5.0758830  35.4668762  71.8925221
   5.6453259  35.6936720  70.5082616  11.7033335  41.8794771  79.3224240
  11.7677767  42.3415178  80.1582412  10.9944259  41.2492136  79.4506550
   2.2050625  35.2435979  76.8473240   2.4558663  36.1282989  77.1130816
   2.7410173  35.0640581  76.0748332  26.0282724  38.6749476  73.5148501
  25.2746433  38.1056874  73.3592506  26.1630266  38.6412141  74.4619136
  11.4181352  43.5462879  69.1903221  11.2827027  44.3914414  69.6188068
  11.9591165  43.7482156  68.4269154   7.9048692  29.6254459  85.8517576
   7.5115638  29.0720657  86.5265220   8.7214832  29.9365037  86.2424093
   4.8710750  41.0638317  69.7631146   5.3835270  41.8581567  69.9136710
   5.5233463  40.3664607  69.6964747   6.6805635  44.1804073  71.8453899
   6.8572263  45.1022038  71.6574883   7.4762468  43.8662492  72.2748279
  10.8216653  31.0412338  83.4437832  11.5626366  31.6419491  83.3642295
  11.0534576  30.2989975  82.8855875   5.9657991  36.2268705  81.7216062
   5.8511506  35.3253962  82.0223161   5.1102509  36.4732402  81.3700879
  13.0449829  44.1686445  83.3203563  12.6013683  43.3822824  83.0024467
  13.7067042  44.3565596  82.6547454   7.8036950  45.6982247  77.8464241
   8.3544375  45.5699310  77.0741235   6.9648426  45.9977136  77.4959134
  15.1431067  44.4489245  81.3484964  15.1249542  45.2698126  80.8565233
  16.0650987  44.3243320  81.5735105  11.6004121  41.9633375  82.1908472
  12.1332458  41.2021663  81.9607780  11.0718202  41.6707026  82.9332627
  14.7673816  27.0693441  77.7202114  14.4238085  27.9595082  77.6441225
  15.1352779  26.8795098  76.8571699   2.8359667  39.3926971  70.5390716
   3.6734889  39.8023979  70.3224424   3.0137934  38.4526413  70.5090910
  14.7324099  37.0602052  66.2274549  14.2170722  37.8306656  66.4662937
  14.4601407  36.3867188  66.8507611  12.3171210  31.9051752  71.2859788
  11.4612806  31.5158603  71.1065426  12.7298162  31.9843713  70.4259573
  13.8470356  29.4398096  75.6851347  13.3435152  29.4028231  74.8719153
  14.1400963  30.3490838  75.7448004  10.0913242  29.5236825  74.6917529
  10.9566239  29.3279634  74.3323419  10.1590751  29.2947177  75.6186886
  19.7058373  39.8134406  68.1627723  18.9287816  39.4745566  67.7182885
  20.3849854  39.8187030  67.4882688  14.5210402  34.9329144  68.0534330
  14.2160537  35.2475293  68.9044474  15.4740844  35.0110564  68.0961663
  12.9656834  41.0919367  69.7027284  12.4378195  40.3572127  69.3900522
  12.4644336  41.8694043  69.4567253  17.9449680  39.2868388  74.8194331
  17.2873354  39.9767649  74.9074459  18.7490079  39.6764820  75.1628317
   7.6975561  31.7539033  72.0633896   8.2719313  31.5314215  71.3307089
   8.2846544  31.8227728  72.8162497  16.7555139  37.6412760  72.8698272
  17.2687020  38.2742752  73.3719982  17.4056362  37.0413956  72.5041632
   8.0245148  33.7843494  66.0829781   7.1882461  34.1218181  66.4039056
   7.8849918  33.6492474  65.1456918   9.9998229  28.6280282  70.7908965
   9.3462641  28.3129299  70.1665580   9.9578703  28.0056023  71.5168788
  11.1109434  38.9099577  62.7062257  10.2036496  38.6788831  62.9053406
  11.6080466  38.1137197  62.8936239  14.0177513  47.6197085  65.6258944
  13.3439212  47.9228781  66.2343901  14.4043335  48.4226165  65.2764401
  13.2335969  35.1162216  75.1156613  12.3158531  35.3377163  74.9578301
  13.6496113  35.1908526  74.2568320  14.0171017  36.5153632  70.2459293
  14.7642836  37.0275029  69.9366415  14.2862607  36.1937684  71.1063687
  12.2897667  39.0112172  67.2286248  11.3808887  38.7271205  67.3258717
  12.3192751  39.4311251  66.3689554  17.5216935  42.6218762  70.9977415
  17.0679262  41.7809672  71.0542606  16.8910901  43.2580160  71.3352195
  16.4649854  33.5510748  72.2278083  15.7272611  33.0388134  72.5588325
  16.7176628  33.1111129  71.4161359  15.9649874  44.4595258  71.9327233
  16.2572848  45.0200316  71.2139599  16.4748495  44.7523819  72.6880392
  16.5661482  26.3287000  72.8219852  16.8720358  25.4684363  72.5345767
  17.2914086  26.9204620  72.6218846   2.8585838  36.7317686  71.2101450
   2.6610238  36.1387047  70.4852516   2.3032502  36.4269897  71.9277388
  10.8382561  36.6240793  73.3296043  10.8931171  35.6714629  73.2538519
  10.0273763  36.7800232  73.8137341  11.9873755  40.5520916  64.5674326
  11.5493185  39.8356775  64.1079963  12.7284196  40.7797031  64.0059417
   8.7774921  35.2417853  71.0886422   7.9642787  35.5412023  71.4951614
   9.2733916  34.8473541  71.8060904  10.9283499  45.2375610  73.0220686
  10.8859678  45.4636456  72.0929218  11.8446198  45.0038984  73.1706488
  14.3749133  35.7059677  79.9201316  14.7298521  35.9331150  80.7795781
  15.0221264  36.0378054  79.2978571  20.1046870  38.8278113  70.6250645
  19.9664769  39.0179709  69.6971834  19.7483089  39.5897496  71.0818696
   8.2688996  32.8136208  76.7047657   8.9088375  32.6724967  76.0070620
   7.4366527  32.5270722  76.3286259  20.1316250  40.8954640  75.6361916
  20.5652756  40.8029929  76.4844970  20.8447830  40.8712140  74.9981932
   9.0449300  42.1138639  72.8182649   9.8389898  41.6188959  72.6165224
   8.3340992  41.5856502  72.4550355  13.8644144  44.4956734  77.1695017
  13.9181167  45.0647670  77.9372733  12.9958926  44.6658619  76.8049054
   5.3532063  36.2581720  68.8942402   4.4229652  36.1966176  69.1112364
   5.4489535  35.7357673  68.0979043   5.2717613  32.7836533  71.4820643
   5.5324430  33.6981866  71.3729804   6.0934785  32.3160976  71.6317256
   6.7442538  34.1974290  78.6519468   7.4165591  33.9891652  78.0032117
   5.9172324  33.9996376  78.2124700  20.9931799  40.9378341  78.1694802
  21.1867689  41.8424151  78.4154076  20.8932417  40.4785760  79.0033387
  12.6468110  30.8236231  80.6685129  11.9996025  31.5226181  80.5749605
  13.4169125  31.2572375  81.0361377  16.0546908  41.0885083  83.7435682
  15.9032414  40.8595635  82.8265766  16.0451587  42.0455685  83.7567027
  12.8232244  38.6616996  78.7281949  13.7524304  38.8128156  78.5550916
  12.4023274  38.7501017  77.8730595  11.6220576  42.6867661  76.4980486
  11.4831662  42.3186445  77.3706424  10.8335172  43.2015300  76.3264444
  12.2168728  47.7876757  67.8406023  12.3920484  47.3164800  68.6551645
  11.5301516  48.4142523  68.0687283  13.1725791  42.0649263  73.8869324
  12.8375624  42.0250033  74.7826974  12.6729737  41.3993979  73.4139734
   7.1470035  37.4716893  79.4121905   7.0089833  36.7397132  80.0133444
   8.0574959  37.3825793  79.1306093  16.1084983  39.4105298  64.1606384
  15.4914153  38.6852126  64.0639436  15.6401471  40.1714658  63.8173458
   9.7752336  37.1836853  78.9005585  10.4851954  36.5430045  78.8592203
   9.7321644  37.4349747  79.8231766  17.7639114  44.1204206  81.8212164
  17.7051661  43.4363426  81.1542747  18.1658633  44.8623196  81.3692790
   8.4881270  34.1702070  80.7201224   7.9518627  33.7192809  81.3722821
   7.8997978  34.3047979  79.9771689   6.7829813  50.9366120  74.6145883
   7.0226411  51.5684644  75.2924901   5.9399010  50.5854160  74.9011242
   7.8983529  33.6290722  63.2827688   7.0212995  33.5079523  62.9189935
   8.3741282  32.8376800  63.0306577  17.7656522  42.0843790  80.0526144
  16.8783300  41.7469712  80.1752543  18.3355073  41.3526821  80.2894909
   4.2220391  33.3058078  77.8054219   4.1378580  32.6983748  77.0704629
   3.4003097  33.7967096  77.8063715  11.2957675  46.7445242  77.0187387
  11.2227847  47.5500214  77.5306691  10.8535068  46.9437208  76.1935408
  11.0847455  45.9817012  70.5290208  10.3014977  46.5238692  70.6228433
  11.7840200  46.4990992  70.9284450  14.3944105  31.7911642  73.1724414
  14.8912804  31.0381604  72.8525484  13.6231086  31.8275958  72.6067623
  22.2473862  37.4952007  74.8142705  22.2363738  38.3776723  74.4436638
  21.3791242  37.1423558  74.6197242  13.7556359  46.6432076  79.1745546
  14.4684331  47.2779541  79.1021447  13.2646387  46.7395942  78.3585547
  15.4773886  40.5483329  70.7462837  14.5430164  40.6684791  70.5767542
  15.6550554  39.6455796  70.4822847  10.9779074  33.9329025  72.8996098
  10.6076861  33.3800065  73.5877004  11.4738166  33.3287158  72.3471098
  18.8646437  36.3900648  71.2812871  19.3306889  37.2228640  71.2073174
  19.3153937  35.9245630  71.9858130   8.8068272  44.3926520  79.9951116
   9.5077732  45.0263003  80.1480511   8.3363387  44.7341251  79.2346756
  16.9322668  42.7344469  68.2799023  17.2082512  42.6201064  69.1892897
  16.0627167  42.3361954  68.2411197  16.8363100  28.7581235  75.3203773
  15.9226179  28.9885462  75.4885980  17.2656201  28.8419679  76.1717805
  16.6069558  36.9471127  77.8203667  15.9541008  37.1947035  77.1656119
  16.9849938  36.1335265  77.4866144  13.5676732  46.9830820  71.9231837
  13.7499127  46.1652476  72.3859589  14.3909718  47.1998513  71.4856727
  13.9018898  45.9099005  69.1846886  14.4306664  45.3991460  68.5717048
  14.1647117  45.5941536  70.0492419  12.6557131  37.6890938  84.3069704
  11.9797768  37.5885068  84.9772079  13.4784765  37.5330152  84.7705701
   4.4035990  43.9262875  76.9282219   4.9889427  43.1806563  77.0610123
   4.2060829  44.2366831  77.8118883   7.2574645  46.9614122  71.9444661
   6.5885021  47.4460250  71.4608702   7.1187515  47.2083343  72.8588040
  11.3979914  48.9957866  78.5427320  11.9498222  49.1589487  79.3076405
  11.7386107  49.5862303  77.8707345   6.3744407  31.3433015  79.1449205
   6.4385734  32.2047846  78.7326602   6.3111528  30.7307017  78.4121563
   5.8496680  33.4156148  82.7922239   6.4768719  33.0333225  83.4059763
   4.9924599  33.1970350  83.1577931  16.2490788  43.8219123  84.3975974
  16.7930692  44.4349081  83.9030929  15.6677633  44.3798702  84.9142987
   2.6262223  35.2232577  68.7240594   2.9215664  34.3143256  68.6707647
   1.7250258  35.2020317  68.4021596  14.5348301  46.9439841  75.5291002
  14.4099441  46.1429581  75.0201947  15.1927392  47.4386035  75.0404972
   6.1556470  33.2988574  74.7068142   5.4343055  33.9124541  74.5675616
   6.9449725  33.8346339  74.6284788  16.5983210  44.7448861  77.1570552
  15.6513545  44.6254212  77.0848879  16.9465983  43.8571359  77.2396813
   8.9582783  30.6343000  80.9808794   9.4817185  30.8805297  81.7435103
   8.7395116  31.4663035  80.5611931   4.3550064  32.9046675  68.8479919
   4.0262770  32.0244054  68.6655025   4.7089435  32.8494343  69.7356308
  13.6029643  44.5401577  73.3574904  13.4554605  43.6118285  73.5382474
  14.4283136  44.5621668  72.8731980   7.4691887  33.1919645  69.2155396
   7.8087960  33.7205566  68.4934005   7.9164008  33.5300051  69.9913963
  17.2063765  45.3630136  74.4439777  18.1310312  45.1572998  74.3064228
  17.0379068  45.1146537  75.3529119  10.1635328  31.5756695  78.6658464
   9.8232148  30.7764508  79.0679144   9.4574334  31.8758406  78.0935298
  10.8151800  28.6606008  77.1185788  11.6377869  28.1866486  76.9964678
  11.0589863  29.4396491  77.6184474   9.4560034  31.6894266  67.4148689
  10.1768397  32.0675519  66.9112406   8.8325339  32.4083143  67.5183667
  13.5991157  32.3939415  68.3507022  13.8154772  33.2764053  68.0495850
  13.1185224  32.0025629  67.6212664   8.3390379  35.3525128  74.9277766
   8.1934959  35.6665431  75.8202048   7.8615582  35.9710029  74.3748665
  10.1986762  32.3427676  74.9758656  10.1848330  31.4468770  74.6390954
  10.9159190  32.3498340  75.6096942  12.0512892  32.7765017  77.0211783
  11.7930670  33.6982087  77.0196114  11.5197933  32.3795451  77.7112247
  16.9959081  45.8815804  69.8001869  17.1695959  45.3162226  69.0475721
  17.4887972  46.6816699  69.6181358   2.8136041  37.8930473  77.8665427
   2.2689509  38.6690281  77.9985702   3.6915391  38.2401277  77.7084549
   9.6023657  31.2242057  70.2446226   9.7239569  30.2958703  70.4437113
   9.3125700  31.2380743  69.3324541  12.4714848  28.9096967  73.3812946
  12.4936545  28.9736300  72.4264925  12.8882907  28.0701476  73.5753452
  22.8498472  38.6452227  71.4192168  23.2929618  37.8959552  71.0211292
  21.9724983  38.6362363  71.0365900  17.9834254  45.1982568  66.8998767
  18.6785158  45.8189261  67.1186081  18.3257404  44.3477919  67.1751145
   3.6002063  37.0200369  80.7595584   2.8583799  37.1683004  81.3460215
   3.2794807  37.2808635  79.8962334  19.8825677  42.6482274  68.4286098
  20.4077001  42.9869546  67.7035418  19.7948029  41.7129289  68.2449232
  11.5445725  46.5616347  80.5575974  11.8532852  46.3165494  81.4298674
  12.3421207  46.7662986  80.0694844  11.5666337  48.7154257  72.7881351
  11.1271328  48.2230636  73.4814207  12.3174454  48.1727225  72.5473426
   4.0458676  44.9065798  72.7905979   4.8716696  44.6069570  72.4104622
   3.6952728  44.1373420  73.2395767   9.0140210  44.2592266  74.8603652
   8.3920219  43.5962971  74.5605880   9.6845076  44.2853398  74.1777300
   2.2467281  42.8252124  73.7494912   1.4099190  42.3974299  73.5678914
   2.2190927  43.0184568  74.6865704   9.0864737  32.7374054  84.4536158
   9.1352893  33.6136177  84.0713928   9.6287251  32.1951447  83.8807802
  19.5719583  43.2815177  83.7337296  18.7815126  43.2639316  83.1941795
  19.3352937  43.8203471  84.4886332  19.6917458  40.1307644  81.0470024
  19.7415463  39.9657651  81.9885547  19.5831381  39.2634903  80.6567905
   8.5753716  42.8096189  68.3362113   8.7241837  43.4931654  67.6828786
   9.3820160  42.7901279  68.8511569  16.9821220  36.1138572  82.3629331
  17.8831083  35.9745037  82.0713329  17.0569195  36.2793026  83.3027508
  11.3164025  33.4905426  81.2082517  10.4467335  33.7838992  80.9365106
  11.5523506  34.0745871  81.9289781  21.1935655  42.5504585  81.2912046
  20.9020463  42.9134566  82.1275507  20.5807786  41.8371593  81.1125378
  22.3931337  40.1157465  73.8114616  23.2278228  40.5547269  73.9752176
  22.5290466  39.6396118  72.9922862  19.4422843  37.6737200  79.7592104
  19.9176964  37.8664846  78.9510955  18.5188408  37.7296386  79.5135487
   6.3306349  38.8361367  69.3423182   6.0852391  37.9323697  69.5403392
   6.5002264  38.8378517  68.4002660  14.0203059  29.7085043  78.7247937
  14.5385003  30.4446070  78.3994426  13.6658192  30.0149037  79.5594697
   5.6001997  34.5689725  66.8409343   4.9071242  34.6434080  66.1849379
   5.3553749  33.8050068  67.3630860  14.2715653  26.1285326  74.2448834
  14.5517407  25.4608515  74.8709261  15.0566260  26.3214421  73.7323498
  12.0749122  45.3044320  65.8073860  11.5023089  45.9234507  65.3544332
  12.6481916  45.8543681  66.3413782  18.1424512  34.5502960  77.9920409
  19.0941935  34.6501058  78.0132633  17.9727962  33.7581228  78.5018494
  16.1638891  31.6358543  78.1779810  15.5688823  31.9163556  77.4826299
  15.8788588  32.1252444  78.9496551  15.2946382  45.5881470  66.9382443
  16.2277055  45.5227032  67.1415318  15.2069595  46.4237737  66.4796975
  17.9234398  44.9047340  63.8986390  17.8448030  44.5707204  64.7922148
  18.7444065  45.3969108  63.8977863  20.6212590  37.7709080  77.1062709
  20.5888910  36.8325080  77.2922393  21.2313213  37.8493116  76.3728534
  12.4595920  36.6405133  63.1489913  13.4055025  36.5111341  63.2178331
  12.0810165  35.9019794  63.6259341  20.7707078  34.5620123  77.1520992
  20.2546127  33.7778580  76.9650921  21.6547027  34.2338840  77.3167511
  18.4317805  28.3061139  73.1116805  18.2342626  27.9976227  73.9960137
  19.0417511  29.0322777  73.2414735  26.4389139  38.8325086  76.2468746
  27.1692528  38.5710375  76.8076449  25.8296085  38.0953808  76.2870814
  24.5204437  36.9732949  76.8443197  23.7937600  36.8388914  76.2359688
  24.1051723  37.2809778  77.6499915  12.3434613  40.6922879  84.6090570
  13.2637622  40.8701478  84.8030616  12.3084196  39.7478924  84.4570269
  10.6438838  34.5655109  63.0844798   9.7370293  34.2688222  63.1607512
  10.9214819  34.2684927  62.2179084   1.5616778  35.8861472  73.5343844
   1.2419562  35.0326781  73.2418218   1.0150206  36.1010050  74.2901812
   5.3396686  38.6023913  77.2513351   5.5582695  39.5341021  77.2701385
   5.7522459  38.2431888  78.0368155  12.2600903  29.1091999  69.2389039
  11.4501632  28.7639084  69.6144285  12.9485320  28.7999542  69.8276651
  14.1891452  28.1870045  70.8613336  14.7422490  28.6065499  71.5203359
  14.4261538  27.2605794  70.9036292  10.2124551  34.1757119  86.6416100
  10.1121278  35.1251476  86.5728191   9.9946093  33.8475358  85.7692170
   9.4137622  31.4242044  63.2256777  10.2756786  31.7496942  63.4852595
   9.5987966  30.6373540  62.7129843   1.4305038  39.5064384  75.5036966
   0.7368509  39.0918337  74.9906920   2.1778029  39.5484920  74.9070385
  17.5670259  30.2970571  70.3692000  16.9868928  30.9555375  69.9870053
  17.3006191  29.4747915  69.9579418  16.0173825  29.6975628  72.5713321
  16.5173603  29.8092163  71.7627639  16.6609433  29.3936681  73.2114129
  10.0755821  37.6054258  85.4581162   9.5922903  38.4054618  85.6645051
  10.1616760  37.6162203  84.5048606   3.3441781  39.4382638  73.3802981
   3.3212469  39.5370325  72.4284864   3.6542417  40.2847788  73.7020147
   6.0029158  41.4958793  77.4949595   6.9572412  41.4642735  77.4279527
   5.8041682  41.0349416  78.3099821   6.5928541  40.0659909  80.0620393
   7.4121430  40.5603987  80.0855230   6.8665348  39.1491877  80.0337961
  16.3495137  32.4570661  69.4248349  15.4620992  32.7420312  69.2068543
  16.7649126  32.2964424  68.5775625  19.7009673  32.4817182  73.1402688
  20.4770063  32.9713634  73.4127305  18.9757807  32.9075236  73.5974557
  22.1382232  33.1944801  74.1976628  22.7326722  32.9540537  73.4869937
  22.2108815  32.4751932  74.8250165   4.3579387  47.0378412  74.5119793
   4.2233855  46.2778813  73.9457791   3.9411449  47.7619312  74.0448582
  15.4938350  42.2215336  63.5196369  16.1974200  42.4265338  64.1354024
  14.7700999  42.7892098  63.7845452  16.3236160  37.9725197  69.6398639
  16.2671362  38.4293748  68.8006271  16.8764503  37.2115882  69.4621481
  20.1340966  33.7614929  70.4648758  19.8777901  33.3611564  71.2956966
  19.5093834  34.4758723  70.3398897  24.4453304  36.5011002  72.9720050
  23.8852862  36.5704191  73.7451612  23.8396808  36.3251987  72.2519546
   7.5148513  47.9347729  74.7238236   7.3980897  48.8793162  74.6216926
   6.6940959  47.6321291  75.1124035  17.4025048  42.6597865  65.5694829
  18.2370652  42.2279063  65.3872303  17.2409391  42.4879879  66.4971723
  17.0570940  39.1629978  66.9351168  17.0019744  38.9974250  65.9939612
  16.4316995  39.8706011  67.0913358   1.8463455  34.3998043  80.7612590
   2.4922318  33.8896997  81.2499815   1.6380606  35.1366724  81.3356015
  14.3716847  41.4678890  86.2604731  15.2408007  41.6419542  85.8991366
  13.8923598  42.2873307  86.1380460  10.3667065  28.6638087  66.5136486
  10.3545735  29.6079927  66.6704757  11.2590487  28.4808233  66.2195947
   8.5403027  48.5875991  77.9394164   9.4430274  48.6199601  78.2560659
   8.3140397  47.6576442  77.9540500  10.2956629  47.3406978  74.6004243
   9.3452260  47.3408839  74.4868615  10.5989115  46.5939712  74.0840278
  14.1819185  25.2580864  70.7682423  13.4151581  24.7039350  70.9139105
  14.5929890  25.3302733  71.6296575   6.1860946  31.5465660  84.8587604
   7.0492407  31.1902464  85.0690929   5.6126356  31.2079554  85.5463009
  26.0309323  53.1767516  75.6650005  26.6687733  53.0574263  74.9613345
  25.9130166  54.1248360  75.7237957  22.8399029  53.1294944  75.6011530
  22.5017541  53.0136009  74.7132065  23.7088797  52.7286109  75.5812536
  18.6985845  54.9830420  71.5908421  18.1350710  54.8920357  70.8224709
  18.5838240  54.1630325  72.0710914  23.3218812  54.2829796  81.5597736
  23.3107453  53.8882594  80.6878239  23.4839451  53.5495868  82.1531507
  16.2450277  56.4781612  74.4292641  17.0371569  56.1372437  74.0138941
  16.4846927  56.5876587  75.3494795  24.2785403  58.6501388  66.9022886
  23.6273383  59.2355469  66.5156900  25.0729766  59.1807583  66.9617923
  18.2041031  55.7390525  67.3010020  18.9771907  55.1919512  67.1622896
  18.5566429  56.6034775  67.5124482  20.0426073  57.0666908  80.5076920
  19.7515939  57.9712538  80.3923586  20.6783057  57.1083435  81.2220989
  20.9682280  54.4443756  77.0978279  21.5645852  54.2199779  76.3835242
  21.0257252  53.7028502  77.7003727  20.5407308  51.8983191  64.9328470
  20.7932829  51.3764713  64.1711933  19.6031867  51.7349337  65.0355154
  25.5850591  50.9018970  72.7403213  26.3713680  50.4838393  72.3893630
  25.8489296  51.8065062  72.9084862  25.7560669  56.3391820  67.4391870
  25.1206502  56.4126447  68.1512775  25.4258075  56.9285419  66.7610949
  30.9859018  50.8394203  73.6436192  31.7184190  50.2693420  73.8774021
  30.2298374  50.4515803  74.0842697  20.2603597  53.8011297  67.1352845
  20.1439855  53.1256201  67.8033929  20.3705857  53.3143671  66.3184998
  22.6035138  53.2621445  70.8399534  22.2393345  52.7352065  71.5512456
  23.4602254  52.8719914  70.6666020  28.5084439  44.5515777  78.1030800
  28.1767763  45.4211188  77.8792015  27.9130052  44.2352061  78.7824831
  22.2440625  48.2911344  65.8360883  22.4115027  49.1591581  66.2031354
  22.0537794  48.4538626  64.9122172  25.0015958  56.7528323  77.5026713
  24.7016681  57.6553362  77.3942520  24.6567018  56.4860506  78.3547866
  18.4528440  53.2042120  73.5363418  17.5278936  53.0718334  73.7441109
  18.7012853  53.9836339  74.0333360  28.4013102  49.2710863  75.1824151
  27.4929979  49.2026272  74.8882912  28.3500698  49.7482808  76.0105976
  22.2229846  50.7469002  66.8207550  22.1029471  51.1926052  67.6593030
  21.5282434  51.0954319  66.2621088  15.8137251  52.8475393  74.3707207
  15.9429632  53.1009872  75.2846618  15.1334702  53.4403101  74.0511862
  19.9836738  63.5172643  70.4697681  19.9060768  64.4680469  70.5486161
  19.3798382  63.1718516  71.1272607  22.4753968  50.6900509  83.1259048
  21.6987302  51.2494429  83.1161912  23.1144531  51.1757292  83.6473918
  30.2674748  47.4727302  76.9602024  29.6249129  47.7659835  76.3141819
  29.7629677  47.3580222  77.7655221  27.9214912  51.2190475  67.6487884
  28.8332768  51.4517862  67.4735581  27.4124559  51.8027519  67.0862962
  20.7300340  53.4985962  82.6877015  21.4715024  54.0371006  82.4111838
  20.0237326  54.1252251  82.8448567  26.2055680  55.6415103  81.2849176
  26.6139036  55.1997513  80.5403809  25.4832941  55.0667730  81.5383369
  22.5586750  50.5787709  78.6582733  23.4047945  51.0027123  78.8017382
  22.4985387  49.9221334  79.3521296  26.5284494  56.2016293  75.0401465
  25.8993357  56.3662007  74.3377533  26.1410156  56.6157903  75.8112429
  30.4073726  57.1370731  72.3945829  29.7224764  57.5169633  71.8442862
  30.4917576  57.7466058  73.1277777  25.7086195  48.2392078  80.3163907
  25.4647127  48.9934138  79.7798183  25.9846126  48.6177425  81.1511154
  27.6624658  54.7830690  78.9941172  27.8741553  55.4262450  78.3175554
  27.6154406  53.9493007  78.5263103  25.2650887  47.3948511  75.8977745
  24.4035366  47.6929764  76.1894482  25.2913321  47.6118910  74.9658777
  22.0812456  55.9390701  72.3051550  22.5450802  56.2178404  71.5156173
  21.8169254  55.0374146  72.1224641  18.9736537  55.4862183  75.2431314
  19.5437894  55.9149451  74.6048798  19.5644649  55.2044768  75.9415499
  21.0181342  52.0613854  69.1141115  21.7205386  52.5134897  69.5815042
  20.6861971  51.4197673  69.7421009  19.4661704  50.6525610  83.4892325
  18.8360364  51.3341891  83.7227722  19.3597792  50.5408692  82.5445463
  14.7606676  50.3197406  74.4158249  13.9705730  50.5754935  73.9398360
  15.2517924  51.1345744  74.5210290  28.7770486  57.6602646  77.1663530
  29.5987930  57.2582833  76.8846211  28.7732889  57.5570880  78.1179646
  16.7121422  50.6841986  71.3741726  15.9152585  50.7960680  71.8925221
  16.4847014  51.0228638  70.5082616  22.5427089  57.2086689  79.3224240
  22.6071522  57.6707096  80.1582412  21.8338013  56.5784054  79.4506550
  13.0444379  50.5727897  76.8473240  13.2952418  51.4574907  77.1130816
  13.5803928  50.3932498  76.0748332  22.2575107  58.8754796  69.1903221
  22.1220782  59.7206332  69.6188068  22.7984919  59.0774074  68.4269154
  18.7442447  44.9546376  85.8517576  18.3509392  44.4012575  86.5265220
  19.5608587  45.2656955  86.2424093  15.7104504  56.3930234  69.7631146
  16.2229025  57.1873485  69.9136710  16.3627217  55.6956525  69.6964747
  17.5199389  59.5095991  71.8453899  17.6966017  60.4313955  71.6574883
  18.3156223  59.1954410  72.2748279  21.6610408  46.3704255  83.4437832
  22.4020121  46.9711408  83.3642295  21.8928330  45.6281893  82.8855875
  16.8051746  51.5560623  81.7216062  16.6905261  50.6545880  82.0223161
  15.9496263  51.8024319  81.3700879  23.8843583  59.4978363  83.3203563
  23.4407437  58.7114741  83.0024467  24.5460797  59.6857513  82.6547454
  18.6430704  61.0274165  77.8464241  19.1938130  60.8991228  77.0741235
  17.8042180  61.3269054  77.4959134  25.9824821  59.7781163  81.3484964
  25.9643297  60.5990044  80.8565233  26.9044741  59.6535238  81.5735105
  22.4397876  57.2925292  82.1908472  22.9726212  56.5313581  81.9607780
  21.9111957  56.9998944  82.9332627  25.6067571  42.3985358  77.7202114
  25.2631840  43.2887000  77.6441225  25.9746533  42.2087016  76.8571699
  13.6753421  54.7218889  70.5390716  14.5128643  55.1315897  70.3224424
  13.8531689  53.7818331  70.5090910  25.5717853  52.3893969  66.2274549
  25.0564477  53.1598574  66.4662937  25.2995162  51.7159106  66.8507611
  23.1564964  47.2343670  71.2859788  22.3006561  46.8450521  71.1065426
  23.5691916  47.3135631  70.4259573  24.6864111  44.7690013  75.6851347
  24.1828906  44.7320149  74.8719153  24.9794718  45.6782756  75.7448004
  20.9306997  44.8528743  74.6917529  21.7959994  44.6571552  74.3323419
  20.9984506  44.6239095  75.6186886  25.3604156  50.2621061  68.0534330
  25.0554292  50.5767211  68.9044474  26.3134599  50.3402481  68.0961663
  23.8050588  56.4211285  69.7027284  23.2771950  55.6864044  69.3900522
  23.3038091  57.1985961  69.4567253  28.7843434  54.6160305  74.8194331
  28.1267109  55.3059567  74.9074459  29.5883833  55.0056737  75.1628317
  18.5369316  47.0830951  72.0633896  19.1113068  46.8606133  71.3307089
  19.1240298  47.1519646  72.8162497  27.5948893  52.9704678  72.8698272
  28.1080775  53.6034670  73.3719982  28.2450117  52.3705873  72.5041632
  18.8638903  49.1135412  66.0829781  18.0276215  49.4510099  66.4039056
  18.7243673  48.9784392  65.1456918  20.8391984  43.9572200  70.7908965
  20.1856396  43.6421217  70.1665580  20.7972458  43.3347940  71.5168788
  21.9503188  54.2391495  62.7062257  21.0430250  54.0080749  62.9053406
  22.4474220  53.4429114  62.8936239  24.8571267  62.9489002  65.6258944
  24.1832966  63.2520699  66.2343901  25.2437089  63.7518083  65.2764401
  24.0729724  50.4454134  75.1156613  23.1552285  50.6669081  74.9578301
  24.4889868  50.5200444  74.2568320  24.8564772  51.8445549  70.2459293
  25.6036591  52.3566946  69.9366415  25.1256361  51.5229602  71.1063687
  23.1291422  54.3404090  67.2286248  22.2202641  54.0563123  67.3258717
  23.1586506  54.7603169  66.3689554  28.3610689  57.9510679  70.9977415
  27.9073016  57.1101589  71.0542606  27.7304656  58.5872078  71.3352195
  27.3043609  48.8802665  72.2278083  26.5666366  48.3680052  72.5588325
  27.5570382  48.4403047  71.4161359  26.8043629  59.7887176  71.9327233
  27.0966603  60.3492233  71.2139599  27.3142249  60.0815737  72.6880392
  27.4055236  41.6578917  72.8219852  27.7114113  40.7976281  72.5345767
  28.1307841  42.2496538  72.6218846  13.6979592  52.0609604  71.2101450
  13.5003992  51.4678965  70.4852516  13.1426256  51.7561814  71.9277388
  21.6776316  51.9532711  73.3296043  21.7324926  51.0006547  73.2538519
  20.8667518  52.1092150  73.8137341  22.8267510  55.8812834  64.5674326
  22.3886940  55.1648693  64.1079963  23.5677951  56.1088948  64.0059417
  19.6168676  50.5709770  71.0886422  18.8036541  50.8703941  71.4951614
  20.1127670  50.1765459  71.8060904  21.7677254  60.5667527  73.0220686
  21.7253433  60.7928374  72.0929218  22.6839953  60.3330902  73.1706488
  25.2142888  51.0351595  79.9201316  25.5692275  51.2623068  80.7795781
  25.8615019  51.3669972  79.2978571  30.9440624  54.1570031  70.6250645
  30.8058523  54.3471627  69.6971834  30.5876843  54.9189413  71.0818696
  19.1082751  48.1428126  76.7047657  19.7482130  48.0016885  76.0070620
  18.2760281  47.8562639  76.3286259  30.9710004  56.2246558  75.6361916
  31.4046511  56.1321847  76.4844970  31.6841585  56.2004058  74.9981932
  19.8843054  57.4430556  72.8182649  20.6783653  56.9480876  72.6165224
  19.1734747  56.9148419  72.4550355  24.7037899  59.8248652  77.1695017
  24.7574921  60.3939588  77.9372733  23.8352680  59.9950537  76.8049054
  16.1925818  51.5873638  68.8942402  15.2623406  51.5258093  69.1112364
  16.2883290  51.0649591  68.0979043  16.1111367  48.1128451  71.4820643
  16.3718184  49.0273784  71.3729804  16.9328539  47.6452893  71.6317256
  17.5836292  49.5266208  78.6519468  18.2559346  49.3183570  78.0032117
  16.7566079  49.3288294  78.2124700  31.8325554  56.2670258  78.1694802
  32.0261444  57.1716069  78.4154076  31.7326172  55.8077677  79.0033387
  23.4861864  46.1528149  80.6685129  22.8389779  46.8518099  80.5749605
  24.2562880  46.5864293  81.0361377  26.8940662  56.4177001  83.7435682
  26.7426169  56.1887553  82.8265766  26.8845342  57.3747602  83.7567027
  23.6625999  53.9908914  78.7281949  24.5918059  54.1420073  78.5550916
  23.2417029  54.0792935  77.8730595  22.4614330  58.0159578  76.4980486
  22.3225416  57.6478363  77.3706424  21.6728927  58.5307218  76.3264444
  23.0562482  63.1168675  67.8406023  23.2314238  62.6456718  68.6551645
  22.3695270  63.7434441  68.0687283  24.0119546  57.3941181  73.8869324
  23.6769378  57.3541951  74.7826974  23.5123491  56.7285897  73.4139734
  17.9863790  52.8008811  79.4121905  17.8483588  52.0689050  80.0133444
  18.8968713  52.7117711  79.1306093  26.9478737  54.7397215  64.1606384
  26.3307908  54.0144043  64.0639436  26.4795226  55.5006576  63.8173458
  20.6146090  52.5128770  78.9005585  21.3245709  51.8721962  78.8592203
  20.5715398  52.7641665  79.8231766  28.6032869  59.4496124  81.8212164
  28.5445415  58.7655344  81.1542747  29.0052387  60.1915114  81.3692790
  19.3275024  49.4993988  80.7201224  18.7912381  49.0484727  81.3722821
  18.7391733  49.6339897  79.9771689  17.6223568  66.2658037  74.6145883
  17.8620166  66.8976562  75.2924901  16.7792764  65.9146077  74.9011242
  18.7377283  48.9582640  63.2827688  17.8606750  48.8371440  62.9189935
  19.2135036  48.1668718  63.0306577  28.6050276  57.4135708  80.0526144
  27.7177055  57.0761629  80.1752543  29.1748827  56.6818739  80.2894909
  10.2579423  53.7459799  73.3769195  10.9450463  53.4321529  72.7890210
  10.1027552  54.6501164  73.1036447  15.0614145  48.6349996  77.8054219
  14.9772334  48.0275665  77.0704629  14.2396852  49.1259014  77.8063715
  22.1351430  62.0737160  77.0187387  22.0621601  62.8792131  77.5306691
  21.6928823  62.2729126  76.1935408  21.9241209  61.3108930  70.5290208
  21.1408731  61.8530610  70.6228433  22.6233954  61.8282910  70.9284450
  25.2337859  47.1203559  73.1724414  25.7306559  46.3673522  72.8525484
  24.4624841  47.1567876  72.6067623  33.0867617  52.8243925  74.8142705
  33.0757493  53.7068640  74.4436638  32.2184996  52.4715476  74.6197242
  24.5950113  61.9723994  79.1745546  25.3078085  62.6071459  79.1021447
  24.1040142  62.0687860  78.3585547  26.3167640  55.8775247  70.7462837
  25.3823919  55.9976709  70.5767542  26.4944308  54.9747713  70.4822847
  21.8172828  49.2620942  72.8996098  21.4470616  48.7091983  73.5877004
  22.3131921  48.6579076  72.3471098  29.7040191  51.7192566  71.2812871
  30.1700644  52.5520557  71.2073174  30.1547692  51.2537547  71.9858130
  19.6462027  59.7218437  79.9951116  20.3471486  60.3554920  80.1480511
  19.1757142  60.0633169  79.2346756  27.7716422  58.0636387  68.2799023
  28.0476266  57.9492982  69.1892897  26.9020921  57.6653872  68.2411197
  27.6756854  44.0873153  75.3203773  26.7619934  44.3177380  75.4885980
  28.1049956  44.1711597  76.1717805  27.4463313  52.2763045  77.8203667
  26.7934763  52.5238952  77.1656119  27.8243693  51.4627183  77.4866144
  24.4070486  62.3122738  71.9231837  24.5892881  61.4944394  72.3859589
  25.2303473  62.5290430  71.4856727  24.7412652  61.2390923  69.1846886
  25.2700418  60.7283378  68.5717048  25.0040872  60.9233453  70.0492419
  23.4950886  53.0182856  84.3069704  22.8191523  52.9176985  84.9772079
  24.3178520  52.8622070  84.7705701  15.2429745  59.2554792  76.9282219
  15.8283182  58.5098480  77.0610123  15.0454583  59.5658749  77.8118883
  18.0968400  62.2906040  71.9444661  17.4278775  62.7752167  71.4608702
  17.9581270  62.5375260  72.8588040   9.8347399  51.8260393  75.6486662
   9.8731499  51.2923983  76.4423780   9.3287692  51.2995598  75.0297639
  22.2373669  64.3249783  78.5427320  22.7891977  64.4881405  79.3076405
  22.5779862  64.9154221  77.8707345  17.2138162  46.6724933  79.1449205
  17.2779488  47.5339764  78.7326602  17.1505282  46.0598935  78.4121563
  16.6890434  48.7448066  82.7922239  17.3162473  48.3625143  83.4059763
  15.8318353  48.5262268  83.1577931  27.0884543  59.1511041  84.3975974
  27.6324447  59.7640999  83.9030929  26.5071388  59.7090619  84.9142987
  13.4655977  50.5524495  68.7240594  13.7609418  49.6435173  68.6707647
  12.5644013  50.5312234  68.4021596  25.3742056  62.2731759  75.5291002
  25.2493195  61.4721499  75.0201947  26.0321147  62.7677952  75.0404972
  16.9950224  48.6280491  74.7068142  16.2736810  49.2416459  74.5675616
  17.7843480  49.1638256  74.6284788  27.4376964  60.0740779  77.1570552
  26.4907300  59.9546130  77.0848879  27.7859737  59.1863277  77.2396813
  19.7976538  45.9634918  80.9808794  20.3210939  46.2097214  81.7435103
  19.5788871  46.7954953  80.5611931  15.1943819  48.2338592  68.8479919
  14.8656525  47.3535971  68.6655025  15.5483189  48.1786261  69.7356308
  24.4423397  59.8693495  73.3574904  24.2948360  58.9410203  73.5382474
  25.2676891  59.8913586  72.8731980  18.3085642  48.5211562  69.2155396
  18.6481714  49.0497484  68.4934005  18.7557762  48.8591968  69.9913963
  28.0457519  60.6922054  74.4439777  28.9704067  60.4864915  74.3064228
  27.8772823  60.4438455  75.3529119  21.0029083  46.9048613  78.6658464
  20.6625903  46.1056426  79.0679144  20.2968089  47.2050324  78.0935298
  21.6545554  43.9897925  77.1185788  22.4771624  43.5158404  76.9964678
  21.8983618  44.7688409  77.6184474  20.2953789  47.0186184  67.4148689
  21.0162151  47.3967437  66.9112406  19.6719093  47.7375061  67.5183667
  24.4384912  47.7231333  68.3507022  24.6548526  48.6055971  68.0495850
  23.9578979  47.3317546  67.6212664  19.1784133  50.6817046  74.9277766
  19.0328714  50.9957349  75.8202048  18.7009337  51.3001946  74.3748665
  21.0380516  47.6719594  74.9758656  21.0242085  46.7760687  74.6390954
  21.7552944  47.6790258  75.6096942  22.8906647  48.1056934  77.0211783
  22.6324425  49.0274005  77.0196114  22.3591687  47.7087369  77.7112247
  27.8352836  61.2107721  69.8001869  28.0089713  60.6454144  69.0475721
  28.3281727  62.0108616  69.6181358  13.6529795  53.2222390  77.8665427
  13.1083263  53.9982198  77.9985702  14.5309145  53.5693195  77.7084549
  20.4417412  46.5533974  70.2446226  20.5633323  45.6250620  70.4437113
  20.1519454  46.5672660  69.3324541  23.3108602  44.2388885  73.3812946
  23.3330299  44.3028218  72.4264925  23.7276661  43.3993393  73.5753452
  33.6892227  53.9744144  71.4192168  34.1323373  53.2251469  71.0211292
  32.8118737  53.9654281  71.0365900  28.8228008  60.5274486  66.8998767
  29.5178913  61.1481178  67.1186081  29.1651158  59.6769837  67.1751145
  14.4395817  52.3492287  80.7595584  13.6977553  52.4974922  81.3460215
  14.1188561  52.6100552  79.8962334  22.3839480  61.8908265  80.5575974
  22.6926606  61.6457412  81.4298674  23.1814962  62.0954903  80.0694844
  22.4060092  64.0446175  72.7881351  21.9665082  63.5522553  73.4814207
  23.1568209  63.5019142  72.5473426  14.8852431  60.2357715  72.7905979
  15.7110451  59.9361487  72.4104622  14.5346483  59.4665338  73.2395767
  19.8533964  59.5884184  74.8603652  19.2313973  58.9254889  74.5605880
  20.5238831  59.6145316  74.1777300  13.0861036  58.1544042  73.7494912
  12.2492944  57.7266216  73.5678914  13.0584681  58.3476485  74.6865704
  19.9258492  48.0665972  84.4536158  19.9746647  48.9428094  84.0713928
  20.4681006  47.5243365  83.8807802  30.4113337  58.6107095  83.7337296
  29.6208881  58.5931234  83.1941795  30.1746692  59.1495389  84.4886332
  30.5311212  55.4599561  81.0470024  30.5809217  55.2949569  81.9885547
  30.4225136  54.5926820  80.6567905  19.4147471  58.1388107  68.3362113
  19.5635591  58.8223571  67.6828786  20.2213914  58.1193197  68.8511569
  27.8214975  51.4430489  82.3629331  28.7224837  51.3036954  82.0713329
  27.8962949  51.6084944  83.3027508  22.1557780  48.8197344  81.2082517
  21.2861089  49.1130910  80.9365106  22.3917260  49.4037789  81.9289781
  32.0329409  57.8796503  81.2912046  31.7414217  58.2426483  82.1275507
  31.4201540  57.1663511  81.1125378  30.2816597  53.0029117  79.7592104
  30.7570719  53.1956764  78.9510955  29.3582163  53.0588303  79.5135487
  17.1700104  54.1653285  69.3423182  16.9246146  53.2615615  69.5403392
  17.3396018  54.1670435  68.4002660  24.8596814  45.0376961  78.7247937
  25.3778758  45.7737988  78.3994426  24.5051947  45.3440954  79.5594697
  16.4395751  49.8981642  66.8409343  15.7464996  49.9725997  66.1849379
  16.1947503  49.1341986  67.3630860  25.1109408  41.4577244  74.2448834
  25.3911162  40.7900433  74.8709261  25.8960015  41.6506339  73.7323498
  22.9142876  60.6336237  65.8073860  22.3416844  61.2526425  65.3544332
  23.4875670  61.1835599  66.3413782  28.9818266  49.8794878  77.9920409
  29.9335689  49.9792975  78.0132633  28.8121717  49.0873146  78.5018494
  27.0032646  46.9650461  78.1779810  26.4082578  47.2455473  77.4826299
  26.7182342  47.4544362  78.9496551  26.1340136  60.9173388  66.9382443
  27.0670809  60.8518949  67.1415318  26.0463349  61.7529654  66.4796975
  28.7628153  60.2339258  63.8986390  28.6841784  59.8999122  64.7922148
  29.5837820  60.7261026  63.8977863  31.4606344  53.1000997  77.1062709
  31.4282664  52.1616998  77.2922393  32.0706968  53.1785034  76.3728534
  23.2989675  51.9697050  63.1489913  24.2448780  51.8403258  63.2178331
  22.9203920  51.2311712  63.6259341  31.6100833  49.8912041  77.1520992
  31.0939881  49.1070497  76.9650921  32.4940781  49.5630757  77.3167511
  29.2711560  43.6353056  73.1116805  29.0736381  43.3268144  73.9960137
  29.8811265  44.3614695  73.2414735  23.1828368  56.0214796  84.6090570
  24.1031377  56.1993395  84.8030616  23.1477951  55.0770842  84.4570269
  21.4832592  49.8947027  63.0844798  20.5764048  49.5980139  63.1607512
  21.7608573  49.5976845  62.2179084  12.4010533  51.2153390  73.5343844
  12.0813317  50.3618698  73.2418218  11.8543961  51.4301968  74.2901812
  16.1790440  53.9315831  77.2513351  16.3976450  54.8632939  77.2701385
  16.5916214  53.5723805  78.0368155  23.0994658  44.4383916  69.2389039
  22.2895386  44.0931001  69.6144285  23.7879075  44.1291460  69.8276651
  25.0285206  43.5161963  70.8613336  25.5816245  43.9357417  71.5203359
  25.2655292  42.5897711  70.9036292  21.0518305  49.5049037  86.6416100
  20.9515032  50.4543394  86.5728191  20.8339847  49.1767276  85.7692170
  20.2531377  46.7533962  63.2256777  21.1150541  47.0788860  63.4852595
  20.4381721  45.9665458  62.7129843  12.2698793  54.8356301  75.5036966
  11.5762264  54.4210254  74.9906920  13.0171784  54.8776838  74.9070385
  28.4064013  45.6262488  70.3692000  27.8262682  46.2847292  69.9870053
  28.1399946  44.8039833  69.9579418  26.8567580  45.0267546  72.5713321
  27.3567358  45.1384081  71.7627639  27.5003188  44.7228599  73.2114129
  20.9149575  52.9346176  85.4581162  20.4316657  53.7346536  85.6645051
  21.0010514  52.9454120  84.5048606  14.1835535  54.7674555  73.3802981
  14.1606223  54.8662243  72.4284864  14.4936172  55.6139706  73.7020147
  16.8422913  56.8250710  77.4949595  17.7966166  56.7934653  77.4279527
  16.6435436  56.3641334  78.3099821  17.4322295  55.3951826  80.0620393
  18.2515184  55.8895905  80.0855230  17.7059103  54.4783794  80.0337961
  27.1888891  47.7862579  69.4248349  26.3014746  48.0712229  69.2068543
  27.6042880  47.6256342  68.5775625  30.5403427  47.8109100  73.1402688
  31.3163817  48.3005552  73.4127305  29.8151562  48.2367154  73.5974557
  32.9775986  48.5236719  74.1976628  33.5720477  48.2832455  73.4869937
  33.0502570  47.8043849  74.8250165  15.1973142  62.3670330  74.5119793
  15.0627610  61.6070731  73.9457791  14.7805204  63.0911230  74.0448582
  26.3332105  57.5507253  63.5196369  27.0367955  57.7557256  64.1354024
  25.6094753  58.1184015  63.7845452  27.1629915  53.3017115  69.6398639
  27.1065116  53.7585666  68.8006271  27.7158257  52.5407799  69.4621481
  30.9734721  49.0906846  70.4648758  30.7171655  48.6903482  71.2956966
  30.3487589  49.8050640  70.3398897  18.3542268  63.2639647  74.7238236
  18.2374652  64.2085079  74.6216926  17.5334714  62.9613208  75.1124035
  28.2418802  57.9889783  65.5694829  29.0764406  57.5570981  65.3872303
  28.0803145  57.8171796  66.4971723  27.8964694  54.4921896  66.9351168
  27.8413498  54.3266167  65.9939612  27.2710750  55.1997929  67.0913358
  12.6857209  49.7289960  80.7612590  13.3316073  49.2188914  81.2499815
  12.4774360  50.4658642  81.3356015  25.2110601  56.7970808  86.2604731
  26.0801761  56.9711460  85.8991366  24.7317353  57.6165225  86.1380460
  21.2060820  43.9930005  66.5136486  21.1939490  44.9371845  66.6704757
  22.0984242  43.8100150  66.2195947  19.3796782  63.9167909  77.9394164
  20.2824028  63.9491519  78.2560659  19.1534152  62.9868360  77.9540500
  21.1350384  62.6698895  74.6004243  20.1846015  62.6700757  74.4868615
  21.4382870  61.9231630  74.0840278  25.0212939  40.5872781  70.7682423
  24.2545335  40.0331268  70.9139105  25.4323644  40.6594650  71.6296575
  17.0254700  46.8757577  84.8587604  17.8886162  46.5194382  85.0690929
  16.4520111  46.5371472  85.5463009  27.0844031  71.8073530  74.4292641
  27.8765323  71.4664354  74.0138941  27.3240681  71.9168505  75.3494795
  30.8819828  72.3958825  80.5076920  30.5909694  73.3004456  80.3923586
  31.5176812  72.4375353  81.2220989  31.8076034  69.7735674  77.0978279
  32.4039607  69.5491696  76.3835242  31.8651006  69.0320419  77.7003727
  29.2922194  68.5334038  73.5363418  28.3672691  68.4010252  73.7441109
  29.5406607  69.3128257  74.0333360  26.6531005  68.1767311  74.3707207
  26.7823386  68.4301790  75.2846618  25.9728457  68.7695019  74.0511862
  31.5694095  68.8277880  82.6877015  32.3108779  69.3662924  82.4111838
  30.8631080  69.4544169  82.8448567  29.8130292  70.8154101  75.2431314
  30.3831649  71.2441369  74.6048798  30.4038404  70.5336685  75.9415499
  30.3055458  65.9817528  83.4892325  29.6754119  66.6633809  83.7227722
  30.1991546  65.8700610  82.5445463  25.6000431  65.6489324  74.4158249
  24.8099485  65.9046853  73.9398360  26.0911678  66.4637662  74.5210290
  27.5515176  66.0133903  71.3741726  26.7546339  66.1252598  71.8925221
  27.3240768  66.3520556  70.5082616  23.8838134  65.9019815  76.8473240
  24.1346172  66.7866824  77.1130816  24.4197682  65.7224416  76.0748332
  29.5836201  60.2838294  85.8517576  29.1903147  59.7304492  86.5265220
  30.4002341  60.5948872  86.2424093  32.5004162  61.6996173  83.4437832
  33.2413875  62.3003326  83.3642295  32.7322085  60.9573811  82.8855875
  27.6445500  66.8852540  81.7216062  27.5299015  65.9837798  82.0223161
  26.7890018  67.1316237  81.3700879  29.4824459  76.3566082  77.8464241
  30.0331884  76.2283146  77.0741235  28.6435935  76.6560971  77.4959134
  33.2791630  72.6217210  82.1908472  33.8119967  71.8605498  81.9607780
  32.7505711  72.3290862  82.9332627  24.5147176  70.0510806  70.5390716
  25.3522398  70.4607815  70.3224424  24.6925443  69.1110249  70.5090910
  31.7700751  60.1820661  74.6917529  32.6353748  59.9863470  74.3323419
  31.8378260  59.9531013  75.6186886  29.3763070  62.4122869  72.0633896
  29.9506822  62.1898050  71.3307089  29.9634053  62.4811563  72.8162497
  31.6785738  59.2864118  70.7908965  31.0250150  58.9713135  70.1665580
  31.6366212  58.6639858  71.5168788  24.5373347  67.3901522  71.2101450
  24.3397747  66.7970882  70.4852516  23.9820011  67.0853732  71.9277388
  29.9476505  63.4720043  76.7047657  30.5875884  63.3308803  76.0070620
  29.1154036  63.1854557  76.3286259  27.0319572  66.9165556  68.8942402
  26.1017161  66.8550011  69.1112364  27.1277044  66.3941508  68.0979043
  26.9505121  63.4420368  71.4820643  27.2111939  64.3565702  71.3729804
  27.7722294  62.9744811  71.6317256  28.4230047  64.8558126  78.6519468
  29.0953100  64.6475488  78.0032117  27.5959833  64.6580212  78.2124700
  34.3255619  61.4820067  80.6685129  33.6783534  62.1810016  80.5749605
  35.0956634  61.9156210  81.0361377  34.5019753  69.3200831  78.7281949
  35.4311813  69.4711991  78.5550916  34.0810783  69.4084852  77.8730595
  28.8257544  68.1300729  79.4121905  28.6877342  67.3980967  80.0133444
  29.7362468  68.0409629  79.1306093  31.4539845  67.8420688  78.9005585
  32.1639463  67.2013880  78.8592203  31.4109153  68.0933583  79.8231766
  30.1668779  64.8285906  80.7201224  29.6306136  64.3776644  81.3722821
  29.5785487  64.9631815  79.9771689  28.4617322  81.5949955  74.6145883
  28.7013920  82.2268479  75.2924901  27.6186519  81.2437995  74.9011242
  21.0973178  69.0751717  73.3769195  21.7844218  68.7613447  72.7890210
  20.9421306  69.9793082  73.1036447  25.9007900  63.9641914  77.8054219
  25.8166089  63.3567583  77.0704629  25.0790606  64.4550932  77.8063715
  30.4855781  75.0510355  79.9951116  31.1865241  75.6846838  80.1480511
  30.0150896  75.3925087  79.2346756  26.0823499  74.5846710  76.9282219
  26.6676936  73.8390398  77.0610123  25.8848338  74.8950667  77.8118883
  20.6741154  67.1552310  75.6486662  20.7125253  66.6215901  76.4423780
  20.1681447  66.6287516  75.0297639  33.0767423  79.6541701  78.5427320
  33.6285731  79.8173323  79.3076405  33.4173616  80.2446139  77.8707345
  28.0531916  62.0016851  79.1449205  28.1173243  62.8631682  78.7326602
  27.9899036  61.3890852  78.4121563  27.5284189  64.0739983  82.7922239
  28.1556228  63.6917061  83.4059763  26.6712108  63.8554185  83.1577931
  24.3049732  65.8816412  68.7240594  24.6003173  64.9727091  68.6707647
  23.4037767  65.8604152  68.4021596  27.8343979  63.9572409  74.7068142
  27.1130564  64.5708377  74.5675616  28.6237234  64.4930174  74.6284788
  30.6370292  61.2926836  80.9808794  31.1604694  61.5389132  81.7435103
  30.4182625  62.1246870  80.5611931  26.0337573  63.5630510  68.8479919
  25.7050279  62.6827889  68.6655025  26.3876944  63.5078179  69.7356308
  32.4939309  59.3189843  77.1185788  33.3165378  58.8450321  76.9964678
  32.7377372  60.0980327  77.6184474  30.0177888  66.0108964  74.9277766
  29.8722468  66.3249267  75.8202048  29.5403091  66.6293864  74.3748665
  24.4923550  68.5514308  77.8665427  23.9477018  69.3274116  77.9985702
  25.3702900  68.8985113  77.7084549  25.2789572  67.6784204  80.7595584
  24.5371308  67.8266840  81.3460215  24.9582316  67.9392470  79.8962334
  33.2453846  79.3738092  72.7881351  32.8058837  78.8814471  73.4814207
  33.9961963  78.8311060  72.5473426  30.6927719  74.9176101  74.8603652
  30.0707728  74.2546806  74.5605880  31.3632585  74.9437233  74.1777300
  23.9254790  73.4835960  73.7494912  23.0886699  73.0558134  73.5678914
  23.8978436  73.6768403  74.6865704  30.7652246  63.3957889  84.4536158
  30.8140401  64.2720012  84.0713928  31.3074760  62.8535282  83.8807802
  32.9951534  64.1489262  81.2082517  32.1254844  64.4422828  80.9365106
  33.2311015  64.7329707  81.9289781  23.2404287  66.5445308  73.5343844
  22.9207071  65.6910616  73.2418218  22.6937715  66.7593886  74.2901812
  27.0184195  69.2607749  77.2513351  27.2370204  70.1924856  77.2701385
  27.4309968  68.9015723  78.0368155  31.8912060  64.8340954  86.6416100
  31.7908787  65.7835311  86.5728191  31.6733602  64.5059193  85.7692170
  31.0925131  62.0825879  63.2256777  31.9544295  62.4080778  63.4852595
  31.2775475  61.2957375  62.7129843  23.1092547  70.1648219  75.5036966
  22.4156018  69.7502172  74.9906920  23.8565538  70.2068756  74.9070385
  25.0229290  70.0966473  73.3802981  24.9999978  70.1954160  72.4284864
  25.3329926  70.9431624  73.7020147  27.6816667  72.1542628  77.4949595
  28.6359921  72.1226570  77.4279527  27.4829191  71.6933252  78.3099821
  28.2716050  70.7243744  80.0620393  29.0908939  71.2187823  80.0855230
  28.5452857  69.8075712  80.0337961  26.0366896  77.6962247  74.5119793
  25.9021364  76.9362648  73.9457791  25.6198958  78.4203147  74.0448582
  29.1936022  78.5931564  74.7238236  29.0768406  79.5376997  74.6216926
  28.3728468  78.2905126  75.1124035  23.5250964  65.0581878  80.7612590
  24.1709827  64.5480832  81.2499815  23.3168115  65.7950560  81.3356015
  30.2190536  79.2459826  77.9394164  31.1217783  79.2783437  78.2560659
  29.9927906  78.3160277  77.9540500  31.9744138  77.9990813  74.6004243
  31.0239769  77.9992675  74.4868615  32.2776624  77.2523547  74.0840278
  27.8648455  62.2049495  84.8587604  28.7279916  61.8486300  85.0690929
  27.2913865  61.8663390  85.5463009  47.7096832  83.8351351  75.6650005
  48.3475242  83.7158099  74.9613345  47.5917675  84.7832195  75.7237957
  44.5186538  83.7878779  75.6011530  44.1805050  83.6719844  74.7132065
  45.3876306  83.3869945  75.5812536  40.3773354  85.6414256  71.5908421
  39.8138219  85.5504193  70.8224709  40.2625749  84.8214160  72.0710914
  45.0006321  84.9413631  81.5597736  44.9894962  84.5466429  80.6878239
  45.1626960  84.2079704  82.1531507  37.9237786  87.1365447  74.4292641
  38.7159078  86.7956272  74.0138941  38.1634436  87.2460422  75.3494795
  45.9572912  89.3085224  66.9022886  45.3060892  89.8939304  66.5156900
  46.7517275  89.8391418  66.9617923  39.8828540  86.3974361  67.3010020
  40.6559416  85.8503348  67.1622896  40.2353938  87.2618610  67.5124482
  41.7213582  87.7250743  80.5076920  41.4303448  88.6296374  80.3923586
  42.3570566  87.7667271  81.2220989  42.6469789  85.1027591  77.0978279
  43.2433361  84.8783614  76.3835242  42.7044760  84.3612337  77.7003727
  42.2194817  82.5567027  64.9328470  42.4720338  82.0348548  64.1711933
  41.2819376  82.3933172  65.0355154  47.4348178  86.9975655  67.4391870
  46.7994011  87.0710282  68.1512775  47.1045584  87.5869254  66.7610949
  41.9391106  84.4595133  67.1352845  41.8227364  83.7840036  67.8033929
  42.0493366  83.9727507  66.3184998  44.2822647  83.9205280  70.8399534
  43.9180854  83.3935901  71.5512456  45.1389763  83.5303749  70.6666020
  46.6803467  87.4112158  77.5026713  46.3804190  88.3137197  77.3942520
  46.3354527  87.1444342  78.3547866  43.9017355  81.4052837  66.8207550
  43.7816980  81.8509888  67.6593030  43.2069943  81.7538155  66.2621088
  37.4924760  83.5059229  74.3707207  37.6217141  83.7593708  75.2846618
  36.8122211  84.0986937  74.0511862  41.6624247  94.1756479  70.4697681
  41.5848277  95.1264304  70.5486161  41.0585891  93.8302351  71.1272607
  42.4087849  84.1569798  82.6877015  43.1502533  84.6954842  82.4111838
  41.7024835  84.7836086  82.8448567  47.8843189  86.2998938  81.2849176
  48.2926545  85.8581349  80.5403809  47.1620450  85.7251566  81.5383369
  44.2374259  81.2371545  78.6582733  45.0835454  81.6610958  78.8017382
  44.1772896  80.5805169  79.3521296  48.2072003  86.8600129  75.0401465
  47.5780866  87.0245843  74.3377533  47.8197665  87.2741738  75.8112429
  52.0861235  87.7954567  72.3945829  51.4012273  88.1753468  71.8442862
  52.1705085  88.4049893  73.1277777  49.3412167  85.4414526  78.9941172
  49.5529062  86.0846285  78.3175554  49.2941915  84.6076842  78.5263103
  43.7599965  86.5974537  72.3051550  44.2238311  86.8762240  71.5156173
  43.4956763  85.6957981  72.1224641  40.6524046  86.1446018  75.2431314
  41.2225403  86.5733287  74.6048798  41.2432158  85.8628603  75.9415499
  42.6968851  82.7197689  69.1141115  43.3992895  83.1718733  69.5815042
  42.3649480  82.0781508  69.7421009  41.1449213  81.3109446  83.4892325
  40.5147873  81.9925727  83.7227722  41.0385301  81.1992527  82.5445463
  50.4557995  88.3186481  77.1663530  51.2775439  87.9166668  76.8846211
  50.4520398  88.2154715  78.1179646  44.2214598  87.8670524  79.3224240
  44.2859031  88.3290932  80.1582412  43.5125522  87.2367889  79.4506550
  34.7231888  81.2311732  76.8473240  34.9739927  82.1158742  77.1130816
  35.2591437  81.0516334  76.0748332  43.9362616  89.5338632  69.1903221
  43.8008291  90.3790167  69.6188068  44.4772428  89.7357909  68.4269154
  37.3892013  87.0514070  69.7631146  37.9016534  87.8457320  69.9136710
  38.0414726  86.3540360  69.6964747  39.1986898  90.1679826  71.8453899
  39.3753526  91.0897791  71.6574883  39.9943732  89.8538245  72.2748279
  38.4839255  82.2144458  81.7216062  38.3692770  81.3129715  82.0223161
  37.6283772  82.4608155  81.3700879  45.5631092  90.1562198  83.3203563
  45.1194946  89.3698577  83.0024467  46.2248306  90.3441349  82.6547454
  40.3218213  91.6858000  77.8464241  40.8725639  91.5575063  77.0741235
  39.4829689  91.9852889  77.4959134  47.6612330  90.4364998  81.3484964
  47.6430806  91.2573879  80.8565233  48.5832250  90.3119073  81.5735105
  44.1185385  87.9509128  82.1908472  44.6513721  87.1897416  81.9607780
  43.5899466  87.6582779  82.9332627  35.3540930  85.3802724  70.5390716
  36.1916152  85.7899732  70.3224424  35.5319198  84.4402166  70.5090910
  47.2505362  83.0477805  66.2274549  46.7351986  83.8182409  66.4662937
  46.9782671  82.3742941  66.8507611  45.4838097  87.0795120  69.7027284
  44.9559459  86.3447880  69.3900522  44.9825600  87.8569797  69.4567253
  50.4630943  85.2744141  74.8194331  49.8054618  85.9643402  74.9074459
  51.2671342  85.6640573  75.1628317  43.6290697  84.8975330  62.7062257
  42.7217759  84.6664584  62.9053406  44.1261729  84.1012950  62.8936239
  46.5358776  93.6072838  65.6258944  45.8620475  93.9104534  66.2343901
  46.9224598  94.4101918  65.2764401  44.8078931  84.9987925  67.2286248
  43.8990150  84.7146958  67.3258717  44.8374015  85.4187004  66.3689554
  50.0398198  88.6094515  70.9977415  49.5860525  87.7685425  71.0542606
  49.4092165  89.2455913  71.3352195  48.4831137  90.4471011  71.9327233
  48.7754112  91.0076069  71.2139599  48.9929758  90.7399572  72.6880392
  35.3767101  82.7193439  71.2101450  35.1791501  82.1262800  70.4852516
  34.8213765  82.4145650  71.9277388  43.3563825  82.6116546  73.3296043
  43.4112435  81.6590382  73.2538519  42.5455027  82.7675985  73.8137341
  44.5055019  86.5396669  64.5674326  44.0674449  85.8232528  64.1079963
  45.2465460  86.7672784  64.0059417  43.4464763  91.2251363  73.0220686
  43.4040941  91.4512209  72.0929218  44.3627462  90.9914737  73.1706488
  46.8930396  81.6935430  79.9201316  47.2479784  81.9206903  80.7795781
  47.5402528  82.0253807  79.2978571  52.6497513  86.8830393  75.6361916
  53.0834020  86.7905682  76.4844970  53.3629094  86.8587893  74.9981932
  41.5630563  88.1014392  72.8182649  42.3571162  87.6064712  72.6165224
  40.8522256  87.5732255  72.4550355  46.3825408  90.4832487  77.1695017
  46.4362430  91.0523423  77.9372733  45.5140189  90.6534372  76.8049054
  39.2623801  80.1850043  78.6519468  39.9346855  79.9767405  78.0032117
  38.4353588  79.9872129  78.2124700  53.5113063  86.9254094  78.1694802
  53.7048953  87.8299904  78.4154076  53.4113681  86.4661513  79.0033387
  48.5728171  87.0760836  83.7435682  48.4213678  86.8471388  82.8265766
  48.5632851  88.0331438  83.7567027  45.3413508  84.6492749  78.7281949
  46.2705568  84.8003909  78.5550916  44.9204538  84.7376770  77.8730595
  44.1401839  88.6743414  76.4980486  44.0012925  88.3062198  77.3706424
  43.3516436  89.1891053  76.3264444  44.7349991  93.7752510  67.8406023
  44.9101747  93.3040553  68.6551645  44.0482779  94.4018276  68.0687283
  45.6907055  88.0525016  73.8869324  45.3556887  88.0125786  74.7826974
  45.1911000  87.3869732  73.4139734  39.6651299  83.4592646  79.4121905
  39.5271097  82.7272885  80.0133444  40.5756222  83.3701546  79.1306093
  42.2933599  83.1712606  78.9005585  43.0033218  82.5305798  78.8592203
  42.2502907  83.4225500  79.8231766  50.2820378  90.1079959  81.8212164
  50.2232924  89.4239179  81.1542747  50.6839896  90.8498949  81.3692790
  41.0062533  80.1577824  80.7201224  40.4699890  79.7068562  81.3722821
  40.4179242  80.2923732  79.9771689  39.3011077  96.9241873  74.6145883
  39.5407675  97.5560397  75.2924901  38.4580273  96.5729913  74.9011242
  50.2837785  88.0719543  80.0526144  49.3964564  87.7345465  80.1752543
  50.8536336  87.3402574  80.2894909  31.9366932  84.4043635  73.3769195
  32.6237972  84.0905365  72.7890210  31.7815061  85.3084999  73.1036447
  43.8138939  92.7320995  77.0187387  43.7409110  93.5375967  77.5306691
  43.3716332  92.9312961  76.1935408  43.6028718  91.9692765  70.5290208
  42.8196240  92.5114445  70.6228433  44.3021463  92.4866745  70.9284450
  46.2737622  92.6307829  79.1745546  46.9865594  93.2655294  79.1021447
  45.7827651  92.7271695  78.3585547  47.9955149  86.5359082  70.7462837
  47.0611428  86.6560544  70.5767542  48.1731817  85.6331549  70.4822847
  41.3249536  90.3802273  79.9951116  42.0258995  91.0138756  80.1480511
  40.8544651  90.7217004  79.2346756  49.4503931  88.7220223  68.2799023
  49.7263775  88.6076817  69.1892897  48.5808430  88.3237707  68.2411197
  49.1250822  82.9346880  77.8203667  48.4722272  83.1822788  77.1656119
  49.5031201  82.1211018  77.4866144  46.0857995  92.9706573  71.9231837
  46.2680390  92.1528229  72.3859589  46.9090981  93.1874266  71.4856727
  46.4200161  91.8974758  69.1846886  46.9487927  91.3867213  68.5717048
  46.6828381  91.5817289  70.0492419  45.1738395  83.6766691  84.3069704
  44.4979032  83.5760821  84.9772079  45.9966029  83.5205905  84.7705701
  36.9217254  89.9138628  76.9282219  37.5070691  89.1682316  77.0610123
  36.7242092  90.2242584  77.8118883  39.7755909  92.9489875  71.9444661
  39.1066284  93.4336003  71.4608702  39.6368779  93.1959096  72.8588040
  31.5134908  82.4844228  75.6486662  31.5519008  81.9507819  76.4423780
  31.0075201  81.9579434  75.0297639  43.9161178  94.9833619  78.5427320
  44.4679486  95.1465240  79.3076405  44.2567371  95.5738057  77.8707345
  38.3677943  79.4031901  82.7922239  38.9949982  79.0208978  83.4059763
  37.5105862  79.1846103  83.1577931  48.7672052  89.8094876  84.3975974
  49.3111956  90.4224834  83.9030929  48.1858897  90.3674455  84.9142987
  35.1443486  81.2108330  68.7240594  35.4396927  80.3019009  68.6707647
  34.2431522  81.1896070  68.4021596  47.0529565  92.9315594  75.5291002
  46.9280704  92.1305334  75.0201947  47.7108656  93.4261788  75.0404972
  49.1164473  90.7324614  77.1570552  48.1694809  90.6129965  77.0848879
  49.4647246  89.8447112  77.2396813  46.1210906  90.5277331  73.3574904
  45.9735869  89.5994038  73.5382474  46.9464400  90.5497421  72.8731980
  49.7245028  91.3505889  74.4439777  50.6491576  91.1448751  74.3064228
  49.5560332  91.1022290  75.3529119  49.5140345  91.8691557  69.8001869
  49.6877222  91.3037979  69.0475721  50.0069236  92.6692452  69.6181358
  35.3317304  83.8806226  77.8665427  34.7870772  84.6566034  77.9985702
  36.2096654  84.2277030  77.7084549  50.5015517  91.1858321  66.8998767
  51.1966422  91.8065014  67.1186081  50.8438667  90.3353672  67.1751145
  36.1183326  83.0076122  80.7595584  35.3765062  83.1558757  81.3460215
  35.7976070  83.2684388  79.8962334  44.0626989  92.5492100  80.5575974
  44.3714115  92.3041247  81.4298674  44.8602471  92.7538739  80.0694844
  44.0847601  94.7030010  72.7881351  43.6452591  94.2106389  73.4814207
  44.8355718  94.1602978  72.5473426  36.5639940  90.8941551  72.7905979
  37.3897960  90.5945323  72.4104622  36.2133992  90.1249173  73.2395767
  41.5321473  90.2468019  74.8603652  40.9101482  89.5838724  74.5605880
  42.2026340  90.2729151  74.1777300  34.7648545  88.8127877  73.7494912
  33.9280453  88.3850052  73.5678914  34.7372190  89.0060321  74.6865704
  52.0900846  89.2690930  83.7337296  51.2996390  89.2515069  83.1941795
  51.8534201  89.8079224  84.4886332  52.2098721  86.1183397  81.0470024
  52.2596726  85.9533404  81.9885547  52.1012645  85.2510656  80.6567905
  41.0934980  88.7971942  68.3362113  41.2423100  89.4807407  67.6828786
  41.9001423  88.7777032  68.8511569  49.5002484  82.1014325  82.3629331
  50.4012346  81.9620790  82.0713329  49.5750458  82.2668780  83.3027508
  53.7116918  88.5380338  81.2912046  53.4201726  88.9010319  82.1275507
  53.0989049  87.8247346  81.1125378  51.9604106  83.6612953  79.7592104
  52.4358228  83.8540599  78.9510955  51.0369672  83.7172139  79.5135487
  38.8487613  84.8237120  69.3423182  38.6033655  83.9199450  69.5403392
  39.0183527  84.8254270  68.4002660  44.5930385  91.2920073  65.8073860
  44.0204353  91.9110260  65.3544332  45.1663179  91.8419434  66.3413782
  47.8127645  91.5757223  66.9382443  48.7458318  91.5102785  67.1415318
  47.7250858  92.4113490  66.4796975  50.4415662  90.8923093  63.8986390
  50.3629293  90.5582957  64.7922148  51.2625329  91.3844861  63.8977863
  44.8615876  86.6798632  84.6090570  45.7818886  86.8577231  84.8030616
  44.8265460  85.7354677  84.4570269  34.0798041  81.8737225  73.5343844
  33.7600826  81.0202534  73.2418218  33.5331470  82.0885803  74.2901812
  37.8577949  84.5899666  77.2513351  38.0763959  85.5216774  77.2701385
  38.2703723  84.2307641  78.0368155  42.7305814  80.1632872  86.6416100
  42.6302541  81.1127229  86.5728191  42.5127356  79.8351111  85.7692170
  33.9486301  85.4940137  75.5036966  33.2549773  85.0794090  74.9906920
  34.6959292  85.5360673  74.9070385  42.5937084  83.5930011  85.4581162
  42.1104166  84.3930371  85.6645051  42.6798023  83.6037956  84.5048606
  35.8623044  85.4258391  73.3802981  35.8393732  85.5246078  72.4284864
  36.1723681  86.2723541  73.7020147  38.5210422  87.4834546  77.4949595
  39.4753675  87.4518488  77.4279527  38.3222945  87.0225169  78.3099821
  39.1109804  86.0535662  80.0620393  39.9302693  86.5479740  80.0855230
  39.3846612  85.1367630  80.0337961  36.8760651  93.0254165  74.5119793
  36.7415119  92.2654566  73.9457791  36.4592713  93.7495065  74.0448582
  48.0119614  88.2091089  63.5196369  48.7155464  88.4141091  64.1354024
  47.2882262  88.7767851  63.7845452  40.0329777  93.9223482  74.7238236
  39.9162161  94.8668915  74.6216926  39.2122223  93.6197044  75.1124035
  49.9206311  88.6473618  65.5694829  50.7551915  88.2154816  65.3872303
  49.7590654  88.4755632  66.4971723  49.5752203  85.1505731  66.9351168
  49.5201007  84.9850003  65.9939612  48.9498259  85.8581764  67.0913358
  34.3644718  80.3873796  80.7612590  35.0103582  79.8772750  81.2499815
  34.1561869  81.1242477  81.3356015  46.8898110  87.4554643  86.2604731
  47.7589270  87.6295295  85.8991366  46.4104862  88.2749060  86.1380460
  41.0584291  94.5751744  77.9394164  41.9611537  94.6075354  78.2560659
  40.8321661  93.6452195  77.9540500  42.8137893  93.3282731  74.6004243
  41.8633524  93.3284592  74.4868615  43.1170379  92.5815465  74.0840278
  58.5490586  99.1643269  75.6650005  59.1868996  99.0450016  74.9613345
  58.4311429 100.1124113  75.7237957  55.3580292  99.1170697  75.6011530
  55.0198804  99.0011762  74.7132065  56.2270061  98.7161862  75.5812536
  51.2167108 100.9706174  71.5908421  50.6531973 100.8796110  70.8224709
  51.1019503 100.1506078  72.0710914  55.8400075 100.2705549  81.5597736
  55.8288716  99.8758347  80.6878239  56.0020715  99.5371621  82.1531507
  48.7631540 102.4657365  74.4292641  49.5552832 102.1248190  74.0138941
  49.0028190 102.5752340  75.3494795  56.7966667 104.6377141  66.9022886
  56.1454647 105.2231222  66.5156900  57.5911030 105.1683336  66.9617923
  50.7222294 101.7266278  67.3010020  51.4953170 101.1795265  67.1622896
  51.0747693 102.5910528  67.5124482  52.5607337 103.0542661  80.5076920
  52.2697203 103.9588291  80.3923586  53.1964321 103.0959188  81.2220989
  53.4863543 100.4319509  77.0978279  54.0827116 100.2075532  76.3835242
  53.5438515  99.6904255  77.7003727  53.0588572  97.8858944  64.9328470
  53.3114093  97.3640466  64.1711933  52.1213131  97.7225090  65.0355154
  58.1031855  96.8894723  72.7403213  58.8894944  96.4714146  72.3893630
  58.3670559  97.7940815  72.9084862  58.2741932 102.3267573  67.4391870
  57.6387765 102.4002200  68.1512775  57.9439338 102.9161172  66.7610949
  63.5040282  96.8269956  73.6436192  64.2365454  96.2569173  73.8774021
  62.7479638  96.4391556  74.0842697  52.7784861  99.7887050  67.1352845
  52.6621119  99.1131954  67.8033929  52.8887120  99.3019424  66.3184998
  55.1216402  99.2497198  70.8399534  54.7574609  98.7227819  71.5512456
  55.9783517  98.8595667  70.6666020  61.0265702  90.5391530  78.1030800
  60.6949027  91.4086941  77.8792015  60.4311316  90.2227814  78.7824831
  54.7621889  94.2787097  65.8360883  54.9296291  95.1467334  66.2031354
  54.5719058  94.4414379  64.9122172  57.5197222 102.7404076  77.5026713
  57.2197945 103.6429115  77.3942520  57.1748281 102.4736259  78.3547866
  50.9709703  99.1917873  73.5363418  50.0460200  99.0594087  73.7441109
  51.2194116  99.9712092  74.0333360  60.9194365  95.2586616  75.1824151
  60.0111243  95.1902025  74.8882912  60.8681961  95.7358561  76.0105976
  54.7411109  96.7344755  66.8207550  54.6210735  97.1801805  67.6593030
  54.0463698  97.0830072  66.2621088  48.3318514  98.8351147  74.3707207
  48.4610895  99.0885625  75.2846618  47.6515966  99.4278855  74.0511862
  52.5018001 109.5048396  70.4697681  52.4242031 110.4556222  70.5486161
  51.8979645 109.1594269  71.1272607  54.9935231  96.6776262  83.1259048
  54.2168565  97.2370182  83.1161912  55.6325794  97.1633045  83.6473918
  62.7856012  93.4603055  76.9602024  62.1430392  93.7535588  76.3141819
  62.2810940  93.3455975  77.7655221  60.4396176  97.2066228  67.6487884
  61.3514032  97.4393615  67.4735581  59.9305823  97.7903272  67.0862962
  53.2481604  99.4861715  82.6877015  53.9896288 100.0246759  82.4111838
  52.5418589 100.1128004  82.8448567  58.7236943 101.6290856  81.2849176
  59.1320299 101.1873266  80.5403809  58.0014205 101.0543483  81.5383369
  55.0768013  96.5663462  78.6582733  55.9229208  96.9902876  78.8017382
  55.0166651  95.9097087  79.3521296  59.0465758 102.1892046  75.0401465
  58.4174620 102.3537760  74.3377533  58.6591420 102.6033656  75.8112429
  62.9254990 103.1246484  72.3945829  62.2406028 103.5045386  71.8442862
  63.0098839 103.7341811  73.1277777  58.2267459  94.2267831  80.3163907
  57.9828390  94.9809891  79.7798183  58.5027389  94.6053178  81.1511154
  60.1805921 100.7706443  78.9941172  60.3922817 101.4138203  78.3175554
  60.1335670  99.9368760  78.5263103  57.7832150  93.3824264  75.8977745
  56.9216629  93.6805517  76.1894482  57.8094585  93.5994663  74.9658777
  54.5993720 101.9266454  72.3051550  55.0632065 102.2054157  71.5156173
  54.3350518 101.0249899  72.1224641  51.4917801 101.4737936  75.2431314
  52.0619158 101.9025204  74.6048798  52.0825913 101.1920521  75.9415499
  53.5362606  98.0489607  69.1141115  54.2386649  98.5010650  69.5815042
  53.2043234  97.4073426  69.7421009  51.9842967  96.6401363  83.4892325
  51.3541628  97.3217644  83.7227722  51.8779055  96.5284445  82.5445463
  47.2787940  96.3073159  74.4158249  46.4886994  96.5630688  73.9398360
  47.7699187  97.1221497  74.5210290  61.2951749 103.6478399  77.1663530
  62.1169193 103.2458586  76.8846211  61.2914152 103.5446633  78.1179646
  49.2302685  96.6717739  71.3741726  48.4333848  96.7836433  71.8925221
  49.0028277  97.0104391  70.5082616  55.0608353 103.1962442  79.3224240
  55.1252785 103.6582849  80.1582412  54.3519277 102.5659807  79.4506550
  45.5625643  96.5603650  76.8473240  45.8133681  97.4450660  77.1130816
  46.0985191  96.3808251  76.0748332  69.3857742  99.9917147  73.5148501
  68.6321451  99.4224545  73.3592506  69.5205284  99.9579812  74.4619136
  54.7756370 104.8630549  69.1903221  54.6402045 105.7082085  69.6188068
  55.3166183 105.0649827  68.4269154  51.2623710  90.9422129  85.8517576
  50.8690656  90.3888328  86.5265220  52.0789850  91.2532708  86.2424093
  48.2285768 102.3805987  69.7631146  48.7410288 103.1749238  69.9136710
  48.8808481 101.6832278  69.6964747  50.0380652 105.4971744  71.8453899
  50.2147281 106.4189708  71.6574883  50.8337486 105.1830163  72.2748279
  54.1791671  92.3580008  83.4437832  54.9201384  92.9587162  83.3642295
  54.4109594  91.6157646  82.8855875  49.3233009  97.5436376  81.7216062
  49.2086524  96.6421633  82.0223161  48.4677527  97.7900072  81.3700879
  56.4024847 105.4854116  83.3203563  55.9588701 104.6990495  83.0024467
  57.0642060 105.6733266  82.6547454  51.1611968 107.0149918  77.8464241
  51.7119393 106.8866981  77.0741235  50.3223444 107.3144807  77.4959134
  58.5006085 105.7656916  81.3484964  58.4824560 106.5865797  80.8565233
  59.4226005 105.6410991  81.5735105  54.9579139 103.2801045  82.1908472
  55.4907476 102.5189334  81.9607780  54.4293220 102.9874697  82.9332627
  46.1934685 100.7094642  70.5390716  47.0309907 101.1191650  70.3224424
  46.3712952  99.7694084  70.5090910  58.0899117  98.3769722  66.2274549
  57.5745740  99.1474327  66.4662937  57.8176425  97.7034859  66.8507611
  55.6746228  93.2219423  71.2859788  54.8187824  92.8326274  71.1065426
  56.0873179  93.3011384  70.4259573  57.2045374  90.7565766  75.6851347
  56.7010170  90.7195902  74.8719153  57.4975981  91.6658509  75.7448004
  53.4488260  90.8404496  74.6917529  54.3141257  90.6447305  74.3323419
  53.5165769  90.6114848  75.6186886  63.0633391 101.1302077  68.1627723
  62.2862834 100.7913237  67.7182885  63.7424872 101.1354700  67.4882688
  57.8785420  96.2496815  68.0534330  57.5735555  96.5642964  68.9044474
  58.8315862  96.3278234  68.0961663  56.3231852 102.4087038  69.7027284
  55.7953213 101.6739797  69.3900522  55.8219354 103.1861714  69.4567253
  61.3024698 100.6036058  74.8194331  60.6448372 101.2935320  74.9074459
  62.1065097 100.9932490  75.1628317  51.0550579  93.0706704  72.0633896
  51.6294331  92.8481886  71.3307089  51.6421562  93.1395399  72.8162497
  60.1130157  98.9580431  72.8698272  60.6262038  99.5910423  73.3719982
  60.7631380  98.3581627  72.5041632  51.3820166  95.1011165  66.0829781
  50.5457479  95.4385852  66.4039056  51.2424936  94.9660145  65.1456918
  53.3573247  89.9447953  70.7908965  52.7037659  89.6296970  70.1665580
  53.3153721  89.3223693  71.5168788  54.4684452 100.2267248  62.7062257
  53.5611514  99.9956502  62.9053406  54.9655484  99.4304867  62.8936239
  57.3752531 108.9364755  65.6258944  56.7014230 109.2396452  66.2343901
  57.7618353 109.7393836  65.2764401  56.5910987  96.4329887  75.1156613
  55.6733549  96.6544834  74.9578301  57.0071131  96.5076197  74.2568320
  57.3746035  97.8321302  70.2459293  58.1217854  98.3442699  69.9366415
  57.6437625  97.5105355  71.1063687  55.6472685 100.3279843  67.2286248
  54.7383905 100.0438876  67.3258717  55.6767769 100.7478922  66.3689554
  60.8791953 103.9386432  70.9977415  60.4254280 103.0977342  71.0542606
  60.2485919 104.5747831  71.3352195  59.8224872  94.8678419  72.2278083
  59.0847629  94.3555805  72.5588325  60.0751646  94.4278800  71.4161359
  59.3224892 105.7762929  71.9327233  59.6147866 106.3367986  71.2139599
  59.8323513 106.0691490  72.6880392  46.2160856  98.0485357  71.2101450
  46.0185256  97.4554718  70.4852516  45.6607520  97.7437567  71.9277388
  54.1957579  97.9408464  73.3296043  54.2506189  96.9882300  73.2538519
  53.3848781  98.0967903  73.8137341  55.3448773 101.8688587  64.5674326
  54.9068203 101.1524446  64.1079963  56.0859214 102.0964701  64.0059417
  52.1349939  96.5585523  71.0886422  51.3217805  96.8579694  71.4951614
  52.6308933  96.1641212  71.8060904  54.2858517 106.5543280  73.0220686
  54.2434696 106.7804127  72.0929218  55.2021216 106.3206655  73.1706488
  57.7324151  97.0227348  79.9201316  58.0873539  97.2498821  80.7795781
  58.3796282  97.3545725  79.2978571  63.4621888 100.1445784  70.6250645
  63.3239787 100.3347380  69.6971834  63.1058107 100.9065166  71.0818696
  51.6264014  94.1303879  76.7047657  52.2663393  93.9892638  76.0070620
  50.7941545  93.8438392  76.3286259  63.4891268 102.2122311  75.6361916
  63.9227774 102.1197600  76.4844970  64.2022848 102.1879811  74.9981932
  52.4024318 103.4306309  72.8182649  53.1964916 102.9356629  72.6165224
  51.6916010 102.9024172  72.4550355  57.2219162 105.8124405  77.1695017
  57.2756185 106.3815341  77.9372733  56.3533944 105.9826290  76.8049054
  48.7107081  97.5749391  68.8942402  47.7804670  97.5133846  69.1112364
  48.8064553  97.0525344  68.0979043  48.6292630  94.1004204  71.4820643
  48.8899448  95.0149537  71.3729804  49.4509803  93.6328646  71.6317256
  50.1017556  95.5141961  78.6519468  50.7740609  95.3059323  78.0032117
  49.2747342  95.3164047  78.2124700  64.3506817 102.2546011  78.1694802
  64.5442707 103.1591822  78.4154076  64.2507435 101.7953430  79.0033387
  56.0043128  92.1403902  80.6685129  55.3571043  92.8393852  80.5749605
  56.7744143  92.5740046  81.0361377  59.4121926 102.4052754  83.7435682
  59.2607432 102.1763306  82.8265766  59.4026605 103.3623356  83.7567027
  56.1807262  99.9784667  78.7281949  57.1099322 100.1295826  78.5550916
  55.7598292 100.0668688  77.8730595  54.9795594 104.0035331  76.4980486
  54.8406680 103.6354116  77.3706424  54.1910190 104.5182971  76.3264444
  55.5743746 109.1044428  67.8406023  55.7495502 108.6332471  68.6551645
  54.8876534 109.7310194  68.0687283  56.5300809 103.3816934  73.8869324
  56.1950642 103.3417704  74.7826974  56.0304755 102.7161650  73.4139734
  50.5045053  98.7884564  79.4121905  50.3664851  98.0564803  80.0133444
  51.4149977  98.6993464  79.1306093  59.4660001 100.7272968  64.1606384
  58.8489171 100.0019796  64.0639436  58.9976489 101.4882329  63.8173458
  53.1327354  98.5004523  78.9005585  53.8426972  97.8597715  78.8592203
  53.0896662  98.7517418  79.8231766  61.1214132 105.4371877  81.8212164
  61.0626679 104.7531097  81.1542747  61.5233651 106.1790867  81.3692790
  51.8456288  95.4869741  80.7201224  51.3093645  95.0360480  81.3722821
  51.2572996  95.6215650  79.9771689  50.1404831 112.2533790  74.6145883
  50.3801429 112.8852315  75.2924901  49.2974028 111.9021830  74.9011242
  51.2558547  94.9458393  63.2827688  50.3788013  94.8247193  62.9189935
  51.7316300  94.1544471  63.0306577  61.1231540 103.4011461  80.0526144
  60.2358318 103.0637382  80.1752543  61.6930091 102.6694492  80.2894909
  42.7760687  99.7335552  73.3769195  43.4631727  99.4197282  72.7890210
  42.6208815 100.6376917  73.1036447  47.5795409  94.6225749  77.8054219
  47.4953598  94.0151418  77.0704629  46.7578115  95.1134767  77.8063715
  54.6532693 108.0612913  77.0187387  54.5802865 108.8667884  77.5306691
  54.2110086 108.2604879  76.1935408  54.4422473 107.2984683  70.5290208
  53.6589995 107.8406363  70.6228433  55.1415218 107.8158663  70.9284450
  57.7519123  93.1079312  73.1724414  58.2487822  92.3549275  72.8525484
  56.9806104  93.1443629  72.6067623  65.6048880  98.8119678  74.8142705
  65.5938756  99.6944393  74.4436638  64.7366260  98.4591229  74.6197242
  57.1131377 107.9599747  79.1745546  57.8259349 108.5947212  79.1021447
  56.6221405 108.0563613  78.3585547  58.8348903 101.8651000  70.7462837
  57.9005182 101.9852462  70.5767542  59.0125572 100.9623466  70.4822847
  54.3354092  95.2496695  72.8996098  53.9651879  94.6967736  73.5877004
  54.8313184  94.6454829  72.3471098  62.2221455  97.7068319  71.2812871
  62.6881907  98.5396311  71.2073174  62.6728955  97.2413300  71.9858130
  52.1643290 105.7094190  79.9951116  52.8652750 106.3430673  80.1480511
  51.6938405 106.0508922  79.2346756  60.2897686 104.0512140  68.2799023
  60.5657530 103.9368735  69.1892897  59.4202185 103.6529625  68.2411197
  60.1938118  90.0748906  75.3203773  59.2801197  90.3053133  75.4885980
  60.6231219  90.1587350  76.1717805  59.9644576  98.2638798  77.8203667
  59.3116026  98.5114705  77.1656119  60.3424956  97.4502936  77.4866144
  56.9251750 108.2998491  71.9231837  57.1074144 107.4820147  72.3859589
  57.7484736 108.5166183  71.4856727  57.2593915 107.2266676  69.1846886
  57.7881682 106.7159131  68.5717048  57.5222135 106.9109206  70.0492419
  56.0132149  99.0058609  84.3069704  55.3372786  98.9052738  84.9772079
  56.8359783  98.8497823  84.7705701  47.7611008 105.2430545  76.9282219
  48.3464445 104.4974233  77.0610123  47.5635847 105.5534502  77.8118883
  50.6149663 108.2781793  71.9444661  49.9460039 108.7627920  71.4608702
  50.4762533 108.5251013  72.8588040  42.3528663  97.8136146  75.6486662
  42.3912762  97.2799736  76.4423780  41.8468956  97.2871351  75.0297639
  54.7554932 110.3125536  78.5427320  55.3073240 110.4757158  79.3076405
  55.0961125 110.9029974  77.8707345  49.7319425  92.6600686  79.1449205
  49.7960752  93.5215517  78.7326602  49.6686545  92.0474688  78.4121563
  49.2071698  94.7323819  82.7922239  49.8343737  94.3500896  83.4059763
  48.3499617  94.5138021  83.1577931  59.6065806 105.1386794  84.3975974
  60.1505710 105.7516752  83.9030929  59.0252651 105.6966372  84.9142987
  45.9837241  96.5400248  68.7240594  46.2790682  95.6310926  68.6707647
  45.0825276  96.5187987  68.4021596  57.8923319 108.2607512  75.5291002
  57.7674459 107.4597252  75.0201947  58.5502410 108.7553705  75.0404972
  49.5131488  94.6156244  74.7068142  48.7918073  95.2292212  74.5675616
  50.3024743  95.1514009  74.6284788  59.9558228 106.0616532  77.1570552
  59.0088563 105.9421883  77.0848879  60.3041001 105.1739030  77.2396813
  52.3157801  91.9510671  80.9808794  52.8392203  92.1972967  81.7435103
  52.0970134  92.7830706  80.5611931  47.7125082  94.2214345  68.8479919
  47.3837788  93.3411724  68.6655025  48.0664453  94.1662014  69.7356308
  56.9604661 105.8569248  73.3574904  56.8129623 104.9285956  73.5382474
  57.7858154 105.8789339  72.8731980  50.8266905  94.5087315  69.2155396
  51.1662978  95.0373237  68.4934005  51.2739026  94.8467721  69.9913963
  60.5638783 106.6797807  74.4439777  61.4885330 106.4740668  74.3064228
  60.3954086 106.4314208  75.3529119  53.5210346  92.8924366  78.6658464
  53.1807166  92.0932179  79.0679144  52.8149352  93.1926077  78.0935298
  54.1726818  89.9773678  77.1185788  54.9952887  89.5034157  76.9964678
  54.4164881  90.7564162  77.6184474  52.8135052  93.0061937  67.4148689
  53.5343415  93.3843190  66.9112406  52.1900357  93.7250814  67.5183667
  56.9566175  93.7107086  68.3507022  57.1729790  94.5931724  68.0495850
  56.4760242  93.3193299  67.6212664  51.6965397  96.6692799  74.9277766
  51.5509977  96.9833102  75.8202048  51.2190600  97.2877699  74.3748665
  53.5561780  93.6595347  74.9758656  53.5423348  92.7636440  74.6390954
  54.2734208  93.6666011  75.6096942  55.4087910  94.0932687  77.0211783
  55.1505688  95.0149758  77.0196114  54.8772951  93.6963122  77.7112247
  60.3534099 107.1983474  69.8001869  60.5270977 106.6329897  69.0475721
  60.8462990 107.9984369  69.6181358  46.1711059  99.2098143  77.8665427
  45.6264527  99.9857951  77.9985702  47.0490409  99.5568948  77.7084549
  52.9598675  92.5409727  70.2446226  53.0814587  91.6126374  70.4437113
  52.6700718  92.5548413  69.3324541  55.8289866  90.2264638  73.3812946
  55.8511563  90.2903971  72.4264925  56.2457925  89.3869146  73.5753452
  66.2073490  99.9619897  71.4192168  66.6504636  99.2127223  71.0211292
  65.3300000  99.9530034  71.0365900  61.3409271 106.5150239  66.8998767
  62.0360176 107.1356931  67.1186081  61.6832422 105.6645590  67.1751145
  46.9577081  98.3368040  80.7595584  46.2158817  98.4850675  81.3460215
  46.6369825  98.5976305  79.8962334  63.2400695 103.9649944  68.4286098
  63.7652019 104.3037217  67.7035418  63.1523047 103.0296960  68.2449232
  54.9020743 107.8784018  80.5575974  55.2107870 107.6333165  81.4298674
  55.6996225 108.0830656  80.0694844  54.9241355 110.0321928  72.7881351
  54.4846346 109.5398306  73.4814207  55.6749472 109.4894895  72.5473426
  47.4033694 106.2233468  72.7905979  48.2291714 105.9237240  72.4104622
  47.0527746 105.4541091  73.2395767  52.3715228 105.5759937  74.8603652
  51.7495237 104.9130642  74.5605880  53.0420094 105.6021069  74.1777300
  45.6042299 104.1419795  73.7494912  44.7674208 103.7141969  73.5678914
  45.5765945 104.3352238  74.6865704  52.4439755  94.0541725  84.4536158
  52.4927910  94.9303848  84.0713928  52.9862269  93.5119118  83.8807802
  62.9294601 104.5982848  83.7337296  62.1390144 104.5806987  83.1941795
  62.6927955 105.1371142  84.4886332  63.0492476 101.4475314  81.0470024
  63.0990481 101.2825322  81.9885547  62.9406399 100.5802573  80.6567905
  51.9328734 104.1263860  68.3362113  52.0816855 104.8099324  67.6828786
  52.7395178 104.1068950  68.8511569  60.3396238  97.4306242  82.3629331
  61.2406101  97.2912707  82.0713329  60.4144213  97.5960697  83.3027508
  54.6739043  94.8073097  81.2082517  53.8042353  95.1006663  80.9365106
  54.9098524  95.3913542  81.9289781  64.5510673 103.8672256  81.2912046
  64.2595481 104.2302236  82.1275507  63.9382804 103.1539264  81.1125378
  65.7506355 101.4325136  73.8114616  66.5853246 101.8714940  73.9752176
  65.8865484 100.9563789  72.9922862  62.7997861  98.9904870  79.7592104
  63.2751982  99.1832517  78.9510955  61.8763426  99.0464056  79.5135487
  49.6881367 100.1529038  69.3423182  49.4427409  99.2491368  69.5403392
  49.8577282 100.1546188  68.4002660  57.3778077  91.0252714  78.7247937
  57.8960021  91.7613741  78.3994426  57.0233210  91.3316707  79.5594697
  48.9577015  95.8857395  66.8409343  48.2646260  95.9601750  66.1849379
  48.7128767  95.1217739  67.3630860  55.4324140 106.6211990  65.8073860
  54.8598107 107.2402178  65.3544332  56.0056934 107.1711352  66.3413782
  61.4999530  95.8670631  77.9920409  62.4516953  95.9668728  78.0132633
  61.3302980  95.0748899  78.5018494  59.5213909  92.9526214  78.1779810
  58.9263841  93.2331226  77.4826299  59.2363606  93.4420115  78.9496551
  58.6521400 106.9049141  66.9382443  59.5852073 106.8394702  67.1415318
  58.5644613 107.7405407  66.4796975  61.2809416 106.2215011  63.8986390
  61.2023048 105.8874875  64.7922148  62.1019083 106.7136779  63.8977863
  63.9787608  99.0876750  77.1062709  63.9463928  98.1492751  77.2922393
  64.5888231  99.1660787  76.3728534  55.8170938  97.9572803  63.1489913
  56.7630043  97.8279011  63.2178331  55.4385183  97.2187465  63.6259341
  64.1282096  95.8787794  77.1520992  63.6121145  95.0946250  76.9650921
  65.0122045  95.5506510  77.3167511  69.7964157 100.1492757  76.2468746
  70.5267546  99.8878045  76.8076449  69.1871103  99.4121479  76.2870814
  67.8779455  98.2900620  76.8443197  67.1512618  98.1556585  76.2359688
  67.4626741  98.5977448  77.6499915  55.7009631 102.0090549  84.6090570
  56.6212640 102.1869148  84.8030616  55.6659214 101.0646595  84.4570269
  54.0013856  95.8822780  63.0844798  53.0945311  95.5855892  63.1607512
  54.2789837  95.5852598  62.2179084  44.9191796  97.2029143  73.5343844
  44.5994580  96.3494451  73.2418218  44.3725224  97.4177721  74.2901812
  48.6971704  99.9191584  77.2513351  48.9157713 100.8508692  77.2701385
  49.1097477  99.5599558  78.0368155  53.5699569  95.4924790  86.6416100
  53.4696296  96.4419147  86.5728191  53.3521111  95.1643029  85.7692170
  52.7712640  92.7409715  63.2256777  53.6331804  93.0664613  63.4852595
  52.9562984  91.9541211  62.7129843  44.7880056 100.8232055  75.5036966
  44.0943527 100.4086007  74.9906920  45.5353047 100.8652591  74.9070385
  60.9245277  91.6138241  70.3692000  60.3443946  92.2723045  69.9870053
  60.6581209  90.7915586  69.9579418  59.3748843  91.0143299  72.5713321
  59.8748621  91.1259834  71.7627639  60.0184451  90.7104352  73.2114129
  53.4330839  98.9221929  85.4581162  52.9497921  99.7222289  85.6645051
  53.5191778  98.9329873  84.5048606  46.7016799 100.7550308  73.3802981
  46.6787487 100.8537996  72.4284864  47.0117435 101.6015459  73.7020147
  49.3604176 102.8126463  77.4949595  50.3147430 102.7810406  77.4279527
  49.1616700 102.3517087  78.3099821  49.9503559 101.3827579  80.0620393
  50.7696448 101.8771658  80.0855230  50.2240366 100.4659548  80.0337961
  59.7070155  93.7738332  69.4248349  58.8196010  94.0587982  69.2068543
  60.1224144  93.6132095  68.5775625  63.0584691  93.7984853  73.1402688
  63.8345081  94.2881305  73.4127305  62.3332825  94.2242907  73.5974557
  65.4957249  94.5112472  74.1976628  66.0901740  94.2708208  73.4869937
  65.5683833  93.7919602  74.8250165  47.7154405 108.3546083  74.5119793
  47.5808873 107.5946484  73.9457791  47.2986467 109.0786983  74.0448582
  58.8513368 103.5383006  63.5196369  59.5549218 103.7433009  64.1354024
  58.1276017 104.1059768  63.7845452  59.6811178  99.2892868  69.6398639
  59.6246380  99.7461419  68.8006271  60.2339521  98.5283552  69.4621481
  63.4915984  95.0782599  70.4648758  63.2352919  94.6779235  71.2956966
  62.8668852  95.7926393  70.3398897  67.8028322  97.8178673  72.9720050
  67.2427880  97.8871862  73.7451612  67.1971826  97.6419657  72.2519546
  50.8723531 109.2515400  74.7238236  50.7555915 110.1960832  74.6216926
  50.0515977 108.9488961  75.1124035  60.7600066 103.9765536  65.5694829
  61.5945670 103.5446734  65.3872303  60.5984409 103.8047549  66.4971723
  60.4145958 100.4797649  66.9351168  60.3594762 100.3141920  65.9939612
  59.7892013 101.1873682  67.0913358  45.2038473  95.7165713  80.7612590
  45.8497336  95.2064667  81.2499815  44.9955624  96.4534395  81.3356015
  57.7291865 102.7846561  86.2604731  58.5983025 102.9587213  85.8991366
  57.2498616 103.6040978  86.1380460  51.8978045 109.9043662  77.9394164
  52.8005292 109.9367272  78.2560659  51.6715415 108.9744113  77.9540500
  53.6531647 108.6574648  74.6004243  52.7027278 108.6576510  74.4868615
  53.9564133 107.9107383  74.0840278  49.5435964  92.8633330  84.8587604
  50.4067425  92.5070135  85.0690929  48.9701374  92.5247225  85.5463009
  69.3884341 114.4935187  75.6650005  70.0262751 114.3741934  74.9613345
  69.2705184 115.4416031  75.7237957  66.1974047 114.4462615  75.6011530
  65.8592558 114.3303679  74.7132065  67.0663815 114.0453780  75.5812536
  62.0560863 116.2998091  71.5908421  61.4925728 116.2088028  70.8224709
  61.9413258 115.4797996  72.0710914  66.6793830 115.5997466  81.5597736
  66.6682471 115.2050265  80.6878239  66.8414469 114.8663539  82.1531507
  59.6025295 117.7949283  74.4292641  60.3946587 117.4540107  74.0138941
  59.8421945 117.9044258  75.3494795  67.6360421 119.9669059  66.9022886
  66.9848401 120.5523139  66.5156900  68.4304784 120.4975254  66.9617923
  61.5616049 117.0558196  67.3010020  62.3346925 116.5087183  67.1622896
  61.9141447 117.9202445  67.5124482  63.4001091 118.3834578  80.5076920
  63.1090957 119.2880209  80.3923586  64.0358075 118.4251106  81.2220989
  64.3257298 115.7611427  77.0978279  64.9220870 115.5367449  76.3835242
  64.3832269 115.0196172  77.7003727  63.8982326 113.2150862  64.9328470
  64.1507847 112.6932383  64.1711933  62.9606885 113.0517008  65.0355154
  68.9425609 112.2186641  72.7403213  69.7288698 111.8006064  72.3893630
  69.2064313 113.1232733  72.9084862  69.1135687 117.6559491  67.4391870
  68.4781519 117.7294117  68.1512775  68.7833093 118.2453090  66.7610949
  74.3434036 112.1561874  73.6436192  75.0759208 111.5861091  73.8774021
  73.5873392 111.7683474  74.0842697  63.6178615 115.1178968  67.1352845
  63.5014873 114.4423871  67.8033929  63.7280875 114.6311342  66.3184998
  65.9610156 114.5789115  70.8399534  65.5968363 114.0519736  71.5512456
  66.8177272 114.1887584  70.6666020  71.8659457 105.8683448  78.1030800
  71.5342781 106.7378859  77.8792015  71.2705070 105.5519732  78.7824831
  65.6015643 109.6079015  65.8360883  65.7690045 110.4759251  66.2031354
  65.4112812 109.7706297  64.9122172  68.3590976 118.0695994  77.5026713
  68.0591699 118.9721033  77.3942520  68.0142036 117.8028177  78.3547866
  61.8103458 114.5209791  73.5363418  60.8853954 114.3886005  73.7441109
  62.0587871 115.3004010  74.0333360  71.7588120 110.5878534  75.1824151
  70.8504997 110.5193942  74.8882912  71.7075716 111.0650479  76.0105976
  65.5804864 112.0636672  66.8207550  65.4604489 112.5093723  67.6593030
  64.8857452 112.4121990  66.2621088  59.1712269 114.1643064  74.3707207
  59.3004650 114.4177543  75.2846618  58.4909720 114.7570772  74.0511862
  63.3411756 124.8340314  70.4697681  63.2635786 125.7848139  70.5486161
  62.7373400 124.4886187  71.1272607  65.8328986 112.0068180  83.1259048
  65.0562320 112.5662100  83.1161912  66.4719549 112.4924963  83.6473918
  73.6249766 108.7894972  76.9602024  72.9824147 109.0827506  76.3141819
  73.1204695 108.6747893  77.7655221  71.2789930 112.5358146  67.6487884
  72.1907786 112.7685532  67.4735581  70.7699577 113.1195190  67.0862962
  64.0875358 114.8153633  82.6877015  64.8290042 115.3538677  82.4111838
  63.3812344 115.4419922  82.8448567  69.5630698 116.9582773  81.2849176
  69.9714054 116.5165184  80.5403809  68.8407959 116.3835401  81.5383369
  65.9161768 111.8955380  78.6582733  66.7622963 112.3194794  78.8017382
  65.8560405 111.2389004  79.3521296  69.8859512 117.5183964  75.0401465
  69.2568375 117.6829678  74.3377533  69.4985174 117.9325574  75.8112429
  73.7648744 118.4538402  72.3945829  73.0799782 118.8337303  71.8442862
  73.8492594 119.0633729  73.1277777  69.0661213 109.5559749  80.3163907
  68.8222145 110.3101809  79.7798183  69.3421144 109.9345096  81.1511154
  71.0199676 116.0998361  78.9941172  71.2316571 116.7430121  78.3175554
  70.9729424 115.2660677  78.5263103  68.6225905 108.7116182  75.8977745
  67.7610384 109.0097435  76.1894482  68.6488339 108.9286580  74.9658777
  65.4387474 117.2558372  72.3051550  65.9025820 117.5346075  71.5156173
  65.1744272 116.3541817  72.1224641  62.3311555 116.8029854  75.2431314
  62.9012912 117.2317122  74.6048798  62.9219667 116.5212438  75.9415499
  64.3756360 113.3781524  69.1141115  65.0780404 113.8302568  69.5815042
  64.0436989 112.7365343  69.7421009  62.8236722 111.9693281  83.4892325
  62.1935382 112.6509562  83.7227722  62.7172810 111.8576363  82.5445463
  58.1181694 111.6365077  74.4158249  57.3280748 111.8922606  73.9398360
  58.6092942 112.4513415  74.5210290  72.1345504 118.9770316  77.1663530
  72.9562948 118.5750504  76.8846211  72.1307907 118.8738550  78.1179646
  60.0696440 112.0009656  71.3741726  59.2727603 112.1128351  71.8925221
  59.8422032 112.3396309  70.5082616  65.9002107 118.5254360  79.3224240
  65.9646540 118.9874767  80.1582412  65.1913031 117.8951725  79.4506550
  56.4019397 111.8895568  76.8473240  56.6527436 112.7742578  77.1130816
  56.9378946 111.7100169  76.0748332  80.2251497 115.3209065  73.5148501
  79.4715205 114.7516463  73.3592506  80.3599038 115.2871729  74.4619136
  65.6150125 120.1922467  69.1903221  65.4795800 121.0374003  69.6188068
  66.1559937 120.3941745  68.4269154  62.1017465 106.2714047  85.8517576
  61.7084410 105.7180246  86.5265220  62.9183605 106.5824625  86.2424093
  59.0679522 117.7097905  69.7631146  59.5804043 118.5041155  69.9136710
  59.7202235 117.0124196  69.6964747  60.8774407 120.8263661  71.8453899
  61.0541035 121.7481626  71.6574883  61.6731241 120.5122081  72.2748279
  65.0185426 107.6871926  83.4437832  65.7595139 108.2879079  83.3642295
  65.2503348 106.9449564  82.8855875  60.1626764 112.8728293  81.7216062
  60.0480279 111.9713551  82.0223161  59.3071281 113.1191990  81.3700879
  67.2418601 120.8146034  83.3203563  66.7982455 120.0282412  83.0024467
  67.9035815 121.0025184  82.6547454  62.0005722 122.3441835  77.8464241
  62.5513148 122.2158899  77.0741235  61.1617198 122.6436724  77.4959134
  69.3399839 121.0948834  81.3484964  69.3218315 121.9157715  80.8565233
  70.2619759 120.9702909  81.5735105  65.7972894 118.6092963  82.1908472
  66.3301230 117.8481251  81.9607780  65.2686975 118.3166615  82.9332627
  68.9642588 103.7153029  77.7202114  68.6206858 104.6054671  77.6441225
  69.3321551 103.5254687  76.8571699  57.0328439 116.0386559  70.5390716
  57.8703661 116.4483568  70.3224424  57.2106707 115.0986002  70.5090910
  68.9292871 113.7061640  66.2274549  68.4139495 114.4766245  66.4662937
  68.6570180 113.0326776  66.8507611  66.5139982 108.5511341  71.2859788
  65.6581579 108.1618191  71.1065426  66.9266934 108.6303302  70.4259573
  68.0439129 106.0857684  75.6851347  67.5403924 106.0487819  74.8719153
  68.3369736 106.9950427  75.7448004  64.2882015 106.1696414  74.6917529
  65.1535012 105.9739223  74.3323419  64.3559524 105.9406766  75.6186886
  73.9027145 116.4593995  68.1627723  73.1256588 116.1205154  67.7182885
  74.5818626 116.4646618  67.4882688  68.7179174 111.5788732  68.0534330
  68.4129310 111.8934881  68.9044474  69.6709616 111.6570152  68.0961663
  67.1625606 117.7378956  69.7027284  66.6346968 117.0031715  69.3900522
  66.6613109 118.5153632  69.4567253  72.1418452 115.9327976  74.8194331
  71.4842127 116.6227237  74.9074459  72.9458851 116.3224408  75.1628317
  61.8944334 108.3998622  72.0633896  62.4688086 108.1773803  71.3307089
  62.4815316 108.4687316  72.8162497  70.9523911 114.2872349  72.8698272
  71.4655793 114.9202341  73.3719982  71.6025135 113.6873544  72.5041632
  62.2213921 110.4303083  66.0829781  61.3851233 110.7677769  66.4039056
  62.0818691 110.2952063  65.1456918  64.1967002 105.2739871  70.7908965
  63.5431414 104.9588888  70.1665580  64.1547476 104.6515611  71.5168788
  65.3078206 115.5559166  62.7062257  64.4005268 115.3248419  62.9053406
  65.8049238 114.7596785  62.8936239  68.2146285 124.2656673  65.6258944
  67.5407984 124.5688370  66.2343901  68.6012107 125.0685753  65.2764401
  67.4304742 111.7621804  75.1156613  66.5127303 111.9836751  74.9578301
  67.8464886 111.8368115  74.2568320  68.2139790 113.1613220  70.2459293
  68.9611609 113.6734617  69.9366415  68.4831379 112.8397273  71.1063687
  66.4866440 115.6571761  67.2286248  65.5777659 115.3730793  67.3258717
  66.5161524 116.0770839  66.3689554  71.7185707 119.2678350  70.9977415
  71.2648034 118.4269260  71.0542606  71.0879674 119.9039749  71.3352195
  70.6618627 110.1970336  72.2278083  69.9241384 109.6847722  72.5588325
  70.9145400 109.7570718  71.4161359  70.1618646 121.1054847  71.9327233
  70.4541621 121.6659904  71.2139599  70.6717267 121.3983408  72.6880392
  70.7630254 102.9746588  72.8219852  71.0689131 102.1143952  72.5345767
  71.4882859 103.5664208  72.6218846  57.0554610 113.3777275  71.2101450
  56.8579010 112.7846635  70.4852516  56.5001274 113.0729485  71.9277388
  65.0351334 113.2700381  73.3296043  65.0899944 112.3174218  73.2538519
  64.2242536 113.4259820  73.8137341  66.1842528 117.1980504  64.5674326
  65.7461958 116.4816363  64.1079963  66.9252968 117.4256619  64.0059417
  62.9743694 111.8877441  71.0886422  62.1611559 112.1871612  71.4951614
  63.4702688 111.4933130  71.8060904  65.1252272 121.8835198  73.0220686
  65.0828450 122.1096044  72.0929218  66.0414971 121.6498573  73.1706488
  68.5717905 112.3519265  79.9201316  68.9267293 112.5790739  80.7795781
  69.2190037 112.6837642  79.2978571  74.3015642 115.4737701  70.6250645
  74.1633541 115.6639297  69.6971834  73.9451861 116.2357084  71.0818696
  62.4657769 109.4595797  76.7047657  63.1057148 109.3184556  76.0070620
  61.6335299 109.1730310  76.3286259  74.3285022 117.5414228  75.6361916
  74.7621529 117.4489517  76.4844970  75.0416603 117.5171729  74.9981932
  63.2418072 118.7598227  72.8182649  64.0358671 118.2648547  72.6165224
  62.5309765 118.2316090  72.4550355  68.0612917 121.1416322  77.1695017
  68.1149939 121.7107259  77.9372733  67.1927698 121.3118208  76.8049054
  59.5500836 112.9041309  68.8942402  58.6198424 112.8425764  69.1112364
  59.6458308 112.3817261  68.0979043  59.4686385 109.4296122  71.4820643
  59.7293202 110.3441455  71.3729804  60.2903557 108.9620564  71.6317256
  60.9411310 110.8433879  78.6519468  61.6134364 110.6351241  78.0032117
  60.1141097 110.6455965  78.2124700  75.1900572 117.5837929  78.1694802
  75.3836462 118.4883740  78.4154076  75.0901190 117.1245348  79.0033387
  66.8436882 107.4695820  80.6685129  66.1964797 108.1685769  80.5749605
  67.6137898 107.9031964  81.0361377  70.2515680 117.7344672  83.7435682
  70.1001187 117.5055223  82.8265766  70.2420360 118.6915273  83.7567027
  67.0201017 115.3076585  78.7281949  67.9493077 115.4587744  78.5550916
  66.5992047 115.3960605  77.8730595  65.8189348 119.3327249  76.4980486
  65.6800434 118.9646033  77.3706424  65.0303945 119.8474888  76.3264444
  66.4137500 124.4336345  67.8406023  66.5889256 123.9624389  68.6551645
  65.7270288 125.0602112  68.0687283  67.3694564 118.7108852  73.8869324
  67.0344396 118.6709622  74.7826974  66.8698509 118.0453568  73.4139734
  61.3438808 114.1176482  79.4121905  61.2058605 113.3856720  80.0133444
  62.2543731 114.0285382  79.1306093  70.3053755 116.0564886  64.1606384
  69.6882926 115.3311714  64.0639436  69.8370244 116.8174246  63.8173458
  63.9721108 113.8296441  78.9005585  64.6820727 113.1889633  78.8592203
  63.9290416 114.0809336  79.8231766  71.9607887 120.7663794  81.8212164
  71.9020433 120.0823014  81.1542747  72.3627405 121.5082784  81.3692790
  62.6850042 110.8161659  80.7201224  62.1487399 110.3652397  81.3722821
  62.0966751 110.9507568  79.9771689  62.0952301 110.2750310  63.2827688
  61.2181767 110.1539111  62.9189935  62.5710054 109.4836389  63.0306577
  71.9625294 118.7303378  80.0526144  71.0752073 118.3929300  80.1752543
  72.5323845 117.9986409  80.2894909  53.6154441 115.0627470  73.3769195
  54.3025481 114.7489200  72.7890210  53.4602570 115.9668835  73.1036447
  58.4189163 109.9517667  77.8054219  58.3347352 109.3443336  77.0704629
  57.5971870 110.4426685  77.8063715  65.4926448 123.3904831  77.0187387
  65.4196619 124.1959802  77.5306691  65.0503841 123.5896796  76.1935408
  65.2816227 122.6276601  70.5290208  64.4983749 123.1698281  70.6228433
  65.9808972 123.1450580  70.9284450  68.5912877 108.4371230  73.1724414
  69.0881577 107.6841192  72.8525484  67.8199859 108.4735547  72.6067623
  76.4442635 114.1411596  74.8142705  76.4332511 115.0236311  74.4436638
  75.5760014 113.7883146  74.6197242  67.9525131 123.2891665  79.1745546
  68.6653103 123.9239129  79.1021447  67.4615160 123.3855531  78.3585547
  69.6742658 117.1942917  70.7462837  68.7398937 117.3144380  70.5767542
  69.8519326 116.2915384  70.4822847  65.1747846 110.5788613  72.8996098
  64.8045634 110.0259653  73.5877004  65.6706939 109.9746747  72.3471098
  73.0615209 113.0360237  71.2812871  73.5275662 113.8688228  71.2073174
  73.5122710 112.5705218  71.9858130  63.0037045 121.0386108  79.9951116
  63.7046504 121.6722591  80.1480511  62.5332160 121.3800840  79.2346756
  71.1291440 119.3804058  68.2799023  71.4051284 119.2660652  69.1892897
  70.2595939 118.9821543  68.2411197  71.0331872 105.4040824  75.3203773
  70.1194952 105.6345050  75.4885980  71.4624974 105.4879268  76.1717805
  70.8038331 113.5930716  77.8203667  70.1509781 113.8406623  77.1656119
  71.1818710 112.7794854  77.4866144  67.7645504 123.6290409  71.9231837
  67.9467899 122.8112065  72.3859589  68.5878490 123.8458101  71.4856727
  68.0987670 122.5558594  69.1846886  68.6275436 122.0451048  68.5717048
  68.3615890 122.2401124  70.0492419  66.8525904 114.3350527  84.3069704
  66.1766541 114.2344656  84.9772079  67.6753537 114.1789740  84.7705701
  58.6004763 120.5722463  76.9282219  59.1858199 119.8266151  77.0610123
  58.4029601 120.8826420  77.8118883  61.4543418 123.6073711  71.9444661
  60.7853793 124.0919838  71.4608702  61.3156288 123.8542931  72.8588040
  53.1922417 113.1428063  75.6486662  53.2306517 112.6091654  76.4423780
  52.6862710 112.6163269  75.0297639  65.5948686 125.6417454  78.5427320
  66.1466995 125.8049076  79.3076405  65.9354880 126.2321892  77.8707345
  60.5713180 107.9892604  79.1449205  60.6354506 108.8507435  78.7326602
  60.5080300 107.3766606  78.4121563  60.0465452 110.0615736  82.7922239
  60.6737491 109.6792814  83.4059763  59.1893371 109.8429938  83.1577931
  70.4459561 120.4678712  84.3975974  70.9899465 121.0808670  83.9030929
  69.8646406 121.0258290  84.9142987  56.8230995 111.8692166  68.7240594
  57.1184436 110.9602844  68.6707647  55.9219031 111.8479905  68.4021596
  68.7317074 123.5899430  75.5291002  68.6068213 122.7889169  75.0201947
  69.3896165 124.0845623  75.0404972  60.3525242 109.9448162  74.7068142
  59.6311828 110.5584130  74.5675616  61.1418498 110.4805927  74.6284788
  70.7951982 121.3908450  77.1570552  69.8482318 121.2713801  77.0848879
  71.1434755 120.5030948  77.2396813  63.1551556 107.2802589  80.9808794
  63.6785957 107.5264885  81.7435103  62.9363889 108.1122623  80.5611931
  58.5518837 109.5506263  68.8479919  58.2231543 108.6703642  68.6655025
  58.9058207 109.4953932  69.7356308  67.7998415 121.1861166  73.3574904
  67.6523378 120.2577873  73.5382474  68.6251909 121.2081257  72.8731980
  61.6660660 109.8379233  69.2155396  62.0056732 110.3665154  68.4934005
  62.1132780 110.1759639  69.9913963  71.4032537 122.0089725  74.4439777
  72.3279085 121.8032586  74.3064228  71.2347841 121.7606126  75.3529119
  64.3604101 108.2216284  78.6658464  64.0200921 107.4224097  79.0679144
  63.6543107 108.5217995  78.0935298  65.0120572 105.3065596  77.1185788
  65.8346642 104.8326074  76.9964678  65.2558636 106.0856080  77.6184474
  63.6528807 108.3353855  67.4148689  64.3737169 108.7135107  66.9112406
  63.0294111 109.0542731  67.5183667  67.7959930 109.0399004  68.3507022
  68.0123544 109.9223641  68.0495850  67.3153997 108.6485217  67.6212664
  62.5359151 111.9984717  74.9277766  62.3903732 112.3125020  75.8202048
  62.0584355 112.6169617  74.3748665  64.3955534 108.9887265  74.9758656
  64.3817103 108.0928358  74.6390954  65.1127962 108.9957928  75.6096942
  66.2481665 109.4224605  77.0211783  65.9899443 110.3441676  77.0196114
  65.7166705 109.0255039  77.7112247  71.1927854 122.5275392  69.8001869
  71.3664731 121.9621815  69.0475721  71.6856745 123.3276287  69.6181358
  57.0104813 114.5390061  77.8665427  56.4658281 115.3149869  77.9985702
  57.8884163 114.8860866  77.7084549  63.7992430 107.8701645  70.2446226
  63.9208341 106.9418291  70.4437113  63.5094472 107.8840331  69.3324541
  66.6683620 105.5556555  73.3812946  66.6905317 105.6195889  72.4264925
  67.0851679 104.7161064  73.5753452  77.0467245 115.2911815  71.4192168
  77.4898391 114.5419140  71.0211292  76.1693755 115.2821951  71.0365900
  72.1803026 121.8442156  66.8998767  72.8753931 122.4648849  67.1186081
  72.5226176 120.9937508  67.1751145  57.7970835 113.6659957  80.7595584
  57.0552571 113.8142593  81.3460215  57.4763579 113.9268223  79.8962334
  74.0794449 119.2941862  68.4286098  74.6045773 119.6329135  67.7035418
  73.9916802 118.3588877  68.2449232  65.7414498 123.2075936  80.5575974
  66.0501624 122.9625082  81.4298674  66.5389980 123.4122574  80.0694844
  65.7635110 125.3613845  72.7881351  65.3240100 124.8690224  73.4814207
  66.5143227 124.8186813  72.5473426  58.2427449 121.5525386  72.7905979
  59.0685469 121.2529158  72.4104622  57.8921501 120.7833009  73.2395767
  63.2108982 120.9051854  74.8603652  62.5888991 120.2422559  74.5605880
  63.8813849 120.9312986  74.1777300  56.4436054 119.4711713  73.7494912
  55.6067962 119.0433887  73.5678914  56.4159699 119.6644156  74.6865704
  63.2833509 109.3833642  84.4536158  63.3321665 110.2595765  84.0713928
  63.8256024 108.8411035  83.8807802  73.7688355 119.9274766  83.7337296
  72.9783899 119.9098904  83.1941795  73.5321710 120.4663059  84.4886332
  73.8886230 116.7767232  81.0470024  73.9384235 116.6117239  81.9885547
  73.7800154 115.9094491  80.6567905  62.7722489 119.4555778  68.3362113
  62.9210609 120.1391242  67.6828786  63.5788932 119.4360868  68.8511569
  71.1789993 112.7598160  82.3629331  72.0799855 112.6204625  82.0713329
  71.2537967 112.9252615  83.3027508  65.5132798 110.1365015  81.2082517
  64.6436107 110.4298581  80.9365106  65.7492278 110.7205460  81.9289781
  75.3904427 119.1964174  81.2912046  75.0989235 119.5594154  82.1275507
  74.7776558 118.4831182  81.1125378  76.5900109 116.7617053  73.8114616
  77.4247001 117.2006857  73.9752176  76.7259238 116.2855707  72.9922862
  73.6391615 114.3196788  79.7592104  74.1145737 114.5124434  78.9510955
  72.7157181 114.3755974  79.5135487  60.5275122 115.4820955  69.3423182
  60.2821164 114.5783285  69.5403392  60.6971036 115.4838106  68.4002660
  68.2171832 106.3544632  78.7247937  68.7353776 107.0905659  78.3994426
  67.8626965 106.6608625  79.5594697  59.7970769 111.2149313  66.8409343
  59.1040014 111.2893668  66.1849379  59.5522521 110.4509657  67.3630860
  68.4684426 102.7744914  74.2448834  68.7486180 102.1068103  74.8709261
  69.2535033 102.9674010  73.7323498  66.2717894 121.9503908  65.8073860
  65.6991862 122.5694095  65.3544332  66.8450688 122.5003270  66.3413782
  72.3393284 111.1962548  77.9920409  73.2910707 111.2960646  78.0132633
  72.1696735 110.4040817  78.5018494  70.3607664 108.2818131  78.1779810
  69.7657596 108.5623144  77.4826299  70.0757360 108.7712032  78.9496551
  69.4915154 122.2341058  66.9382443  70.4245827 122.1686620  67.1415318
  69.4038367 123.0697325  66.4796975  72.1203171 121.5506929  63.8986390
  72.0416802 121.2166792  64.7922148  72.9412838 122.0428697  63.8977863
  74.8181362 114.4168668  77.1062709  74.7857682 113.4784669  77.2922393
  75.4281986 114.4952705  76.3728534  66.6564693 113.2864721  63.1489913
  67.6023798 113.1570929  63.2178331  66.2778938 112.5479383  63.6259341
  74.9675851 111.2079711  77.1520992  74.4514899 110.4238168  76.9650921
  75.8515799 110.8798428  77.3167511  72.6286577 104.9520727  73.1116805
  72.4311399 104.6435815  73.9960137  73.2386283 105.6782366  73.2414735
  80.6357912 115.4784675  76.2468746  81.3661300 115.2169963  76.8076449
  80.0264857 114.7413397  76.2870814  78.7173209 113.6192537  76.8443197
  77.9906373 113.4848502  76.2359688  78.3020496 113.9269366  77.6499915
  66.5403385 117.3382467  84.6090570  67.4606395 117.5161066  84.8030616
  66.5052969 116.3938512  84.4570269  64.8407610 111.2114697  63.0844798
  63.9339065 110.9147810  63.1607512  65.1183591 110.9144515  62.2179084
  55.7585550 112.5321061  73.5343844  55.4388335 111.6786369  73.2418218
  55.2118979 112.7469639  74.2901812  59.5365458 115.2483502  77.2513351
  59.7551468 116.1800610  77.2701385  59.9491232 114.8891476  78.0368155
  66.4569676 105.7551587  69.2389039  65.6470404 105.4098672  69.6144285
  67.1454093 105.4459131  69.8276651  68.3860224 104.8329634  70.8613336
  68.9391263 105.2525087  71.5203359  68.6230310 103.9065382  70.9036292
  64.4093323 110.8216707  86.6416100  64.3090050 111.7711064  86.5728191
  64.1914865 110.4934946  85.7692170  63.6106395 108.0701633  63.2256777
  64.4725559 108.3956531  63.4852595  63.7956739 107.2833128  62.7129843
  55.6273810 116.1523972  75.5036966  54.9337282 115.7377925  74.9906920
  56.3746801 116.1944509  74.9070385  71.7639031 106.9430159  70.3692000
  71.1837700 107.6014963  69.9870053  71.4974964 106.1207504  69.9579418
  70.2142598 106.3435217  72.5713321  70.7142376 106.4551751  71.7627639
  70.8578205 106.0396270  73.2114129  64.2724593 114.2513846  85.4581162
  63.7891675 115.0514206  85.6645051  64.3585532 114.2621791  84.5048606
  57.5410553 116.0842226  73.3802981  57.5181241 116.1829913  72.4284864
  57.8511189 116.9307377  73.7020147  60.1997931 118.1418381  77.4949595
  61.1541184 118.1102323  77.4279527  60.0010454 117.6809005  78.3099821
  60.7897313 116.7119497  80.0620393  61.6090202 117.2063576  80.0855230
  61.0634121 115.7951465  80.0337961  70.5463909 109.1030249  69.4248349
  69.6589764 109.3879900  69.2068543  70.9617898 108.9424013  68.5775625
  73.8978445 109.1276770  73.1402688  74.6738835 109.6173223  73.4127305
  73.1726580 109.5534825  73.5974557  76.3351004 109.8404390  74.1976628
  76.9295495 109.6000126  73.4869937  76.4077588 109.1211520  74.8250165
  69.6907123 118.8674924  63.5196369  70.3942973 119.0724927  64.1354024
  68.9669771 119.4351686  63.7845452  70.5204933 114.6184785  69.6398639
  70.4640134 115.0753337  68.8006271  71.0733275 113.8575470  69.4621481
  74.3309739 110.4074517  70.4648758  74.0746673 110.0071153  71.2956966
  73.7062607 111.1218311  70.3398897  78.6422077 113.1470590  72.9720050
  78.0821635 113.2163780  73.7451612  78.0365580 112.9711575  72.2519546
  71.5993820 119.3057453  65.5694829  72.4339424 118.8738652  65.3872303
  71.4378163 119.1339467  66.4971723  71.2539712 115.8089567  66.9351168
  71.1988516 115.6433838  65.9939612  70.6285768 116.5165599  67.0913358
  56.0432227 111.0457631  80.7612590  56.6891091 110.5356585  81.2499815
  55.8349378 111.7826313  81.3356015  68.5685619 118.1138478  86.2604731
  69.4376779 118.2879131  85.8991366  68.0892371 118.9332895  86.1380460
  64.5635838 105.3097676  66.5136486  64.5514508 106.2539515  66.6704757
  65.4559260 105.1267821  66.2195947  62.7371800 125.2335579  77.9394164
  63.6399046 125.2659190  78.2560659  62.5109170 124.3036030  77.9540500
  64.4925402 123.9866566  74.6004243  63.5421033 123.9868428  74.4868615
  64.7957888 123.2399301  74.0840278  68.3787957 101.9040452  70.7682423
  67.6120353 101.3498939  70.9139105  68.7898662 101.9762321  71.6296575
  60.3829718 108.1925248  84.8587604  61.2461180 107.8362053  85.0690929
  59.8095129 107.8539143  85.5463009  80.2278095 129.8227104  75.6650005
  80.8656505 129.7033852  74.9613345  80.1098938 130.7707948  75.7237957
  77.0367801 129.7754532  75.6011530  76.6986313 129.6595597  74.7132065
  77.9057570 129.3745698  75.5812536  77.5187584 130.9289384  81.5597736
  77.5076225 130.5342182  80.6878239  77.6808224 130.1955457  82.1531507
  74.7376081 128.5442780  64.9328470  74.9901602 128.0224301  64.1711933
  73.8000640 128.3808925  65.0355154  79.7819364 127.5478558  72.7403213
  80.5682453 127.1297981  72.3893630  80.0458068 128.4524650  72.9084862
  85.1827791 127.4853791  73.6436192  85.9152963 126.9153008  73.8774021
  84.4267146 127.0975392  74.0842697  76.8003911 129.9081033  70.8399534
  76.4362118 129.3811654  71.5512456  77.6571026 129.5179502  70.6666020
  82.7053211 121.1975365  78.1030800  82.3736536 122.0670776  77.8792015
  82.1098825 120.8811649  78.7824831  76.4409397 124.9370933  65.8360883
  76.6083800 125.8051169  66.2031354  76.2506567 125.0998214  64.9122172
  82.5981874 125.9170452  75.1824151  81.6898752 125.8485860  74.8882912
  82.5469470 126.3942397  76.0105976  76.4198618 127.3928590  66.8207550
  76.2998244 127.8385641  67.6593030  75.7251207 127.7413908  66.2621088
  76.6722740 127.3360097  83.1259048  75.8956074 127.8954017  83.1161912
  77.3113303 127.8216880  83.6473918  84.4643521 124.1186890  76.9602024
  83.8217901 124.4119423  76.3141819  83.9598449 124.0039810  77.7655221
  82.1183685 127.8650063  67.6487884  83.0301541 128.0977450  67.4735581
  81.6093332 128.4487107  67.0862962  76.7555522 127.2247298  78.6582733
  77.6016717 127.6486711  78.8017382  76.6954160 126.5680922  79.3521296
  79.9054968 124.8851666  80.3163907  79.6615899 125.6393727  79.7798183
  80.1814898 125.2637014  81.1511154  79.4619659 124.0408099  75.8977745
  78.6004138 124.3389353  76.1894482  79.4882094 124.2578498  74.9658777
  75.2150115 128.7073442  69.1141115  75.9174158 129.1594486  69.5815042
  74.8830743 128.0657261  69.7421009  73.6630476 127.2985199  83.4892325
  73.0329137 127.9801480  83.7227722  73.5566564 127.1868280  82.5445463
  68.9575449 126.9656995  74.4158249  68.1674503 127.2214523  73.9398360
  69.4486696 127.7805333  74.5210290  70.9090194 127.3301574  71.3741726
  70.1121357 127.4420268  71.8925221  70.6815786 127.6688226  70.5082616
  72.9411219 121.6005965  85.8517576  72.5478165 121.0472163  86.5265220
  73.7577359 121.9116543  86.2424093  75.8579180 123.0163844  83.4437832
  76.5988893 123.6170997  83.3642295  76.0897103 122.2741482  82.8855875
  79.8036343 119.0444947  77.7202114  79.4600612 119.9346588  77.6441225
  80.1715306 118.8546604  76.8571699  79.7686626 129.0353558  66.2274549
  79.2533249 129.8058162  66.4662937  79.4963934 128.3618694  66.8507611
  77.3533737 123.8803259  71.2859788  76.4975333 123.4910109  71.1065426
  77.7660688 123.9595219  70.4259573  78.8832883 121.4149602  75.6851347
  78.3797679 121.3779737  74.8719153  79.1763490 122.3242345  75.7448004
  75.1275769 121.4988332  74.6917529  75.9928766 121.3031140  74.3323419
  75.1953278 121.2698683  75.6186886  79.5572929 126.9080650  68.0534330
  79.2523064 127.2226799  68.9044474  80.5103371 126.9862070  68.0961663
  72.7338088 123.7290539  72.0633896  73.3081840 123.5065721  71.3307089
  73.3209071 123.7979234  72.8162497  81.7917666 129.6164266  72.8698272
  82.3049547 130.2494258  73.3719982  82.4418889 129.0165462  72.5041632
  73.0607675 125.7595001  66.0829781  72.2244988 126.0969687  66.4039056
  72.9212445 125.6243980  65.1456918  75.0360756 120.6031788  70.7908965
  74.3825168 120.2880806  70.1665580  74.9941230 119.9807529  71.5168788
  78.2698496 127.0913722  75.1156613  77.3521058 127.3128669  74.9578301
  78.6858640 127.1660032  74.2568320  79.0533544 128.4905138  70.2459293
  79.8005363 129.0026535  69.9366415  79.3225134 128.1689190  71.1063687
  81.5012381 125.5262254  72.2278083  80.7635138 125.0139640  72.5588325
  81.7539155 125.0862635  71.4161359  81.6024009 118.3038506  72.8219852
  81.9082885 117.4435869  72.5345767  82.3276613 118.8956126  72.6218846
  75.8745088 128.5992299  73.3296043  75.9293698 127.6466135  73.2538519
  75.0636290 128.7551738  73.8137341  73.8137448 127.2169359  71.0886422
  73.0005314 127.5163529  71.4951614  74.3096442 126.8225047  71.8060904
  79.4111660 127.6811183  79.9201316  79.7661048 127.9082656  80.7795781
  80.0583791 128.0129560  79.2978571  73.3051523 124.7887714  76.7047657
  73.9450902 124.6476473  76.0070620  72.4729054 124.5022228  76.3286259
  70.3894590 128.2333226  68.8942402  69.4592178 128.1717682  69.1112364
  70.4852062 127.7109179  68.0979043  70.3080139 124.7588039  71.4820643
  70.5686957 125.6733372  71.3729804  71.1297312 124.2912482  71.6317256
  71.7805065 126.1725796  78.6519468  72.4528118 125.9643158  78.0032117
  70.9534851 125.9747882  78.2124700  77.6830637 122.7987737  80.6685129
  77.0358552 123.4977687  80.5749605  78.4531652 123.2323881  81.0361377
  77.8594771 130.6368502  78.7281949  78.7886831 130.7879662  78.5550916
  77.4385801 130.7252523  77.8730595  81.1447510 131.3856804  64.1606384
  80.5276680 130.6603632  64.0639436  80.6763998 132.1466164  63.8173458
  74.8114863 129.1588359  78.9005585  75.5214481 128.5181551  78.8592203
  74.7684171 129.4101253  79.8231766  73.5243797 126.1453577  80.7201224
  72.9881154 125.6944315  81.3722821  72.9360505 126.2799485  79.9771689
  72.9346056 125.6042228  63.2827688  72.0575522 125.4831029  62.9189935
  73.4103809 124.8128306  63.0306577  69.2582918 125.2809584  77.8054219
  69.1741107 124.6735254  77.0704629  68.4365624 125.7718603  77.8063715
  79.4306632 123.7663148  73.1724414  79.9275331 123.0133110  72.8525484
  78.6593613 123.8027464  72.6067623  76.0141601 125.9080531  72.8996098
  75.6439388 125.3551571  73.5877004  76.5100693 125.3038664  72.3471098
  83.9008964 128.3652154  71.2812871  84.3669416 129.1980146  71.2073174
  84.3516464 127.8997136  71.9858130  81.8725627 120.7332741  75.3203773
  80.9588706 120.9636968  75.4885980  82.3018728 120.8171185  76.1717805
  81.6432085 128.9222633  77.8203667  80.9903535 129.1698541  77.1656119
  82.0212465 128.1086771  77.4866144  77.6919658 129.6642444  84.3069704
  77.0160295 129.5636574  84.9772079  78.5147292 129.5081658  84.7705701
  71.4106934 123.3184522  79.1449205  71.4748261 124.1799352  78.7326602
  71.3474054 122.7058523  78.4121563  70.8859207 125.3907654  82.7922239
  71.5131246 125.0084731  83.4059763  70.0287126 125.1721856  83.1577931
  67.6624749 127.1984083  68.7240594  67.9578191 126.2894762  68.6707647
  66.7612785 127.1771823  68.4021596  71.1918996 125.2740080  74.7068142
  70.4705582 125.8876047  74.5675616  71.9812252 125.8097845  74.6284788
  73.9945310 122.6094506  80.9808794  74.5179712 122.8556803  81.7435103
  73.7757643 123.4414541  80.5611931  69.3912591 124.8798181  68.8479919
  69.0625297 123.9995560  68.6655025  69.7451962 124.8245850  69.7356308
  72.5054414 125.1671151  69.2155396  72.8450487 125.6957072  68.4934005
  72.9526535 125.5051557  69.9913963  75.1997855 123.5508201  78.6658464
  74.8594675 122.7516014  79.0679144  74.4936861 123.8509912  78.0935298
  75.8514327 120.6357514  77.1185788  76.6740396 120.1617992  76.9964678
  76.0952390 121.4147998  77.6184474  74.4922561 123.6645772  67.4148689
  75.2130924 124.0427025  66.9112406  73.8687865 124.3834649  67.5183667
  78.6353684 124.3690921  68.3507022  78.8517299 125.2515559  68.0495850
  78.1547751 123.9777135  67.6212664  73.3752906 127.3276634  74.9277766
  73.2297486 127.6416937  75.8202048  72.8978109 127.9461535  74.3748665
  75.2349289 124.3179182  74.9758656  75.2210857 123.4220276  74.6390954
  75.9521717 124.3249846  75.6096942  77.0875419 124.7516523  77.0211783
  76.8293197 125.6733593  77.0196114  76.5560460 124.3546957  77.7112247
  74.6386184 123.1993563  70.2446226  74.7602096 122.2710209  70.4437113
  74.3488227 123.2132249  69.3324541  77.5077375 120.8848473  73.3812946
  77.5299072 120.9487806  72.4264925  77.9245434 120.0452982  73.5753452
  74.1227264 124.7125560  84.4536158  74.1715419 125.5887683  84.0713928
  74.6649778 124.1702953  83.8807802  82.0183747 128.0890078  82.3629331
  82.9193610 127.9496543  82.0713329  82.0931722 128.2544533  83.3027508
  76.3526552 125.4656932  81.2082517  75.4829862 125.7590499  80.9365106
  76.5886033 126.0497377  81.9289781  79.0565586 121.6836549  78.7247937
  79.5747530 122.4197576  78.3994426  78.7020719 121.9900543  79.5594697
  70.6364524 126.5441231  66.8409343  69.9433769 126.6185586  66.1849379
  70.3916276 125.7801574  67.3630860  79.3078180 118.1036832  74.2448834
  79.5879934 117.4360021  74.8709261  80.0928787 118.2965928  73.7323498
  83.1787039 126.5254466  77.9920409  84.1304462 126.6252564  78.0132633
  83.0090489 125.7332734  78.5018494  81.2001418 123.6110049  78.1779810
  80.6051350 123.8915062  77.4826299  80.9151115 124.1003950  78.9496551
  77.4958447 128.6156639  63.1489913  78.4417552 128.4862847  63.2178331
  77.1172692 127.8771300  63.6259341  85.8069605 126.5371629  77.1520992
  85.2908654 125.7530086  76.9650921  86.6909554 126.2090346  77.3167511
  83.4680332 120.2812645  73.1116805  83.2705153 119.9727733  73.9960137
  84.0780038 121.0074284  73.2414735  75.6801365 126.5406615  63.0844798
  74.7732820 126.2439728  63.1607512  75.9577346 126.2436433  62.2179084
  77.2963430 121.0843505  69.2389039  76.4864159 120.7390590  69.6144285
  77.9847847 120.7751048  69.8276651  79.2253979 120.1621551  70.8613336
  79.7785017 120.5817005  71.5203359  79.4624065 119.2357300  70.9036292
  75.2487078 126.1508625  86.6416100  75.1483805 127.1002982  86.5728191
  75.0308620 125.8226864  85.7692170  74.4500149 123.3993550  63.2256777
  75.3119313 123.7248449  63.4852595  74.6350493 122.6125046  62.7129843
  82.6032786 122.2722077  70.3692000  82.0231455 122.9306881  69.9870053
  82.3368718 121.4499421  69.9579418  81.0536352 121.6727134  72.5713321
  81.5536130 121.7843669  71.7627639  81.6971960 121.3688187  73.2114129
  81.3857664 124.4322167  69.4248349  80.4983519 124.7171818  69.2068543
  81.8011653 124.2715930  68.5775625  84.7372200 124.4568688  73.1402688
  85.5132590 124.9465140  73.4127305  84.0120334 124.8826742  73.5974557
  87.1744758 125.1696307  74.1976628  87.7689249 124.9292043  73.4869937
  87.2471342 124.4503438  74.8250165  81.3598687 129.9476703  69.6398639
  81.3033889 130.4045254  68.8006271  81.9127030 129.1867388  69.4621481
  85.1703493 125.7366435  70.4648758  84.9140428 125.3363070  71.2956966
  84.5456361 126.4510229  70.3398897  82.0933467 131.1381484  66.9351168
  82.0382271 130.9725756  65.9939612  81.4679522 131.8457517  67.0913358
  66.8825982 126.3749549  80.7612590  67.5284845 125.8648503  81.2499815
  66.6743133 127.1118230  81.3356015  75.4029592 120.6389593  66.5136486
  75.3908262 121.5831433  66.6704757  76.2953014 120.4559739  66.2195947
  79.2181712 117.2332370  70.7682423  78.4514107 116.6790857  70.9139105
  79.6292417 117.3054239  71.6296575  71.2223473 123.5217166  84.8587604
  72.0854934 123.1653971  85.0690929  70.6488883 123.1831060  85.5463009
  15.1915569  14.8537721  62.3895312  15.8293979  14.7344468  61.6858652
  15.0736412  15.8018565  62.4483264  12.0005276  14.8065149  62.3256837
  11.6623787  14.6906214  61.4377372  12.8695044  14.4056314  62.3057843
   7.8592091  16.6600625  58.3153728   7.2956957  16.5690562  57.5470015
   7.7444487  15.8400530  58.7956220  12.4825059  15.9600001  68.2843042
  12.4713700  15.5652799  67.4123546  12.6445698  15.2266073  68.8776814
   5.4056523  18.1551817  61.1537948   6.1977815  17.8142642  60.7384247
   5.6453174  18.2646792  62.0740101  13.4391650  20.3271593  53.6268193
  12.7879630  20.9125674  53.2402206  14.2336013  20.8577788  53.6863230
   7.3647277  17.4160730  54.0255327   8.1378153  16.8689717  53.8868203
   7.7172676  18.2804980  54.2369788   9.2032320  18.7437113  67.2322226
   8.9122186  19.6482743  67.1168892   9.8389304  18.7853640  67.9466296
  10.1288527  16.1213961  63.8223586  10.7252099  15.8969983  63.1080549
  10.1863498  15.3798707  64.4249034   9.7013555  13.5753396  51.6573777
   9.9539076  13.0534918  50.8957240   8.7638114  13.4119542  51.7600460
  14.7456838  12.5789175  59.4648520  15.5319927  12.1608598  59.1138937
  15.0095542  13.4835267  59.6330168  14.9166915  18.0162025  54.1637177
  14.2812748  18.0896652  54.8758081  14.5864322  18.6055624  53.4856256
  20.1465265  12.5164408  60.3681499  20.8790437  11.9463625  60.6019328
  19.3904621  12.1286008  60.8088004   9.4209844  15.4781502  53.8598152
   9.3046102  14.8026406  54.5279236   9.5312104  14.9913876  53.0430305
  11.7641385  14.9391649  57.5644841  11.3999592  14.4122270  58.2757762
  12.6208501  14.5490118  57.3911326  14.1622205  18.4298528  64.2272020
  13.8622928  19.3323567  64.1187827  13.8173264  18.1630711  65.0793173
   7.6134686  14.8812325  60.2608724   6.6885183  14.7488539  60.4686416
   7.8619100  15.6606544  60.7578667  17.5619349  10.9481068  61.9069457
  16.6536226  10.8796477  61.6128218  17.5106945  11.4253013  62.7351283
  11.3836093  12.4239207  53.5452856  11.2635718  12.8696257  54.3838337
  10.6888681  12.7724524  52.9866394   9.1442985  25.1942848  57.1942988
   9.0667014  26.1450673  57.2731468   8.5404628  24.8488721  57.8517914
  11.6360215  12.3670714  69.8504354  10.8593549  12.9264634  69.8407219
  12.2750778  12.8527497  70.3719225  19.4280995   9.1497507  63.6847331
  18.7855375   9.4430040  63.0387126  18.9235924   9.0350427  64.4900528
  17.0821159  12.8960680  54.3733190  17.9939015  13.1288067  54.1980888
  16.5730806  13.4797724  53.8108269   9.8906587  15.1756167  69.4122321
  10.6321271  15.7141211  69.1357145   9.1843572  15.8022456  69.5693873
  15.3661926  17.3185308  68.0094483  15.7745283  16.8767718  67.2649115
  14.6439188  16.7437935  68.2628676  11.7192997  12.2557914  65.3828040
  12.5654192  12.6797328  65.5262689  11.6591634  11.5991539  66.0766603
  15.6890741  17.8786498  61.7646772  15.0599604  18.0432212  61.0622840
  15.3016403  18.2928108  62.5357736  19.5679973  18.8140936  59.1191136
  18.8831011  19.1939837  58.5688169  19.6523822  19.4236263  59.8523083
  14.8692442   9.9162283  67.0409214  14.6253374  10.6704343  66.5043489
  15.1452372  10.2947630  67.8756461  16.8230905  16.4600895  65.7186479
  17.0347800  17.1032655  65.0420860  16.7760653  15.6263212  65.2508409
  14.4257134   9.0718716  62.6223051  13.5641613   9.3699969  62.9139789
  14.4519568   9.2889115  61.6904084  11.2418703  17.6160906  59.0296857
  11.7057049  17.8948609  58.2401479  10.9775501  16.7144351  58.8469948
   8.1342784  17.1632388  61.9676620   8.7044141  17.5919656  61.3294105
   8.7250896  16.8814973  62.6660806  10.1787589  13.7384059  55.8386422
  10.8811632  14.1905102  56.3060348   9.8468218  13.0967878  56.4666315
  17.9376733  19.3372851  63.8908836  18.7594176  18.9353038  63.6091518
  17.9339135  19.2341085  64.8424952  11.7033336  18.8856894  66.0469547
  11.7677769  19.3477301  66.8827719  10.9944260  18.2554259  66.1751857
  26.0282726  15.6811599  60.2393808  25.2746434  15.1118997  60.0837812
  26.1630267  15.6474264  61.1864443  11.4181354  20.5525001  55.9148527
  11.2827028  21.3976537  56.3433375  11.9591166  20.7544279  55.1514461
   4.8710751  18.0700439  56.4876452   5.3835272  18.8643690  56.6382017
   5.5233464  17.3726730  56.4210054   6.6805636  21.1866196  58.5699206
   6.8572264  22.1084160  58.3820189   7.4762469  20.8724615  58.9993585
  13.0449830  21.1748568  70.0448869  12.6013684  20.3884946  69.7269774
  13.7067044  21.3627718  69.3792760   7.8036951  22.7044369  64.5709548
   8.3544376  22.5761433  63.7986542   6.9648427  23.0039258  64.2204441
  15.1431068  21.4551368  68.0730271  15.1249543  22.2760249  67.5810540
  16.0650988  21.3305443  68.2980412  11.6004122  18.9695497  68.9153779
  12.1332459  18.2083785  68.6853087  11.0718203  18.6769149  69.6577933
  14.7324100  14.0664174  52.9519856  14.2170723  14.8368779  53.1908243
  14.4601408  13.3929310  53.5752917  19.7058374  16.8196529  54.8873029
  18.9287817  16.4807688  54.4428191  20.3849855  16.8249152  54.2127994
  14.5210403  11.9391266  54.7779637  14.2160539  12.2537416  55.6289780
  15.4740845  12.0172686  54.8206970  12.9656835  18.0981490  56.4272591
  12.4378197  17.3634249  56.1145828  12.4644338  18.8756166  56.1812559
  17.9449681  16.2930510  61.5439637  17.2873355  16.9829772  61.6319766
  18.7490080  16.6826942  61.8873624  16.7555140  14.6474883  59.5943579
  17.2687022  15.2804875  60.0965289  17.4056364  14.0476078  59.2286939
  11.1109435  15.9161700  49.4307564  10.2036497  15.6850953  49.6298713
  11.6080467  15.1199319  49.6181546  14.0177514  24.6259207  52.3504250
  13.3439213  24.9290904  52.9589208  14.4043336  25.4288288  52.0009707
  13.2335971  12.1224338  61.8401920  12.3158532  12.3439285  61.6823608
  13.6496114  12.1970649  60.9813627  14.0171018  13.5215754  56.9704600
  14.7642837  14.0337151  56.6611722  14.2862608  13.1999807  57.8308993
  12.2897669  16.0174295  53.9531554  11.3808888  15.7333328  54.0504024
  12.3192752  16.4373373  53.0934861  17.5216936  19.6280884  57.7222722
  17.0679263  18.7871794  57.7787912  16.8910903  20.2642283  58.0597502
  16.4649856  10.5572870  58.9523389  15.7272612  10.0450257  59.2833632
  16.7176629  10.1173252  58.1406666  15.9649875  21.4657381  58.6572540
  16.2572850  22.0262438  57.9384905  16.4748496  21.7585942  59.4125699
  10.8382563  13.6302915  60.0541349  10.8931172  12.6776752  59.9783826
  10.0273765  13.7862355  60.5382648  11.9873756  17.5583039  51.2919633
  11.5493186  16.8418897  50.8325270  12.7284197  17.7859153  50.7304724
  10.9283500  22.2437732  59.7465993  10.8859679  22.4698578  58.8174525
  11.8446199  22.0101107  59.8951794  14.3749134  12.7121800  66.6446622
  14.7298522  12.9393273  67.5041088  15.0221265  13.0440176  66.0223878
  20.1046871  15.8340236  57.3495951  19.9664770  16.0241832  56.4217141
  19.7483090  16.5959618  57.8064002  20.1316251  17.9016763  62.3607223
  20.5652757  17.8092052  63.2090277  20.8447832  17.8774263  61.7227239
   9.0449301  19.1200761  59.5427956   9.8389900  18.6251081  59.3410531
   8.3340994  18.5918624  59.1795661  13.8644146  21.5018857  63.8940323
  13.9181168  22.0709793  64.6618039  12.9958927  21.6720742  63.5294361
  20.9931800  17.9440463  64.8940108  21.1867690  18.8486274  65.1399383
  20.8932419  17.4847882  65.7278693  16.0546909  18.0947206  70.4680989
  15.9032415  17.8657758  69.5511072  16.0451589  19.0517807  70.4812334
  12.8232245  15.6679119  65.4527255  13.7524305  15.8190278  65.2796223
  12.4023275  15.7563140  64.5975902  11.6220577  19.6929783  63.2225793
  11.4831663  19.3248568  64.0951731  10.8335173  20.2077423  63.0509751
  12.2168729  24.7938880  54.5651329  12.3920485  24.3226923  55.3796952
  11.5301517  25.4204646  54.7932590  13.1725792  19.0711386  60.6114631
  12.8375625  19.0312156  61.5072281  12.6729738  18.4056102  60.1385041
   7.1470036  14.4779016  66.1367212   7.0089834  13.7459255  66.7378751
   8.0574960  14.3887916  65.8551400  16.1084984  16.4167420  50.8851690
  15.4914155  15.6914248  50.7884743  15.6401472  17.1776780  50.5418765
   9.7752337  14.1898975  65.6250891  10.4851956  13.5492167  65.5837510
   9.7321645  14.4411870  66.5477072  17.7639116  21.1266329  68.5457471
  17.7051662  20.4425549  67.8788054  18.1658634  21.8685319  68.0938097
   6.7829814  27.9428242  61.3391190   7.0226413  28.5746767  62.0170208
   5.9399011  27.5916282  61.6256549  17.7656523  19.0905912  66.7771450
  16.8783302  18.7531834  66.8997849  18.3355074  18.3588944  67.0140216
  11.2957676  23.7507365  63.7432694  11.2227848  24.5562336  64.2551998
  10.8535069  23.9499331  62.9180715  11.0847456  22.9879135  57.2535515
  10.3014978  23.5300815  57.3473740  11.7840201  23.5053114  57.6529756
  14.3944106   8.7973764  59.8969720  14.8912806   8.0443727  59.5770791
  13.6231088   8.8338081  59.3312930  22.2473864  14.5014130  61.5388012
  22.2363740  15.3838845  61.1681945  21.3791243  14.1485681  61.3442549
  13.7556360  23.6494199  65.8990852  14.4684332  24.2841664  65.8266754
  13.2646389  23.7458065  65.0830854  15.4773887  17.5545452  57.4708144
  14.5430166  17.6746914  57.3012848  15.6550555  16.6517918  57.2068154
  18.8646438  13.3962771  58.0058178  19.3306890  14.2290762  57.9318481
  19.3153939  12.9307752  58.7103437   8.8068273  21.3988642  66.7196423
   9.5077733  22.0325125  66.8725817   8.3363388  21.7403374  65.9592062
  16.9322669  19.7406592  55.0044330  17.2082513  19.6263187  55.9138204
  16.0627168  19.3424077  54.9656503  16.6069559  13.9533250  64.5448973
  15.9541010  14.2009157  63.8901426  16.9849939  13.1397388  64.2111451
  13.5676733  23.9892943  58.6477144  13.7499128  23.1714599  59.1104896
  14.3909719  24.2060635  58.2102034  13.9018899  22.9161128  55.9092192
  14.4306665  22.4053583  55.2962354  14.1647118  22.6003658  56.7737725
  12.6557132  14.6953061  71.0315010  11.9797769  14.5947190  71.7017386
  13.4784766  14.5392275  71.4951008   4.4035991  20.9324997  63.6527526
   4.9889428  20.1868685  63.7855430   4.2060830  21.2428954  64.5364190
   7.2574647  23.9676245  58.6689968   6.5885022  24.4522372  58.1854008
   7.1187516  24.2145465  59.5833347  11.3979915  26.0019988  65.2672626
  11.9498223  26.1651610  66.0321712  11.7386109  26.5924426  64.5952651
  16.2490790  20.8281246  71.1221281  16.7930694  21.4411204  70.6276236
  15.6677634  21.3860824  71.6388294  14.5348303  23.9501964  62.2536309
  14.4099442  23.1491704  61.7447254  15.1927394  24.4448157  61.7650279
  16.5983211  21.7510984  63.8815859  15.6513546  21.6316335  63.8094185
  16.9465984  20.8633482  63.9642120  13.6029644  21.5463700  60.0820211
  13.4554607  20.6180408  60.2627781  14.4283138  21.5683791  59.5977286
  17.2063766  22.3692259  61.1685084  18.1310314  22.1635120  61.0309535
  17.0379069  22.1208660  62.0774425  16.9959082  22.8877926  56.5247175
  17.1695960  22.3224349  55.7721028  17.4887974  23.6878821  56.3426665
  22.8498473  15.6514349  58.1437475  23.2929620  14.9021674  57.7456598
  21.9724984  15.6424486  57.7611207  17.9834255  22.2044691  53.6244073
  18.6785159  22.8251383  53.8431388  18.3257405  21.3540042  53.8996451
  19.8825678  19.6544396  55.1531404  20.4077002  19.9931669  54.4280724
  19.7948030  18.7191412  54.9694539  11.5445727  23.5678470  67.2821281
  11.8532853  23.3227617  68.1543980  12.3421209  23.7725108  66.7940151
  11.5666339  25.7216379  59.5126657  11.1271329  25.2292758  60.2059514
  12.3174456  25.1789347  59.2718733   4.0458678  21.9127920  59.5151285
   4.8716698  21.6131692  59.1349929   3.6952730  21.1435543  59.9641074
   9.0140211  21.2654389  61.5848959   8.3920220  20.6025094  61.2851187
   9.6845078  21.2915520  60.9022607   2.2467283  19.8314247  60.4740219
   1.4099191  19.4036421  60.2924220   2.2190928  20.0246690  61.4111010
  19.5719584  20.2877300  70.4582602  18.7815128  20.2701439  69.9187102
  19.3352939  20.8265594  71.2131639  19.6917459  17.1369766  67.7715331
  19.7415464  16.9719774  68.7130853  19.5831382  16.2697025  67.3813211
   8.5753718  19.8158312  55.0607420   8.7241838  20.4993776  54.4074092
   9.3820161  19.7963402  55.5756875  16.9821221  13.1200694  69.0874637
  17.8831084  12.9807159  68.7958635  17.0569196  13.2855149  70.0272815
  21.1935656  19.5566708  68.0157352  20.9020464  19.9196688  68.8520813
  20.5807787  18.8433716  67.8370684  22.3931338  17.1219588  60.5359922
  23.2278230  17.5609392  60.6997483  22.5290467  16.6458241  59.7168168
  19.4422844  14.6799322  66.4837410  19.9176966  14.8726969  65.6756262
  18.5188409  14.7358508  66.2380794   6.3306351  15.8423490  56.0668488
   6.0852393  14.9385820  56.2648699   6.5002265  15.8440640  55.1247966
  12.0749123  22.3106442  52.5319167  11.5023090  22.9296629  52.0789639
  12.6481917  22.8605804  53.0659089  18.1424513  11.5565082  64.7165716
  19.0941936  11.6563180  64.7377940  17.9727964  10.7643351  65.2263800
  16.1638893   8.6420666  64.9025117  15.5688825   8.9225678  64.2071605
  15.8788589   9.1314567  65.6741858  15.2946383  22.5943592  53.6627749
  16.2277056  22.5289154  53.8660625  15.2069596  23.4299859  53.2042282
  17.9234400  21.9109463  50.6231697  17.8448031  21.5769326  51.5167455
  18.7444066  22.4031231  50.6223169  20.6212591  14.7771202  63.8308015
  20.5888911  13.8387203  64.0167699  21.2313215  14.8555239  63.0973840
  12.4595922  13.6467255  49.8735219  13.4055026  13.5173463  49.9423638
  12.0810167  12.9081917  50.3504648  20.7707079  11.5682246  63.8766299
  20.2546128  10.7840702  63.6896228  21.6547028  11.2400962  64.0412818
  26.4389141  15.8387209  62.9714052  27.1692529  15.5772497  63.5321756
  25.8296086  15.1015931  63.0116120  24.5204438  13.9795072  63.5688503
  23.7937601  13.8451037  62.9604995  24.1051725  14.2871900  64.3745221
  12.3434614  17.6985001  71.3335876  13.2637624  17.8763600  71.5275923
  12.3084197  16.7541047  71.1815576   5.3396687  15.6086036  63.9758658
   5.5582697  16.5403144  63.9946691   5.7522461  15.2494010  64.7613461
  17.5670260   7.3032693  57.0937307  16.9868929   7.9617497  56.7115359
  17.3006193   6.4810038  56.6824724  10.0755822  14.6116381  72.1826468
   9.5922904  15.4116741  72.3890357  10.1616761  14.6224325  71.2293912
   3.3441782  16.4444760  60.1048288   3.3212470  16.5432447  59.1530171
   3.6542418  17.2909911  60.4265454   6.0029160  18.5020915  64.2194902
   6.9572413  18.4704858  64.1524834   5.8041683  18.0411539  65.0345128
   6.5928542  17.0722031  66.7865700   7.4121431  17.5666110  66.8100537
   6.8665350  16.1553999  66.7583267  16.3495138   9.4632784  56.1493655
  15.4620993   9.7482434  55.9313850  16.7649127   9.3026547  55.3020932
  19.7009674   9.4879305  59.8647994  20.4770064   9.9775757  60.1372611
  18.9757808   9.9137359  60.3219864  22.1382233  10.2006924  60.9221935
  22.7326724   9.9602660  60.2115243  22.2108816   9.4814054  61.5495471
   4.3579388  24.0440535  61.2365100   4.2233856  23.2840936  60.6703098
   3.9411451  24.7681435  60.7693889  15.4938351  19.2277458  50.2441675
  16.1974202  19.4327461  50.8599331  14.7701000  19.7954220  50.5090759
  16.3236162  14.9787320  56.3643945  16.2671363  15.4355871  55.5251578
  16.8764504  14.2178004  56.1866788  20.1340968  10.7677051  57.1894065
  19.8777902  10.3673687  58.0202273  19.5093836  11.4820845  57.0644204
  24.4453306  13.5073125  59.6965356  23.8852864  13.5766314  60.4696918
  23.8396809  13.3314109  58.9764852   7.5148514  24.9409852  61.4483543
   7.3980898  25.8855284  61.3462233   6.6940961  24.6383413  61.8369342
  17.4025049  19.6659987  52.2940135  18.2370653  19.2341186  52.1117610
  17.2409392  19.4942001  53.2217030  17.0570941  16.1692101  53.6596475
  17.0019745  16.0036372  52.7184919  16.4316996  16.8768134  53.8158664
  14.3716848  18.4741013  72.9850037  15.2408008  18.6481665  72.6236672
  13.8923600  19.2935429  72.8625767   8.5403028  25.5938114  64.6639471
   9.4430275  25.6261724  64.9805966   8.3140399  24.6638565  64.6785807
  10.2956630  24.3469100  61.3249550   9.3452261  24.3470962  61.2113922
  10.5989117  23.6001835  60.8085584  26.0309324  30.1829639  62.3895312
  26.6687734  30.0636386  61.6858652  25.9130167  31.1310483  62.4483264
  22.8399030  30.1357067  62.3256837  22.5017542  30.0198131  61.4377372
  23.7088798  29.7348232  62.3057843  18.6985846  31.9892543  58.3153728
  18.1350711  31.8982480  57.5470015  18.5838241  31.1692448  58.7956220
  23.3218813  31.2891918  68.2843042  23.3107454  30.8944717  67.4123546
  23.4839453  30.5557991  68.8776814  16.2450278  33.4843735  61.1537948
  17.0371570  33.1434559  60.7384247  16.4846928  33.5938710  62.0740101
  24.2785405  35.6563511  53.6268193  23.6273384  36.2417591  53.2402206
  25.0729767  36.1869706  53.6863230  18.2041032  32.7452648  54.0255327
  18.9771908  32.1981635  53.8868203  18.5566431  33.6096897  54.2369788
  20.0426074  34.0729030  67.2322226  19.7515940  34.9774661  67.1168892
  20.6783059  34.1145558  67.9466296  20.9682281  31.4505879  63.8223586
  21.5645853  31.2261901  63.1080549  21.0257253  30.7090624  64.4249034
  20.5407310  28.9045314  51.6573777  20.7932830  28.3826835  50.8957240
  19.6031869  28.7411459  51.7600460  25.5850592  27.9081092  59.4648520
  26.3713682  27.4900516  59.1138937  25.8489297  28.8127185  59.6330168
  25.7560670  33.3453943  54.1637177  25.1206503  33.4188569  54.8758081
  25.4258076  33.9347542  53.4856256  30.9859020  27.8456326  60.3681499
  31.7184192  27.2755542  60.6019328  30.2298375  27.4577926  60.8088004
  20.2603598  30.8073420  53.8598152  20.1439856  30.1318323  54.5279236
  20.3705858  30.3205794  53.0430305  22.6035139  30.2683567  57.5644841
  22.2393347  29.7414188  58.2757762  23.4602255  29.8782036  57.3911326
  28.5084440  21.5577900  64.8276107  28.1767765  22.4273311  64.6037322
  27.9130053  21.2414184  65.5070138  22.2440626  25.2973467  52.5606189
  22.4115029  26.1653703  52.9276661  22.0537795  25.4600748  51.6367479
  25.0015959  33.7590446  64.2272020  24.7016683  34.6615485  64.1187827
  24.6567019  33.4922629  65.0793173  18.4528441  30.2104243  60.2608724
  17.5278937  30.0780457  60.4686416  18.7012854  30.9898462  60.7578667
  28.4013103  26.2772986  61.9069457  27.4929981  26.2088394  61.6128218
  28.3500699  26.7544931  62.7351283  22.2229847  27.7531124  53.5452856
  22.1029472  28.1988175  54.3838337  21.5282436  28.1016442  52.9866394
  15.8137252  29.8537516  61.0952513  15.9429633  30.1071995  62.0091925
  15.1334703  30.4465224  60.7757168  19.9836739  40.5234766  57.1942988
  19.9060769  41.4742591  57.2731468  19.3798383  40.1780639  57.8517914
  22.4753969  27.6962631  69.8504354  21.6987303  28.2556552  69.8407219
  23.1144532  28.1819414  70.3719225  30.2674750  24.4789424  63.6847331
  29.6249130  24.7721957  63.0387126  29.7629678  24.3642345  64.4900528
  27.9214913  28.2252597  54.3733190  28.8332769  28.4579984  54.1980888
  27.4124560  28.8089642  53.8108269  20.7300341  30.5048085  69.4122321
  21.4715026  31.0433129  69.1357145  20.0237327  31.1314374  69.5693873
  26.2055681  32.6477225  68.0094483  26.6139037  32.2059636  67.2649115
  25.4832942  32.0729853  68.2628676  22.5586751  27.5849832  65.3828040
  23.4047946  28.0089246  65.5262689  22.4985389  26.9283456  66.0766603
  26.5284496  33.2078416  61.7646772  25.8993358  33.3724130  61.0622840
  26.1410158  33.6220025  62.5357736  30.4073728  34.1432854  59.1191136
  29.7224766  34.5231755  58.5688169  30.4917577  34.7528180  59.8523083
  25.7086196  25.2454200  67.0409214  25.4647128  25.9996261  66.5043489
  25.9846127  25.6239548  67.8756461  27.6624659  31.7892813  65.7186479
  27.8741554  32.4324573  65.0420860  27.6154407  30.9555129  65.2508409
  25.2650888  24.4010633  62.6223051  24.4035367  24.6991887  62.9139789
  25.2913323  24.6181032  61.6904084  22.0812458  32.9452824  59.0296857
  22.5450803  33.2240527  58.2401479  21.8169256  32.0436269  58.8469948
  18.9736539  32.4924306  61.9676620  19.5437896  32.9211574  61.3294105
  19.5644650  32.2106890  62.6660806  21.0181344  29.0675976  55.8386422
  21.7205387  29.5197020  56.3060348  20.6861972  28.4259795  56.4666315
  19.4661705  27.6587733  70.2137631  18.8360366  28.3404014  70.4473028
  19.3597793  27.5470815  69.2690770  14.7606678  27.3259529  61.1403556
  13.9705732  27.5817058  60.6643666  15.2517925  28.1407867  61.2455596
  28.7770487  34.6664768  63.8908836  29.5987931  34.2644955  63.6091518
  28.7732890  34.5633002  64.8424952  16.7121423  27.6904108  58.0987032
  15.9152586  27.8022803  58.6170528  16.4847015  28.0290761  57.2327923
  22.5427091  34.2148812  66.0469547  22.6071523  34.6769219  66.8827719
  21.8338014  33.5846176  66.1751857  13.0444381  27.5790019  63.5718546
  13.2952419  28.4637029  63.8376122  13.5803929  27.3994621  62.7993638
  36.8676480  31.0103517  60.2393808  36.1140189  30.4410915  60.0837812
  37.0024021  30.9766181  61.1864443  22.2575108  35.8816919  55.9148527
  22.1220783  36.7268455  56.3433375  22.7984921  36.0836197  55.1514461
  18.7442448  21.9608499  72.5762882  18.3509393  21.4074697  73.2510527
  19.5608588  22.2719077  72.9669400  15.7104506  33.3992357  56.4876452
  16.2229026  34.1935607  56.6382017  16.3627218  32.7018647  56.4210054
  17.5199390  36.5158113  58.5699206  17.6966019  37.4376078  58.3820189
  18.3156224  36.2016533  58.9993585  21.6610409  23.3766378  70.1683139
  22.4020122  23.9773531  70.0887602  21.8928332  22.6344016  69.6101182
  16.8051747  28.5622745  68.4461369  16.6905262  27.6608002  68.7468468
  15.9496265  28.8086442  68.0946185  23.8843585  36.5040486  70.0448869
  23.4407439  35.7176864  69.7269774  24.5460798  36.6919636  69.3792760
  18.6430706  38.0336287  64.5709548  19.1938131  37.9053350  63.7986542
  17.8042182  38.3331176  64.2204441  25.9824823  36.7843285  68.0730271
  25.9643298  37.6052166  67.5810540  26.9044743  36.6597361  68.2980412
  22.4397877  34.2987415  68.9153779  22.9726214  33.5375703  68.6853087
  21.9111958  34.0061067  69.6577933  25.6067572  19.4047481  64.4447421
  25.2631841  20.2949123  64.3686531  25.9746534  19.2149139  63.5817006
  13.6753422  31.7281011  57.2636023  14.5128644  32.1378020  57.0469731
  13.8531690  30.7880454  57.2336217  25.5717854  29.3956092  52.9519856
  25.0564478  30.1660697  53.1908243  25.2995163  28.7221228  53.5752917
  23.1564966  24.2405793  58.0105094  22.3006562  23.8512643  57.8310733
  23.5691917  24.3197754  57.1504880  24.6864112  21.7752136  62.4096654
  24.1828908  21.7382271  61.5964459  24.9794719  22.6844879  62.4693311
  20.9306998  21.8590866  61.4162836  21.7959995  21.6633674  61.0568725
  20.9984507  21.6301218  62.3432192  30.5452129  32.1488447  54.8873029
  29.7681571  31.8099606  54.4428191  31.2243610  32.1541070  54.2127994
  25.3604158  27.2683184  54.7779637  25.0554293  27.5829333  55.6289780
  26.3134600  27.3464604  54.8206970  23.8050589  33.4273407  56.4272591
  23.2771951  32.6926167  56.1145828  23.3038092  34.2048084  56.1812559
  28.7843436  31.6222428  61.5439637  28.1267110  32.3121689  61.6319766
  29.5883835  32.0118860  61.8873624  18.5369317  24.0893074  58.7879203
  19.1113069  23.8668255  58.0552395  19.1240300  24.1581768  59.5407804
  27.5948894  29.9766801  59.5943579  28.1080776  30.6096792  60.0965289
  28.2450118  29.3767996  59.2286939  18.8638904  26.1197535  52.8075088
  18.0276216  26.4572221  53.1284363  18.7243674  25.9846515  51.8702225
  20.8391985  20.9634323  57.5154272  20.1856397  20.6483340  56.8910887
  20.7972459  20.3410063  58.2414095  21.9503190  31.2453618  49.4307564
  21.0430251  31.0142871  49.6298713  22.4474222  30.4491237  49.6181546
  24.8571269  39.9551125  52.3504250  24.1832967  40.2582822  52.9589208
  25.2437091  40.7580205  52.0009707  24.0729725  27.4516256  61.8401920
  23.1552287  27.6731203  61.6823608  24.4889869  27.5262567  60.9813627
  24.8564773  28.8507672  56.9704600  25.6036592  29.3629069  56.6611722
  25.1256362  28.5291725  57.8308993  23.1291423  31.3466213  53.9531554
  22.2202642  31.0625245  54.0504024  23.1586507  31.7665291  53.0934861
  28.3610691  34.9572802  57.7222722  27.9073018  34.1163712  57.7787912
  27.7304657  35.5934200  58.0597502  27.3043610  25.8864788  58.9523389
  26.5666367  25.3742174  59.2833632  27.5570384  25.4465170  58.1406666
  26.8043630  36.7949299  58.6572540  27.0966604  37.3554356  57.9384905
  27.3142250  37.0877860  59.4125699  27.4055237  18.6641040  59.5465158
  27.7114114  17.8038403  59.2591074  28.1307842  19.2558660  59.3464152
  13.6979593  29.0671727  57.9346756  13.5003993  28.4741087  57.2097823
  13.1426257  28.7623937  58.6522695  21.6776317  28.9594833  60.0541349
  21.7324927  28.0068670  59.9783826  20.8667519  29.1154272  60.5382648
  22.8267511  32.8874956  51.2919633  22.3886941  32.1710815  50.8325270
  23.5677952  33.1151071  50.7304724  19.6168677  27.5771893  57.8131728
  18.8036543  27.8766063  58.2196921  20.1127671  27.1827582  58.5306211
  21.7677255  37.5729650  59.7465993  21.7253434  37.7990496  58.8174525
  22.6839954  37.3393024  59.8951794  25.2142889  28.0413717  66.6446622
  25.5692276  28.2685190  67.5041088  25.8615020  28.3732094  66.0223878
  30.9440626  31.1632153  57.3495951  30.8058524  31.3533749  56.4217141
  30.5876845  31.9251536  57.8064002  19.1082752  25.1490248  63.4292963
  19.7482131  25.0079008  62.7315927  18.2760282  24.8624762  63.0531565
  30.9710005  33.2308680  62.3607223  31.4046512  33.1383969  63.2090277
  31.6841586  33.2066181  61.7227239  19.8843056  34.4492679  59.5427956
  20.6783654  33.9542999  59.3410531  19.1734748  33.9210542  59.1795661
  24.7037900  36.8310774  63.8940323  24.7574922  37.4001711  64.6618039
  23.8352682  37.0012659  63.5294361  16.1925819  28.5935761  55.6187708
  15.2623407  28.5320216  55.8357671  16.2883291  28.0711713  54.8224350
  16.1111368  25.1190573  58.2065950  16.3718186  26.0335907  58.0975111
  16.9328541  24.6515016  58.3562563  17.5836294  26.5328331  65.3764775
  18.2559347  26.3245693  64.7277424  16.7566080  26.3350417  64.9370007
  31.8325555  33.2732381  64.8940108  32.0261445  34.1778191  65.1399383
  31.7326173  32.8139800  65.7278693  23.4861866  23.1590271  67.3930436
  22.8389781  23.8580221  67.2994912  24.2562881  23.5926415  67.7606684
  26.8940664  33.4239124  70.4680989  26.7426170  33.1949675  69.5511072
  26.8845343  34.3809725  70.4812334  23.6626000  30.9971036  65.4527255
  24.5918060  31.1482196  65.2796223  23.2417030  31.0855057  64.5975902
  22.4614332  35.0221701  63.2225793  22.3225417  34.6540485  64.0951731
  21.6728928  35.5369340  63.0509751  23.0562484  40.1230797  54.5651329
  23.2314239  39.6518840  55.3796952  22.3695272  40.7496563  54.7932590
  24.0119547  34.4003304  60.6114631  23.6769379  34.3604073  61.5072281
  23.5123493  33.7348019  60.1385041  17.9863791  29.8070934  66.1367212
  17.8483589  29.0751172  66.7378751  18.8968714  29.7179834  65.8551400
  26.9478739  31.7459338  50.8851690  26.3307909  31.0206166  50.7884743
  26.4795227  32.5068698  50.5418765  20.6146092  29.5190893  65.6250891
  21.3245710  28.8784085  65.5837510  20.5715400  29.7703788  66.5477072
  28.6032870  36.4558246  68.5457471  28.5445416  35.7717466  67.8788054
  29.0052389  37.1977236  68.0938097  19.3275025  26.5056111  67.4446531
  18.7912383  26.0546849  68.0968127  18.7391734  26.6402020  66.7016995
  17.6223569  43.2720160  61.3391190  17.8620167  43.9038684  62.0170208
  16.7792765  42.9208200  61.6256549  18.7377284  25.9644762  50.0072995
  17.8606751  25.8433563  49.6435241  19.2135038  25.1730840  49.7551883
  28.6050277  34.4197830  66.7771450  27.7177056  34.0823752  66.8997849
  29.1748829  33.6880861  67.0140216  10.2579425  30.7521922  60.1014502
  10.9450464  30.4383652  59.5135517  10.1027553  31.6563287  59.8281753
  15.0614147  25.6412118  64.5299525  14.9772335  25.0337788  63.7949935
  14.2396853  26.1321137  64.5309022  22.1351431  39.0799282  63.7432694
  22.0621602  39.8854254  64.2551998  21.6928824  39.2791248  62.9180715
  21.9241210  38.3171053  57.2535515  21.1408732  38.8592733  57.3473740
  22.6233956  38.8345032  57.6529756  25.2337861  24.1265682  59.8969720
  25.7306560  23.3735644  59.5770791  24.4624842  24.1629999  59.3312930
  33.0867618  29.8306048  61.5388012  33.0757494  30.7130763  61.1681945
  32.2184997  29.4777598  61.3442549  24.5950114  38.9786117  65.8990852
  25.3078087  39.6133581  65.8266754  24.1040143  39.0749983  65.0830854
  26.3167641  32.8837369  57.4708144  25.3823920  33.0038832  57.3012848
  26.4944310  31.9809836  57.2068154  21.8172829  26.2683065  59.6241405
  21.4470617  25.7154105  60.3122311  22.3131922  25.6641198  59.0716405
  29.7040193  28.7254688  58.0058178  30.1700645  29.5582680  57.9318481
  30.1547693  28.2599670  58.7103437  19.6462028  36.7280560  66.7196423
  20.3471487  37.3617043  66.8725817  19.1757143  37.0695292  65.9592062
  27.7716424  35.0698510  55.0044330  28.0476268  34.9555104  55.9138204
  26.9020922  34.6715995  54.9656503  27.6756855  21.0935275  62.0449079
  26.7619935  21.3239502  62.2131286  28.1049957  21.1773720  62.8963112
  27.4463314  29.2825167  64.5448973  26.7934764  29.5301075  63.8901426
  27.8243694  28.4689306  64.2111451  24.4070488  39.3184861  58.6477144
  24.5892882  38.5006517  59.1104896  25.2303474  39.5352553  58.2102034
  24.7412653  38.2453046  55.9092192  25.2700420  37.7345500  55.2962354
  25.0040873  37.9295576  56.7737725  23.4950887  30.0244978  71.0315010
  22.8191524  29.9239108  71.7017386  24.3178521  29.8684192  71.4951008
  15.2429746  36.2616915  63.6527526  15.8283183  35.5160603  63.7855430
  15.0454584  36.5720872  64.5364190  18.0968401  39.2968162  58.6689968
  17.4278776  39.7814290  58.1854008  17.9581271  39.5437383  59.5833347
   9.8347401  28.8322515  62.3731969   9.8731500  28.2986106  63.1669087
   9.3287694  28.3057721  61.7542946  22.2373670  41.3311906  65.2672626
  22.7891978  41.4943527  66.0321712  22.5779863  41.9216344  64.5952651
  17.2138163  23.6787056  65.8694511  17.2779489  24.5401887  65.4571909
  17.1505283  23.0661057  65.1366870  16.6890436  25.7510188  69.5167545
  17.3162474  25.3687266  70.1305070  15.8318354  25.5324390  69.8823238
  27.0884544  36.1573163  71.1221281  27.6324448  36.7703122  70.6276236
  26.5071389  36.7152742  71.6388294  13.4655978  27.5586617  55.4485900
  13.7609419  26.6497296  55.3952954  12.5644014  27.5374357  55.1266903
  25.3742057  39.2793881  62.2536309  25.2493197  38.4783621  61.7447254
  26.0321148  39.7740075  61.7650279  16.9950225  25.6342614  61.4313449
  16.2736811  26.2478582  61.2920922  17.7843481  26.1700379  61.3530095
  27.4376965  37.0802902  63.8815859  26.4907301  36.9608253  63.8094185
  27.7859739  36.1925400  63.9642120  19.7976539  22.9697040  67.7054101
  20.3210941  23.2159337  68.4680410  19.5788872  23.8017075  67.2857238
  15.1943820  25.2400715  55.5725225  14.8656526  24.3598094  55.3900331
  15.5483191  25.1848384  56.4601615  24.4423399  36.8755618  60.0820211
  24.2948361  35.9472325  60.2627781  25.2676892  36.8975708  59.5977286
  18.3085643  25.5273685  55.9400703  18.6481716  26.0559606  55.2179311
  18.7557763  25.8654091  56.7159270  28.0457521  37.6984176  61.1685084
  28.9704068  37.4927038  61.0309535  27.8772824  37.4500578  62.0774425
  21.0029084  23.9110736  65.3903771  20.6625904  23.1118549  65.7924451
  20.2968090  24.2112446  64.8180604  21.6545556  20.9960048  63.8431094
  22.4771625  20.5220526  63.7209984  21.8983619  21.7750532  64.3429780
  20.2953790  24.0248306  54.1393996  21.0162153  24.4029559  53.6357713
  19.6719094  24.7437183  54.2428974  24.4384913  24.7293455  55.0752328
  24.6548527  25.6118093  54.7741156  23.9578980  24.3379669  54.3457970
  19.1784134  27.6879169  61.6523073  19.0328715  28.0019472  62.5447354
  18.7009338  28.3064069  61.0993971  21.0380517  24.6781717  61.7003962
  21.0242086  23.7822810  61.3636260  21.7552945  24.6852380  62.3342248
  22.8906648  25.1119057  63.7457090  22.6324426  26.0336127  63.7441420
  22.3591688  24.7149491  64.4357554  27.8352837  38.2169844  56.5247175
  28.0089714  37.6516266  55.7721028  28.3281728  39.0170739  56.3426665
  13.6529797  30.2284513  64.5910734  13.1083265  31.0044321  64.7231008
  14.5309146  30.5755318  64.4329855  20.4417413  23.5596097  56.9691532
  20.5633324  22.6312743  57.1682420  20.1519456  23.5734783  56.0569848
  23.3108604  21.2451007  60.1058252  23.3330300  21.3090340  59.1510232
  23.7276663  20.4055516  60.2998758  33.6892228  30.9806267  58.1437475
  34.1323374  30.2313592  57.7456598  32.8118738  30.9716403  57.7611207
  28.8228009  37.5336608  53.6244073  29.5178914  38.1543301  53.8431388
  29.1651159  36.6831960  53.8996451  14.4395818  29.3554409  67.4840891
  13.6977554  29.5037045  68.0705521  14.1188563  29.6162675  66.6207640
  30.7219432  34.9836314  55.1531404  31.2470756  35.3223587  54.4280724
  30.6341785  34.0483329  54.9694539  22.3839481  38.8970388  67.2821281
  22.6926608  38.6519534  68.1543980  23.1814963  39.1017026  66.7940151
  22.4060093  41.0508297  59.5126657  21.9665083  40.5584676  60.2059514
  23.1568210  40.5081265  59.2718733  14.8852432  37.2419838  59.5151285
  15.7110452  36.9423610  59.1349929  14.5346484  36.4727460  59.9641074
  19.8533965  36.5946306  61.5848959  19.2313975  35.9317011  61.2851187
  20.5238832  36.6207438  60.9022607  13.0861037  35.1606164  60.4740219
  12.2492945  34.7328339  60.2924220  13.0584683  35.3538608  61.4111010
  19.9258493  25.0728094  71.1781465  19.9746648  25.9490217  70.7959235
  20.4681007  24.5305487  70.6053108  30.4113338  35.6169218  70.4582602
  29.6208882  35.5993356  69.9187102  30.1746693  36.1557511  71.2131639
  30.5311214  32.4661684  67.7715331  30.5809218  32.3011691  68.7130853
  30.4225137  31.5988943  67.3813211  19.4147472  35.1450230  55.0607420
  19.5635593  35.8285694  54.4074092  20.2213916  35.1255320  55.5756875
  27.8214976  28.4492612  69.0874637  28.7224839  28.3099077  68.7958635
  27.8962950  28.6147067  70.0272815  22.1557781  25.8259467  67.9327824
  21.2861091  26.1193033  67.6610412  22.3917262  26.4099912  68.6535087
  32.0329410  34.8858625  68.0157352  31.7414219  35.2488606  68.8520813
  31.4201542  34.1725634  67.8370684  33.2325093  32.4511505  60.5359922
  34.0671984  32.8901309  60.6997483  33.3684221  31.9750158  59.7168168
  30.2816599  30.0091240  66.4837410  30.7570720  30.2018886  65.6756262
  29.3582164  30.0650426  66.2380794  17.1700105  31.1715407  56.0668488
  16.9246147  30.2677737  56.2648699  17.3396020  31.1732558  55.1247966
  24.8596815  22.0439084  65.4493244  25.3778759  22.7800111  65.1239733
  24.5051948  22.3503077  66.2840003  16.4395753  26.9043765  53.5654650
  15.7464998  26.9788120  52.9094686  16.1947505  26.1404108  54.0876167
  25.1109409  18.4639366  60.9694141  25.3911163  17.7962555  61.5954567
  25.8960016  18.6568462  60.4568805  22.9142878  37.6398360  52.5319167
  22.3416845  38.2588547  52.0789639  23.4875671  38.1897722  53.0659089
  28.9818268  26.8857000  64.7165716  29.9335690  26.9855098  64.7377940
  28.8121718  26.0935269  65.2263800  27.0032647  23.9712583  64.9025117
  26.4082579  24.2517596  64.2071605  26.7182344  24.4606484  65.6741858
  26.1340138  37.9235510  53.6627749  27.0670811  37.8581072  53.8660625
  26.0463350  38.7591777  53.2042282  28.7628154  37.2401381  50.6231697
  28.6841786  36.9061244  51.5167455  29.5837821  37.7323148  50.6223169
  31.4606345  30.1063120  63.8308015  31.4282665  29.1679121  64.0167699
  32.0706969  30.1847157  63.0973840  23.2989676  28.9759173  49.8735219
  24.2448781  28.8465381  49.9423638  22.9203921  28.2373835  50.3504648
  31.6100834  26.8974163  63.8766299  31.0939882  26.1132620  63.6896228
  32.4940782  26.5692880  64.0412818  29.2711561  20.6415179  59.8362111
  29.0736382  20.3330267  60.7205443  29.8811266  21.3676818  59.9660041
  37.2782895  31.1679127  62.9714052  38.0086284  30.9064415  63.5321756
  36.6689841  30.4307849  63.0116120  35.3598192  29.3086989  63.5688503
  34.6331356  29.1742954  62.9604995  34.9445479  29.6163818  64.3745221
  23.1828369  33.0276919  71.3335876  24.1031378  33.2055518  71.5275923
  23.1477952  32.0832964  71.1815576  21.4832593  26.9009149  49.8090105
  20.5764049  26.6042262  49.8852818  21.7608574  26.6038967  48.9424391
  12.4010534  28.2215513  60.2589151  12.0813318  27.3680821  59.9663525
  11.8543962  28.4364091  61.0147118  16.1790441  30.9377954  63.9758658
  16.3976451  31.8695061  63.9946691  16.5916215  30.5785928  64.7613461
  23.0994659  21.4446039  55.9634346  22.2895387  21.0993124  56.3389592
  23.7879076  21.1353583  56.5521958  25.0285207  20.5224086  57.5858643
  25.5816246  20.9419539  58.2448666  25.2655294  19.5959834  57.6281599
  21.0518307  26.5111159  73.3661407  20.9515034  27.4605516  73.2973498
  20.8339849  26.1829398  72.4937477  20.2531378  23.7596084  49.9502084
  21.1150542  24.0850983  50.2097901  20.4381722  22.9727580  49.4375150
  12.2698794  31.8418424  62.2282273  11.5762265  31.4272377  61.7152227
  13.0171785  31.8838961  61.6315692  28.4064014  22.6324611  57.0937307
  27.8262684  23.2909415  56.7115359  28.1399947  21.8101955  56.6824724
  26.8567581  22.0329669  59.2958627  27.3567359  22.1446203  58.4872946
  27.5003189  21.7290721  59.9359436  20.9149577  29.9408298  72.1826468
  20.4316658  30.7408658  72.3890357  21.0010516  29.9516243  71.2293912
  14.1835536  31.7736678  60.1048288  14.1606224  31.8724365  59.1530171
  14.4936173  32.6201829  60.4265454  16.8422914  33.8312833  64.2194902
  17.7966168  33.7996775  64.1524834  16.6435438  33.3703457  65.0345128
  17.4322296  32.4013949  66.7865700  18.2515185  32.8958028  66.8100537
  17.7059104  31.4845917  66.7583267  27.1888893  24.7924701  56.1493655
  26.3014748  25.0774352  55.9313850  27.6042882  24.6318465  55.3020932
  30.5403429  24.8171222  59.8647994  31.3163819  25.3067675  60.1372611
  29.8151563  25.2429276  60.3219864  32.9775987  25.5298841  60.9221935
  33.5720478  25.2894577  60.2115243  33.0502571  24.8105972  61.5495471
  15.1973143  39.3732452  61.2365100  15.0627611  38.6132853  60.6703098
  14.7805205  40.0973352  60.7693889  26.3332106  34.5569376  50.2441675
  27.0367956  34.7619378  50.8599331  25.6094755  35.1246138  50.5090759
  27.1629916  30.3079237  56.3643945  27.1065118  30.7647789  55.5251578
  27.7158259  29.5469922  56.1866788  30.9734722  26.0968969  57.1894065
  30.7171656  25.6965605  58.0202273  30.3487590  26.8112763  57.0644204
  35.2847060  28.8365042  59.6965356  34.7246618  28.9058232  60.4696918
  34.6790563  28.6606027  58.9764852  18.3542269  40.2701769  61.4483543
  18.2374653  41.2147202  61.3462233  17.5334715  39.9675331  61.8369342
  28.2418803  34.9951905  52.2940135  29.0764407  34.5633104  52.1117610
  28.0803146  34.8233919  53.2217030  27.8964696  31.4984018  53.6596475
  27.8413499  31.3328290  52.7184919  27.2710751  32.2060051  53.8158664
  12.6857211  26.7352083  67.4857897  13.3316074  26.2251037  67.9745122
  12.4774362  27.4720764  68.0601322  25.2110603  33.8032930  72.9850037
  26.0801762  33.9773583  72.6236672  24.7317354  34.6227347  72.8625767
  21.2060821  20.9992127  53.2381793  21.1939491  21.9433967  53.3950064
  22.0984243  20.8162273  52.9441254  19.3796783  40.9230031  64.6639471
  20.2824030  40.9553642  64.9805966  19.1534153  39.9930482  64.6785807
  21.1350385  39.6761018  61.3249550  20.1846016  39.6762879  61.2113922
  21.4382871  38.9293752  60.8085584  25.0212940  17.5934904  57.4927730
  24.2545336  17.0393391  57.6384412  25.4323645  17.6656773  58.3541881
  17.0254702  23.8819700  71.5832911  17.8886163  23.5256505  71.7936236
  16.4520112  23.5433595  72.2708315  36.8703078  45.5121556  62.3895312
  37.5081488  45.3928304  61.6858652  36.7523921  46.4602400  62.4483264
  33.6792785  45.4648984  62.3256837  33.3411296  45.3490049  61.4377372
  34.5482553  45.0640149  62.3057843  29.5379600  47.3184461  58.3153728
  28.9744466  47.2274398  57.5470015  29.4231995  46.4984365  58.7956220
  34.1612568  46.6183836  68.2843042  34.1501209  46.2236634  67.4123546
  34.3233207  45.8849909  68.8776814  27.0844032  48.8135652  61.1537948
  27.8765324  48.4726477  60.7384247  27.3240683  48.9230627  62.0740101
  29.0434786  48.0744566  54.0255327  29.8165662  47.5273553  53.8868203
  29.3960185  48.9388815  54.2369788  30.8819829  49.4020948  67.2322226
  30.5909695  50.3066579  67.1168892  31.5176813  49.4437475  67.9466296
  31.8076036  46.7797796  63.8223586  32.4039608  46.5553819  63.1080549
  31.8651007  46.0382542  64.4249034  31.3801064  44.2337232  51.6573777
  31.6326585  43.7118753  50.8957240  30.4425623  44.0703377  51.7600460
  36.4244347  43.2373010  59.4648520  37.2107436  42.8192433  59.1138937
  36.6883051  44.1419102  59.6330168  36.5954424  48.6745860  54.1637177
  35.9600257  48.7480487  54.8758081  36.2651831  49.2639459  53.4856256
  31.0997353  46.1365338  53.8598152  30.9833611  45.4610241  54.5279236
  31.2099613  45.6497712  53.0430305  33.4428894  45.5975485  57.5644841
  33.0787101  45.0706106  58.2757762  34.2996010  45.2073954  57.3911326
  39.3478194  36.8869817  64.8276107  39.0161519  37.7565228  64.6037322
  38.7523808  36.5706101  65.5070138  33.0834381  40.6265384  52.5606189
  33.2508783  41.4945621  52.9276661  32.8931550  40.7892666  51.6367479
  35.8409714  49.0882363  64.2272020  35.5410437  49.9907402  64.1187827
  35.4960773  48.8214547  65.0793173  29.2922195  45.5396160  60.2608724
  28.3672692  45.4072374  60.4686416  29.5406609  46.3190379  60.7578667
  39.2406858  41.6064904  61.9069457  38.3323735  41.5380312  61.6128218
  39.1894454  42.0836848  62.7351283  33.0623602  43.0823042  53.5452856
  32.9423227  43.5280093  54.3838337  32.3676190  43.4308360  52.9866394
  26.6531006  45.1829434  61.0952513  26.7823388  45.4363913  62.0091925
  25.9728458  45.7757142  60.7757168  33.3147724  43.0254549  69.8504354
  32.5381058  43.5848469  69.8407219  33.9538287  43.5111332  70.3719225
  41.1068504  39.8081342  63.6847331  40.4642884  40.1013875  63.0387126
  40.6023433  39.6934262  64.4900528  38.7608668  43.5544515  54.3733190
  39.6726524  43.7871902  54.1980888  38.2518315  44.1381559  53.8108269
  31.5694096  45.8340003  69.4122321  32.3108780  46.3725046  69.1357145
  30.8631081  46.4606291  69.5693873  37.0449435  47.9769143  68.0094483
  37.4532792  47.5351553  67.2649115  36.3226697  47.4021770  68.2628676
  33.3980506  42.9141750  65.3828040  34.2441701  43.3381163  65.5262689
  33.3379143  42.2575374  66.0766603  36.5479951  40.5746118  67.0409214
  36.3040883  41.3288179  66.5043489  36.8239881  40.9531466  67.8756461
  36.1044643  39.7302551  62.6223051  35.2429122  40.0283805  62.9139789
  36.1307077  39.9472950  61.6904084  32.9206212  48.2744742  59.0296857
  33.3844558  48.5532445  58.2401479  32.6563010  47.3728186  58.8469948
  29.8130293  47.8216223  61.9676620  30.3831650  48.2503492  61.3294105
  30.4038405  47.5398808  62.6660806  31.8575098  44.3967894  55.8386422
  32.5599141  44.8488938  56.3060348  31.5255727  43.7551713  56.4666315
  30.3055460  42.9879651  70.2137631  29.6754120  43.6695932  70.4473028
  30.1991547  42.8762732  69.2690770  25.6000432  42.6551447  61.1403556
  24.8099486  42.9108975  60.6643666  26.0911679  43.4699785  61.2455596
  27.5515177  43.0196026  58.0987032  26.7546341  43.1314720  58.6170528
  27.3240770  43.3582678  57.2327923  33.3820845  49.5440729  66.0469547
  33.4465278  50.0061136  66.8827719  32.6731769  48.9138094  66.1751857
  23.8838135  42.9081937  63.5718546  24.1346173  43.7928947  63.8376122
  24.4197683  42.7286539  62.7993638  29.5836202  37.2900417  72.5762882
  29.1903148  36.7366615  73.2510527  30.4002343  37.6010995  72.9669400
  26.5498260  48.7284275  56.4876452  27.0622781  49.5227525  56.6382017
  27.2020973  48.0310565  56.4210054  28.3593145  51.8450031  58.5699206
  28.5359773  52.7667996  58.3820189  29.1549978  51.5308450  58.9993585
  32.5004163  38.7058296  70.1683139  33.2413877  39.3065449  70.0887602
  32.7322086  37.9635933  69.6101182  27.6445501  43.8914663  68.4461369
  27.5299016  42.9899920  68.7468468  26.7890019  44.1378360  68.0946185
  34.7237339  51.8332403  70.0448869  34.2801193  51.0468782  69.7269774
  35.3854553  52.0211554  69.3792760  29.4824460  53.3628205  64.5709548
  30.0331885  53.2345268  63.7986542  28.6435936  53.6623094  64.2204441
  33.2791631  49.6279333  68.9153779  33.8119968  48.8667621  68.6853087
  32.7505712  49.3352984  69.6577933  36.4461326  34.7339399  64.4447421
  36.1025596  35.6241040  64.3686531  36.8140289  34.5441056  63.5817006
  24.5147177  47.0572929  57.2636023  25.3522399  47.4669937  57.0469731
  24.6925445  46.1172371  57.2336217  36.4111609  44.7248010  52.9519856
  35.8958232  45.4952614  53.1908243  36.1388917  44.0513146  53.5752917
  33.9958720  39.5697710  58.0105094  33.1400316  39.1804561  57.8310733
  34.4085672  39.6489671  57.1504880  35.5257867  37.1044054  62.4096654
  35.0222662  37.0674189  61.5964459  35.8188474  38.0136796  62.4693311
  31.7700753  37.1882783  61.4162836  32.6353749  36.9925592  61.0568725
  31.8378261  36.9593135  62.3432192  36.1997912  42.5975102  54.7779637
  35.8948048  42.9121251  55.6289780  37.1528354  42.6756522  54.8206970
  29.3763072  39.4184991  58.7879203  29.9506823  39.1960173  58.0552395
  29.9634054  39.4873686  59.5407804  38.4342649  45.3058718  59.5943579
  38.9474531  45.9388710  60.0965289  39.0843873  44.7059914  59.2286939
  29.7032659  41.4489452  52.8075088  28.8669971  41.7864139  53.1284363
  29.5637428  41.3138432  51.8702225  31.6785739  36.2926240  57.5154272
  31.0250152  35.9775257  56.8910887  31.6366213  35.6701981  58.2414095
  32.7896944  46.5745535  49.4307564  31.8824006  46.3434789  49.6298713
  33.2867976  45.7783155  49.6181546  34.9123480  42.7808174  61.8401920
  33.9946041  43.0023121  61.6823608  35.3283623  42.8554484  60.9813627
  35.6958527  44.1799589  56.9704600  36.4430346  44.6920987  56.6611722
  35.9650117  43.8583642  57.8308993  33.9685178  46.6758130  53.9531554
  33.0596397  46.3917163  54.0504024  33.9980261  47.0957209  53.0934861
  38.1437365  41.2156706  58.9523389  37.4060121  40.7034092  59.2833632
  38.3964138  40.7757087  58.1406666  38.2448992  33.9932958  59.5465158
  38.5507869  33.1330321  59.2591074  38.9701597  34.5850578  59.3464152
  24.5373348  44.3963644  57.9346756  24.3397748  43.8033005  57.2097823
  23.9820012  44.0915855  58.6522695  32.5170072  44.2886751  60.0541349
  32.5718681  43.3360587  59.9783826  31.7061274  44.4446190  60.5382648
  33.6661265  48.2166874  51.2919633  33.2280695  47.5002733  50.8325270
  34.4071706  48.4442989  50.7304724  30.4562432  42.9063811  57.8131728
  29.6430297  43.2057981  58.2196921  30.9521426  42.5119499  58.5306211
  36.0536643  43.3705635  66.6446622  36.4086031  43.5977108  67.5041088
  36.7008774  43.7024012  66.0223878  29.9476506  40.4782166  63.4292963
  30.5875886  40.3370925  62.7315927  29.1154037  40.1916679  63.0531565
  30.7236810  49.7784596  59.5427956  31.5177409  49.2834917  59.3410531
  30.0128503  49.2502460  59.1795661  27.0319574  43.9227678  55.6187708
  26.1017162  43.8612134  55.8357671  27.1277046  43.4003631  54.8224350
  26.9505123  40.4482491  58.2065950  27.2111940  41.3627824  58.0975111
  27.7722295  39.9806934  58.3562563  28.4230048  41.8620248  65.3764775
  29.0953102  41.6537610  64.7277424  27.5959835  41.6642334  64.9370007
  34.3255620  38.4882189  67.3930436  33.6783535  39.1872139  67.2994912
  35.0956635  38.9218333  67.7606684  37.7334418  48.7531041  70.4680989
  37.5819924  48.5241593  69.5511072  37.7239098  49.7101643  70.4812334
  34.5019754  46.3262954  65.4527255  35.4311814  46.4774114  65.2796223
  34.0810784  46.4146975  64.5975902  34.8513301  49.7295221  60.6114631
  34.5163134  49.6895991  61.5072281  34.3517247  49.0639937  60.1385041
  28.8257545  45.1362851  66.1367212  28.6877343  44.4043090  66.7378751
  29.7362469  45.0471751  65.8551400  37.7872493  47.0751256  50.8851690
  37.1701664  46.3498084  50.7884743  37.3188981  47.8360616  50.5418765
  31.4539846  44.8482811  65.6250891  32.1639465  44.2076003  65.5837510
  31.4109154  45.0995705  66.5477072  30.1668780  41.8348028  67.4446531
  29.6306137  41.3838767  68.0968127  29.5785488  41.9693937  66.7016995
  28.4617323  58.6012078  61.3391190  28.7013922  59.2330602  62.0170208
  27.6186520  58.2500118  61.6256549  29.5771039  41.2936680  50.0072995
  28.7000505  41.1725481  49.6435241  30.0528792  40.5022758  49.7551883
  21.0973179  46.0813840  60.1014502  21.7844219  45.7675570  59.5135517
  20.9421308  46.9855204  59.8281753  25.9007901  40.9704036  64.5299525
  25.8166090  40.3629706  63.7949935  25.0790608  41.4613054  64.5309022
  36.0731615  39.4557600  59.8969720  36.5700315  38.7027562  59.5770791
  35.3018597  39.4921916  59.3312930  32.6566584  41.5974983  59.6241405
  32.2864371  41.0446023  60.3122311  33.1525676  40.9933116  59.0716405
  30.4855782  52.0572478  66.7196423  31.1865242  52.6908961  66.8725817
  30.0150897  52.3987209  65.9592062  38.5150610  36.4227193  62.0449079
  37.6013690  36.6531420  62.2131286  38.9443711  36.5065637  62.8963112
  38.2857068  44.6117085  64.5448973  37.6328519  44.8592993  63.8901426
  38.6637448  43.7981223  64.2111451  34.3344641  45.3536896  71.0315010
  33.6585278  45.2531025  71.7017386  35.1572275  45.1976110  71.4951008
  26.0823500  51.5908833  63.6527526  26.6676937  50.8452521  63.7855430
  25.8848339  51.9012789  64.5364190  28.9362156  54.6260080  58.6689968
  28.2672531  55.1106208  58.1854008  28.7975025  54.8729301  59.5833347
  20.6741155  44.1614433  62.3731969  20.7125255  43.6278024  63.1669087
  20.1681448  43.6349638  61.7542946  28.0531917  39.0078973  65.8694511
  28.1173244  39.8693804  65.4571909  27.9899038  38.3952975  65.1366870
  27.5284190  41.0802106  69.5167545  28.1556229  40.6979183  70.1305070
  26.6712109  40.8616308  69.8823238  24.3049733  42.8878535  55.4485900
  24.6003174  41.9789213  55.3952954  23.4037769  42.8666275  55.1266903
  27.8343980  40.9634532  61.4313449  27.1130566  41.5770499  61.2920922
  28.6237236  41.4992296  61.3530095  30.6370293  38.2988958  67.7054101
  31.1604695  38.5451255  68.4680410  30.4182627  39.1308993  67.2857238
  26.0337574  40.5692633  55.5725225  25.7050281  39.6890012  55.3900331
  26.3876945  40.5140301  56.4601615  29.1479398  40.8565603  55.9400703
  29.4875470  41.3851524  55.2179311  29.5951518  41.1946009  56.7159270
  31.8422838  39.2402653  65.3903771  31.5019659  38.4410466  65.7924451
  31.1361845  39.5404364  64.8180604  32.4939310  36.3251966  63.8431094
  33.3165379  35.8512444  63.7209984  32.7377374  37.1042449  64.3429780
  31.1347545  39.3540224  54.1393996  31.8555907  39.7321477  53.6357713
  30.5112849  40.0729101  54.2428974  35.2778668  40.0585373  55.0752328
  35.4942282  40.9410011  54.7741156  34.7972735  39.6671586  54.3457970
  30.0177889  43.0171086  61.6523073  29.8722470  43.3311389  62.5447354
  29.5403093  43.6355987  61.0993971  31.8774272  40.0073634  61.7003962
  31.8635841  39.1114728  61.3636260  32.5946700  40.0144298  62.3342248
  33.7300403  40.4410975  63.7457090  33.4718180  41.3628045  63.7441420
  33.1985443  40.0441409  64.4357554  24.4923551  45.5576431  64.5910734
  23.9477019  46.3336239  64.7231008  25.3702901  45.9047235  64.4329855
  31.2811168  38.8888015  56.9691532  31.4027079  37.9604661  57.1682420
  30.9913210  38.9026701  56.0569848  34.1502358  36.5742925  60.1058252
  34.1724055  36.6382258  59.1510232  34.5670417  35.7347434  60.2998758
  25.2789573  44.6846327  67.4840891  24.5371309  44.8328962  68.0705521
  24.9582317  44.9454593  66.6207640  25.7246187  52.5711756  59.5151285
  26.5504207  52.2715528  59.1349929  25.3740239  51.8019378  59.9641074
  30.6927720  51.9238224  61.5848959  30.0707729  51.2608929  61.2851187
  31.3632587  51.9499356  60.9022607  23.9254792  50.4898082  60.4740219
  23.0886700  50.0620257  60.2924220  23.8978437  50.6830526  61.4111010
  30.7652247  40.4020012  71.1781465  30.8140403  41.2782135  70.7959235
  31.3074761  39.8597405  70.6053108  38.6608730  43.7784530  69.0874637
  39.5618593  43.6390994  68.7958635  38.7356705  43.9438984  70.0272815
  32.9951536  41.1551384  67.9327824  32.1254845  41.4484950  67.6610412
  33.2311016  41.7391829  68.6535087  28.0093860  46.5007325  56.0668488
  27.7639902  45.5969655  56.2648699  28.1789774  46.5024475  55.1247966
  35.6990570  37.3731001  65.4493244  36.2172513  38.1092028  65.1239733
  35.3445702  37.6794995  66.2840003  27.2789507  42.2335682  53.5654650
  26.5858752  42.3080037  52.9094686  27.0341259  41.4696026  54.0876167
  35.9503164  33.7931284  60.9694141  36.2304917  33.1254473  61.5954567
  36.7353771  33.9860379  60.4568805  39.8212022  42.2148918  64.7165716
  40.7729445  42.3147015  64.7377940  39.6515472  41.4227186  65.2263800
  37.8426402  39.3004501  64.9025117  37.2476334  39.5809514  64.2071605
  37.5576098  39.7898402  65.6741858  34.1383431  44.3051090  49.8735219
  35.0842535  44.1757299  49.9423638  33.7597676  43.5665752  50.3504648
  40.1105315  35.9707097  59.8362111  39.9130136  35.6622185  60.7205443
  40.7205021  36.6968735  59.9660041  34.0222123  48.3568837  71.3335876
  34.9425133  48.5347436  71.5275923  33.9871706  47.4124882  71.1815576
  32.3226348  42.2301067  49.8090105  31.4157803  41.9334180  49.8852818
  32.6002329  41.9330885  48.9424391  23.2404288  43.5507430  60.2589151
  22.9207073  42.6972738  59.9663525  22.6937716  43.7656008  61.0147118
  27.0184196  46.2669871  63.9758658  27.2370206  47.1986979  63.9946691
  27.4309970  45.9077846  64.7613461  33.9388414  36.7737957  55.9634346
  33.1289142  36.4285042  56.3389592  34.6272831  36.4645500  56.5521958
  35.8678962  35.8516003  57.5858643  36.4210000  36.2711457  58.2448666
  36.1049048  34.9251751  57.6281599  31.8912061  41.8403077  73.3661407
  31.7908788  42.7897434  73.2973498  31.6733603  41.5121316  72.4937477
  31.0925133  39.0888002  49.9502084  31.9544296  39.4142900  50.2097901
  31.2775477  38.3019498  49.4375150  23.1092548  47.1710342  62.2282273
  22.4156020  46.7564295  61.7152227  23.8565539  47.2130878  61.6315692
  39.2457769  37.9616529  57.0937307  38.6656438  38.6201333  56.7115359
  38.9793702  37.1393873  56.6824724  37.6961335  37.3621586  59.2958627
  38.1961114  37.4738121  58.4872946  38.3396943  37.0582639  59.9359436
  31.7543331  45.2700216  72.1826468  31.2710413  46.0700576  72.3890357
  31.8404270  45.2808161  71.2293912  25.0229291  47.1028596  60.1048288
  24.9999979  47.2016283  59.1530171  25.3329927  47.9493746  60.4265454
  27.6816669  49.1604751  64.2194902  28.6359922  49.1288693  64.1524834
  27.4829192  48.6995374  65.0345128  28.2716051  47.7305867  66.7865700
  29.0908940  48.2249945  66.8100537  28.5452858  46.8137835  66.7583267
  38.0282647  40.1216619  56.1493655  37.1408502  40.4066270  55.9313850
  38.4436636  39.9610382  55.3020932  41.3797183  40.1463140  59.8647994
  42.1557573  40.6359592  60.1372611  40.6545317  40.5721194  60.3219864
  26.0366897  54.7024370  61.2365100  25.9021365  53.9424771  60.6703098
  25.6198960  55.4265270  60.7693889  37.1725860  49.8861294  50.2441675
  37.8761711  50.0911296  50.8599331  36.4488509  50.4538055  50.5090759
  38.0023671  45.6371155  56.3643945  37.9458872  46.0939706  55.5251578
  38.5552013  44.8761839  56.1866788  29.1936023  55.5993687  61.4483543
  29.0768407  56.5439120  61.3462233  28.3728470  55.2967249  61.8369342
  38.7358450  46.8275936  53.6596475  38.6807254  46.6620208  52.7184919
  38.1104505  47.5351969  53.8158664  23.5250965  42.0644000  67.4857897
  24.1709829  41.5542954  67.9745122  23.3168116  42.8012682  68.0601322
  36.0504357  49.1324848  72.9850037  36.9195517  49.3065500  72.6236672
  35.5711109  49.9519265  72.8625767  32.0454576  36.3284045  53.2381793
  32.0333245  37.2725885  53.3950064  32.9377997  36.1454191  52.9441254
  35.8606695  32.9226822  57.4927730  35.0939091  32.3685308  57.6384412
  36.2717400  32.9948691  58.3541881  27.8648456  39.2111618  71.5832911
  28.7279918  38.8548422  71.7936236  27.2913867  38.8725512  72.2708315
  50.4415663  67.8985216  50.6231697  50.3629295  67.5645079  51.5167455
  51.2625330  68.3906984  50.6223169  56.7966668  81.6439264  53.6268193
  56.1454648  82.2293344  53.2402206  57.5911031  82.1745459  53.6863230
  53.0588573  74.8921067  51.6573777  53.3114094  74.3702588  50.8957240
  52.1213132  74.7287213  51.7600460  58.2741933  79.3329696  54.1637177
  57.6387766  79.4064322  54.8758081  57.9439340  79.9223295  53.4856256
  54.7411111  73.7406877  53.5452856  54.6210736  74.1863928  54.3838337
  54.0463699  74.0892195  52.9866394  53.5362607  75.0551729  55.8386422
  54.2386650  75.5072773  56.3060348  53.2043236  74.4135548  56.4666315
  49.2302686  73.6779861  58.0987032  48.4333850  73.7898556  58.6170528
  49.0028279  74.0166514  57.2327923  46.1934686  77.7156764  57.2636023
  47.0309908  78.1253773  57.0469731  46.3712954  76.7756207  57.2336217
  58.0899118  75.3831845  52.9519856  57.5745741  76.1536450  53.1908243
  57.8176426  74.7096981  53.5752917  63.0633392  78.1364200  54.8873029
  62.2862835  77.7975359  54.4428191  63.7424873  78.1416823  54.2127994
  57.8785421  73.2558937  54.7779637  57.5735557  73.5705086  55.6289780
  58.8315863  73.3340357  54.8206970  56.3231853  79.4149160  56.4272591
  55.7953215  78.6801920  56.1145828  55.8219356  80.1923837  56.1812559
  51.3820168  72.1073288  52.8075088  50.5457480  72.4447974  53.1284363
  51.2424937  71.9722268  51.8702225  54.4684453  77.2329371  49.4307564
  53.5611515  77.0018624  49.6298713  54.9655485  76.4366990  49.6181546
  55.6472687  77.3341966  53.9531554  54.7383906  77.0500998  54.0504024
  55.6767770  77.7541044  53.0934861  60.8791954  80.9448555  57.7222722
  60.4254281  80.1039465  57.7787912  60.2485921  81.5809953  58.0597502
  55.3448774  78.8750709  51.2919633  54.9068204  78.1586568  50.8325270
  56.0859215  79.1026824  50.7304724  52.1349941  73.5647646  57.8131728
  51.3217806  73.8641816  58.2196921  52.6308935  73.1703335  58.5306211
  48.7107083  74.5811514  55.6187708  47.7804671  74.5195969  55.8357671
  48.8064555  74.0587466  54.8224350  59.4660002  77.7335091  50.8851690
  58.8489173  77.0081919  50.7884743  58.9976490  78.4944451  50.5418765
  51.2558548  71.9520515  50.0072995  50.3788014  71.8309316  49.6435241
  51.7316301  71.1606593  49.7551883  42.7760688  76.7397675  60.1014502
  43.4631728  76.4259405  59.5135517  42.6208817  77.6439040  59.8281753
  60.2897687  81.0574263  55.0044330  60.5657531  80.9430857  55.9138204
  59.4202186  80.6591748  54.9656503  56.9566177  70.7169208  55.0752328
  57.1729791  71.5993846  54.7741156  56.4760244  70.3255422  54.3457970
  61.3409273  83.5212361  53.6244073  62.0360177  84.1419054  53.8431388
  61.6832423  82.6707713  53.8996451  63.2400696  80.9712067  55.1531404
  63.7652020  81.3099340  54.4280724  63.1523048  80.0359082  54.9694539
  45.6042301  81.1481918  60.4740219  44.7674209  80.7204092  60.2924220
  45.5765946  81.3414361  61.4111010  48.9577016  72.8919518  53.5654650
  48.2646261  72.9663873  52.9094686  48.7128768  72.1279861  54.0876167
  55.4324141  83.6274113  52.5319167  54.8598108  84.2464300  52.0789639
  56.0056935  84.1773475  53.0659089  61.2809418  83.2277134  50.6231697
  61.2023049  82.8936997  51.5167455  62.1019084  83.7198901  50.6223169
  55.8170940  74.9634926  49.8735219  56.7630044  74.8341134  49.9423638
  55.4385185  74.2249588  50.3504648  54.0013857  72.8884902  49.8090105
  53.0945312  72.5918015  49.8852818  54.2789838  72.5914720  48.9424391
  58.8513369  80.5445129  50.2441675  59.5549220  80.7495131  50.8599331
  58.1276018  81.1121891  50.5090759  60.7600067  80.9827658  52.2940135
  61.5945671  80.5508857  52.1117610  60.5984410  80.8109672  53.2217030
  60.4145959  77.4859771  53.6596475  60.3594763  77.3204043  52.7184919
  59.7892014  78.1935804  53.8158664  51.8978046  86.9105784  64.6639471
  52.8005293  86.9429395  64.9805966  51.6715416  85.9806235  64.6785807
  69.3884342  91.4997309  62.3895312  70.0262752  91.3804057  61.6858652
  69.2705185  92.4478153  62.4483264  66.1974048  91.4524737  62.3256837
  65.8592560  91.3365802  61.4377372  67.0663816  91.0515902  62.3057843
  62.0560864  93.3060214  58.3153728  61.4925729  93.2150151  57.5470015
  61.9413259  92.4860118  58.7956220  59.6025296  94.8011405  61.1537948
  60.3946588  94.4602230  60.7384247  59.8421946  94.9106380  62.0740101
  67.6360423  96.9731181  53.6268193  66.9848402  97.5585262  53.2402206
  68.4304785  97.5037376  53.6863230  61.5616050  94.0620319  54.0255327
  62.3346926  93.5149306  53.8868203  61.9141449  94.9264568  54.2369788
  63.4001092  95.3896701  67.2322226  63.1090958  96.2942332  67.1168892
  64.0358077  95.4313229  67.9466296  64.3257299  92.7673549  63.8223586
  64.9220871  92.5429572  63.1080549  64.3832271  92.0258295  64.4249034
  63.8982328  90.2212985  51.6573777  64.1507848  89.6994506  50.8957240
  62.9606887  90.0579130  51.7600460  68.9425610  89.2248763  59.4648520
  69.7288700  88.8068186  59.1138937  69.2064315  90.1294855  59.6330168
  69.1135688  94.6621613  54.1637177  68.4781521  94.7356240  54.8758081
  68.7833094  95.2515212  53.4856256  74.3434038  89.1623996  60.3681499
  75.0759209  88.5923213  60.6019328  73.5873393  88.7745597  60.8088004
  63.6178616  92.1241091  53.8598152  63.5014874  91.4485994  54.5279236
  63.7280876  91.6373465  53.0430305  65.9610157  91.5851238  57.5644841
  65.5968365  91.0581859  58.2757762  66.8177273  91.1949707  57.3911326
  65.6015644  86.6141137  52.5606189  65.7690047  87.4821374  52.9276661
  65.4112813  86.7768419  51.6367479  68.3590977  95.0758116  64.2272020
  68.0591701  95.9783155  64.1187827  68.0142037  94.8090300  65.0793173
  61.8103459  91.5271913  60.2608724  60.8853955  91.3948127  60.4686416
  62.0587872  92.3066132  60.7578667  65.5804865  89.0698795  53.5452856
  65.4604490  89.5155846  54.3838337  64.8857454  89.4184113  52.9866394
  59.1712270  91.1705187  61.0952513  59.3004651  91.4239666  62.0091925
  58.4909721  91.7632895  60.7757168  63.3411757 101.8402437  57.1942988
  63.2635787 102.7910262  57.2731468  62.7373401 101.4948309  57.8517914
  71.2789931  89.5420268  54.3733190  72.1907787  89.7747655  54.1980888
  70.7699578  90.1257312  53.8108269  64.0875359  91.8215756  69.4122321
  64.8290044  92.3600800  69.1357145  63.3812345  92.4482044  69.5693873
  69.8859514  94.5246087  61.7646772  69.2568376  94.6891801  61.0622840
  69.4985176  94.9387696  62.5357736  73.7648745  95.4600524  59.1191136
  73.0799784  95.8399426  58.5688169  73.8492595  96.0695851  59.8523083
  71.0199677  93.1060484  65.7186479  71.2316572  93.7492243  65.0420860
  70.9729425  92.2722800  65.2508409  65.4387475  94.2620495  59.0296857
  65.9025821  94.5408198  58.2401479  65.1744274  93.3603939  58.8469948
  62.3311557  93.8091976  61.9676620  62.9012914  94.2379245  61.3294105
  62.9219668  93.5274561  62.6660806  64.3756362  90.3843647  55.8386422
  65.0780405  90.8364691  56.3060348  64.0436990  89.7427466  56.4666315
  72.1345505  95.9832439  63.8908836  72.9562949  95.5812626  63.6091518
  72.1307908  95.8800673  64.8424952  65.9002108  95.5316482  66.0469547
  65.9646541  95.9936889  66.8827719  65.1913032  94.9013847  66.1751857
  80.2251498  92.3271187  60.2393808  79.4715206  91.7578585  60.0837812
  80.3599039  92.2933852  61.1864443  65.6150126  97.1984590  55.9148527
  65.4795801  98.0436125  56.3433375  66.1559939  97.4003867  55.1514461
  59.0679524  94.7160028  56.4876452  59.5804044  95.5103278  56.6382017
  59.7202236  94.0186318  56.4210054  60.8774408  97.8325784  58.5699206
  61.0541037  98.7543749  58.3820189  61.6731242  97.5184203  58.9993585
  60.1626765  89.8790416  68.4461369  60.0480280  88.9775673  68.7468468
  59.3071283  90.1254113  68.0946185  67.2418603  97.8208156  70.0448869
  66.7982457  97.0344535  69.7269774  67.9035816  98.0087307  69.3792760
  62.0005724  99.3503958  64.5709548  62.5513149  99.2221021  63.7986542
  61.1617200  99.6498847  64.2204441  69.3399841  98.1010956  68.0730271
  69.3218316  98.9219837  67.5810540  70.2619761  97.9765031  68.2980412
  65.7972895  95.6155086  68.9153779  66.3301232  94.8543374  68.6853087
  65.2686976  95.3228737  69.6577933  57.0328440  93.0448682  57.2636023
  57.8703662  93.4545690  57.0469731  57.2106708  92.1048124  57.2336217
  68.9292872  90.7123763  52.9519856  68.4139496  91.4828367  53.1908243
  68.6570181  90.0388899  53.5752917  73.9027147  93.4656117  54.8873029
  73.1256589  93.1267277  54.4428191  74.5818628  93.4708741  54.2127994
  68.7179176  88.5850855  54.7779637  68.4129311  88.8997004  55.6289780
  69.6709618  88.6632275  54.8206970  67.1625607  94.7441078  56.4272591
  66.6346969  94.0093838  56.1145828  66.6613110  95.5215754  56.1812559
  72.1418453  92.9390099  61.5439637  71.4842128  93.6289360  61.6319766
  72.9458853  93.3286531  61.8873624  70.9523912  91.2934471  59.5943579
  71.4655794  91.9264463  60.0965289  71.6025136  90.6935667  59.2286939
  62.2213922  87.4365205  52.8075088  61.3851234  87.7739892  53.1284363
  62.0818692  87.3014185  51.8702225  65.3078208  92.5621288  49.4307564
  64.4005269  92.3310542  49.6298713  65.8049240  91.7658908  49.6181546
  68.2146287 101.2718796  52.3504250  67.5407985 101.5750492  52.9589208
  68.6012108 102.0747876  52.0009707  68.2139791  90.1675343  56.9704600
  68.9611610  90.6796740  56.6611722  68.4831380  89.8459395  57.8308993
  66.4866441  92.6633883  53.9531554  65.5777660  92.3792916  54.0504024
  66.5161525  93.0832962  53.0934861  71.7185708  96.2740473  57.7222722
  71.2648036  95.4331383  57.7787912  71.0879675  96.9101871  58.0597502
  70.1618648  98.1116969  58.6572540  70.4541622  98.6722027  57.9384905
  70.6717268  98.4045530  59.4125699  65.0351335  90.2762504  60.0541349
  65.0899945  89.3236340  59.9783826  64.2242537  90.4321943  60.5382648
  66.1842529  94.2042627  51.2919633  65.7461959  93.4878486  50.8325270
  66.9252970  94.4318742  50.7304724  65.1252273  98.8897321  59.7465993
  65.0828452  99.1158167  58.8174525  66.0414972  98.6560695  59.8951794
  74.3015644  92.4799824  57.3495951  74.1633542  92.6701420  56.4217141
  73.9451862  93.2419207  57.8064002  74.3285023  94.5476351  62.3607223
  74.7621530  94.4551640  63.2090277  75.0416604  94.5233851  61.7227239
  63.2418074  95.7660350  59.5427956  64.0358672  95.2710670  59.3410531
  62.5309766  95.2378213  59.1795661  68.0612918  98.1478445  63.8940323
  68.1149940  98.7169381  64.6618039  67.1927700  98.3180330  63.5294361
  75.1900573  94.5900052  64.8940108  75.3836463  95.4945862  65.1399383
  75.0901191  94.1307471  65.7278693  70.2515682  94.7406794  70.4680989
  70.1001188  94.5117346  69.5511072  70.2420361  95.6977396  70.4812334
  67.0201018  92.3138707  65.4527255  67.9493078  92.4649867  65.2796223
  66.5992048  92.4022728  64.5975902  65.8189350  96.3389372  63.2225793
  65.6800435  95.9708156  64.0951731  65.0303946  96.8537011  63.0509751
  66.4137502 101.4398468  54.5651329  66.5889257 100.9686511  55.3796952
  65.7270290 102.0664234  54.7932590  67.3694565  95.7170974  60.6114631
  67.0344397  95.6771744  61.5072281  66.8698511  95.0515690  60.1385041
  61.3438809  91.1238604  66.1367212  61.2058607  90.3918843  66.7378751
  62.2543732  91.0347504  65.8551400  70.3053756  93.0627009  50.8851690
  69.6882927  92.3373837  50.7884743  69.8370245  93.8236369  50.5418765
  63.9721109  90.8358564  65.6250891  64.6820728  90.1951756  65.5837510
  63.9290418  91.0871458  66.5477072  71.9607888  97.7725917  68.5457471
  71.9020434  97.0885137  67.8788054  72.3627407  98.5144907  68.0938097
  60.9798587 104.5887831  61.3391190  61.2195185 105.2206355  62.0170208
  60.1367783 104.2375871  61.6256549  62.0952302  87.2812433  50.0072995
  61.2181769  87.1601234  49.6435241  62.5710055  86.4898511  49.7551883
  71.9625295  95.7365501  66.7771450  71.0752074  95.3991423  66.8997849
  72.5323846  95.0048532  67.0140216  53.6154443  92.0689593  60.1014502
  54.3025482  91.7551323  59.5135517  53.4602571  92.9730957  59.8281753
  65.4926449 100.3966953  63.7432694  65.4196620 101.2021925  64.2551998
  65.0503842 100.5958919  62.9180715  65.2816228  99.6338723  57.2535515
  64.4983750 100.1760403  57.3473740  65.9808974 100.1512703  57.6529756
  76.4442636  91.1473718  61.5388012  76.4332512  92.0298434  61.1681945
  75.5760015  90.7945269  61.3442549  67.9525132 100.2953787  65.8990852
  68.6653105 100.9301252  65.8266754  67.4615161 100.3917653  65.0830854
  69.6742659  94.2005040  57.4708144  68.7398938  94.3206502  57.3012848
  69.8519328  93.2977507  57.2068154  73.0615211  90.0422359  58.0058178
  73.5275663  90.8750351  57.9318481  73.5122711  89.5767341  58.7103437
  63.0037046  98.0448231  66.7196423  63.7046505  98.6784714  66.8725817
  62.5332161  98.3862962  65.9592062  71.1291442  96.3866180  55.0044330
  71.4051286  96.2722775  55.9138204  70.2595940  95.9883665  54.9656503
  70.8038332  90.5992838  64.5448973  70.1509782  90.8468746  63.8901426
  71.1818712  89.7856976  64.2111451  67.7645506 100.6352531  58.6477144
  67.9467900  99.8174187  59.1104896  68.5878492 100.8520224  58.2102034
  68.0987671  99.5620716  55.9092192  68.6275438  99.0513171  55.2962354
  68.3615891  99.2463247  56.7737725  58.6004764  97.5784586  63.6527526
  59.1858201  96.8328274  63.7855430  58.4029602  97.8888542  64.5364190
  61.4543419 100.6135833  58.6689968  60.7853794 101.0981961  58.1854008
  61.3156289 100.8605054  59.5833347  53.1922419  90.1490186  62.3731969
  53.2306518  89.6153777  63.1669087  52.6862711  89.6225391  61.7542946
  65.5948688 102.6479577  65.2672626  66.1466996 102.8111198  66.0321712
  65.9354881 103.2384014  64.5952651  70.4459562  97.4740834  71.1221281
  70.9899466  98.0870792  70.6276236  69.8646407  98.0320413  71.6388294
  68.7317075 100.5961552  62.2536309  68.6068214  99.7951292  61.7447254
  69.3896166 101.0907746  61.7650279  70.7951983  98.3970572  63.8815859
  69.8482319  98.2775923  63.8094185  71.1434757  97.5093070  63.9642120
  67.7998417  98.1923288  60.0820211  67.6523379  97.2639996  60.2627781
  68.6251910  98.2143379  59.5977286  61.6660661  86.8441356  55.9400703
  62.0056733  87.3727277  55.2179311  62.1132781  87.1821762  56.7159270
  71.4032539  99.0151847  61.1685084  72.3279086  98.8094709  61.0309535
  71.2347842  98.7668248  62.0774425  63.6528808  85.3415977  54.1393996
  64.3737171  85.7197230  53.6357713  63.0294112  86.0604854  54.2428974
  62.5359152  89.0046839  61.6523073  62.3903733  89.3187142  62.5447354
  62.0584356  89.6231740  61.0993971  71.1927855  99.5337515  56.5247175
  71.3664732  98.9683937  55.7721028  71.6856746 100.3338410  56.3426665
  77.0467246  92.2973938  58.1437475  77.4898392  91.5481263  57.7456598
  76.1693756  92.2884074  57.7611207  72.1803027  98.8504279  53.6244073
  72.8753932  99.4710972  53.8431388  72.5226177  97.9999630  53.8996451
  74.0794450  96.3003985  55.1531404  74.6045774  96.6391257  54.4280724
  73.9916803  95.3651000  54.9694539  65.7414499 100.2138058  67.2821281
  66.0501626  99.9687205  68.1543980  66.5389981 100.4184697  66.7940151
  65.7635111 102.3675968  59.5126657  65.3240101 101.8752347  60.2059514
  66.5143228 101.8248936  59.2718733  58.2427450  98.5587509  59.5151285
  59.0685470  98.2591281  59.1349929  57.8921502  97.7895131  59.9641074
  63.2108983  97.9113977  61.5848959  62.5888993  97.2484682  61.2851187
  63.8813850  97.9375109  60.9022607  56.4436055  96.4773835  60.4740219
  55.6067963  96.0496010  60.2924220  56.4159701  96.6706279  61.4111010
  73.7688356  96.9336888  70.4582602  72.9783900  96.9161027  69.9187102
  73.5321711  97.4725182  71.2131639  73.8886231  93.7829355  67.7715331
  73.9384236  93.6179362  68.7130853  73.7800155  92.9156614  67.3813211
  62.7722490  96.4617900  55.0607420  62.9210611  97.1453365  54.4074092
  63.5788934  96.4422990  55.5756875  75.3904428  96.2026296  68.0157352
  75.0989237  96.5656277  68.8520813  74.7776560  95.4893304  67.8370684
  76.5900111  93.7679176  60.5359922  77.4247002  94.2068980  60.6997483
  76.7259239  93.2917829  59.7168168  73.6391617  91.3258911  66.4837410
  74.1145738  91.5186557  65.6756262  72.7157182  91.3818097  66.2380794
  60.5275123  92.4883078  56.0668488  60.2821165  91.5845408  56.2648699
  60.6971038  92.4900228  55.1247966  66.2717896  98.9566031  52.5319167
  65.6991863  99.5756218  52.0789639  66.8450689  99.5065392  53.0659089
  69.4915155  99.2403181  53.6627749  70.4245829  99.1748743  53.8660625
  69.4038368 100.0759448  53.2042282  72.1203172  98.5569051  50.6231697
  72.0416804  98.2228915  51.5167455  72.9412839  99.0490819  50.6223169
  74.8181363  91.4230791  63.8308015  74.7857683  90.4846791  64.0167699
  75.4281987  91.5014827  63.0973840  66.6564694  90.2926844  49.8735219
  67.6023799  90.1633052  49.9423638  66.2778939  89.5541505  50.3504648
  80.6357913  92.4846797  62.9714052  81.3661302  92.2232085  63.5321756
  80.0264859  91.7475519  63.0116120  78.7173210  90.6254660  63.5688503
  77.9906374  90.4910625  62.9604995  78.3020497  90.9331489  64.3745221
  66.5403387  94.3444590  71.3335876  67.4606396  94.5223189  71.5275923
  66.5052970  93.4000635  71.1815576  64.8407611  88.2176820  49.8090105
  63.9339067  87.9209933  49.8852818  65.1183592  87.9206638  48.9424391
  59.5365459  92.2545624  63.9758658  59.7551469  93.1862732  63.9946691
  59.9491233  91.8953599  64.7613461  66.4569677  82.7613710  55.9634346
  65.6470405  82.4160795  56.3389592  67.1454094  82.4521253  56.5521958
  63.6106396  85.0763755  49.9502084  64.4725560  85.4018653  50.2097901
  63.7956740  84.2895251  49.4375150  55.6273812  93.1586095  62.2282273
  54.9337283  92.7440048  61.7152227  56.3746803  93.2006631  61.6315692
  64.2724595  91.2575969  72.1826468  63.7891676  92.0576329  72.3890357
  64.3585534  91.2683914  71.2293912  57.5410554  93.0904349  60.1048288
  57.5181242  93.1892036  59.1530171  57.8511191  93.9369499  60.4265454
  60.1997932  95.1480504  64.2194902  61.1541186  95.1164446  64.1524834
  60.0010456  94.6871127  65.0345128  60.7897314  93.7181620  66.7865700
  61.6090203  94.2125698  66.8100537  61.0634122  92.8013588  66.7583267
  76.3351005  86.8466512  60.9221935  76.9295496  86.6062248  60.2115243
  76.4077589  86.1273643  61.5495471  58.5548161 100.6900123  61.2365100
  58.4202629  99.9300524  60.6703098  58.1380223 101.4141023  60.7693889
  69.6907124  95.8737047  50.2441675  70.3942974  96.0787049  50.8599331
  68.9669773  96.4413809  50.5090759  70.5204934  91.6246908  56.3643945
  70.4640136  92.0815459  55.5251578  71.0733277  90.8637592  56.1866788
  74.3309740  87.4136640  57.1894065  74.0746674  87.0133275  58.0202273
  73.7062608  88.1280434  57.0644204  78.6422078  90.1532713  59.6965356
  78.0821636  90.2225902  60.4696918  78.0365581  89.9773698  58.9764852
  61.7117287 101.5869440  61.4483543  61.5949671 102.5314873  61.3462233
  60.8909733 101.2843002  61.8369342  71.5993821  96.3119576  52.2940135
  72.4339425  95.8800774  52.1117610  71.4378164  96.1401590  53.2217030
  71.2539714  92.8151689  53.6596475  71.1988517  92.6495961  52.7184919
  70.6285769  93.5227722  53.8158664  68.5685621  95.1200601  72.9850037
  69.4376780  95.2941253  72.6236672  68.0892372  95.9395018  72.8625767
  64.5635839  82.3159798  53.2381793  64.5514509  83.2601638  53.3950064
  65.4559261  82.1329944  52.9441254  62.7371801 102.2397702  64.6639471
  63.6399048 102.2721312  64.9805966  62.5109171 101.3098153  64.6785807
  64.4925403 100.9928689  61.3249550  63.5421034 100.9930550  61.2113922
  64.7957889 100.2461423  60.8085584  80.2278096 106.8289227  62.3895312
  80.8656506 106.7095974  61.6858652  80.1098939 107.7770071  62.4483264
  77.0367803 106.7816655  62.3256837  76.6986314 106.6657720  61.4377372
  77.9057571 106.3807820  62.3057843  72.8954618 108.6352131  58.3153728
  72.3319484 108.5442068  57.5470015  72.7807013 107.8152036  58.7956220
  77.5187586 107.9351507  68.2843042  77.5076226 107.5404305  67.4123546
  77.6808225 107.2017579  68.8776814  70.4419050 110.1303323  61.1537948
  71.2340342 109.7894148  60.7384247  70.6815701 110.2398298  62.0740101
  78.4754177 112.3023099  53.6268193  77.8242157 112.8877180  53.2402206
  79.2698540 112.8329294  53.6863230  72.4009804 109.3912236  54.0255327
  73.1740680 108.8441223  53.8868203  72.7535203 110.2556486  54.2369788
  74.2394847 110.7188619  67.2322226  73.9484713 111.6234249  67.1168892
  74.8751831 110.7605146  67.9466296  75.1651054 108.0965467  63.8223586
  75.7614626 107.8721489  63.1080549  75.2226025 107.3550213  64.4249034
  74.7376082 105.5504902  51.6573777  74.9901603 105.0286424  50.8957240
  73.8000641 105.3871048  51.7600460  79.7819365 104.5540681  59.4648520
  80.5682454 104.1360104  59.1138937  80.0458069 105.4586773  59.6330168
  79.9529442 109.9913531  54.1637177  79.3175275 110.0648158  54.8758081
  79.6226849 110.5807130  53.4856256  85.1827792 104.4915914  60.3681499
  85.9152964 103.9215131  60.6019328  84.4267148 104.1037514  60.8088004
  74.4572371 107.4533008  53.8598152  74.3408629 106.7777912  54.5279236
  74.5674631 106.9665382  53.0430305  76.8003912 106.9143155  57.5644841
  76.4362119 106.3873776  58.2757762  77.6571028 106.5241625  57.3911326
  82.7053212  98.2037488  64.8276107  82.3736537  99.0732899  64.6037322
  82.1098826  97.8873772  65.5070138  76.4409399 101.9433055  52.5606189
  76.6083801 102.8113292  52.9276661  76.2506568 102.1060337  51.6367479
  79.1984732 110.4050034  64.2272020  78.8985455 111.3075073  64.1187827
  78.8535791 110.1382217  65.0793173  72.6497213 106.8563831  60.2608724
  71.7247710 106.7240045  60.4686416  72.8981627 107.6358050  60.7578667
  82.5981876 102.9232574  61.9069457  81.6898753 102.8547983  61.6128218
  82.5469472 103.4004519  62.7351283  76.4198620 104.3990713  53.5452856
  76.2998245 104.8447763  54.3838337  75.7251208 104.7476030  52.9866394
  70.0106024 106.4997104  61.0952513  70.1398406 106.7531583  62.0091925
  69.3303476 107.0924812  60.7757168  74.1805512 117.1694354  57.1942988
  74.1029541 118.1202180  57.2731468  73.5767155 116.8240227  57.8517914
  76.6722741 104.3422220  69.8504354  75.8956076 104.9016140  69.8407219
  77.3113305 104.8279003  70.3719225  84.4643522 101.1249013  63.6847331
  83.8217902 101.4181546  63.0387126  83.9598451 101.0101933  64.4900528
  82.1183686 104.8712186  54.3733190  83.0301542 105.1039573  54.1980888
  81.6093333 105.4549230  53.8108269  74.9269114 107.1507673  69.4122321
  75.6683798 107.6892717  69.1357145  74.2206099 107.7773962  69.5693873
  80.4024453 109.2936814  68.0094483  80.8107809 108.8519224  67.2649115
  79.6801715 108.7189441  68.2628676  76.7555523 104.2309420  65.3828040
  77.6016719 104.6548834  65.5262689  76.6954161 103.5743045  66.0766603
  80.7253268 109.8538004  61.7646772  80.0962131 110.0183718  61.0622840
  80.3378930 110.2679614  62.5357736  84.6042500 110.7892442  59.1191136
  83.9193538 111.1691344  58.5688169  84.6886349 111.3987769  59.8523083
  79.9054969 101.8913789  67.0409214  79.6615901 102.6455849  66.5043489
  80.1814899 102.2699136  67.8756461  81.8593432 108.4352401  65.7186479
  82.0710327 109.0784161  65.0420860  81.8123180 107.6014718  65.2508409
  79.4619661 101.0470222  62.6223051  78.6004140 101.3451475  62.9139789
  79.4882095 101.2640621  61.6904084  76.2781230 109.5912412  59.0296857
  76.7419575 109.8700115  58.2401479  76.0138028 108.6895857  58.8469948
  73.1705311 109.1383894  61.9676620  73.7406668 109.5671162  61.3294105
  73.7613423 108.8566479  62.6660806  75.2150116 105.7135565  55.8386422
  75.9174159 106.1656608  56.3060348  74.8830745 105.0719384  56.4666315
  73.6630478 104.3047321  70.2137631  73.0329138 104.9863602  70.4473028
  73.5566565 104.1930403  69.2690770  68.9575450 103.9719117  61.1403556
  68.1674504 104.2276646  60.6643666  69.4486697 104.7867455  61.2455596
  82.9739260 111.3124357  63.8908836  83.7956703 110.9104544  63.6091518
  82.9701662 111.2092591  64.8424952  70.9090195 104.3363697  58.0987032
  70.1121359 104.4482391  58.6170528  70.6815788 104.6750349  57.2327923
  76.7395863 110.8608400  66.0469547  76.8040295 111.3228807  66.8827719
  76.0306787 110.2305765  66.1751857  67.2413153 104.2249608  63.5718546
  67.4921191 105.1096618  63.8376122  67.7772701 104.0454209  62.7993638
  91.0645253 107.6563105  60.2393808  90.3108961 107.0870503  60.0837812
  91.1992794 107.6225770  61.1864443  76.4543881 112.5276507  55.9148527
  76.3189555 113.3728043  56.3433375  76.9953693 112.7295785  55.1514461
  72.9411220  98.6068087  72.5762882  72.5478166  98.0534286  73.2510527
  73.7577361  98.9178666  72.9669400  69.9073278 110.0451945  56.4876452
  70.4197799 110.8395196  56.6382017  70.5595991 109.3478236  56.4210054
  71.7168163 113.1617702  58.5699206  71.8934791 114.0835666  58.3820189
  72.5124996 112.8476121  58.9993585  75.8579181 100.0225966  70.1683139
  76.5988895 100.6233119  70.0887602  76.0897104  99.2803604  69.6101182
  71.0020519 105.2082334  68.4461369  70.8874034 104.3067591  68.7468468
  70.1465037 105.4546030  68.0946185  78.0812357 113.1500074  70.0448869
  77.6376211 112.3636452  69.7269774  78.7429571 113.3379224  69.3792760
  72.8399478 114.6795875  64.5709548  73.3906903 114.5512939  63.7986542
  72.0010954 114.9790765  64.2204441  80.1793595 113.4302874  68.0730271
  80.1612070 114.2511755  67.5810540  81.1013515 113.3056949  68.2980412
  76.6366649 110.9447003  68.9153779  77.1694986 110.1835291  68.6853087
  76.1080730 110.6520655  69.6577933  79.8036344  96.0507069  64.4447421
  79.4600614  96.9408711  64.3686531  80.1715307  95.8608727  63.5817006
  67.8722195 108.3740600  57.2636023  68.7097417 108.7837608  57.0469731
  68.0500463 107.4340042  57.2336217  79.7686627 106.0415680  52.9519856
  79.2533250 106.8120285  53.1908243  79.4963935 105.3680817  53.5752917
  77.3533738 100.8865381  58.0105094  76.4975334 100.4972232  57.8310733
  77.7660690 100.9657342  57.1504880  78.8832885  98.4211724  62.4096654
  78.3797680  98.3841860  61.5964459  79.1763491  99.3304467  62.4693311
  75.1275770  98.5050454  61.4162836  75.9928767  98.3093263  61.0568725
  75.1953279  98.2760806  62.3432192  84.7420901 108.7948035  54.8873029
  83.9650344 108.4559195  54.4428191  85.4212382 108.8000658  54.2127994
  79.5572930 103.9142772  54.7779637  79.2523066 104.2288922  55.6289780
  80.5103372 103.9924192  54.8206970  78.0019362 110.0732996  56.4272591
  77.4740724 109.3385755  56.1145828  77.5006865 110.8507672  56.1812559
  82.9812208 108.2682016  61.5439637  82.3235882 108.9581278  61.6319766
  83.7852607 108.6578448  61.8873624  72.7338090 100.7352662  58.7879203
  73.3081841 100.5127844  58.0552395  73.3209072 100.8041357  59.5407804
  81.7917667 106.6226389  59.5943579  82.3049549 107.2556381  60.0965289
  82.4418891 106.0227584  59.2286939  73.0607677 102.7657123  52.8075088
  72.2244989 103.1031810  53.1284363  72.9212446 102.6306103  51.8702225
  75.0360757  97.6093911  57.5154272  74.3825170  97.2942928  56.8910887
  74.9941231  96.9869651  58.2414095  76.1471962 107.8913206  49.4307564
  75.2399024 107.6602460  49.6298713  76.6442994 107.0950825  49.6181546
  79.0540041 116.6010713  52.3504250  78.3801740 116.9042410  52.9589208
  79.4405863 117.4039794  52.0009707  78.2698498 104.0975845  61.8401920
  77.3521059 104.3190792  61.6823608  78.6858641 104.1722155  60.9813627
  79.0533545 105.4967260  56.9704600  79.8005364 106.0088657  56.6611722
  79.3225135 105.1751313  57.8308993  77.3260196 107.9925801  53.9531554
  76.4171415 107.7084834  54.0504024  77.3555279 108.4124879  53.0934861
  82.5579463 111.6032390  57.7222722  82.1041790 110.7623300  57.7787912
  81.9273430 112.2393789  58.0597502  81.5012383 102.5324376  58.9523389
  80.7635139 102.0201763  59.2833632  81.7539156 102.0924758  58.1406666
  81.0012402 113.4408887  58.6572540  81.2935377 114.0013944  57.9384905
  81.5111023 113.7337448  59.4125699  81.6024010  95.3100628  59.5465158
  81.9082887  94.4497992  59.2591074  82.3276615  95.9018249  59.3464152
  67.8948366 105.7131315  57.9346756  67.6972766 105.1200676  57.2097823
  67.3395030 105.4083525  58.6522695  75.8745090 105.6054422  60.0541349
  75.9293699 104.6528258  59.9783826  75.0636292 105.7613861  60.5382648
  77.0236283 109.5334545  51.2919633  76.5855713 108.8170404  50.8325270
  77.7646724 109.7610659  50.7304724  73.8137450 104.2231481  57.8131728
  73.0005315 104.5225652  58.2196921  74.3096444 103.8287170  58.5306211
  75.9646027 114.2189238  59.7465993  75.9222206 114.4450085  58.8174525
  76.8808726 113.9852613  59.8951794  79.4111661 104.6873306  66.6446622
  79.7661049 104.9144779  67.5041088  80.0583792 105.0191683  66.0223878
  85.1409398 107.8091742  57.3495951  85.0027297 107.9993338  56.4217141
  84.7845617 108.5711124  57.8064002  73.3051524 101.7949837  63.4292963
  73.9450904 101.6538596  62.7315927  72.4729055 101.5084350  63.0531565
  85.1678778 109.8768269  62.3607223  85.6015284 109.7843558  63.2090277
  85.8810358 109.8525769  61.7227239  74.0811828 111.0952267  59.5427956
  74.8752427 110.6002587  59.3410531  73.3703521 110.5670130  59.1795661
  78.9006673 113.4770363  63.8940323  78.9543695 114.0461299  64.6618039
  78.0321454 113.6472248  63.5294361  70.3894592 105.2395349  55.6187708
  69.4592180 105.1779804  55.8357671  70.4852064 104.7171302  54.8224350
  70.3080141 101.7650162  58.2065950  70.5686958 102.6795495  58.0975111
  71.1297313 101.2974604  58.3562563  71.7805066 103.1787919  65.3764775
  72.4528119 102.9705281  64.7277424  70.9534853 102.9810005  64.9370007
  86.0294327 109.9191969  64.8940108  86.2230217 110.8237780  65.1399383
  85.9294945 109.4599388  65.7278693  77.6830638  99.8049860  67.3930436
  77.0358553 100.5039810  67.2994912  78.4531653 100.2386004  67.7606684
  81.0909436 110.0698712  70.4680989  80.9394942 109.8409264  69.5511072
  81.0814115 111.0269313  70.4812334  77.8594772 107.6430625  65.4527255
  78.7886832 107.7941784  65.2796223  77.4385802 107.7314646  64.5975902
  76.6583104 111.6681289  63.2225793  76.5194190 111.3000074  64.0951731
  75.8697700 112.1828929  63.0509751  77.2531256 116.7690386  54.5651329
  77.4283012 116.2978429  55.3796952  76.5664044 117.3956152  54.7932590
  78.2088319 111.0462892  60.6114631  77.8738152 111.0063662  61.5072281
  77.7092265 110.3807608  60.1385041  72.1832563 106.4530522  66.1367212
  72.0452361 105.7210761  66.7378751  73.0937487 106.3639422  65.8551400
  81.1447511 108.3918926  50.8851690  80.5276682 107.6665754  50.7884743
  80.6763999 109.1528287  50.5418765  74.8114864 106.1650481  65.6250891
  75.5214482 105.5243673  65.5837510  74.7684172 106.4163376  66.5477072
  82.8001643 113.1017835  68.5457471  82.7414189 112.4177055  67.8788054
  83.2021161 113.8436825  68.0938097  73.5243798 103.1515699  67.4446531
  72.9881155 102.7006438  68.0968127  72.9360506 103.2861608  66.7016995
  71.8192341 119.9179748  61.3391190  72.0588940 120.5498273  62.0170208
  70.9761538 119.5667788  61.6256549  72.9346057 102.6104351  50.0072995
  72.0575523 102.4893151  49.6435241  73.4103810 101.8190429  49.7551883
  82.8019050 111.0657419  66.7771450  81.9145829 110.7283340  66.8997849
  83.3717601 110.3340450  67.0140216  64.4548197 107.3981510  60.1014502
  65.1419237 107.0843240  59.5135517  64.2996326 108.3022875  59.8281753
  69.2582919 102.2871707  64.5299525  69.1741108 101.6797376  63.7949935
  68.4365626 102.7780725  64.5309022  76.3320203 115.7258871  63.7432694
  76.2590375 116.5313842  64.2551998  75.8897596 115.9250837  62.9180715
  76.1209983 114.9630641  57.2535515  75.3377505 115.5052321  57.3473740
  76.8202728 115.4804621  57.6529756  79.4306633 100.7725270  59.8969720
  79.9275333 100.0195233  59.5770791  78.6593615 100.8089587  59.3312930
  87.2836390 106.4765636  61.5388012  87.2726267 107.3590351  61.1681945
  86.4153770 106.1237187  61.3442549  78.7918887 115.6245705  65.8990852
  79.5046859 116.2593170  65.8266754  78.3008915 115.7209571  65.0830854
  80.5136414 109.5296958  57.4708144  79.5792692 109.6498420  57.3012848
  80.6913082 108.6269424  57.2068154  76.0141602 102.9142653  59.6241405
  75.6439389 102.3613694  60.3122311  76.5100694 102.3100787  59.0716405
  83.9008965 105.3714277  58.0058178  84.3669417 106.2042268  57.9318481
  84.3516466 104.9059258  58.7103437  73.8430800 113.3740148  66.7196423
  74.5440260 114.0076631  66.8725817  73.3725915 113.7154880  65.9592062
  81.9685196 111.7158098  55.0044330  82.2445040 111.6014693  55.9138204
  81.0989695 111.3175583  54.9656503  81.8725628  97.7394864  62.0449079
  80.9588708  97.9699091  62.2131286  82.3018729  97.8233308  62.8963112
  81.6432086 105.9284756  64.5448973  80.9903537 106.1760663  63.8901426
  82.0212466 105.1148894  64.2111451  78.6039260 115.9644449  58.6477144
  78.7861655 115.1466105  59.1104896  79.4272246 116.1812141  58.2102034
  78.9381426 114.8912634  55.9092192  79.4669192 114.3805089  55.2962354
  79.2009645 114.5755164  56.7737725  77.6919659 106.6704567  71.0315010
  77.0160296 106.5698696  71.7017386  78.5147293 106.5143781  71.4951008
  69.4398518 112.9076503  63.6527526  70.0251955 112.1620191  63.7855430
  69.2423357 113.2180460  64.5364190  72.2937174 115.9427751  58.6689968
  71.6247549 116.4273878  58.1854008  72.1550043 116.1896971  59.5833347
  64.0316173 105.4782104  62.3731969  64.0700273 104.9445694  63.1669087
  63.5256466 104.9517309  61.7542946  76.4342442 117.9771494  65.2672626
  76.9860750 118.1403116  66.0321712  76.7748636 118.5675932  64.5952651
  71.4106935 100.3246644  65.8694511  71.4748262 101.1861475  65.4571909
  71.3474056  99.7120646  65.1366870  70.8859208 102.3969777  69.5167545
  71.5131247 102.0146854  70.1305070  70.0287127 102.1783979  69.8823238
  81.2853317 112.8032752  71.1221281  81.8293221 113.4162710  70.6276236
  80.7040161 113.3612330  71.6388294  67.6624751 104.2046206  55.4485900
  67.9578192 103.2956884  55.3952954  66.7612786 104.1833945  55.1266903
  79.5710829 115.9253470  62.2536309  79.4461969 115.1243210  61.7447254
  80.2289921 116.4199663  61.7650279  71.1918998 102.2802202  61.4313449
  70.4705583 102.8938170  61.2920922  71.9812253 102.8159967  61.3530095
  81.6345738 113.7262490  63.8815859  80.6876073 113.6067841  63.8094185
  81.9828511 112.8384988  63.9642120  73.9945311  99.6156629  67.7054101
  74.5179713  99.8618925  68.4680410  73.7757645 100.4476664  67.2857238
  69.3912592 101.8860303  55.5725225  69.0625298 101.0057682  55.3900331
  69.7451963 101.8307972  56.4601615  78.6392171 113.5215206  60.0820211
  78.4917134 112.5931914  60.2627781  79.4645665 113.5435297  59.5977286
  72.5054415 102.1733273  55.9400703  72.8450488 102.7019194  55.2179311
  72.9526536 102.5113679  56.7159270  82.2426293 114.3443765  61.1685084
  83.1672841 114.1386626  61.0309535  82.0741596 114.0960166  62.0774425
  75.1997856 100.5570324  65.3903771  74.8594677  99.7578137  65.7924451
  74.4936863 100.8572035  64.8180604  75.8514328  97.6419636  63.8431094
  76.6740397  97.1680115  63.7209984  76.0952392  98.4210120  64.3429780
  74.4922563 100.6707895  54.1393996  75.2130925 101.0489148  53.6357713
  73.8687867 101.3896772  54.2428974  78.6353685 101.3753044  55.0752328
  78.8517300 102.2577682  54.7741156  78.1547753 100.9839257  54.3457970
  73.3752907 104.3338757  61.6523073  73.2297488 104.6479060  62.5447354
  72.8978111 104.9523657  61.0993971  75.2349290 101.3241305  61.7003962
  75.2210859 100.4282398  61.3636260  75.9521718 101.3311969  62.3342248
  77.0875420 101.7578645  63.7457090  76.8293198 102.6795716  63.7441420
  76.5560461 101.3609080  64.4357554  82.0321609 114.8629432  56.5247175
  82.2058487 114.2975855  55.7721028  82.5250500 115.6630327  56.3426665
  67.8498569 106.8744101  64.5910734  67.3052037 107.6503909  64.7231008
  68.7277919 107.2214906  64.4329855  74.6386186 100.2055685  56.9691532
  74.7602097  99.2772331  57.1682420  74.3488228 100.2194371  56.0569848
  77.5077376  97.8910596  60.1058252  77.5299073  97.9549929  59.1510232
  77.9245435  97.0515104  60.2998758  87.8861000 107.6265855  58.1437475
  88.3292146 106.8773180  57.7456598  87.0087511 107.6175992  57.7611207
  83.0196782 114.1796197  53.6244073  83.7147686 114.8002889  53.8431388
  83.3619932 113.3291548  53.8996451  68.6364591 106.0013998  67.4840891
  67.8946327 106.1496633  68.0705521  68.3157335 106.2622263  66.6207640
  84.9188205 111.6295902  55.1531404  85.4439529 111.9683175  54.4280724
  84.8310557 110.6942918  54.9694539  76.5808254 115.5429976  67.2821281
  76.8895380 115.2979123  68.1543980  77.3783736 115.7476614  66.7940151
  76.6028866 117.6967886  59.5126657  76.1633856 117.2044264  60.2059514
  77.3536983 117.1540853  59.2718733  69.0821205 113.8879426  59.5151285
  69.9079224 113.5883198  59.1349929  68.7315257 113.1187049  59.9641074
  74.0502738 113.2405895  61.5848959  73.4282747 112.5776600  61.2851187
  74.7207605 113.2667027  60.9022607  67.2829810 111.8065753  60.4740219
  66.4461718 111.3787927  60.2924220  67.2553455 111.9998196  61.4111010
  74.1227265 101.7187683  71.1781465  74.1715421 102.5949805  70.7959235
  74.6649779 101.1765076  70.6053108  84.6082111 112.2628806  70.4582602
  83.8177655 112.2452945  69.9187102  84.3715465 112.8017100  71.2131639
  84.7279986 109.1121272  67.7715331  84.7777991 108.9471280  68.7130853
  84.6193909 108.2448531  67.3813211  73.6116245 111.7909818  55.0607420
  73.7604365 112.4745282  54.4074092  74.4182688 111.7714908  55.5756875
  82.0183748 105.0952200  69.0874637  82.9193611 104.9558665  68.7958635
  82.0931723 105.2606655  70.0272815  76.3526554 102.4719055  67.9327824
  75.4829863 102.7652621  67.6610412  76.5886034 103.0559500  68.6535087
  86.2298183 111.5318214  68.0157352  85.9382991 111.8948194  68.8520813
  85.6170314 110.8185222  67.8370684  87.4293865 109.0971094  60.5359922
  88.2640756 109.5360898  60.6997483  87.5652994 108.6209747  59.7168168
  84.4785371 106.6550828  66.4837410  84.9539493 106.8478475  65.6756262
  83.5550936 106.7110014  66.2380794  71.3668878 107.8174996  56.0668488
  71.1214920 106.9137326  56.2648699  71.5364792 107.8192146  55.1247966
  79.0565588  98.6898672  65.4493244  79.5747531  99.4259699  65.1239733
  78.7020720  98.9962665  66.2840003  70.6364525 103.5503353  53.5654650
  69.9433770 103.6247708  52.9094686  70.3916277 102.7863697  54.0876167
  79.3078182  95.1098955  60.9694141  79.5879935  94.4422144  61.5954567
  80.0928789  95.3028050  60.4568805  77.1111650 114.2857948  52.5319167
  76.5385617 114.9048136  52.0789639  77.6844444 114.8357310  53.0659089
  83.1787040 103.5316589  64.7165716  84.1304463 103.6314686  64.7377940
  83.0090490 102.7394857  65.2263800  81.2001419 100.6172172  64.9025117
  80.6051352 100.8977184  64.2071605  80.9151116 101.1066073  65.6741858
  80.3308910 114.5695099  53.6627749  81.2639583 114.5040660  53.8660625
  80.2432123 115.4051365  53.2042282  82.9596927 113.8860969  50.6231697
  82.8810558 113.5520832  51.5167455  83.7806593 114.3782737  50.6223169
  85.6575118 106.7522708  63.8308015  85.6251438 105.8138709  64.0167699
  86.2675741 106.8306745  63.0973840  77.4958449 105.6218761  49.8735219
  78.4417553 105.4924969  49.9423638  77.1172694 104.8833423  50.3504648
  85.8069606 103.5433752  63.8766299  85.2908655 102.7592208  63.6896228
  86.6909555 103.2152468  64.0412818  83.4680333  97.2874767  59.8362111
  83.2705154  96.9789855  60.7205443  84.0780039  98.0136406  59.9660041
  91.4751668 107.8138715  62.9714052  92.2055056 107.5524003  63.5321756
  90.8658613 107.0767437  63.0116120  89.5566965 105.9546578  63.5688503
  88.8300128 105.8202543  62.9604995  89.1414252 106.2623406  64.3745221
  77.3797141 109.6736507  71.3335876  78.3000151 109.8515106  71.5275923
  77.3446724 108.7292553  71.1815576  75.6801366 103.5468738  49.8090105
  74.7732821 103.2501850  49.8852818  75.9577347 103.2498556  48.9424391
  66.5979306 104.8675101  60.2589151  66.2782091 104.0140409  59.9663525
  66.0512734 105.0823679  61.0147118  70.3759214 107.5837542  63.9758658
  70.5945224 108.5154650  63.9946691  70.7884988 107.2245516  64.7613461
  77.2963432  98.0905627  55.9634346  76.4864160  97.7452712  56.3389592
  77.9847848  97.7813171  56.5521958  79.2253980  97.1683674  57.5858643
  79.7785018  97.5879128  58.2448666  79.4624066  96.2419422  57.6281599
  75.2487079 103.1570748  73.3661407  75.1483806 104.1065105  73.2973498
  75.0308621 102.8288987  72.4937477  74.4500150 100.4055673  49.9502084
  75.3119314 100.7310571  50.2097901  74.6350495  99.6187169  49.4375150
  66.4667566 108.4878012  62.2282273  65.7731038 108.0731965  61.7152227
  67.2140557 108.5298549  61.6315692  82.6032787  99.2784199  57.0937307
  82.0231456  99.9369003  56.7115359  82.3368720  98.4561544  56.6824724
  81.0536353  98.6789257  59.2958627  81.5536132  98.7905791  58.4872946
  81.6971961  98.3750310  59.9359436  75.1118349 106.5867887  72.1826468
  74.6285431 107.3868247  72.3890357  75.1979288 106.5975831  71.2293912
  68.3804309 108.4196266  60.1048288  68.3574997 108.5183954  59.1530171
  68.6904945 109.2661417  60.4265454  71.0391687 110.4772421  64.2194902
  71.9934940 110.4456364  64.1524834  70.8404210 110.0163045  65.0345128
  71.6291069 109.0473537  66.7865700  72.4483958 109.5417616  66.8100537
  71.9027876 108.1305505  66.7583267  81.3857665 101.4384290  56.1493655
  80.4983520 101.7233940  55.9313850  81.8011654 101.2778053  55.3020932
  84.7372201 101.4630811  59.8647994  85.5132591 101.9527263  60.1372611
  84.0120335 101.8888865  60.3219864  87.1744760 102.1758430  60.9221935
  87.7689251 101.9354166  60.2115243  87.2471343 101.4565560  61.5495471
  69.3941915 116.0192041  61.2365100  69.2596383 115.2592442  60.6703098
  68.9773978 116.7432941  60.7693889  80.5300878 111.2028964  50.2441675
  81.2336729 111.4078967  50.8599331  79.8063527 111.7705726  50.5090759
  81.3598689 106.9538826  56.3643945  81.3033890 107.4107377  55.5251578
  81.9127031 106.1929510  56.1866788  85.1703495 102.7428557  57.1894065
  84.9140429 102.3425193  58.0202273  84.5456363 103.4572351  57.0644204
  89.4815832 105.4824631  59.6965356  88.9215390 105.5517820  60.4696918
  88.8759336 105.3065615  58.9764852  72.5511041 116.9161358  61.4483543
  72.4343425 117.8606790  61.3462233  71.7303488 116.6134919  61.8369342
  82.4387576 111.6411493  52.2940135  83.2733180 111.2092692  52.1117610
  82.2771919 111.4693507  53.2217030  82.0933468 108.1443607  53.6596475
  82.0382272 107.9787878  52.7184919  81.4679523 108.8519640  53.8158664
  66.8825983 103.3811671  67.4857897  67.5284847 102.8710625  67.9745122
  66.6743134 104.1180353  68.0601322  79.4079375 110.4492519  72.9850037
  80.2770535 110.6233171  72.6236672  78.9286127 111.2686935  72.8625767
  75.4029593  97.6451716  53.2381793  75.3908263  98.5893556  53.3950064
  76.2953015  97.4621861  52.9441254  73.5765555 117.5689620  64.6639471
  74.4792802 117.6013230  64.9805966  73.3502925 116.6390071  64.6785807
  75.3319157 116.3220606  61.3249550  74.3814788 116.3222468  61.2113922
  75.6351644 115.5753341  60.8085584  79.2181713  94.2394492  57.4927730
  78.4514109  93.6852979  57.6384412  79.6292418  94.3116361  58.3541881
  71.2223474 100.5279288  71.5832911  72.0854936 100.1716093  71.7936236
  70.6488885 100.1893183  72.2708315  91.0671851 122.1581145  62.3895312
  91.7050261 122.0387892  61.6858652  90.9492694 123.1061989  62.4483264
  87.8761557 122.1108573  62.3256837  87.5380069 121.9949637  61.4377372
  88.7451325 121.7099738  62.3057843  83.7348373 123.9644049  58.3153728
  83.1713238 123.8733986  57.5470015  83.6200768 123.1443954  58.7956220
  88.3581340 123.2643424  68.2843042  88.3469981 122.8696223  67.4123546
  88.5201980 122.5309497  68.8776814  81.2812805 125.4595241  61.1537948
  82.0734097 125.1186065  60.7384247  81.5209455 125.5690216  62.0740101
  83.2403559 124.7204154  54.0255327  84.0134435 124.1733141  53.8868203
  83.5928958 125.5848403  54.2369788  85.0788601 126.0480536  67.2322226
  84.7878467 126.9526167  67.1168892  85.7145586 126.0897064  67.9466296
  86.0044808 123.4257385  63.8223586  86.6008380 123.2013407  63.1080549
  86.0619780 122.6842130  64.4249034  85.5769837 120.8796820  51.6573777
  85.8295357 120.3578341  50.8957240  84.6394396 120.7162966  51.7600460
  90.6213119 119.8832598  59.4648520  91.4076209 119.4652022  59.1138937
  90.8851824 120.7878691  59.6330168  96.0221547 119.8207832  60.3681499
  96.7546718 119.2507048  60.6019328  95.2660902 119.4329432  60.8088004
  85.2966125 122.7824926  53.8598152  85.1802383 122.1069829  54.5279236
  85.4068385 122.2957300  53.0430305  87.6397666 122.2435073  57.5644841
  87.2755873 121.7165694  58.2757762  88.4964782 121.8533542  57.3911326
  93.5446967 113.5329406  64.8276107  93.2130292 114.4024817  64.6037322
  92.9492580 113.2165690  65.5070138  87.2803153 117.2724973  52.5606189
  87.4477556 118.1405209  52.9276661  87.0900322 117.4352255  51.6367479
  83.4890968 122.1855749  60.2608724  82.5641464 122.0531963  60.4686416
  83.7375381 122.9649968  60.7578667  93.4375630 118.2524492  61.9069457
  92.5292508 118.1839900  61.6128218  93.3863226 118.7296437  62.7351283
  87.2592374 119.7282630  53.5452856  87.1391999 120.1739681  54.3838337
  86.5644962 120.0767948  52.9866394  80.8499779 121.8289022  61.0952513
  80.9792160 122.0823501  62.0091925  80.1697230 122.4216730  60.7757168
  87.5116496 119.6714138  69.8504354  86.7349830 120.2308058  69.8407219
  88.1507059 120.1570921  70.3719225  95.3037277 116.4540930  63.6847331
  94.6611657 116.7473463  63.0387126  94.7992205 116.3393851  64.4900528
  92.9577440 120.2004104  54.3733190  93.8695296 120.4331490  54.1980888
  92.4487087 120.7841148  53.8108269  85.7662868 122.4799591  69.4122321
  86.5077553 123.0184635  69.1357145  85.0599854 123.1065880  69.5693873
  91.2418208 124.6228731  68.0094483  91.6501564 124.1811142  67.2649115
  90.5195469 124.0481359  68.2628676  87.5949278 119.5601338  65.3828040
  88.4410473 119.9840752  65.5262689  87.5347916 118.9034962  66.0766603
  90.7448723 117.2205706  67.0409214  90.5009655 117.9747767  66.5043489
  91.0208654 117.5991054  67.8756461  90.3013415 116.3762139  62.6223051
  89.4397894 116.6743393  62.9139789  90.3275850 116.5932538  61.6904084
  87.1174984 124.9204330  59.0296857  87.5813330 125.1992033  58.2401479
  86.8531783 124.0187775  58.8469948  84.0099066 124.4675812  61.9676620
  84.5800423 124.8963080  61.3294105  84.6007177 124.1858396  62.6660806
  86.0543871 121.0427482  55.8386422  86.7567914 121.4948526  56.3060348
  85.7224499 120.4011301  56.4666315  84.5024232 119.6339239  70.2137631
  83.8722893 120.3155520  70.4473028  84.3960320 119.5222321  69.2690770
  79.7969204 119.3011035  61.1403556  79.0068258 119.5568564  60.6643666
  80.2880452 120.1159373  61.2455596  81.7483950 119.6655614  58.0987032
  80.9515113 119.7774309  58.6170528  81.5209542 120.0042267  57.2327923
  87.5789617 126.1900318  66.0469547  87.6434050 126.6520725  66.8827719
  86.8700541 125.5597682  66.1751857  78.0806907 119.5541526  63.5718546
  78.3314946 120.4388535  63.8376122  78.6166456 119.3746127  62.7993638
  83.7804975 113.9360005  72.5762882  83.3871920 113.3826203  73.2510527
  84.5971115 114.2470583  72.9669400  80.7467033 125.3743863  56.4876452
  81.2591553 126.1687113  56.6382017  81.3989745 124.6770154  56.4210054
  82.5561917 128.4909619  58.5699206  82.7328546 129.4127584  58.3820189
  83.3518751 128.1768039  58.9993585  86.6972936 115.3517884  70.1683139
  87.4382649 115.9525037  70.0887602  86.9290859 114.6095522  69.6101182
  81.8414274 120.5374251  68.4461369  81.7267789 119.6359508  68.7468468
  80.9858792 120.7837948  68.0946185  83.6793233 130.0087793  64.5709548
  84.2300658 129.8804857  63.7986542  82.8404709 130.3082682  64.2204441
  87.4760404 126.2738921  68.9153779  88.0088741 125.5127209  68.6853087
  86.9474485 125.9812573  69.6577933  90.6430099 111.3798987  64.4447421
  90.2994368 112.2700629  64.3686531  91.0109061 111.1900645  63.5817006
  78.7115949 123.7032517  57.2636023  79.5491171 124.1129526  57.0469731
  78.8894217 122.7631960  57.2336217  90.6080381 121.3707598  52.9519856
  90.0927005 122.1412203  53.1908243  90.3357690 120.6972734  53.5752917
  88.1927492 116.2157299  58.0105094  87.3369089 115.8264149  57.8310733
  88.6054444 116.2949260  57.1504880  89.7226639 113.7503642  62.4096654
  89.2191435 113.7133777  61.5964459  90.0157246 114.6596385  62.4693311
  85.9669525 113.8342372  61.4162836  86.8322522 113.6385180  61.0568725
  86.0347034 113.6052724  62.3432192  90.3966685 119.2434690  54.7779637
  90.0916820 119.5580839  55.6289780  91.3497127 119.3216110  54.8206970
  88.8413116 125.4024913  56.4272591  88.3134478 124.6677673  56.1145828
  88.3400619 126.1799590  56.1812559  83.5731844 116.0644580  58.7879203
  84.1475596 115.8419761  58.0552395  84.1602826 116.1333274  59.5407804
  92.6311421 121.9518307  59.5943579  93.1443303 122.5848298  60.0965289
  93.2812645 121.3519502  59.2286939  83.9001431 118.0949041  52.8075088
  83.0638743 118.4323727  53.1284363  83.7606201 117.9598021  51.8702225
  85.8754512 112.9385829  57.5154272  85.2218924 112.6234846  56.8910887
  85.8334986 112.3161569  58.2414095  86.9865717 123.2205124  49.4307564
  86.0792778 122.9894377  49.6298713  87.4836749 122.4242743  49.6181546
  89.1092252 119.4267762  61.8401920  88.1914813 119.6482709  61.6823608
  89.5252396 119.5014073  60.9813627  89.8927300 120.8259178  56.9704600
  90.6399119 121.3380575  56.6611722  90.1618889 120.5043231  57.8308993
  88.1653950 123.3217719  53.9531554  87.2565169 123.0376751  54.0504024
  88.1949034 123.7416797  53.0934861  92.3406137 117.8616294  58.9523389
  91.6028894 117.3493680  59.2833632  92.5932911 117.4216676  58.1406666
  92.4417764 110.6392546  59.5465158  92.7476641 109.7789910  59.2591074
  93.1670369 111.2310166  59.3464152  78.7342120 121.0423233  57.9346756
  78.5366520 120.4492593  57.2097823  78.1788784 120.7375443  58.6522695
  86.7138844 120.9346339  60.0541349  86.7687454 119.9820176  59.9783826
  85.9030046 121.0905778  60.5382648  87.8630038 124.8626462  51.2919633
  87.4249468 124.1462321  50.8325270  88.6040479 125.0902577  50.7304724
  84.6531204 119.5523399  57.8131728  83.8399070 119.8517569  58.2196921
  85.1490198 119.1579088  58.5306211  90.2505416 120.0165223  66.6446622
  90.6054803 120.2436697  67.5041088  90.8977547 120.3483600  66.0223878
  84.1445279 117.1241754  63.4292963  84.7844658 116.9830514  62.7315927
  83.3122809 116.8376268  63.0531565  84.9205583 126.4244185  59.5427956
  85.7146181 125.9294505  59.3410531  84.2097275 125.8962048  59.1795661
  81.2288346 120.5687267  55.6187708  80.2985934 120.5071722  55.8357671
  81.3245818 120.0463219  54.8224350  81.1473895 117.0942079  58.2065950
  81.4080712 118.0087413  58.0975111  81.9691068 116.6266522  58.3562563
  82.6198821 118.5079837  65.3764775  83.2921874 118.2997199  64.7277424
  81.7928607 118.3101923  64.9370007  88.5224393 115.1341778  67.3930436
  87.8752308 115.8331727  67.2994912  89.2925408 115.5677921  67.7606684
  88.6988527 122.9722542  65.4527255  89.6280587 123.1233702  65.2796223
  88.2779557 123.0606563  64.5975902  87.4976859 126.9973207  63.2225793
  87.3587944 126.6291991  64.0951731  86.7091455 127.5120846  63.0509751
  89.0482074 126.3754810  60.6114631  88.7131906 126.3355580  61.5072281
  88.5486020 125.7099525  60.1385041  83.0226318 121.7822440  66.1367212
  82.8846116 121.0502678  66.7378751  83.9331241 121.6931340  65.8551400
  91.9841265 123.7210844  50.8851690  91.3670436 122.9957672  50.7884743
  91.5157754 124.4820204  50.5418765  85.6508618 121.4942399  65.6250891
  86.3608237 120.8535591  65.5837510  85.6077927 121.7455294  66.5477072
  84.3637552 118.4807617  67.4446531  83.8274909 118.0298355  68.0968127
  83.7754261 118.6153526  66.7016995  83.7739811 117.9396268  50.0072995
  82.8969278 117.8185069  49.6435241  84.2497564 117.1482347  49.7551883
  75.2941952 122.7273428  60.1014502  75.9812991 122.4135158  59.5135517
  75.1390080 123.6314793  59.8281753  80.0976674 117.6163625  64.5299525
  80.0134862 117.0089294  63.7949935  79.2759380 118.1072643  64.5309022
  90.2700388 116.1017188  59.8969720  90.7669087 115.3487150  59.5770791
  89.4987369 116.1381505  59.3312930  91.3530168 124.8588875  57.4708144
  90.4186447 124.9790338  57.3012848  91.5306837 123.9561342  57.2068154
  86.8535356 118.2434571  59.6241405  86.4833144 117.6905611  60.3122311
  87.3494449 117.6392705  59.0716405  94.7402720 120.7006195  58.0058178
  95.2063172 121.5334186  57.9318481  95.1910220 120.2351176  58.7103437
  84.6824555 128.7032066  66.7196423  85.3834014 129.3368549  66.8725817
  84.2119670 129.0446798  65.9592062  92.7119382 113.0686782  62.0449079
  91.7982462 113.2991008  62.2131286  93.1412484 113.1525226  62.8963112
  92.4825841 121.2576673  64.5448973  91.8297291 121.5052581  63.8901426
  92.8606221 120.4440812  64.2111451  88.5313414 121.9996485  71.0315010
  87.8554051 121.8990614  71.7017386  89.3541048 121.8435698  71.4951008
  80.2792273 128.2368421  63.6527526  80.8645710 127.4912109  63.7855430
  80.0817111 128.5472378  64.5364190  74.8709928 120.8074021  62.3731969
  74.9094027 120.2737612  63.1669087  74.3650220 120.2809227  61.7542946
  82.2500690 115.6538562  65.8694511  82.3142016 116.5153393  65.4571909
  82.1867810 115.0412563  65.1366870  81.7252962 117.7261694  69.5167545
  82.3525001 117.3438772  70.1305070  80.8680881 117.5075896  69.8823238
  78.5018505 119.5338123  55.4485900  78.7971946 118.6248802  55.3952954
  77.6006541 119.5125863  55.1266903  82.0312752 117.6094120  61.4313449
  81.3099338 118.2230088  61.2920922  82.8206008 118.1451885  61.3530095
  84.8339066 114.9448547  67.7054101  85.3573468 115.1910843  68.4680410
  84.6151399 115.7768581  67.2857238  80.2306347 117.2152221  55.5725225
  79.9019053 116.3349600  55.3900331  80.5845718 117.1599890  56.4601615
  83.3448170 117.5025191  55.9400703  83.6844242 118.0311112  55.2179311
  83.7920290 117.8405597  56.7159270  86.0391611 115.8862242  65.3903771
  85.6988431 115.0870055  65.7924451  85.3330617 116.1863952  64.8180604
  86.6908083 112.9711554  63.8431094  87.5134152 112.4972032  63.7209984
  86.9346146 113.7502038  64.3429780  85.3316317 115.9999813  54.1393996
  86.0524680 116.3781065  53.6357713  84.7081621 116.7188689  54.2428974
  89.4747440 116.7044961  55.0752328  89.6911054 117.5869599  54.7741156
  88.9941507 116.3131175  54.3457970  84.2146661 119.6630675  61.6523073
  84.0691242 119.9770978  62.5447354  83.7371865 120.2815575  61.0993971
  86.0743044 116.6533223  61.7003962  86.0604613 115.7574316  61.3636260
  86.7915472 116.6603886  62.3342248  87.9269175 117.0870563  63.7457090
  87.6686953 118.0087634  63.7441420  87.3954215 116.6900997  64.4357554
  78.6892324 122.2036019  64.5910734  78.1445792 122.9795827  64.7231008
  79.5671673 122.5506824  64.4329855  85.4779940 115.5347603  56.9691532
  85.5995851 114.6064249  57.1682420  85.1881983 115.5486289  56.0569848
  88.3471131 113.2202513  60.1058252  88.3692827 113.2841846  59.1510232
  88.7639190 112.3807022  60.2998758  79.4758345 121.3305915  67.4840891
  78.7340081 121.4788551  68.0705521  79.1551090 121.5914181  66.6207640
  79.9214959 129.2171344  59.5151285  80.7472979 128.9175116  59.1349929
  79.5709011 128.4478967  59.9641074  84.8896492 128.5697812  61.5848959
  84.2676502 127.9068517  61.2851187  85.5601359 128.5958944  60.9022607
  78.1223564 127.1357671  60.4740219  77.2855472 126.7079845  60.2924220
  78.0947210 127.3290114  61.4111010  84.9621020 117.0479600  71.1781465
  85.0109175 117.9241723  70.7959235  85.5043534 116.5056993  70.6053108
  84.4509999 127.1201736  55.0607420  84.5998120 127.8037200  54.4074092
  85.2576443 127.1006826  55.5756875  92.8577503 120.4244118  69.0874637
  93.7587366 120.2850583  68.7958635  92.9325477 120.5898573  70.0272815
  87.1920308 117.8010973  67.9327824  86.3223618 118.0944539  67.6610412
  87.4279789 118.3851418  68.6535087  82.2062632 123.1466913  56.0668488
  81.9608674 122.2429243  56.2648699  82.3758547 123.1484064  55.1247966
  89.8959342 114.0190590  65.4493244  90.4141286 114.7551617  65.1239733
  89.5414475 114.3254583  66.2840003  81.4758280 118.8795271  53.5654650
  80.7827525 118.9539626  52.9094686  81.2310032 118.1155614  54.0876167
  90.1471936 110.4390872  60.9694141  90.4273690 109.7714061  61.5954567
  90.9322543 110.6319968  60.4568805  94.0180795 118.8608506  64.7165716
  94.9698217 118.9606604  64.7377940  93.8484245 118.0686775  65.2263800
  92.0395174 115.9464089  64.9025117  91.4445106 116.2269102  64.2071605
  91.7544871 116.4357990  65.6741858  88.3352203 120.9510679  49.8735219
  89.2811308 120.8216887  49.9423638  87.9566448 120.2125341  50.3504648
  96.6463361 118.8725669  63.8766299  96.1302409 118.0884126  63.6896228
  97.5303309 118.5444386  64.0412818  94.3074088 112.6166685  59.8362111
  94.1098909 112.3081773  60.7205443  94.9173793 113.3428324  59.9660041
  88.2190896 125.0028425  71.3335876  89.1393905 125.1807024  71.5275923
  88.1840479 124.0584470  71.1815576  86.5195120 118.8760655  49.8090105
  85.6126576 118.5793768  49.8852818  86.7971101 118.5790473  48.9424391
  77.4373061 120.1967019  60.2589151  77.1175845 119.3432327  59.9663525
  76.8906489 120.4115597  61.0147118  81.2152968 122.9129460  63.9758658
  81.4338978 123.8446567  63.9946691  81.6278742 122.5537434  64.7613461
  88.1357186 113.4197545  55.9634346  87.3257914 113.0744630  56.3389592
  88.8241603 113.1105089  56.5521958  90.0647734 112.4975592  57.5858643
  90.6178773 112.9171045  58.2448666  90.3017821 111.5711340  57.6281599
  86.0880834 118.4862665  73.3661407  85.9877560 119.4357022  73.2973498
  85.8702376 118.1580904  72.4937477  85.2893905 115.7347590  49.9502084
  86.1513069 116.0602489  50.2097901  85.4744249 114.9479086  49.4375150
  77.3061321 123.8169930  62.2282273  76.6124792 123.4023883  61.7152227
  78.0534312 123.8590467  61.6315692  93.4426541 114.6076117  57.0937307
  92.8625210 115.2660921  56.7115359  93.1762474 113.7853462  56.6824724
  91.8930108 114.0081175  59.2958627  92.3929886 114.1197709  58.4872946
  92.5365716 113.7042227  59.9359436  85.9512104 121.9159804  72.1826468
  85.4679185 122.7160164  72.3890357  86.0373043 121.9267749  71.2293912
  79.2198063 123.7488184  60.1048288  79.1968751 123.8475871  59.1530171
  79.5298700 124.5953335  60.4265454  81.8785441 125.8064339  64.2194902
  82.8328695 125.7748281  64.1524834  81.6797965 125.3454963  65.0345128
  82.4684823 124.3765455  66.7865700  83.2877712 124.8709534  66.8100537
  82.7421631 123.4597423  66.7583267  92.2251419 116.7676207  56.1493655
  91.3377274 117.0525858  55.9313850  92.6405409 116.6069971  55.3020932
  95.5765956 116.7922728  59.8647994  96.3526346 117.2819181  60.1372611
  94.8514090 117.2180782  60.3219864  98.0138514 117.5050348  60.9221935
  98.6083005 117.2646083  60.2115243  98.0865098 116.7857478  61.5495471
  92.1992443 122.2830743  56.3643945  92.1427645 122.7399295  55.5251578
  92.7520786 121.5221428  56.1866788  96.0097249 118.0720475  57.1894065
  95.7534183 117.6717111  58.0202273  95.3850117 118.7864269  57.0644204
  92.9327223 123.4735524  53.6596475  92.8776026 123.3079796  52.7184919
  92.3073278 124.1811557  53.8158664  77.7219737 118.7103589  67.4857897
  78.3678601 118.2002543  67.9745122  77.5136889 119.4472271  68.0601322
  86.2423348 112.9743633  53.2381793  86.2302018 113.9185473  53.3950064
  87.1346770 112.7913779  52.9441254  90.0575467 109.5686410  57.4927730
  89.2907863 109.0144897  57.6384412  90.4686172 109.6408279  58.3541881
  82.0617228 115.8571206  71.5832911  82.9248690 115.5008011  71.7936236
  81.4882639 115.5185101  72.2708315  26.0309325   7.1891761  49.1140619
  26.6687735   7.0698509  48.4103959  25.9130168   8.1372605  49.1728571
  22.8399032   7.1419189  49.0502143  22.5017543   7.0260254  48.1622678
  23.7088800   6.7410354  49.0303149  18.6985847   8.9954666  45.0399034
  18.1350712   8.9044603  44.2715322  18.5838242   8.1754570  45.5201527
  23.3218815   8.2954041  55.0088349  23.3107455   7.9006839  54.1368852
  23.4839454   7.5620114  55.6022120  16.2450279  10.4905857  47.8783255
  17.0371571  10.1496682  47.4629554  16.4846929  10.6000832  48.7985408
  24.2785406  12.6625633  40.3513499  23.6273386  13.2479714  39.9647513
  25.0729769  13.1931828  40.4108537  18.2041033   9.7514771  40.7500634
  18.9771909   9.2043758  40.6113509  18.5566432  10.6159020  40.9615095
  20.0426076  11.0791153  53.9567533  19.7515942  11.9836784  53.8414199
  20.6783060  11.1207680  54.6711602  20.9682283   8.4568001  50.5468892
  21.5645855   8.2324024  49.8325855  21.0257254   7.7152747  51.1494340
  20.5407311   5.9107437  38.3819083  20.7932832   5.3888958  37.6202546
  19.6031870   5.7473582  38.4845767  25.5850594   4.9143215  46.1893827
  26.3713683   4.4962638  45.8384244  25.8489298   5.8189307  46.3575475
  25.7560671  10.3516065  40.8882483  25.1206504  10.4250692  41.6003388
  25.4258077  10.9409664  40.2101563  30.9859021   4.8518448  47.0926805
  31.7184193   4.2817665  47.3264635  30.2298377   4.4640049  47.5333311
  20.2603600   7.8135543  40.5843458  20.1439858   7.1380446  41.2524543
  20.3705860   7.3267917  39.7675611  22.6035141   7.2745690  44.2890148
  22.2393348   6.7476311  45.0003069  23.4602256   6.8844159  44.1156633
  25.0015961  10.7652568  50.9517326  24.7016684  11.6677607  50.8433134
  24.6567020  10.4984752  51.8038479  18.4528442   7.2166365  46.9854031
  17.5278939   7.0842579  47.1931723  18.7012855   7.9960584  47.4823973
  28.4013105   3.2835108  48.6314764  27.4929982   3.2150517  48.3373525
  28.3500700   3.7607053  49.4596589  22.2229848   4.7593247  40.2698163
  22.1029474   5.2050298  41.1083643  21.5282437   5.1078565  39.7111701
  19.9836741  17.5296889  43.9188294  19.9060770  18.4804714  43.9976775
  19.3798384  17.1842761  44.5763220  22.4753970   4.7024754  56.5749661
  21.6987304   5.2618674  56.5652526  23.1144533   5.1881537  57.0964531
  30.2674751   1.4851547  50.4092638  29.6249131   1.7784080  49.7632432
  29.7629679   1.3704467  51.2145834  27.9214915   5.2314720  41.0978497
  28.8332771   5.4642107  40.9226195  27.4124562   5.8151764  40.5353576
  20.7300343   7.5110207  56.1367628  21.4715027   8.0495251  55.8602452
  20.0237328   8.1376496  56.2939180  26.2055682   9.6539348  54.7339790
  26.6139038   9.2121758  53.9894422  25.4832944   9.0791975  54.9873982
  22.5586752   4.5911955  52.1073347  23.4047947   5.0151368  52.2507996
  22.4985390   3.9345579  52.8011910  26.5284497  10.2140539  48.4892078
  25.8993359  10.3786253  47.7868146  26.1410159  10.6282148  49.2603042
  30.4073729  11.1494976  45.8436442  29.7224767  11.5293878  45.2933476
  30.4917578  11.7590303  46.5768390  25.7086198   2.2516323  53.7654520
  25.4647130   3.0058384  53.2288796  25.9846128   2.6301671  54.6001767
  27.6624660   8.7954935  52.4431786  27.8741556   9.4386695  51.7666167
  27.6154409   7.9617252  51.9753716  25.2650889   1.4072756  49.3468358
  24.4035368   1.7054010  49.6385095  25.2913324   1.6243155  48.4149391
  22.0812459   9.9514947  45.7542164  22.5450804  10.2302650  44.9646786
  21.8169257   9.0498391  45.5715254  18.9736540   9.4986428  48.6921927
  19.5437897   9.9273697  48.0539411  19.5644652   9.2169013  49.3906112
  21.0181345   6.0738099  42.5631729  21.7205388   6.5259143  43.0305655
  20.6861973   5.4321918  43.1911622  28.7770488  11.6726891  50.6154143
  29.5987932  11.2707078  50.3336825  28.7732891  11.5695125  51.5670259
  22.5427092  11.2210934  52.7714854  22.6071524  11.6831341  53.6073025
  21.8338016  10.5908299  52.8997163  36.8676481   8.0165639  46.9639115
  36.1140190   7.4473037  46.8083119  37.0024023   7.9828304  47.9109749
  22.2575109  12.8879042  42.6393834  22.1220784  13.7330577  43.0678682
  22.7984922  13.0898319  41.8759768  15.7104507  10.4054480  43.2121759
  16.2229027  11.1997730  43.3627324  16.3627220   9.7080770  43.1455360
  17.5199392  13.5220236  45.2944512  17.6966020  14.4438201  45.1065496
  18.3156225  13.2078655  45.7238892  23.8843586  13.5102608  56.7694176
  23.4407440  12.7238987  56.4515080  24.5460799  13.6981759  56.1038067
  18.6430707  15.0398410  51.2954855  19.1938132  14.9115473  50.5231848
  17.8042183  15.3393299  50.9449747  25.9824824  13.7905408  54.7975577
  25.9643299  14.6114289  54.3055846  26.9044744  13.6659483  55.0225718
  22.4397878  11.3049538  55.6399086  22.9726215  10.5437826  55.4098394
  21.9111959  11.0123189  56.3823240  25.5717856   6.4018215  39.6765163
  25.0564479   7.1722819  39.9153550  25.2995164   5.7283351  40.2998224
  30.5452130   9.1550569  41.6118336  29.7681573   8.8161729  41.1673498
  31.2243611   9.1603192  40.9373301  25.3604159   4.2745307  41.5024944
  25.0554294   4.5891456  42.3535087  26.3134601   4.3526727  41.5452277
  23.8050591  10.4335530  43.1517898  23.2771952   9.6988290  42.8391135
  23.3038093  11.2110206  42.9057866  28.7843437   8.6284550  48.2684944
  28.1267111   9.3183812  48.3565073  29.5883836   9.0180982  48.6118930
  27.5948896   6.9828923  46.3188886  28.1080777   7.6158915  46.8210595
  28.2450119   6.3830119  45.9532246  21.9503191   8.2515740  36.1552871
  21.0430253   8.0204994  36.3544020  22.4474223   7.4553360  36.3426852
  24.8571270  16.9613247  39.0749557  24.1832969  17.2644944  39.6834515
  25.2437092  17.7642328  38.7255014  24.0729726   4.4578379  48.5647226
  23.1552288   4.6793326  48.4068914  24.4889870   4.5324689  47.7058934
  24.8564774   5.8569794  43.6949906  25.6036593   6.3691192  43.3857029
  25.1256364   5.5353847  44.5554300  23.1291424   8.3528335  40.6776861
  22.2202644   8.0687368  40.7749331  23.1586508   8.7727414  39.8180168
  28.3610692  11.9634925  44.4468028  27.9073019  11.1225835  44.5033219
  27.7304658  12.5996323  44.7842808  27.3043611   2.8926911  45.6768696
  26.5666368   2.3804297  46.0078938  27.5570385   2.4527292  44.8651973
  26.8043631  13.8011421  45.3817846  27.0966605  14.3616478  44.6630212
  27.3142252  14.0939982  46.1371006  21.6776318   5.9656956  46.7786656
  21.7324928   5.0130792  46.7029133  20.8667520   6.1216395  47.2627955
  22.8267512   9.8937079  38.0164939  22.3886942   9.1772938  37.5570577
  23.5677953  10.1213194  37.4550031  21.7677256  14.5791772  46.4711300
  21.7253435  14.8052619  45.5419832  22.6839955  14.3455147  46.6197101
  25.2142890   5.0475840  53.3691929  25.5692278   5.2747313  54.2286395
  25.8615021   5.3794217  52.7469184  30.9440627   8.1694276  44.0741258
  30.8058526   8.3595872  43.1462447  30.5876846   8.9313659  44.5309309
  30.9710007  10.2370803  49.0852529  31.4046513  10.1446092  49.9335583
  31.6841587  10.2128303  48.4472545  19.8843057  11.4554801  46.2673262
  20.6783655  10.9605122  46.0655837  19.1734749  10.9272665  45.9040968
  24.7037901  13.8372897  50.6185630  24.7574924  14.4063833  51.3863346
  23.8352683  14.0074782  50.2539667  31.8325556  10.2794503  51.6185415
  32.0261446  11.1840314  51.8644690  31.7326174   9.8201923  52.4524000
  26.8940665  10.4301246  57.1926295  26.7426171  10.2011798  56.2756379
  26.8845344  11.3871848  57.2057640  23.6626001   8.0033159  52.1772562
  24.5918061   8.1544319  52.0041529  23.2417031   8.0917180  51.3221208
  22.4614333  12.0283823  49.9471100  22.3225419  11.6602608  50.8197038
  21.6728929  12.5431463  49.7755057  23.0562485  17.1292920  41.2896636
  23.2314241  16.6580963  42.1042259  22.3695273  17.7558686  41.5177897
  24.0119548  11.4065426  47.3359937  23.6769381  11.3666196  48.2317587
  23.5123494  10.7410142  46.8630348  17.9863792   6.8133056  52.8612518
  17.8483590   6.0813295  53.4624057  18.8968716   6.7241956  52.5796706
  26.9478740   8.7521460  37.6096997  26.3307910   8.0268289  37.5130050
  26.4795228   9.5130821  37.2664071  20.6146093   6.5253015  52.3496198
  21.3245711   5.8846208  52.3082817  20.5715401   6.7765910  53.2722379
  28.6032871  13.4620369  55.2702777  28.5445418  12.7779589  54.6033360
  29.0052390  14.2039359  54.8183403  17.6223570  20.2782283  48.0636496
  17.8620168  20.9100807  48.7415515  16.7792767  19.9270323  48.3501855
  28.6050279  11.4259953  53.5016757  27.7177057  11.0885875  53.6243156
  29.1748830  10.6942984  53.7385522  22.1351432  16.0861405  50.4678000
  22.0621604  16.8916377  50.9797305  21.6928825  16.2853371  49.6426022
  21.9241212  15.3233175  43.9780822  21.1408734  15.8654855  44.0719046
  22.6233957  15.8407155  44.3775063  25.2337862   1.1327805  46.6215027
  25.7306561   0.3797767  46.3016097  24.4624843   1.1692121  46.0558236
  33.0867619   6.8368170  48.2633319  33.0757495   7.7192886  47.8927252
  32.2184999   6.4839721  48.0687856  24.5950116  15.9848239  52.6236159
  25.3078088  16.6195704  52.5512060  24.1040144  16.0812105  51.8076161
  26.3167643   9.8899492  44.1953451  25.3823921  10.0100954  44.0258155
  26.4944311   8.9871959  43.9313460  29.7040194   5.7316811  44.7303485
  30.1700646   6.5644803  44.6563787  30.1547694   5.2661793  45.4348743
  19.6462029  13.7342683  53.4441730  20.3471489  14.3679166  53.5971124
  19.1757144  14.0757414  52.6837369  27.7716425  12.0760632  41.7289637
  28.0476269  11.9617227  42.6383511  26.9020924  11.6778117  41.6901810
  27.4463315   6.2887290  51.2694280  26.7934765   6.5363197  50.6146733
  27.8243695   5.4751428  50.9356757  24.4070489  16.3246983  45.3722450
  24.5892884  15.5068639  45.8350203  25.2303475  16.5414675  44.9347340
  24.7412655  15.2515168  42.6337499  25.2700421  14.7407623  42.0207661
  25.0040874  14.9357699  43.4983032  23.4950888   7.0307101  57.7560317
  22.8191525   6.9301230  58.4262692  24.3178522   6.8746315  58.2196314
  15.2429747  13.2679038  50.3772832  15.8283184  12.5222726  50.5100737
  15.0454586  13.5782994  51.2609496  18.0968402  16.3030285  45.3935275
  17.4278778  16.7876413  44.9099315  17.9581272  16.5499505  46.3078653
  22.2373671  18.3374029  51.9917933  22.7891979  18.5005650  52.7567018
  22.5779864  18.9278466  51.3197958  27.0884545  13.1635286  57.8466588
  27.6324449  13.7765244  57.3521542  26.5071390  13.7214864  58.3633601
  25.3742058  16.2856004  48.9781615  25.2493198  15.4845744  48.4692561
  26.0321149  16.7802197  48.4895585  27.4376967  14.0865024  50.6061165
  26.4907302  13.9670375  50.5339492  27.7859740  13.1987522  50.6887427
  24.4423400  13.8817740  46.8065518  24.2948362  12.9534448  46.9873088
  25.2676893  13.9037831  46.3222593  28.0457522  14.7046299  47.8930390
  28.9704069  14.4989160  47.7554841  27.8772825  14.4562700  48.8019732
  27.8352838  15.2231967  43.2492482  28.0089716  14.6578389  42.4966334
  28.3281729  16.0232861  43.0671972  33.6892229   7.9868389  44.8682782
  34.1323375   7.2375715  44.4701905  32.8118740   7.9778526  44.4856514
  28.8228011  14.5398731  40.3489380  29.5178915  15.1605424  40.5676695
  29.1651161  13.6894082  40.6241758  30.7219434  11.9898436  41.8776711
  31.2470758  12.3285709  41.1526031  30.6341786  11.0545452  41.6939845
  22.3839482  15.9032510  54.0066587  22.6926609  15.6581657  54.8789287
  23.1814964  16.1079149  53.5185458  22.4060094  18.0570420  46.2371964
  21.9665085  17.5646798  46.9304821  23.1568211  17.5143387  45.9964039
  14.8852433  14.2481961  46.2396592  15.7110453  13.9485732  45.8595236
  14.5346485  13.4789583  46.6886381  19.8533967  13.6008429  48.3094266
  19.2313976  12.9379134  48.0096494  20.5238833  13.6269561  47.6267913
  13.0861038  12.1668287  47.1985526  12.2492947  11.7390461  47.0169527
  13.0584684  12.3600730  48.1356317  30.4113340  12.6231340  57.1827909
  29.6208883  12.6055479  56.6432408  30.1746694  13.1619634  57.9376945
  30.5311215   9.4723806  54.4960637  30.5809220   9.3073814  55.4376160
  30.4225138   8.6051066  54.1058518  19.4147473  12.1512352  41.7852726
  19.5635594  12.8347817  41.1319399  20.2213917  12.1317442  42.3002182
  27.8214977   5.4554735  55.8119944  28.7224840   5.3161199  55.5203942
  27.8962952   5.6209189  56.7518121  32.0329412  11.8920748  54.7402659
  31.7414220  12.2550729  55.5766120  31.4201543  11.1787756  54.5615991
  33.2325094   9.4573628  47.2605229  34.0671985   9.8963432  47.4242789
  33.3684223   8.9812281  46.4413475  30.2816600   7.0153363  53.2082717
  30.7570721   7.2081009  52.4001568  29.3582165   7.0712548  52.9626101
  17.1700106   8.1777530  42.7913795  16.9246148   7.2739860  42.9894005
  17.3396021   8.1794680  41.8493273  22.9142879  14.6460483  39.2564474
  22.3416846  15.2650670  38.8034946  23.4875673  15.1959844  39.7904396
  28.9818269   3.8919123  51.4411022  29.9335692   3.9917220  51.4623246
  28.8121719   3.0997391  51.9509107  27.0032648   0.9774706  51.6270423
  26.4082580   1.2579719  50.9316912  26.7182345   1.4668607  52.3987164
  26.1340139  14.9297633  40.3873056  27.0670812  14.8643194  40.5905931
  26.0463352  15.7653900  39.9287589  28.7628155  14.2463503  37.3477003
  28.6841787  13.9123367  38.2412761  29.5837822  14.7385271  37.3468476
  31.4606347   7.1125242  50.5553322  31.4282667   6.1741243  50.7413006
  32.0706970   7.1909279  49.8219147  23.2989677   5.9821295  36.5980526
  24.2448782   5.8527503  36.6668944  22.9203922   5.2435957  37.0749954
  31.6100835   3.9036286  50.6011605  31.0939884   3.1194742  50.4141534
  32.4940784   3.5755002  50.7658125  37.2782896   8.1741249  49.6959359
  38.0086285   7.9126537  50.2567062  36.6689842   7.4369971  49.7361427
  35.3598194   6.3149112  50.2933810  34.6331357   6.1805077  49.6850302
  34.9445480   6.6225940  51.0990528  23.1828370  10.0339042  58.0581183
  24.1031379  10.2117641  58.2521230  23.1477953   9.0895087  57.9060882
  16.1790443   7.9440076  50.7003964  16.3976452   8.8757184  50.7191998
  16.5916216   7.5848051  51.4858768  28.4064016  -0.3613267  43.8182614
  27.8262685   0.2971537  43.4360666  28.1399948  -1.1835922  43.4070031
  20.9149578   6.9470421  58.9071775  20.4316660   7.7470781  59.1135664
  21.0010517   6.9578366  57.9539219  14.1835538   8.7798800  46.8293594
  14.1606226   8.8786488  45.8775477  14.4936174   9.6263951  47.1510760
  16.8422915  10.8374955  50.9440209  17.7966169  10.8058898  50.8770140
  16.6435439  10.3765579  51.7590435  17.4322298   9.4076072  53.5111006
  18.2515187   9.9020150  53.5345844  17.7059105   8.4908040  53.4828574
  27.1888894   1.7986824  42.8738962  26.3014749   2.0836474  42.6559157
  27.6042883   1.6380587  42.0266239  30.5403430   1.8233345  46.5893301
  31.3163820   2.3129797  46.8617918  29.8151564   2.2491399  47.0465171
  32.9775989   2.5360964  47.6467242  33.5720479   2.2956700  46.9360550
  33.0502572   1.8168095  48.2740778  15.1973144  16.3794575  47.9610407
  15.0627612  15.6194976  47.3948405  14.7805206  17.1035475  47.4939195
  26.3332107  11.5631499  36.9686982  27.0367957  11.7681501  37.5844637
  25.6094756  12.1308260  37.2336065  27.1629918   7.3141360  43.0889252
  27.1065119   7.7709911  42.2496884  27.7158260   6.5532044  42.9112095
  30.9734723   3.1031092  43.9139371  30.7171658   2.7027727  44.7447579
  30.3487591   3.8174886  43.7889511  35.2847061   5.8427165  46.4210663
  34.7246619   5.9120354  47.1942225  34.6790565   5.6668150  45.7010159
  18.3542270  17.2763892  48.1728849  18.2374654  18.2209324  48.0707539
  17.5334716  16.9737454  48.5614648  28.2418805  12.0014028  39.0185442
  29.0764409  11.5695226  38.8362917  28.0803148  11.8296041  39.9462336
  27.8964697   8.5046141  40.3841781  27.8413501   8.3390412  39.4430225
  27.2710752   9.2122174  40.5403971  25.2110604  10.8095053  59.7095344
  26.0801764  10.9835705  59.3481979  24.7317355  11.6289470  59.5871073
  19.3796784  17.9292154  51.3884778  20.2824031  17.9615764  51.7051273
  19.1534154  16.9992605  51.4031113  21.1350386  16.6823140  48.0494856
  20.1846017  16.6825002  47.9359228  21.4382872  15.9355875  47.5330891
  36.8703080  22.5183679  49.1140619  37.5081490  22.3990426  48.4103959
  36.7523923  23.4664523  49.1728571  33.6792786  22.4711107  49.0502143
  33.3411298  22.3552172  48.1622678  34.5482554  22.0702272  49.0303149
  29.5379602  24.3246583  45.0399034  28.9744467  24.2336520  44.2715322
  29.4231997  23.5046488  45.5201527  34.1612569  23.6245959  55.0088349
  34.1501210  23.2298757  54.1368852  34.3233208  22.8912031  55.6022120
  27.0844034  25.8197775  47.8783255  27.8765326  25.4788600  47.4629554
  27.3240684  25.9292750  48.7985408  35.1179160  27.9917551  40.3513499
  34.4667140  28.5771631  39.9647513  35.9123523  28.5223746  40.4108537
  29.0434788  25.0806688  40.7500634  29.8165664  24.5335675  40.6113509
  29.3960186  25.9450938  40.9615095  30.8819830  26.4083070  53.9567533
  30.5909696  27.3128701  53.8414199  31.5176814  26.4499598  54.6711602
  31.8076037  23.7859919  50.5468892  32.4039609  23.5615941  49.8325855
  31.8651009  23.0444664  51.1494340  31.3801065  21.2399354  38.3819083
  31.6326586  20.7180876  37.6202546  30.4425624  21.0765500  38.4845767
  36.4244348  20.2435133  46.1893827  37.2107437  19.8254556  45.8384244
  36.6883053  21.1481225  46.3575475  36.5954426  25.6807983  40.8882483
  35.9600259  25.7542609  41.6003388  36.2651832  26.2701582  40.2101563
  41.8252775  20.1810366  47.0926805  42.5577947  19.6109583  47.3264635
  41.0692131  19.7931966  47.5333311  31.0997354  23.1427460  40.5843458
  30.9833612  22.4672364  41.2524543  31.2099614  22.6559834  39.7675611
  33.4428895  22.6037607  44.2890148  33.0787102  22.0768228  45.0003069
  34.2996011  22.2136076  44.1156633  39.3478196  13.8931940  51.5521414
  39.0161520  14.7627351  51.3282629  38.7523809  13.5768224  52.2315444
  33.0834382  17.6327507  39.2851496  33.2508784  18.5007743  39.6521967
  32.8931551  17.7954789  38.3612785  35.8409715  26.0944486  50.9517326
  35.5410438  26.9969525  50.8433134  35.4960775  25.8276669  51.8038479
  29.2922197  22.5458283  46.9854031  28.3672693  22.4134497  47.1931723
  29.5406610  23.3252502  47.4823973  39.2406859  18.6127026  48.6314764
  38.3323736  18.5442435  48.3373525  39.1894455  19.0898971  49.4596589
  33.0623603  20.0885165  40.2698163  32.9423228  20.5342215  41.1083643
  32.3676191  20.4370482  39.7111701  26.6531008  22.1891556  47.8197820
  26.7823389  22.4426035  48.7337232  25.9728459  22.7819264  47.5002475
  30.8230495  32.8588806  43.9188294  30.7454525  33.8096631  43.9976775
  30.2192139  32.5134679  44.5763220  33.3147725  20.0316672  56.5749661
  32.5381059  20.5910592  56.5652526  33.9538288  20.5173455  57.0964531
  41.1068505  16.8143465  50.4092638  40.4642886  17.1075998  49.7632432
  40.6023434  16.6996385  51.2145834  38.7608669  20.5606638  41.0978497
  39.6726525  20.7934024  40.9226195  38.2518316  21.1443682  40.5353576
  31.5694097  22.8402125  56.1367628  32.3108781  23.3787169  55.8602452
  30.8631083  23.4668414  56.2939180  37.0449437  24.9831266  54.7339790
  37.4532793  24.5413676  53.9894422  36.3226698  24.4083893  54.9873982
  33.3980507  19.9203872  52.1073347  34.2441702  20.3443286  52.2507996
  33.3379144  19.2637497  52.8011910  37.3678251  25.5432456  48.4892078
  36.7387114  25.7078170  47.7868146  36.9803913  25.9574066  49.2603042
  41.2467483  26.4786894  45.8436442  40.5618521  26.8585795  45.2933476
  41.3311333  27.0882221  46.5768390  36.5479952  17.5808241  53.7654520
  36.3040884  18.3350301  53.2288796  36.8239883  17.9593588  54.6001767
  38.5018415  24.1246853  52.4431786  38.7135310  24.7678613  51.7666167
  38.4548163  23.2909170  51.9753716  36.1044644  16.7364674  49.3468358
  35.2429123  17.0345927  49.6385095  36.1307078  16.9535073  48.4149391
  32.9206213  25.2806864  45.7542164  33.3844559  25.5594567  44.9646786
  32.6563011  24.3790309  45.5715254  29.8130294  24.8278346  48.6921927
  30.3831651  25.2565614  48.0539411  30.4038406  24.5460931  49.3906112
  31.8575099  21.4030017  42.5631729  32.5599143  21.8551060  43.0305655
  31.5255728  20.7613836  43.1911622  30.3055461  19.9941773  56.9382938
  29.6754121  20.6758054  57.1718335  30.1991549  19.8824855  55.9936076
  25.6000433  19.6613569  47.8648862  24.8099487  19.9171098  47.3888973
  26.0911681  20.4761907  47.9700903  39.6164243  27.0018808  50.6154143
  40.4381687  26.5998996  50.3336825  39.6126646  26.8987043  51.5670259
  27.5515179  20.0258149  44.8232339  26.7546342  20.1376843  45.3415835
  27.3240771  20.3644801  43.9573229  33.3820846  26.5502852  52.7714854
  33.4465279  27.0123259  53.6073025  32.6731770  25.9200217  52.8997163
  23.8838136  19.9144060  50.2963853  24.1346175  20.7991070  50.5621429
  24.4197685  19.7348661  49.5238945  47.7070236  23.3457557  46.9639115
  46.9533944  22.7764955  46.8083119  47.8417777  23.3120221  47.9109749
  33.0968864  28.2170959  42.6393834  32.9614539  29.0622495  43.0678682
  33.6378676  28.4190237  41.8759768  29.5836204  14.2962539  59.3008189
  29.1903149  13.7428738  59.9755833  30.4002344  14.6073118  59.6914707
  26.5498261  25.7346397  43.2121759  27.0622782  26.5289648  43.3627324
  27.2020974  25.0372688  43.1455360  28.3593146  28.8512154  45.2944512
  28.5359774  29.7730118  45.1065496  29.1549980  28.5370573  45.7238892
  32.5004165  15.7120418  56.8928446  33.2413878  16.3127571  56.8132908
  32.7322087  14.9698056  56.3346488  27.6445503  20.8976785  55.1706675
  27.5299018  19.9962043  55.4713774  26.7890020  21.1440482  54.8191492
  34.7237340  28.8394526  56.7694176  34.2801195  28.0530904  56.4515080
  35.3854554  29.0273676  56.1038067  29.4824461  30.3690327  51.2954855
  30.0331887  30.2407391  50.5231848  28.6435937  30.6685216  50.9449747
  36.8218578  29.1197326  54.7975577  36.8037054  29.9406207  54.3055846
  37.7438498  28.9951401  55.0225718  33.2791633  26.6341455  55.6399086
  33.8119969  25.8729743  55.4098394  32.7505714  26.3415107  56.3823240
  36.4461328  11.7401521  51.1692727  36.1025597  12.6303163  51.0931838
  36.8140290  11.5503179  50.3062312  24.5147178  24.0635052  43.9881330
  25.3522400  24.4732060  43.7715037  24.6925446  23.1234494  43.9581523
  36.4111610  21.7310132  39.6765163  35.8958234  22.5014737  39.9153550
  36.1388919  21.0575268  40.2998224  33.9958721  16.5759833  44.7350401
  33.1400318  16.1866683  44.5556040  34.4085673  16.6551794  43.8750186
  35.5257868  14.1106176  49.1341961  35.0222663  14.0736311  48.3209766
  35.8188475  15.0198919  49.1938617  31.7700754  14.1944906  48.1408142
  32.6353751  13.9987715  47.7814032  31.8378263  13.9655258  49.0677499
  41.3845884  24.4842487  41.6118336  40.6075327  24.1453646  41.1673498
  42.0637365  24.4895110  40.9373301  36.1997913  19.6037224  41.5024944
  35.8948049  19.9183374  42.3535087  37.1528356  19.6818644  41.5452277
  34.6444345  25.7627448  43.1517898  34.1165707  25.0280207  42.8391135
  34.1431848  26.5402124  42.9057866  39.6237191  23.9576468  48.2684944
  38.9660866  24.6475730  48.3565073  40.4277590  24.3472900  48.6118930
  29.3763073  16.4247114  45.5124509  29.9506825  16.2022295  44.7797702
  29.9634055  16.4935808  46.2653110  38.4342650  22.3120841  46.3188886
  38.9474532  22.9450833  46.8210595  39.0843874  21.7122036  45.9532246
  29.7032660  18.4551575  39.5320394  28.8669972  18.7926262  39.8529669
  29.5637430  18.3200555  38.5947531  31.6785741  13.2988363  44.2399579
  31.0250153  12.9837380  43.6156193  31.6366215  12.6764103  44.9659402
  32.7896945  23.5807658  36.1552871  31.8824007  23.3496911  36.3544020
  33.2867977  22.7845277  36.3426852  35.6965024  32.2905165  39.0749557
  35.0226723  32.5936862  39.6834515  36.0830846  33.0934245  38.7255014
  34.9123481  19.7870296  48.5647226  33.9946042  20.0085243  48.4068914
  35.3283625  19.8616607  47.7058934  35.6958529  21.1861712  43.6949906
  36.4430348  21.6983109  43.3857029  35.9650118  20.8645765  44.5554300
  33.9685179  23.6820253  40.6776861  33.0596398  23.3979286  40.7749331
  33.9980263  24.1019331  39.8180168  39.2004446  27.2926842  44.4468028
  38.7466773  26.4517752  44.5033219  38.5698413  27.9288241  44.7842808
  38.1437366  18.2218828  45.6768696  37.4060123  17.7096215  46.0078938
  38.3964139  17.7819210  44.8651973  37.6437386  29.1303339  45.3817846
  37.9360360  29.6908396  44.6630212  38.1536006  29.4231900  46.1371006
  38.2448993  10.9995080  46.2710465  38.5507870  10.1392444  45.9836380
  38.9701598  11.5912701  46.0709459  24.5373349  21.4025767  44.6592063
  24.3397749  20.8095128  43.9343130  23.9820013  21.0977977  45.3768002
  32.5170073  21.2948873  46.7786656  32.5718683  20.3422710  46.7029133
  31.7061275  21.4508313  47.2627955  33.6661267  25.2228996  38.0164939
  33.2280697  24.5064855  37.5570577  34.4071708  25.4505111  37.4550031
  30.4562433  19.9125933  44.5377035  29.6430298  20.2120104  44.9442227
  30.9521427  19.5181622  45.2551517  32.6071011  29.9083690  46.4711300
  32.5647190  30.1344536  45.5419832  33.5233710  29.6747065  46.6197101
  36.0536645  20.3767758  53.3691929  36.4086032  20.6039231  54.2286395
  36.7008776  20.7086134  52.7469184  41.7834381  23.4986194  44.0741258
  41.6452280  23.6887789  43.1462447  41.4270600  24.2605576  44.5309309
  29.9476508  17.4844289  50.1538270  30.5875887  17.3433048  49.4561233
  29.1154038  17.1978802  49.7776872  41.8103761  25.5662721  49.0852529
  42.2440268  25.4738010  49.9335583  42.5235342  25.5420221  48.4472545
  30.7236811  26.7846719  46.2673262  31.5177410  26.2897039  46.0655837
  30.0128504  26.2564582  45.9040968  35.5431656  29.1664815  50.6185630
  35.5968678  29.7355751  51.3863346  34.6746437  29.3366700  50.2539667
  27.0319575  20.9289801  42.3433015  26.1017163  20.8674256  42.5602977
  27.1277047  20.4065754  41.5469656  26.9505124  17.4544614  44.9311257
  27.2111941  18.3689947  44.8220417  27.7722296  16.9869056  45.0807870
  28.4230049  18.8682371  52.1010081  29.0953103  18.6599733  51.4522730
  27.5959836  18.6704457  51.6615314  42.6719311  25.6086421  51.6185415
  42.8655201  26.5132232  51.8644690  42.5719929  25.1493840  52.4524000
  34.3255621  15.4944312  54.1175742  33.6783536  16.1934261  54.0240219
  35.0956637  15.9280456  54.4851990  37.7334419  25.7593164  57.1926295
  37.5819926  25.5303716  56.2756379  37.7239099  26.7163765  57.2057640
  34.5019756  23.3325077  52.1772562  35.4311816  23.4836236  52.0041529
  34.0810786  23.4209097  51.3221208  33.3008087  27.3575741  49.9471100
  33.1619173  26.9894525  50.8197038  32.5122684  27.8723381  49.7755057
  33.8956239  32.4584838  41.2896636  34.0707995  31.9872881  42.1042259
  33.2089027  33.0850604  41.5177897  34.8513303  26.7357344  47.3359937
  34.5163135  26.6958114  48.2317587  34.3517248  26.0702060  46.8630348
  28.8257547  22.1424974  52.8612518  28.6877345  21.4105213  53.4624057
  29.7362470  22.0533874  52.5796706  37.7872494  24.0813378  37.6096997
  37.1701665  23.3560206  37.5130050  37.3188983  24.8422738  37.2664071
  31.4539847  21.8544933  52.3496198  32.1639466  21.2138125  52.3082817
  31.4109155  22.1057828  53.2722379  39.4426626  28.7912286  55.2702777
  39.3839172  28.1071507  54.6033360  39.8446144  29.5331276  54.8183403
  30.1668781  18.8410151  54.1691838  29.6306138  18.3900889  54.8213434
  29.5785490  18.9756060  53.4262302  28.4617325  35.6074200  48.0636496
  28.7013923  36.2392724  48.7415515  27.6186521  35.2562240  48.3501855
  29.5771040  18.2998802  36.7318301  28.7000507  18.1787603  36.3680548
  30.0528793  17.5084881  36.4797190  39.4444033  26.7551870  53.5016757
  38.5570812  26.4177792  53.6243156  40.0142584  26.0234902  53.7385522
  21.0973180  23.0875962  46.8259808  21.7844220  22.7737692  46.2380824
  20.9421309  23.9917327  46.5527060  25.9007902  17.9766159  51.2544832
  25.8166091  17.3691828  50.5195242  25.0790609  18.4675177  51.2554328
  32.9745187  31.4153323  50.4678000  32.9015358  32.2208294  50.9797305
  32.5322580  31.6145289  49.6426022  32.7634966  30.6525093  43.9780822
  31.9802488  31.1946773  44.0719046  33.4627711  31.1699072  44.3775063
  36.0731616  16.4619722  46.6215027  36.5700316  15.7089685  46.3016097
  35.3018598  16.4984039  46.0558236  43.9261374  22.1660088  48.2633319
  43.9151250  23.0484803  47.8927252  43.0578753  21.8131639  48.0687856
  35.4343870  31.3140157  52.6236159  36.1471842  31.9487622  52.5512060
  34.9433899  31.4104023  51.8076161  37.1561397  25.2191409  44.1953451
  36.2217676  25.3392872  44.0258155  37.3338065  24.3163876  43.9313460
  32.6566585  18.6037105  46.3486712  32.2864373  18.0508146  47.0367617
  33.1525678  17.9995239  45.7961712  40.5433948  21.0608729  44.7303485
  41.0094401  21.8936720  44.6563787  40.9941449  20.5953710  45.4348743
  30.4855784  29.0634600  53.4441730  31.1865243  29.6971083  53.5971124
  30.0150899  29.4049332  52.6837369  38.6110179  27.4052550  41.7289637
  38.8870023  27.2909145  42.6383511  37.7414678  27.0070035  41.6901810
  38.5150611  13.4289316  48.7694386  37.6013691  13.6593543  48.9376593
  38.9443713  13.5127760  49.6208418  38.2857070  21.6179208  51.2694280
  37.6328520  21.8655115  50.6146733  38.6637450  20.8043346  50.9356757
  35.2464244  31.6538901  45.3722450  35.4286638  30.8360557  45.8350203
  36.0697230  31.8706593  44.9347340  35.5806409  30.5807086  42.6337499
  36.1094175  30.0699541  42.0207661  35.8434629  30.2649616  43.4983032
  34.3344643  22.3599019  57.7560317  33.6585280  22.2593148  58.4262692
  35.1572277  22.2038233  58.2196314  26.0823502  28.5970955  50.3772832
  26.6676939  27.8514643  50.5100737  25.8848340  28.9074912  51.2609496
  28.9362157  31.6322203  45.3935275  28.2672532  32.1168330  44.9099315
  28.7975027  31.8791423  46.3078653  20.6741156  21.1676556  49.0977276
  20.7125256  20.6340146  49.8914394  20.1681449  20.6411761  48.4788253
  33.0767426  33.6665946  51.9917933  33.6285734  33.8297568  52.7567018
  33.4173619  34.2570384  51.3197958  28.0531919  16.0141096  52.5939818
  28.1173245  16.8755927  52.1817215  27.9899039  15.4015098  51.8612176
  27.5284191  18.0864229  56.2412852  28.1556230  17.7041306  56.8550376
  26.6712110  17.8678430  56.6068545  37.9278300  28.4927204  57.8466588
  38.4718204  29.1057162  57.3521542  37.3465145  29.0506782  58.3633601
  24.3049734  19.8940658  42.1731207  24.6003175  18.9851336  42.1198261
  23.4037770  19.8728397  41.8512209  36.2135813  31.6147922  48.9781615
  36.0886952  30.8137662  48.4692561  36.8714904  32.1094115  48.4895585
  27.8343981  17.9696654  48.1558755  27.1130567  18.5832622  48.0166229
  28.6237237  18.5054419  48.0775401  38.2770721  29.4156942  50.6061165
  37.3301057  29.2962293  50.5339492  38.6253494  28.5279440  50.6887427
  30.6370295  15.3051081  54.4299407  31.1604696  15.5513377  55.1925717
  30.4182628  16.1371116  54.0102545  26.0337576  17.5754755  42.2970532
  25.7050282  16.6952134  42.1145638  26.3876946  17.5202424  43.1846921
  35.2817154  29.2109658  46.8065518  35.1342117  28.2826365  46.9873088
  36.1070648  29.2329749  46.3222593  29.1479399  17.8627725  42.6646010
  29.4875471  18.3913646  41.9424618  29.5951519  18.2008131  43.4404576
  38.8851276  30.0338217  47.8930390  39.8097824  29.8281078  47.7554841
  38.7166580  29.7854618  48.8019732  31.8422840  16.2464776  52.1149078
  31.5019660  15.4472589  52.5169758  31.1361846  16.5466487  51.5425911
  32.4939311  13.3314088  50.5676401  33.3165381  12.8574566  50.4455291
  32.7377375  14.1104572  51.0675087  31.1347546  16.3602347  40.8639302
  31.8555908  16.7383600  40.3603019  30.5112850  17.0791224  40.9674280
  35.2778669  17.0647496  41.7997635  35.4942283  17.9472134  41.4986463
  34.7972736  16.6733709  41.0703277  30.0177890  20.0233209  48.3768379
  29.8722471  20.3373512  49.2692661  29.5403094  20.6418109  47.8239278
  31.8774273  17.0135757  48.4249269  31.8635842  16.1176850  48.0881567
  32.5946701  17.0206421  49.0587555  33.7300404  17.4473097  50.4702396
  33.4718182  18.3690168  50.4686727  33.1985444  17.0503532  51.1602861
  38.6746593  30.5523884  43.2492482  38.8483470  29.9870307  42.4966334
  39.1675484  31.3524779  43.0671972  24.4923552  22.5638553  51.3156041
  23.9477020  23.3398361  51.4476315  25.3702902  22.9109358  51.1575162
  31.2811169  15.8950137  43.6936839  31.4027080  14.9666783  43.8927727
  30.9913211  15.9088823  42.7815155  34.1502359  13.5805048  46.8303559
  34.1724056  13.6444381  45.8755538  34.5670418  12.7409556  47.0244065
  44.5285984  23.3160307  44.8682782  44.9717130  22.5667632  44.4701905
  43.6512494  23.3070444  44.4856514  39.6621765  29.8690649  40.3489380
  40.3572670  30.4897341  40.5676695  40.0044915  29.0186000  40.6241758
  25.2789574  21.6908450  54.2086197  24.5371310  21.8391085  54.7950828
  24.9582318  21.9516715  53.3452947  41.5613188  27.3190354  41.8776711
  42.0864512  27.6577627  41.1526031  41.4735541  26.3837369  41.6939845
  33.2233237  31.2324428  54.0066587  33.5320363  30.9873575  54.8789287
  34.0208719  31.4371066  53.5185458  33.2453849  33.3862337  46.2371964
  32.8058839  32.8938716  46.9304821  33.9961966  32.8435305  45.9964039
  25.7246188  29.5773878  46.2396592  26.5504208  29.2777650  45.8595236
  25.3740240  28.8081501  46.6886381  30.6927721  28.9300347  48.3094266
  30.0707730  28.2671052  48.0096494  31.3632588  28.9561478  47.6267913
  23.9254793  27.4960205  47.1985526  23.0886701  27.0682379  47.0169527
  23.8978438  27.6892648  48.1356317  30.7652249  17.4082135  57.9026772
  30.8140404  18.2844257  57.5204541  31.3074763  16.8659528  57.3298415
  41.2507094  27.9523258  57.1827909  40.4602638  27.9347397  56.6432408
  41.0140449  28.4911551  57.9376945  41.3704969  24.8015724  54.4960637
  41.4202974  24.6365732  55.4376160  41.2618893  23.9342983  54.1058518
  30.2541228  27.4804270  41.7852726  30.4029348  28.1639734  41.1319399
  31.0607671  27.4609360  42.3002182  38.6608732  20.7846652  55.8119944
  39.5618594  20.6453117  55.5203942  38.7356706  20.9501107  56.7518121
  32.9951537  18.1613507  54.6573130  32.1254846  18.4547073  54.3855719
  33.2311017  18.7453952  55.3780394  42.8723166  27.2212666  54.7402659
  42.5807974  27.5842646  55.5766120  42.2595297  26.5079674  54.5615991
  44.0718848  24.7865545  47.2605229  44.9065740  25.2255350  47.4242789
  44.2077977  24.3104199  46.4413475  41.1210354  22.3445280  53.2082717
  41.5964476  22.5372927  52.4001568  40.1975920  22.4004466  52.9626101
  28.0093861  23.5069447  42.7913795  27.7639903  22.6031777  42.9894005
  28.1789775  23.5086598  41.8493273  35.6990571  14.3793124  52.1738551
  36.2172515  15.1154151  51.8485039  35.3445704  14.6857117  53.0085310
  27.2789508  19.2397805  40.2899957  26.5858753  19.3142160  39.6339993
  27.0341260  18.4758149  40.8121474  35.9503165  10.7993406  47.6939447
  36.2304919  10.1316595  48.3199874  36.7353772  10.9922502  47.1814111
  33.7536633  29.9752400  39.2564474  33.1810601  30.5942587  38.8034946
  34.3269427  30.5251762  39.7904396  39.8212023  19.2211040  51.4411022
  40.7729446  19.3209138  51.4623246  39.6515474  18.4289309  51.9509107
  37.8426403  16.3066624  51.6270423  37.2476335  16.5871636  50.9316912
  37.5576099  16.7960525  52.3987164  36.9733893  30.2589550  40.3873056
  37.9064566  30.1935112  40.5905931  36.8857106  31.0945817  39.9287589
  39.6021910  29.5755421  37.3477003  39.5235541  29.2415284  38.2412761
  40.4231577  30.0677189  37.3468476  42.3000101  22.4417160  50.5553322
  42.2676421  21.5033161  50.7413006  42.9100725  22.5201197  49.8219147
  34.1383432  21.3113213  36.5980526  35.0842537  21.1819421  36.6668944
  33.7597677  20.5727875  37.0749954  42.4494590  19.2328204  50.6011605
  41.9333638  18.4486660  50.4141534  43.3334538  18.9046920  50.7658125
  40.1105317  12.9769219  46.5607418  39.9130138  12.6684307  47.4450750
  40.7205022  13.7030858  46.6905348  48.1176651  23.5033167  49.6959359
  48.8480039  23.2418455  50.2567062  47.5083596  22.7661889  49.7361427
  46.1991948  21.6441030  50.2933810  45.4725112  21.5096994  49.6850302
  45.7839235  21.9517858  51.0990528  34.0222125  25.3630959  58.0581183
  34.9425134  25.5409558  58.2521230  33.9871708  24.4187005  57.9060882
  32.3226349  19.2363189  36.5335411  31.4157805  18.9396302  36.6098125
  32.6002330  18.9393008  35.6669698  23.2404290  20.5569553  46.9834458
  22.9207074  19.7034861  46.6908832  22.6937718  20.7718131  47.7392425
  27.0184197  23.2731994  50.7003964  27.2370207  24.2049102  50.7191998
  27.4309971  22.9139968  51.4858768  33.9388415  13.7800079  42.6879653
  33.1289143  13.4347164  43.0634899  34.6272832  13.4707623  43.2767264
  35.8678963  12.8578126  44.3103949  36.4210002  13.2773579  44.9693972
  36.1049050  11.9313874  44.3526905  31.8912062  18.8465200  60.0906713
  31.7908789  19.7959557  60.0218804  31.6733604  18.5183439  59.2182783
  31.0925134  16.0950125  36.6747391  31.9544298  16.4205023  36.9343208
  31.2775478  15.3081621  36.1620456  23.1092550  24.1772464  48.9527579
  22.4156021  23.7626417  48.4397534  23.8565541  24.2193001  48.3560998
  39.2457770  14.9678651  43.8182614  38.6656439  15.6263455  43.4360666
  38.9793703  14.1455996  43.4070031  37.6961337  14.3683709  46.0203934
  38.1961115  14.4800243  45.2118253  38.3396945  14.0644762  46.6604742
  31.7543332  22.2762338  58.9071775  31.2710414  23.0762699  59.1135664
  31.8404271  22.2870283  57.9539219  25.0229292  24.1090718  46.8293594
  24.9999980  24.2078405  45.8775477  25.3329929  24.9555869  47.1510760
  27.6816670  26.1666873  50.9440209  28.6359923  26.1350815  50.8770140
  27.4829194  25.7057497  51.7590435  28.2716052  24.7367989  53.5111006
  29.0908941  25.2312068  53.5345844  28.5452860  23.8199957  53.4828574
  38.0282648  17.1278742  42.8738962  37.1408503  17.4128392  42.6559157
  38.4436637  16.9672505  42.0266239  41.3797184  17.1525262  46.5893301
  42.1557575  17.6421715  46.8617918  40.6545319  17.5783317  47.0465171
  43.8169743  17.8652882  47.6467242  44.4114234  17.6248618  46.9360550
  43.8896327  17.1460012  48.2740778  26.0366899  31.7086493  47.9610407
  25.9021367  30.9486894  47.3948405  25.6198961  32.4327393  47.4939195
  37.1725862  26.8923416  36.9686982  37.8761712  27.0973419  37.5844637
  36.4488510  27.4600178  37.2336065  38.0023672  22.6433277  43.0889252
  37.9458873  23.1001829  42.2496884  38.5552014  21.8823962  42.9112095
  41.8128478  18.4323009  43.9139371  41.5565412  18.0319645  44.7447579
  41.1881346  19.1466803  43.7889511  46.1240816  21.1719083  46.4210663
  45.5640374  21.2412272  47.1942225  45.5184319  20.9960067  45.7010159
  29.1936025  32.6055810  48.1728849  29.0768409  33.5501242  48.0707539
  28.3728471  32.3029371  48.5614648  39.0812559  27.3305945  39.0185442
  39.9158163  26.8987144  38.8362917  38.9196902  27.1587959  39.9462336
  38.7358451  23.8338059  40.3841781  38.6807255  23.6682330  39.4430225
  38.1104507  24.5414092  40.5403971  23.5250966  19.0706123  54.2103203
  24.1709830  18.5605077  54.6990429  23.3168117  19.8074805  54.7846629
  36.0504358  26.1386971  59.7095344  36.9195518  26.3127623  59.3481979
  35.5711110  26.9581387  59.5871073  32.0454577  13.3346168  39.9627100
  32.0333247  14.2788008  40.1195370  32.9377999  13.1516313  39.6686561
  30.2190539  33.2584072  51.3884778  31.1217785  33.2907682  51.7051273
  29.9927909  32.3284523  51.4031113  31.9744141  32.0115058  48.0494856
  31.0239772  32.0116920  47.9359228  32.2776627  31.2647793  47.5330891
  35.8606696   9.9288944  44.2173036  35.0939092   9.3747431  44.3629719
  36.2717401  10.0010813  45.0787188  27.8648457  16.2173740  58.3078218
  28.7279919  15.8610545  58.5181542  27.2913868  15.8787635  58.9953622
  47.7096834  37.8475597  49.1140619  48.3475244  37.7282344  48.4103959
  47.5917677  38.7956440  49.1728571  44.5186540  37.8003025  49.0502143
  44.1805052  37.6844089  48.1622678  45.3876309  37.3994190  49.0303149
  40.3773356  39.6538501  45.0399034  39.8138221  39.5628438  44.2715322
  40.2625751  38.8338405  45.5201527  37.9237788  41.1489693  47.8783255
  38.7159080  40.8080517  47.4629554  38.1634438  41.2584668  48.7985408
  45.9572915  43.3209469  40.3513499  45.3060895  43.9063549  39.9647513
  46.7517278  43.8515664  40.4108537  39.8828542  40.4098606  40.7500634
  40.6559418  39.8627593  40.6113509  40.2353941  41.2742855  40.9615095
  42.6469791  39.1151837  50.5468892  43.2433364  38.8907859  49.8325855
  42.7044763  38.3736582  51.1494340  42.2194820  36.5691272  38.3819083
  42.4720341  36.0472793  37.6202546  41.2819379  36.4057417  38.4845767
  47.2638103  35.5727050  46.1893827  48.0501192  35.1546474  45.8384244
  47.5276807  36.4773143  46.3575475  47.4348180  41.0099901  40.8882483
  46.7994013  41.0834527  41.6003388  47.1045586  41.5993499  40.2101563
  52.6646530  35.5102284  47.0926805  53.3971702  34.9401500  47.3264635
  51.9085886  35.1223884  47.5333311  41.9391109  38.4719378  40.5843458
  41.8227367  37.7964281  41.2524543  42.0493369  37.9851752  39.7675611
  44.2822650  37.9329525  44.2890148  43.9180857  37.4060146  45.0003069
  45.1389765  37.5427994  44.1156633  50.1871950  29.2223858  51.5521414
  49.8555275  30.0919269  51.3282629  49.5917564  28.9060142  52.2315444
  43.9228137  32.9619425  39.2851496  44.0902539  33.8299661  39.6521967
  43.7325306  33.1246706  38.3612785  46.6803470  41.4236404  50.9517326
  46.3804193  42.3261442  50.8433134  46.3354529  41.1568587  51.8038479
  40.1315951  37.8750200  46.9854031  39.2066448  37.7426415  47.1931723
  40.3800364  38.6544420  47.4823973  50.0800614  33.9418944  48.6314764
  49.1717491  33.8734352  48.3373525  50.0288209  34.4190889  49.4596589
  43.9017357  35.4177082  40.2698163  43.7816983  35.8634133  41.1083643
  43.2069946  35.7662400  39.7111701  37.4924762  37.5183474  47.8197820
  37.6217143  37.7717953  48.7337232  36.8122214  38.1111182  47.5002475
  41.6624250  48.1880724  43.9188294  41.5848279  49.1388549  43.9976775
  41.0585893  47.8426596  44.5763220  51.9462260  32.1435382  50.4092638
  51.3036640  32.4367915  49.7632432  51.4417188  32.0288303  51.2145834
  49.6002424  35.8898555  41.0978497  50.5120280  36.1225942  40.9226195
  49.0912071  36.4735600  40.5353576  48.2072006  40.8724374  48.4892078
  47.5780868  41.0370088  47.7868146  47.8197668  41.2865983  49.2603042
  52.0861238  41.8078812  45.8436442  51.4012276  42.1877713  45.2933476
  52.1705087  42.4174138  46.5768390  46.9438398  32.0656591  49.3468358
  46.0822877  32.3637845  49.6385095  46.9700833  32.2826990  48.4149391
  43.7599968  40.6098782  45.7542164  44.2238313  40.8886485  44.9646786
  43.4956766  39.7082227  45.5715254  40.6524049  40.1570264  48.6921927
  41.2225406  40.5857532  48.0539411  41.2432161  39.8752848  49.3906112
  42.6968854  36.7321934  42.5631729  43.3992897  37.1842978  43.0305655
  42.3649482  36.0905753  43.1911622  41.1449215  35.3233691  56.9382938
  40.5147876  36.0049972  57.1718335  41.0385303  35.2116773  55.9936076
  36.4394188  34.9905487  47.8648862  35.6493242  35.2463016  47.3888973
  36.9305435  35.8053825  47.9700903  38.3908933  35.3550066  44.8232339
  37.5940096  35.4668760  45.3415835  38.1634525  35.6936718  43.9573229
  34.7231891  35.2435977  50.2963853  34.9739929  36.1282987  50.5621429
  35.2591439  35.0640579  49.5238945  58.5463990  38.6749475  46.9639115
  57.7927699  38.1056873  46.8083119  58.6811532  38.6412139  47.9109749
  43.9362618  43.5462877  42.6393834  43.8008293  44.3914413  43.0678682
  44.4772431  43.7482155  41.8759768  40.4229958  29.6254457  59.3008189
  40.0296904  29.0720655  59.9755833  41.2396098  29.9365035  59.6914707
  37.3892016  41.0638315  43.2121759  37.9016536  41.8581565  43.3627324
  38.0414729  40.3664605  43.1455360  39.1986901  44.1804071  45.2944512
  39.3753529  45.1022036  45.1065496  39.9943734  43.8662490  45.7238892
  43.3397919  31.0412336  56.8928446  44.0807632  31.6419489  56.8132908
  43.5715842  30.2989974  56.3346488  38.4839257  36.2268703  55.1706675
  38.3692772  35.3253960  55.4713774  37.6283775  36.4732400  54.8191492
  40.3218216  45.6982245  51.2954855  40.8725641  45.5699308  50.5231848
  39.4829692  45.9977134  50.9449747  47.2855082  27.0693439  51.1692727
  46.9419351  27.9595081  51.0931838  47.6534045  26.8795096  50.3062312
  35.3540933  39.3926969  43.9881330  36.1916155  39.8023978  43.7715037
  35.5319200  38.4526411  43.9581523  47.2505365  37.0602050  39.6765163
  46.7351988  37.8306655  39.9153550  46.9782673  36.3867186  40.2998224
  44.8352476  31.9051751  44.7350401  43.9794072  31.5158601  44.5556040
  45.2479428  31.9843712  43.8750186  46.3651622  29.4398094  49.1341961
  45.8616418  29.4028229  48.3209766  46.6582229  30.3490837  49.1938617
  42.6094508  29.5236824  48.1408142  43.4747505  29.3279632  47.7814032
  42.6772017  29.2947175  49.0677499  52.2239639  39.8134405  41.6118336
  51.4469082  39.4745564  41.1673498  52.9031120  39.8187028  40.9373301
  47.0391668  34.9329142  41.5024944  46.7341803  35.2475291  42.3535087
  47.9922110  35.0110562  41.5452277  45.4838100  41.0919365  43.1517898
  44.9559461  40.3572125  42.8391135  44.9825602  41.8694042  42.9057866
  50.4630946  39.2868386  48.2684944  49.8054620  39.9767647  48.3565073
  51.2671345  39.6764818  48.6118930  40.2156827  31.7539032  45.5124509
  40.7900579  31.5314213  44.7797702  40.8027810  31.8227726  46.2653110
  49.2736405  37.6412759  46.3188886  49.7868286  38.2742750  46.8210595
  49.9237628  37.0413954  45.9532246  40.5426414  33.7843493  39.5320394
  39.7063727  34.1218179  39.8529669  40.4031184  33.6492472  38.5947531
  42.5179495  28.6280281  44.2399579  41.8643907  28.3129298  43.6156193
  42.4759969  28.0056021  44.9659402  43.6290700  38.9099576  36.1552871
  42.7217762  38.6788829  36.3544020  44.1261732  38.1137195  36.3426852
  46.5358779  47.6197083  39.0749557  45.8620478  47.9228780  39.6834515
  46.9224601  48.4226163  38.7255014  45.7517235  35.1162214  48.5647226
  44.8339797  35.3377161  48.4068914  46.1677379  35.1908525  47.7058934
  46.5352283  36.5153630  43.6949906  47.2824102  37.0275027  43.3857029
  46.8043873  36.1937682  44.5554300  44.8078933  39.0112170  40.6776861
  43.8990153  38.7271203  40.7749331  44.8374017  39.4311249  39.8180168
  48.9831120  33.5510746  45.6768696  48.2453877  33.0388132  46.0078938
  49.2357894  33.1111128  44.8651973  49.0842748  26.3286998  46.2710465
  49.3901624  25.4684361  45.9836380  49.8095352  26.9204618  46.0709459
  35.3767104  36.7317685  44.6592063  35.1791504  36.1387045  43.9343130
  34.8213768  36.4269895  45.3768002  43.3563827  36.6240791  46.7786656
  43.4112437  35.6714627  46.7029133  42.5455029  36.7800230  47.2627955
  44.5055021  40.5520914  38.0164939  44.0674451  39.8356773  37.5570577
  45.2465462  40.7797029  37.4550031  41.2956187  35.2417851  44.5377035
  40.4824053  35.5412021  44.9442227  41.7915182  34.8473540  45.2551517
  43.4464765  45.2375608  46.4711300  43.4040944  45.4636454  45.5419832
  44.3627464  45.0038982  46.6197101  52.6228136  38.8278111  44.0741258
  52.4846035  39.0179707  43.1462447  52.2664355  39.5897494  44.5309309
  40.7870262  32.8136206  50.1538270  41.4269641  32.6724965  49.4561233
  39.9547793  32.5270720  49.7776872  52.6497516  40.8954638  49.0852529
  53.0834022  40.8029927  49.9335583  53.3629096  40.8712139  48.4472545
  41.5630566  42.1138637  46.2673262  42.3571164  41.6188957  46.0655837
  40.8522258  41.5856500  45.9040968  37.8713329  36.2581719  42.3433015
  36.9410918  36.1966174  42.5602977  37.9670801  35.7357671  41.5469656
  37.7898878  32.7836531  44.9311257  38.0505696  33.6981865  44.8220417
  38.6116051  32.3160974  45.0807870  39.2623804  34.1974289  52.1010081
  39.9346857  33.9891651  51.4522730  38.4353590  33.9996375  51.6615314
  45.1649376  30.8236229  54.1175742  44.5177291  31.5226179  54.0240219
  45.9350391  31.2572373  54.4851990  44.1401842  42.6867659  49.9471100
  44.0012928  42.3186443  50.8197038  43.3516438  43.2015298  49.7755057
  44.7349994  47.7876755  41.2896636  44.9101750  47.3164798  42.1042259
  44.0482782  48.4142521  41.5177897  45.6907057  42.0649261  47.3359937
  45.3556890  42.0250031  48.2317587  45.1911003  41.3993977  46.8630348
  39.6651301  37.4716891  52.8612518  39.5271099  36.7397130  53.4624057
  40.5756225  37.3825792  52.5796706  48.6266249  39.4105296  37.6096997
  48.0095419  38.6852124  37.5130050  48.1582737  40.1714656  37.2664071
  42.2933602  37.1836851  52.3496198  43.0033220  36.5430043  52.3082817
  42.2502910  37.4349746  53.2722379  41.0062536  34.1702069  54.1691838
  40.4699893  33.7192807  54.8213434  40.4179244  34.3047978  53.4262302
  40.4164795  33.6290720  36.7318301  39.5394261  33.5079521  36.3680548
  40.8922548  32.8376798  36.4797190  31.9366935  38.4167880  46.8259808
  32.6237975  38.1029610  46.2380824  31.7815064  39.3209244  46.5527060
  36.7401657  33.3058076  51.2544832  36.6559846  32.6983746  50.5195242
  35.9184363  33.7967095  51.2554328  43.6028721  45.9817010  43.9780822
  42.8196243  46.5238691  44.0719046  44.3021466  46.4990990  44.3775063
  46.9125371  31.7911640  46.6215027  47.4094070  31.0381602  46.3016097
  46.1412352  31.8275957  46.0558236  54.7655128  37.4952005  48.2633319
  54.7545004  38.3776721  47.8927252  53.8972508  37.1423556  48.0687856
  47.9955152  40.5483327  44.1953451  47.0611430  40.6684790  44.0258155
  48.1731820  39.6455794  43.9313460  43.4960340  33.9329023  46.3486712
  43.1258127  33.3800063  47.0367617  43.9919432  33.3287156  45.7961712
  51.3827703  36.3900646  44.7303485  51.8488155  37.2228638  44.6563787
  51.8335203  35.9245628  45.4348743  49.3544366  28.7581233  48.7694386
  48.4407445  28.9885460  48.9376593  49.7837467  28.8419677  49.6208418
  36.9217256  43.9262873  50.3772832  37.5070693  43.1806561  50.5100737
  36.7242095  44.2366830  51.2609496  39.7755911  46.9614120  45.3935275
  39.1066287  47.4460248  44.9099315  39.6368781  47.2083341  46.3078653
  31.5134911  36.4968473  49.0977276  31.5519010  35.9632064  49.8914394
  31.0075204  35.9703679  48.4788253  38.8925673  31.3433014  52.5939818
  38.9567000  32.2047845  52.1817215  38.8292793  30.7307015  51.8612176
  38.3677946  33.4156146  56.2412852  38.9949985  33.0333224  56.8550376
  37.5105865  33.1970348  56.6068545  35.1443489  35.2232575  42.1731207
  35.4396930  34.3143254  42.1198261  34.2431524  35.2020315  41.8512209
  38.6737736  33.2988572  48.1558755  37.9524321  33.9124540  48.0166229
  39.4630991  33.8346337  48.0775401  41.4764049  30.6342998  54.4299407
  41.9998451  30.8805295  55.1925717  41.2576382  31.4663033  54.0102545
  36.8731330  32.9046673  42.2970532  36.5444036  32.0244052  42.1145638
  37.2270701  32.8494342  43.1846921  39.9873153  33.1919643  42.6646010
  40.3269226  33.7205564  41.9424618  40.4345274  33.5300049  43.4404576
  42.6816594  31.5756694  52.1149078  42.3413414  30.7764507  52.5169758
  41.9755600  31.8758404  51.5425911  43.3333066  28.6606006  50.5676401
  44.1559135  28.1866484  50.4455291  43.5771129  29.4396490  51.0675087
  41.9741300  31.6894264  40.8639302  42.6949663  32.0675517  40.3603019
  41.3506605  32.4083141  40.9674280  46.1172423  32.3939413  41.7997635
  46.3336038  33.2764051  41.4986463  45.6366490  32.0025627  41.0703277
  40.8571645  35.3525127  48.3768379  40.7116225  35.6665430  49.2692661
  40.3796848  35.9710027  47.8239278  42.7168028  32.3427675  48.4249269
  42.7029596  31.4468768  48.0881567  43.4340456  32.3498338  49.0587555
  44.5694158  32.7765015  50.4702396  44.3111936  33.6982085  50.4686727
  44.0379199  32.3795449  51.1602861  35.3317307  37.8930471  51.3156041
  34.7870775  38.6690279  51.4476315  36.2096657  38.2401275  51.1575162
  42.1204923  31.2242055  43.6936839  42.2420835  30.2958701  43.8927727
  41.8306966  31.2380741  42.7815155  44.9896114  28.9096965  46.8303559
  45.0117811  28.9736298  45.8755538  45.4064173  28.0701474  47.0244065
  55.3679738  38.6452225  44.8682782  55.8110884  37.8959550  44.4701905
  54.4906248  38.6362361  44.4856514  36.1183329  37.0200367  54.2086197
  35.3765065  37.1683003  54.7950828  35.7976073  37.2808633  53.3452947
  36.5639942  44.9065796  46.2396592  37.3897962  44.6069568  45.8595236
  36.2133994  44.1373418  46.6886381  41.5321476  44.2592264  48.3094266
  40.9101485  43.5962969  48.0096494  42.2026342  44.2853396  47.6267913
  34.7648547  42.8252122  47.1985526  33.9280456  42.3974297  47.0169527
  34.7372193  43.0184566  48.1356317  41.6046003  32.7374052  57.9026772
  41.6534158  33.6136175  57.5204541  42.1468517  32.1951445  57.3298415
  41.0934982  42.8096188  41.7852726  41.2423103  43.4931652  41.1319399
  41.9001426  42.7901278  42.3002182  43.8345291  33.4905425  54.6573130
  42.9648601  33.7838991  54.3855719  44.0704772  34.0745870  55.3780394
  54.9112603  40.1157463  47.2605229  55.7459494  40.5547267  47.4242789
  55.0471732  39.6396116  46.4413475  38.8487615  38.8361365  42.7913795
  38.6033657  37.9323695  42.9894005  39.0183530  38.8378516  41.8493273
  46.5384325  29.7085042  52.1738551  47.0566269  30.4446068  51.8485039
  46.1839458  30.0149035  53.0085310  38.1183263  34.5689723  40.2899957
  37.4252508  34.6434078  39.6339993  37.8735015  33.8050066  40.8121474
  46.7896919  26.1285324  47.6939447  47.0698673  25.4608513  48.3199874
  47.5747526  26.3214420  47.1814111  44.5930388  45.3044318  39.2564474
  44.0204355  45.9234505  38.8034946  45.1663182  45.8543680  39.7904396
  48.6820157  31.6358541  51.6270423  48.0870089  31.9163554  50.9316912
  48.3969854  32.1252442  52.3987164  50.4415664  44.9047338  37.3477003
  50.3629296  44.5707202  38.2412761  51.2625331  45.3969106  37.3468476
  53.1393856  37.7709078  50.5553322  53.1070176  36.8325078  50.7413006
  53.7494479  37.8493114  49.8219147  44.9777186  36.6405131  36.5980526
  45.9236291  36.5111339  36.6668944  44.5991431  35.9019793  37.0749954
  53.2888344  34.5620121  50.6011605  52.7727393  33.7778578  50.4141534
  54.1728293  34.2338838  50.7658125  50.9499071  28.3061137  46.5607418
  50.7523892  27.9976225  47.4450750  51.5598777  29.0322776  46.6905348
  58.9570405  38.8325085  49.6959359  59.6873794  38.5710373  50.2567062
  58.3477351  38.0953807  49.7361427  57.0385703  36.9732947  50.2933810
  56.3118866  36.8388912  49.6850302  56.6232989  37.2809776  51.0990528
  43.1620104  34.5655107  36.5335411  42.2551559  34.2688220  36.6098125
  43.4396085  34.2684925  35.6669698  34.0798044  35.8861471  46.9834458
  33.7600828  35.0326779  46.6908832  33.5331472  36.1010049  47.7392425
  37.8577952  38.6023912  50.7003964  38.0763961  39.5341019  50.7191998
  38.2703725  38.2431886  51.4858768  44.7782169  29.1091997  42.6879653
  43.9682898  28.7639082  43.0634899  45.4666586  28.7999541  43.2767264
  46.7072718  28.1870044  44.3103949  47.2603756  28.6065497  44.9693972
  46.9442804  27.2605792  44.3526905  42.7305817  34.1757117  60.0906713
  42.6302544  35.1251474  60.0218804  42.5127359  33.8475356  59.2182783
  41.9318888  31.4242042  36.6747391  42.7938052  31.7496941  36.9343208
  42.1169232  30.6373538  36.1620456  33.9486304  39.5064382  48.9527579
  33.2549775  39.0918335  48.4397534  34.6959295  39.5484919  48.3560998
  50.0851525  30.2970569  43.8182614  49.5050194  30.9555373  43.4360666
  49.8187457  29.4747913  43.4070031  48.5355091  29.6975627  46.0203934
  49.0354869  29.8092161  45.2118253  49.1790699  29.3936679  46.6604742
  35.8623047  39.4382636  46.8293594  35.8393735  39.5370323  45.8775477
  36.1723683  40.2847787  47.1510760  38.5210424  41.4958791  50.9440209
  39.4753678  41.4642733  50.8770140  38.3222948  41.0349415  51.7590435
  39.1109807  40.0659907  53.5111006  39.9302696  40.5603986  53.5345844
  39.3846614  39.1491875  53.4828574  48.8676403  32.4570659  42.8738962
  47.9802258  32.7420310  42.6559157  49.2830392  32.2964423  42.0266239
  52.2190939  32.4817180  46.5893301  52.9951329  32.9713633  46.8617918
  51.4939073  32.9075234  47.0465171  54.6563497  33.1944799  47.6467242
  55.2507988  32.9540535  46.9360550  54.7290081  32.4751930  48.2740778
  36.8760653  47.0378410  47.9610407  36.7415121  46.2778811  47.3948405
  36.4592715  47.7619310  47.4939195  48.0119616  42.2215334  36.9686982
  48.7155466  42.4265336  37.5844637  47.2882265  42.7892096  37.2336065
  48.8417426  37.9725195  43.0889252  48.7852628  38.4293747  42.2496884
  49.3945769  37.2115880  42.9112095  52.6522232  33.7614927  43.9139371
  52.3959167  33.3611563  44.7447579  52.0275100  34.4758721  43.7889511
  56.9634570  36.5011000  46.4210663  56.4034128  36.5704190  47.1942225
  56.3578074  36.3251985  45.7010159  40.0329779  47.9347727  48.1728849
  39.9162163  48.8793160  48.0707539  39.2122225  47.6321289  48.5614648
  49.5752206  39.1629976  40.3841781  49.5201010  38.9974248  39.4430225
  48.9498261  39.8706009  40.5403971  34.3644721  34.3998041  54.2103203
  35.0103584  33.8896995  54.6990429  34.1561872  35.1366722  54.7846629
  42.8848331  28.6638085  39.9627100  42.8727001  29.6079925  40.1195370
  43.7771753  28.4808231  39.6686561  42.8137895  47.3406976  48.0494856
  41.8633526  47.3408837  47.9359228  43.1170381  46.5939710  47.5330891
  46.7000451  25.2580862  44.2173036  45.9332847  24.7039349  44.3629719
  47.1111156  25.3302731  45.0787188  38.7042212  31.5465658  58.3078218
  39.5673673  31.1902463  58.5181542  38.1307622  31.2079553  58.9953622
  53.0588574  51.8983190  38.3819083  53.3114095  51.3764711  37.6202546
  52.1213133  51.7349335  38.4845767  54.7621891  48.2911342  39.2851496
  54.9296293  49.1591579  39.6521967  54.5719060  48.4538624  38.3612785
  53.3573250  43.9572198  44.2399579  52.7037662  43.6421215  43.6156193
  53.3153724  43.3347939  44.9659402  59.8224875  48.8802664  45.6768696
  59.0847632  48.3680050  46.0078938  60.0751648  48.4403045  44.8651973
  51.2558549  48.9582638  36.7318301  50.3788015  48.8371439  36.3680548
  51.7316302  48.1668716  36.4797190  56.9566178  47.7231331  41.7997635
  57.1729792  48.6055969  41.4986463  56.4760245  47.3317544  41.0703277
  55.8289868  44.2388883  46.8303559  55.8511565  44.3028216  45.8755538
  56.2457927  43.3993392  47.0244065  54.0013858  49.8947025  36.5335411
  53.0945314  49.5980138  36.6098125  54.2789839  49.5976843  35.6669698
  55.6175924  44.4383915  42.6879653  54.8076652  44.0930999  43.0634899
  56.3060341  44.1291458  43.2767264  57.5466472  43.5161961  44.3103949
  58.0997511  43.9357415  44.9693972  57.7836558  42.5897709  44.3526905
  52.7712643  46.7533960  36.6747391  53.6331807  47.0788858  36.9343208
  52.9562987  45.9665456  36.1620456  60.9245279  45.6262486  43.8182614
  60.3443948  46.2847291  43.4360666  60.6581212  44.8039831  43.4070031
  57.5394205  40.5872780  44.2173036  56.7726601  40.0331266  44.3629719
  57.9504910  40.6594648  45.0787188  59.6025297  71.8073528  47.8783255
  60.3946589  71.4664353  47.4629554  59.8421947  71.9168503  48.7985408
  67.6360424  73.9793304  40.3513499  66.9848404  74.5647384  39.9647513
  68.4304787  74.5099499  40.4108537  61.5616051  71.0682441  40.7500634
  62.3346927  70.5211428  40.6113509  61.9141450  71.9326691  40.9615095
  63.3411758  78.8464559  43.9188294  63.2635788  79.7972384  43.9976775
  62.7373402  78.5010432  44.5763220  73.7648747  72.4662647  45.8436442
  73.0799785  72.8461548  45.2933476  73.8492596  73.0757974  46.5768390
  80.2251499  69.3333310  46.9639115  79.4715208  68.7640708  46.8083119
  80.3599041  69.2995975  47.9109749  65.6150127  74.2046712  42.6393834
  65.4795802  75.0498248  43.0678682  66.1559940  74.4065990  41.8759768
  59.0679525  71.7222150  43.2121759  59.5804045  72.5165401  43.3627324
  59.7202238  71.0248441  43.1455360  60.8774410  74.8387907  45.2944512
  61.0541038  75.7605871  45.1065496  61.6731243  74.5246326  45.7238892
  62.0005725  76.3566080  51.2954855  62.5513150  76.2283144  50.5231848
  61.1617201  76.6560969  50.9449747  68.9642591  57.7277274  51.1692727
  68.6206860  58.6178916  51.0931838  69.3321554  57.5378932  50.3062312
  57.0328442  70.0510805  43.9881330  57.8703664  70.4607813  43.7715037
  57.2106709  69.1110247  43.9581523  68.2146288  78.2780918  39.0749557
  67.5407987  78.5812615  39.6834515  68.6012110  79.0809999  38.7255014
  70.1618649  75.1179092  45.3817846  70.4541623  75.6784149  44.6630212
  70.6717270  75.4107653  46.1371006  65.1252274  75.8959443  46.4711300
  65.0828453  76.1220289  45.5419832  66.0414973  75.6622818  46.6197101
  63.2418075  72.7722472  46.2673262  64.0358673  72.2772792  46.0655837
  62.5309767  72.2440335  45.9040968  68.0612919  75.1540568  50.6185630
  68.1149942  75.7231504  51.3863346  67.1927701  75.3242453  50.2539667
  65.8189351  73.3451494  49.9471100  65.6800437  72.9770279  50.8197038
  65.0303947  73.8599134  49.7755057  66.4137503  78.4460591  41.2896636
  66.5889259  77.9748634  42.1042259  65.7270291  79.0726357  41.5177897
  60.9798588  81.5949953  48.0636496  61.2195186  82.2268478  48.7415515
  60.1367785  81.2437993  48.3501855  53.6154444  69.0751715  46.8259808
  54.3025484  68.7613445  46.2380824  53.4602572  69.9793080  46.5527060
  65.4926450  77.4029076  50.4678000  65.4196622  78.2084047  50.9797305
  65.0503843  77.6021042  49.6426022  65.2816230  76.6400846  43.9780822
  64.4983752  77.1822526  44.0719046  65.9808975  77.1574825  44.3775063
  76.4442637  68.1535841  48.2633319  76.4332513  69.0360556  47.8927252
  75.5760017  67.8007392  48.0687856  67.9525134  77.3015910  52.6236159
  68.6653106  77.9363375  52.5512060  67.4615162  77.3979776  51.8076161
  67.7645507  77.6414654  45.3722450  67.9467902  76.8236310  45.8350203
  68.5878493  77.8582346  44.9347340  68.0987672  76.5682839  42.6337499
  68.6275439  76.0575294  42.0207661  68.3615892  76.2525369  43.4983032
  58.6004765  74.5846708  50.3772832  59.1858202  73.8390396  50.5100737
  58.4029604  74.8950665  51.2609496  61.4543420  77.6197956  45.3935275
  60.7853796  78.1044083  44.9099315  61.3156290  77.8667176  46.3078653
  65.5948689  79.6541699  51.9917933  66.1466997  79.8173321  52.7567018
  65.9354882  80.2446137  51.3197958  68.7317076  77.6023675  48.9781615
  68.6068216  76.8013415  48.4692561  69.3896167  78.0969868  48.4895585
  70.7951985  75.4032695  50.6061165  69.8482320  75.2838046  50.5339492
  71.1434758  74.5155193  50.6887427  67.7998418  75.1985411  46.8065518
  67.6523380  74.2702118  46.9873088  68.6251911  75.2205502  46.3222593
  71.4032540  76.0213970  47.8930390  72.3279087  75.8156831  47.7554841
  71.2347843  75.7730371  48.8019732  71.1927856  76.5399637  43.2492482
  71.3664734  75.9746060  42.4966334  71.6856747  77.3400532  43.0671972
  72.1803028  75.8566402  40.3489380  72.8753933  76.4773094  40.5676695
  72.5226179  75.0061753  40.6241758  74.0794452  73.3066107  41.8776711
  74.6045776  73.6453380  41.1526031  73.9916804  72.3713123  41.6939845
  65.7635112  79.3738090  46.2371964  65.3240103  78.8814469  46.9304821
  66.5143229  78.8311058  45.9964039  58.2427451  75.5649631  46.2396592
  59.0685471  75.2653403  45.8595236  57.8921503  74.7957254  46.6886381
  63.2108985  74.9176100  48.3094266  62.5888994  74.2546805  48.0096494
  63.8813851  74.9437231  47.6267913  56.4436056  73.4835958  47.1985526
  55.6067965  73.0558132  47.0169527  56.4159702  73.6768401  48.1356317
  62.7722491  73.4680023  41.7852726  62.9210612  74.1515487  41.1319399
  63.5788935  73.4485113  42.3002182  76.5900112  70.7741299  47.2605229
  77.4247003  71.2131103  47.4242789  76.7259241  70.2979952  46.4413475
  60.5275124  69.4945201  42.7913795  60.2821166  68.5907531  42.9894005
  60.6971039  69.4962351  41.8493273  66.2717897  75.9628153  39.2564474
  65.6991864  76.5818340  38.8034946  66.8450691  76.5127515  39.7904396
  69.4915157  76.2465303  40.3873056  70.4245830  76.1810865  40.5905931
  69.4038370  77.0821570  39.9287589  80.6357914  69.4908920  49.6959359
  81.3661303  69.2294208  50.2567062  80.0264860  68.7537642  49.7361427
  57.5410556  70.0966471  46.8293594  57.5181244  70.1954158  45.8775477
  57.8511192  70.9431622  47.1510760  58.5548162  77.6962246  47.9610407
  58.4202630  76.9362647  47.3948405  58.1380224  78.4203146  47.4939195
  78.6422079  67.1594836  46.4210663  78.0821637  67.2288025  47.1942225
  78.0365583  66.9835820  45.7010159  61.7117288  78.5931563  48.1728849
  61.5949672  79.5376995  48.0707539  60.8909734  78.2905124  48.5614648
  62.7371802  79.2459825  51.3884778  63.6399049  79.2783435  51.7051273
  62.5109172  78.3160276  51.4031113  64.4925404  77.9990811  48.0494856
  63.5421035  77.9992673  47.9359228  64.7957890  77.2523546  47.5330891
  80.2278098  83.8351350  49.1140619  80.8656508  83.7158097  48.4103959
  80.1098941  84.7832193  49.1728571  77.0367804  83.7878778  49.0502143
  76.6986315  83.6719842  48.1622678  77.9057572  83.3869943  49.0303149
  72.8954620  85.6414254  45.0399034  72.3319485  85.5504191  44.2715322
  72.7807015  84.8214159  45.5201527  70.4419052  87.1365446  47.8783255
  71.2340344  86.7956270  47.4629554  70.6815702  87.2460421  48.7985408
  78.4754178  89.3085222  40.3513499  77.8242158  89.8939302  39.9647513
  79.2698541  89.8391417  40.4108537  72.4009806  86.3974359  40.7500634
  73.1740682  85.8503346  40.6113509  72.7535204  87.2618608  40.9615095
  74.2394848  87.7250741  53.9567533  73.9484714  88.6296372  53.8414199
  74.8751832  87.7667269  54.6711602  75.1651055  85.1027590  50.5468892
  75.7614627  84.8783612  49.8325855  75.2226026  84.3612335  51.1494340
  74.7376083  82.5567025  38.3819083  74.9901604  82.0348546  37.6202546
  73.8000642  82.3933170  38.4845767  79.7819366  81.5602803  46.1893827
  80.5682455  81.1422227  45.8384244  80.0458070  82.4648896  46.3575475
  79.9529444  86.9975654  40.8882483  79.3175277  87.0710280  41.6003388
  79.6226850  87.5869253  40.2101563  85.1827793  81.4978037  47.0926805
  85.9152965  80.9277253  47.3264635  84.4267149  81.1099637  47.5333311
  74.4572372  84.4595131  40.5843458  74.3408630  83.7840034  41.2524543
  74.5674632  83.9727505  39.7675611  76.8003913  83.9205278  44.2890148
  76.4362120  83.3935899  45.0003069  77.6571029  83.5303747  44.1156633
  82.7053214  75.2099611  51.5521414  82.3736538  76.0795022  51.3282629
  82.1098827  74.8935895  52.2315444  76.4409400  78.9495178  39.2851496
  76.6083802  79.8175414  39.6521967  76.2506569  79.1122459  38.3612785
  79.1984733  87.4112157  50.9517326  78.8985456  88.3137195  50.8433134
  78.8535793  87.1444340  51.8038479  72.6497215  83.8625954  46.9854031
  71.7247711  83.7302168  47.1931723  72.8981628  84.6420173  47.4823973
  82.5981877  79.9294697  48.6314764  81.6898754  79.8610105  48.3373525
  82.5469473  80.4066642  49.4596589  76.4198621  81.4052835  40.2698163
  76.2998246  81.8509886  41.1083643  75.7251209  81.7538153  39.7111701
  70.0106026  83.5059227  47.8197820  70.1398407  83.7593706  48.7337232
  69.3303477  84.0986935  47.5002475  74.1805513  94.1756477  43.9188294
  74.1029543  95.1264302  43.9976775  73.5767157  93.8302350  44.5763220
  84.4643523  78.1311135  50.4092638  83.8217904  78.4243668  49.7632432
  83.9598452  78.0164056  51.2145834  82.1183687  81.8774308  41.0978497
  83.0301543  82.1101695  40.9226195  81.6093334  82.4611353  40.5353576
  80.4024455  86.2998936  54.7339790  80.8107811  85.8581347  53.9894422
  79.6801716  85.7251564  54.9873982  80.7253269  86.8600127  48.4892078
  80.0962132  87.0245841  47.7868146  80.3378931  87.2741736  49.2603042
  84.6042501  87.7954565  45.8436442  83.9193539  88.1753466  45.2933476
  84.6886351  88.4049891  46.5768390  79.9054970  78.8975911  53.7654520
  79.6615902  79.6517972  53.2288796  80.1814901  79.2761259  54.6001767
  81.8593433  85.4414524  52.4431786  82.0710328  86.0846284  51.7666167
  81.8123181  84.6076840  51.9753716  79.4619662  78.0532344  49.3468358
  78.6004141  78.3513598  49.6385095  79.4882096  78.2702743  48.4149391
  76.2781231  86.5974535  45.7542164  76.7419577  86.8762238  44.9646786
  76.0138029  85.6957980  45.5715254  73.1705312  86.1446017  48.6921927
  73.7406669  86.5733285  48.0539411  73.7613424  85.8628601  49.3906112
  75.2150117  82.7197687  42.5631729  75.9174161  83.1718731  43.0305655
  74.8830746  82.0781506  43.1911622  68.9575451  80.9781240  47.8648862
  68.1674505  81.2338769  47.3888973  69.4486699  81.7929578  47.9700903
  82.9739261  88.3186479  50.6154143  83.7956705  87.9166666  50.3336825
  82.9701664  88.2154713  51.5670259  70.9090197  81.3425819  44.8232339
  70.1121360  81.4544514  45.3415835  70.6815789  81.6812471  43.9573229
  76.7395864  87.8670522  52.7714854  76.8040297  88.3290930  53.6073025
  76.0306788  87.2367887  52.8997163  67.2413154  81.2311730  50.2963853
  67.4921193  82.1158740  50.5621429  67.7772703  81.0516332  49.5238945
  91.0645254  84.6625228  46.9639115  90.3108962  84.0932626  46.8083119
  91.1992795  84.6287892  47.9109749  76.4543882  89.5338630  42.6393834
  76.3189557  90.3790166  43.0678682  76.9953694  89.7357908  41.8759768
  69.9073279  87.0514068  43.2121759  70.4197800  87.8457318  43.3627324
  70.5595992  86.3540358  43.1455360  71.7168164  90.1679824  45.2944512
  71.8934792  91.0897789  45.1065496  72.5124998  89.8538244  45.7238892
  78.0812358  90.1562196  56.7694176  77.6376212  89.3698575  56.4515080
  78.7429572  90.3441347  56.1038067  72.8399479  91.6857998  51.2954855
  73.3906905  91.5575061  50.5231848  72.0010955  91.9852887  50.9449747
  80.1793596  90.4364996  54.7975577  80.1612072  91.2573877  54.3055846
  81.1013516  90.3119072  55.0225718  76.6366651  87.9509126  55.6399086
  77.1694987  87.1897414  55.4098394  76.1080732  87.6582778  56.3823240
  79.8036345  73.0569192  51.1692727  79.4600615  73.9470834  51.0931838
  80.1715308  72.8670850  50.3062312  67.8722196  85.3802722  43.9881330
  68.7097418  85.7899731  43.7715037  68.0500464  84.4402164  43.9581523
  79.7686628  83.0477803  39.6765163  79.2533252  83.8182408  39.9153550
  79.4963937  82.3742939  40.2998224  77.3533739  77.8927504  44.7350401
  76.4975336  77.5034354  44.5556040  77.7660691  77.9719465  43.8750186
  78.8832886  75.4273847  49.1341961  78.3797681  75.3903982  48.3209766
  79.1763493  76.3366590  49.1938617  75.1275772  75.5112577  48.1408142
  75.9928769  75.3155385  47.7814032  75.1953281  75.2822929  49.0677499
  84.7420902  85.8010158  41.6118336  83.9650345  85.4621317  41.1673498
  85.4212383  85.8062781  40.9373301  79.5572931  80.9204895  41.5024944
  79.2523067  81.2351044  42.3535087  80.5103373  80.9986315  41.5452277
  78.0019363  87.0795118  43.1517898  77.4740725  86.3447878  42.8391135
  77.5006866  87.8569795  42.9057866  82.9812209  85.2744139  48.2684944
  82.3235884  85.9643400  48.3565073  83.7852608  85.6640571  48.6118930
  72.7338091  77.7414785  45.5124509  73.3081843  77.5189966  44.7797702
  73.3209073  77.8103479  46.2653110  81.7917668  83.6288512  46.3188886
  82.3049550  84.2618503  46.8210595  82.4418892  83.0289707  45.9532246
  73.0607678  79.7719246  39.5320394  72.2244990  80.1093932  39.8529669
  72.9212448  79.6368225  38.5947531  75.0360759  74.6156034  44.2399579
  74.3825171  74.3005051  43.6156193  74.9941233  73.9931774  44.9659402
  76.1471963  84.8975329  36.1552871  75.2399025  84.6664582  36.3544020
  76.6442995  84.1012948  36.3426852  79.0540042  93.6072836  39.0749557
  78.3801741  93.9104533  39.6834515  79.4405864  94.4101916  38.7255014
  78.2698499  81.1037967  48.5647226  77.3521060  81.3252914  48.4068914
  78.6858643  81.1784278  47.7058934  79.0533547  82.5029383  43.6949906
  79.8005366  83.0150780  43.3857029  79.3225136  82.1813436  44.5554300
  77.3260197  84.9987924  40.6776861  76.4171416  84.7146956  40.7749331
  77.3555281  85.4187002  39.8180168  82.5579464  88.6094513  44.4468028
  82.1041791  87.7685423  44.5033219  81.9273431  89.2455911  44.7842808
  81.5012384  79.5386499  45.6768696  80.7635141  79.0263885  46.0078938
  81.7539157  79.0986881  44.8651973  81.0012403  90.4471010  45.3817846
  81.2935378  91.0076067  44.6630212  81.5111024  90.7399571  46.1371006
  81.6024011  72.3162751  46.2710465  81.9082888  71.4560114  45.9836380
  82.3276616  72.9080371  46.0709459  67.8948367  82.7193438  44.6592063
  67.6972767  82.1262798  43.9343130  67.3395031  82.4145648  45.3768002
  75.8745091  82.6116544  46.7786656  75.9293701  81.6590381  46.7029133
  75.0636293  82.7675983  47.2627955  77.0236285  86.5396667  38.0164939
  76.5855715  85.8232526  37.5570577  77.7646725  86.7672782  37.4550031
  73.8137451  81.2293604  44.5377035  73.0005316  81.5287774  44.9442227
  74.3096445  80.8349293  45.2551517  75.9646029  91.2251361  46.4711300
  75.9222207  91.4512207  45.5419832  76.8808728  90.9914735  46.6197101
  79.4111662  81.6935428  53.3691929  79.7661050  81.9206901  54.2286395
  80.0583794  82.0253805  52.7469184  85.1409399  84.8153864  44.0741258
  85.0027298  85.0055460  43.1462447  84.7845618  85.5773247  44.5309309
  73.3051526  78.8011959  50.1538270  73.9450905  78.6600718  49.4561233
  72.4729056  78.5146473  49.7776872  85.1678779  86.8830391  49.0852529
  85.6015286  86.7905680  49.9335583  85.8810360  86.8587892  48.4472545
  74.0811829  88.1014390  46.2673262  74.8752428  87.6064710  46.0655837
  73.3703522  87.5732253  45.9040968  78.9006674  90.4832485  50.6185630
  78.9543696  91.0523422  51.3863346  78.0321455  90.6534370  50.2539667
  70.3894593  82.2457472  42.3433015  69.4592181  82.1841927  42.5602977
  70.4852065  81.7233424  41.5469656  70.3080142  78.7712284  44.9311257
  70.5686959  79.6857618  44.8220417  71.1297314  78.3036727  45.0807870
  71.7805067  80.1850042  52.1010081  72.4528121  79.9767404  51.4522730
  70.9534854  79.9872128  51.6615314  86.0294329  86.9254092  51.6185415
  86.2230219  87.8299902  51.8644690  85.9294947  86.4661511  52.4524000
  81.0909437  87.0760835  57.1926295  80.9394944  86.8471386  56.2756379
  81.0814117  88.0331436  57.2057640  77.8594774  84.6492747  52.1772562
  78.7886834  84.8003907  52.0041529  77.4385804  84.7376768  51.3221208
  76.6583105  88.6743412  49.9471100  76.5194191  88.3062196  50.8197038
  75.8697702  89.1891051  49.7755057  77.2531257  93.7752508  41.2896636
  77.4283013  93.3040551  42.1042259  76.5664045  94.4018274  41.5177897
  78.2088321  88.0525014  47.3359937  77.8738153  88.0125784  48.2317587
  77.7092266  87.3869730  46.8630348  72.1832565  83.4592645  52.8612518
  72.0452362  82.7272883  53.4624057  73.0937488  83.3701545  52.5796706
  81.1447512  85.3981049  37.6096997  80.5276683  84.6727877  37.5130050
  80.6764001  86.1590409  37.2664071  82.8001644  90.1079957  55.2702777
  82.7414190  89.4239177  54.6033360  83.2021162  90.8498947  54.8183403
  71.8192343  96.9241871  48.0636496  72.0588941  97.5560395  48.7415515
  70.9761539  96.5729911  48.3501855  72.9346058  79.6166473  36.7318301
  72.0575524  79.4955274  36.3680548  73.4103811  78.8252551  36.4797190
  82.8019051  88.0719541  53.5016757  81.9145830  87.7345463  53.6243156
  83.3717602  87.3402572  53.7385522  64.4548198  84.4043633  46.8259808
  65.1419238  84.0905363  46.2380824  64.2996327  85.3084998  46.5527060
  69.2582920  79.2933829  51.2544832  69.1741109  78.6859499  50.5195242
  68.4365627  79.7842848  51.2554328  76.3320205  92.7320993  50.4678000
  76.2590376  93.5375965  50.9797305  75.8897598  92.9312959  49.6426022
  76.1209984  91.9692763  43.9780822  75.3377506  92.5114444  44.0719046
  76.8202729  92.4866743  44.3775063  79.4306634  77.7787393  46.6215027
  79.9275334  77.0257355  46.3016097  78.6593616  77.8151710  46.0558236
  87.2836392  83.4827758  48.2633319  87.2726268  84.3652474  47.8927252
  86.4153771  83.1299309  48.0687856  78.7918888  92.6307827  52.6236159
  79.5046860  93.2655292  52.5512060  78.3008917  92.7271693  51.8076161
  80.5136415  86.5359080  44.1953451  79.5792694  86.6560543  44.0258155
  80.6913083  85.6331547  43.9313460  76.0141603  79.9204776  46.3486712
  75.6439391  79.3675816  47.0367617  76.5100696  79.3162909  45.7961712
  83.9008966  82.3776399  44.7303485  84.3669419  83.2104391  44.6563787
  84.3516467  81.9121381  45.4348743  73.8430802  90.3802271  53.4441730
  74.5440261  91.0138754  53.5971124  73.3725917  90.7217003  52.6837369
  81.9685197  88.7220221  41.7289637  82.2445041  88.6076815  42.6383511
  81.0989696  88.3237706  41.6901810  81.8725629  74.7456986  48.7694386
  80.9588709  74.9761213  48.9376593  82.3018731  74.8295431  49.6208418
  81.6432088  82.9346878  51.2694280  80.9903538  83.1822786  50.6146733
  82.0212467  82.1211017  50.9356757  78.6039261  92.9706572  45.3722450
  78.7861656  92.1528228  45.8350203  79.4272247  93.1874264  44.9347340
  78.9381427  91.8974757  42.6337499  79.4669193  91.3867211  42.0207661
  79.2009647  91.5817287  43.4983032  69.4398520  89.9138626  50.3772832
  70.0251956  89.1682314  50.5100737  69.2423358  90.2242583  51.2609496
  72.2937175  92.9489873  45.3935275  71.6247550  93.4336001  44.9099315
  72.1550045  93.1959094  46.3078653  64.0316174  82.4844226  49.0977276
  64.0700274  81.9507817  49.8914394  63.5256467  81.9579432  48.4788253
  76.4342443  94.9833617  51.9917933  76.9860752  95.1465238  52.7567018
  76.7748637  95.5738055  51.3197958  81.2853318  89.8094874  57.8466588
  81.8293222  90.4224833  57.3521542  80.7040163  90.3674453  58.3633601
  67.6624752  81.2108328  42.1731207  67.9578193  80.3019007  42.1198261
  66.7612788  81.1896068  41.8512209  79.5710831  92.9315592  48.9781615
  79.4461970  92.1305332  48.4692561  80.2289922  93.4261786  48.4895585
  71.1918999  79.2864325  48.1558755  70.4705585  79.9000293  48.0166229
  71.9812255  79.8222090  48.0775401  81.6345739  90.7324613  50.6061165
  80.6876075  90.6129964  50.5339492  81.9828512  89.8447111  50.6887427
  69.3912594  78.8922426  42.2970532  69.0625300  78.0119805  42.1145638
  69.7451964  78.8370095  43.1846921  78.6392172  90.5277329  46.8065518
  78.4917135  89.5994036  46.9873088  79.4645666  90.5497419  46.3222593
  72.5054417  79.1795396  42.6646010  72.8450489  79.7081317  41.9424618
  72.9526537  79.5175802  43.4404576  82.2426294  91.3505887  47.8930390
  83.1672842  91.1448749  47.7554841  82.0741598  91.1022289  48.8019732
  74.4922564  77.6770017  40.8639302  75.2130926  78.0551270  40.3603019
  73.8687868  78.3958894  40.9674280  78.6353687  78.3815166  41.7997635
  78.8517301  79.2639804  41.4986463  78.1547754  77.9901380  41.0703277
  73.3752908  81.3400880  48.3768379  73.2297489  81.6541183  49.2692661
  72.8978112  81.9585780  47.8239278  75.2349291  78.3303428  48.4249269
  75.2210860  77.4344521  48.0881567  75.9521719  78.3374091  49.0587555
  77.0875422  78.7640768  50.4702396  76.8293200  79.6857838  50.4686727
  76.5560462  78.3671202  51.1602861  82.0321611  91.8691555  43.2492482
  82.2058488  91.3037977  42.4966334  82.5250502  92.6692450  43.0671972
  67.8498570  83.8806224  51.3156041  67.3052038  84.6566032  51.4476315
  68.7277920  84.2277028  51.1575162  74.6386187  77.2117808  43.6936839
  74.7602098  76.2834454  43.8927727  74.3488229  77.2256494  42.7815155
  77.5077377  74.8972718  46.8303559  77.5299074  74.9612051  45.8755538
  77.9245436  74.0577227  47.0244065  87.8861002  84.6327978  44.8682782
  88.3292148  83.8835303  44.4701905  87.0087512  84.6238114  44.4856514
  83.0196783  91.1858319  40.3489380  83.7147688  91.8065012  40.5676695
  83.3619933  90.3353671  40.6241758  68.6364592  83.0076120  54.2086197
  67.8946328  83.1558756  54.7950828  68.3157336  83.2684386  53.3452947
  84.9188206  88.6358025  41.8776711  85.4439530  88.9745298  41.1526031
  84.8310559  87.7005040  41.6939845  76.5808255  92.5492099  54.0066587
  76.8895381  92.3041245  54.8789287  77.3783737  92.7538737  53.5185458
  76.6028867  94.7030008  46.2371964  76.1633857  94.2106387  46.9304821
  77.3536984  94.1602976  45.9964039  69.0821206  90.8941549  46.2396592
  69.9079226  90.5945321  45.8595236  68.7315258  90.1249171  46.6886381
  74.0502739  90.2468017  48.3094266  73.4282748  89.5838722  48.0096494
  74.7207606  90.2729149  47.6267913  67.2829811  88.8127875  47.1985526
  66.4461719  88.3850050  47.0169527  67.2553456  89.0060319  48.1356317
  84.6082112  89.2690929  57.1827909  83.8177656  89.2515067  56.6432408
  84.3715467  89.8079222  57.9376945  84.7279987  86.1183395  54.4960637
  84.7777992  85.9533402  55.4376160  84.6193911  85.2510654  54.1058518
  73.6116246  88.7971941  41.7852726  73.7604366  89.4807405  41.1319399
  74.4182689  88.7777031  42.3002182  82.0183750  82.1014323  55.8119944
  82.9193612  81.9620788  55.5203942  82.0931724  82.2668778  56.7518121
  86.2298184  88.5380336  54.7402659  85.9382992  88.9010317  55.5766120
  85.6170315  87.8247345  54.5615991  87.4293866  86.1033216  47.2605229
  88.2640758  86.5423020  47.4242789  87.5652995  85.6271869  46.4413475
  84.4785372  83.6612951  53.2082717  84.9539494  83.8540597  52.4001568
  83.5550938  83.7172137  52.9626101  71.3668879  84.8237118  42.7913795
  71.1214921  83.9199448  42.9894005  71.5364793  84.8254269  41.8493273
  79.0565589  75.6960795  52.1738551  79.5747533  76.4321822  51.8485039
  78.7020722  76.0024788  53.0085310  70.6364526  80.5565476  40.2899957
  69.9433771  80.6309831  39.6339993  70.3916278  79.7925819  40.8121474
  79.3078183  72.1161077  47.6939447  79.5879937  71.4484266  48.3199874
  80.0928790  72.3090173  47.1814111  77.1111651  91.2920071  39.2564474
  76.5385619  91.9110258  38.8034946  77.6844445  91.8419433  39.7904396
  83.1787041  80.5378711  51.4411022  84.1304464  80.6376809  51.4623246
  83.0090492  79.7456980  51.9509107  81.2001421  77.6234294  51.6270423
  80.6051353  77.9039307  50.9316912  80.9151117  78.1128195  52.3987164
  80.3308911  91.5757221  40.3873056  81.2639584  91.5102783  40.5905931
  80.2432124  92.4113488  39.9287589  82.9596928  90.8923091  37.3477003
  82.8810559  90.5582955  38.2412761  83.7806595  91.3844859  37.3468476
  85.6575119  83.7584831  50.5553322  85.6251439  82.8200832  50.7413006
  86.2675743  83.8368868  49.8219147  77.4958450  82.6280884  36.5980526
  78.4417555  82.4987092  36.6668944  77.1172695  81.8895546  37.0749954
  85.8069608  80.5495874  50.6011605  85.2908656  79.7654331  50.4141534
  86.6909556  80.2214591  50.7658125  83.4680334  74.2936890  46.5607418
  83.2705156  73.9851978  47.4450750  84.0780040  75.0198529  46.6905348
  91.4751669  84.8200838  49.6959359  92.2055057  84.5586126  50.2567062
  90.8658614  84.0829560  49.7361427  89.5566966  82.9608700  50.2933810
  88.8300130  82.8264665  49.6850302  89.1414253  83.2685529  51.0990528
  75.6801367  80.5530860  36.5335411  74.7732822  80.2563973  36.6098125
  75.9577348  80.2560678  35.6669698  66.5979307  81.8737224  46.9834458
  66.2782092  81.0202532  46.6908832  66.0512736  82.0885802  47.7392425
  70.3759215  84.5899665  50.7003964  70.5945225  85.5216772  50.7191998
  70.7884989  84.2307639  51.4858768  77.2963433  75.0967750  42.6879653
  76.4864161  74.7514835  43.0634899  77.9847850  74.7875294  43.2767264
  79.2253981  74.1745797  44.3103949  79.7785020  74.5941250  44.9693972
  79.4624067  73.2481545  44.3526905  66.4667567  85.4940135  48.9527579
  65.7731039  85.0794088  48.4397534  67.2140558  85.5360672  48.3560998
  82.6032788  76.2846322  43.8182614  82.0231457  76.9431126  43.4360666
  82.3368721  75.4623666  43.4070031  81.0536355  75.6851380  46.0203934
  81.5536133  75.7967914  45.2118253  81.6971962  75.3812432  46.6604742
  68.3804310  85.4258389  46.8293594  68.3574998  85.5246076  45.8775477
  68.6904946  86.2723540  47.1510760  71.0391688  87.4834544  50.9440209
  71.9934941  87.4518486  50.8770140  70.8404211  87.0225168  51.7590435
  71.6291070  86.0535660  53.5111006  72.4483959  86.5479739  53.5345844
  71.9027878  85.1367628  53.4828574  81.3857666  78.4446412  42.8738962
  80.4983521  78.7296063  42.6559157  81.8011655  78.2840176  42.0266239
  84.7372202  78.4692933  46.5893301  85.5132592  78.9589386  46.8617918
  84.0120337  78.8950987  47.0465171  87.1744761  79.1820552  47.6467242
  87.7689252  78.9416288  46.9360550  87.2471345  78.4627683  48.2740778
  69.3941917  93.0254163  47.9610407  69.2596385  92.2654564  47.3948405
  68.9773979  93.7495063  47.4939195  80.5300880  88.2091087  36.9686982
  81.2336730  88.4141089  37.5844637  79.8063528  88.7767849  37.2336065
  81.3598690  83.9600948  43.0889252  81.3033891  84.4169500  42.2496884
  81.9127032  83.1991633  42.9112095  85.1703496  79.7490680  43.9139371
  84.9140430  79.3487316  44.7447579  84.5456364  80.4634474  43.7889511
  89.4815834  82.4886753  46.4210663  88.9215392  82.5579943  47.1942225
  88.8759337  82.3127738  45.7010159  72.5511043  93.9223480  48.1728849
  72.4343427  94.8668913  48.0707539  71.7303489  93.6197042  48.5614648
  82.4387577  88.6473616  39.0185442  83.2733181  88.2154815  38.8362917
  82.2771920  88.4755630  39.9462336  82.0933469  85.1505729  40.3841781
  82.0382273  84.9850001  39.4430225  81.4679525  85.8581762  40.5403971
  66.8825984  80.3873794  54.2103203  67.5284848  79.8772748  54.6990429
  66.6743135  81.1242475  54.7846629  79.4079376  87.4554641  59.7095344
  80.2770536  87.6295294  59.3481979  78.9286128  88.2749058  59.5871073
  75.4029595  74.6513838  39.9627100  75.3908265  75.5955678  40.1195370
  76.2953017  74.4683984  39.6686561  73.5765557  94.5751742  51.3884778
  74.4792803  94.6075353  51.7051273  73.3502927  93.6452193  51.4031113
  75.3319159  93.3282729  48.0494856  74.3814790  93.3284590  47.9359228
  75.6351645  92.5815463  47.5330891  79.2181714  71.2456615  44.2173036
  78.4514110  70.6915102  44.3629719  79.6292419  71.3178484  45.0787188
  91.0671852  99.1643267  49.1140619  91.7050262  99.0450015  48.4103959
  90.9492695 100.1124111  49.1728571  87.8761558  99.1170695  49.0502143
  87.5380070  99.0011760  48.1622678  88.7451327  98.7161860  49.0303149
  83.7348374 100.9706172  45.0399034  83.1713239 100.8796109  44.2715322
  83.6200769 100.1506076  45.5201527  88.3581341 100.2705547  55.0088349
  88.3469982  99.8758345  54.1368852  88.5201981  99.5371620  55.6022120
  81.2812806 102.4657363  47.8783255  82.0734098 102.1248188  47.4629554
  81.5209456 102.5752338  48.7985408  89.3147933 104.6377139  40.3513499
  88.6635913 105.2231220  39.9647513  90.1092296 105.1683334  40.4108537
  83.2403560 101.7266277  40.7500634  84.0134436 101.1795264  40.6113509
  83.5928959 102.5910526  40.9615095  85.0788603 103.0542659  53.9567533
  84.7878469 103.9588290  53.8414199  85.7145587 103.0959186  54.6711602
  86.0044809 100.4319507  50.5468892  86.6008382 100.2075530  49.8325855
  86.0619781  99.6904253  51.1494340  85.5769838  97.8858943  38.3819083
  85.8295359  97.3640464  37.6202546  84.6394397  97.7225088  38.4845767
  90.6213121  96.8894721  46.1893827  91.4076210  96.4714144  45.8384244
  90.8851825  97.7940813  46.3575475  90.7923198 102.3267571  40.8882483
  90.1569031 102.4002198  41.6003388  90.4620604 102.9161170  40.2101563
  96.0221548  96.8269954  47.0926805  96.7546720  96.2569171  47.3264635
  95.2660903  96.4391555  47.5333311  85.2966127  99.7887049  40.5843458
  85.1802385  99.1131952  41.2524543  85.4068386  99.3019423  39.7675611
  87.6397668  99.2497196  44.2890148  87.2755875  98.7227817  45.0003069
  88.4964783  98.8595665  44.1156633  93.5446968  90.5391528  51.5521414
  93.2130293  91.4086939  51.3282629  92.9492582  90.2227812  52.2315444
  87.2803154  94.2787095  39.2851496  87.4477557  95.1467332  39.6521967
  87.0900324  94.4414377  38.3612785  90.0378488 102.7404074  50.9517326
  89.7379211 103.6429113  50.8433134  89.6929547 102.4736258  51.8038479
  83.4890969  99.1917871  46.9854031  82.5641466  99.0594085  47.1931723
  83.7375382  99.9712090  47.4823973  93.4375631  95.2586615  48.6314764
  92.5292509  95.1902023  48.3373525  93.3863227  95.7358559  49.4596589
  87.2592375  96.7344753  40.2698163  87.1392001  97.1801804  41.1083643
  86.5644964  97.0830071  39.7111701  80.8499780  98.8351145  47.8197820
  80.9792161  99.0885624  48.7337232  80.1697232  99.4278853  47.5002475
  85.0199267 109.5048395  43.9188294  84.9423297 110.4556220  43.9976775
  84.4160911 109.1594267  44.5763220  87.5116497  96.6776260  56.5749661
  86.7349831  97.2370180  56.5652526  88.1507060  97.1633043  57.0964531
  95.3037278  93.4603053  50.4092638  94.6611658  93.7535586  49.7632432
  94.7992206  93.3455973  51.2145834  92.9577442  97.2066226  41.0978497
  93.8695298  97.4393613  40.9226195  92.4487089  97.7903270  40.5353576
  85.7662870  99.4861713  56.1367628  86.5077554 100.0246757  55.8602452
  85.0599855 100.1128002  56.2939180  91.2418209 101.6290854  54.7339790
  91.6501565 101.1873264  53.9894422  90.5195471 101.0543481  54.9873982
  87.5949279  96.5663461  52.1073347  88.4410474  96.9902874  52.2507996
  87.5347917  95.9097085  52.8011910  91.5647024 102.1892045  48.4892078
  90.9355886 102.3537759  47.7868146  91.1772686 102.6033654  49.2603042
  95.4436256 103.1246482  45.8436442  94.7587294 103.5045384  45.2933476
  95.5280105 103.7341809  46.5768390  90.7448725  94.2267829  53.7654520
  90.5009656  94.9809890  53.2288796  91.0208655  94.6053177  54.6001767
  92.6987187 100.7706441  52.4431786  92.9104083 101.4138201  51.7666167
  92.6516936  99.9368758  51.9753716  90.3013416  93.3824262  49.3468358
  89.4397895  93.6805516  49.6385095  90.3275851  93.5994661  48.4149391
  87.1174986 101.9266453  45.7542164  87.5813331 102.2054156  44.9646786
  86.8531784 101.0249897  45.5715254  84.0099067 101.4737934  48.6921927
  84.5800424 101.9025203  48.0539411  84.6007179 101.1920519  49.3906112
  86.0543872  98.0489605  42.5631729  86.7567915  98.5010649  43.0305655
  85.7224500  97.4073424  43.1911622  84.5024233  96.6401362  56.9382938
  83.8722894  97.3217643  57.1718335  84.3960321  96.5284443  55.9936076
  79.7969206  96.3073158  47.8648862  79.0068260  96.5630686  47.3888973
  80.2880453  97.1221496  47.9700903  93.8133015 103.6478397  50.6154143
  94.6350459 103.2458584  50.3336825  93.8095418 103.5446631  51.5670259
  81.7483951  96.6717737  44.8232339  80.9515114  96.7836431  45.3415835
  81.5209543  97.0104389  43.9573229  87.5789619 103.1962440  52.7714854
  87.6434051 103.6582847  53.6073025  86.8700543 102.5659805  52.8997163
  78.0806909  96.5603648  50.2963853  78.3314947  97.4450658  50.5621429
  78.6166457  96.3808250  49.5238945 101.9039008  99.9917145  46.9639115
 101.1502717  99.4224543  46.8083119 102.0386550  99.9579810  47.9109749
  87.2937636 104.8630548  42.6393834  87.1583311 105.7082083  43.0678682
  87.8347449 105.0649825  41.8759768  83.7804976  90.9422128  59.3008189
  83.3871922  90.3888326  59.9755833  84.5971116  91.2532706  59.6914707
  80.7467034 102.3805986  43.2121759  81.2591554 103.1749236  43.3627324
  81.3989747 101.6832276  43.1455360  82.5561918 105.4971742  45.2944512
  82.7328547 106.4189707  45.1065496  83.3518752 105.1830161  45.7238892
  86.6972937  92.3580007  56.8928446  87.4382650  92.9587160  56.8132908
  86.9290860  91.6157644  56.3346488  81.8414275  97.5436374  55.1706675
  81.7267790  96.6421631  55.4713774  80.9858793  97.7900071  54.8191492
  88.9206113 105.4854114  56.7694176  88.4769967 104.6990493  56.4515080
  89.5823326 105.6733265  56.1038067  83.6793234 107.0149916  51.2954855
  84.2300659 106.8866979  50.5231848  82.8404710 107.3144805  50.9449747
  91.0187351 105.7656914  54.7975577  91.0005826 106.5865795  54.3055846
  91.9407271 105.6410989  55.0225718  87.4760405 103.2801044  55.6399086
  88.0088742 102.5189332  55.4098394  86.9474486 102.9874695  56.3823240
  90.6430100  88.3861110  51.1692727  90.2994369  89.2762751  51.0931838
  91.0109063  88.1962767  50.3062312  78.7115951 100.7094640  43.9881330
  79.5491173 101.1191648  43.7715037  78.8894218  99.7694082  43.9581523
  90.6080383  98.3769721  39.6765163  90.0927006  99.1474325  39.9153550
  90.3357691  97.7034857  40.2998224  88.1927494  93.2219421  44.7350401
  87.3369090  92.8326272  44.5556040  88.6054445  93.3011382  43.8750186
  89.7226640  90.7565765  49.1341961  89.2191436  90.7195900  48.3209766
  90.0157247  91.6658507  49.1938617  85.9669526  90.8404494  48.1408142
  86.8322523  90.6447303  47.7814032  86.0347035  90.6114846  49.0677499
  95.5814657 101.1302075  41.6118336  94.8044100 100.7913235  41.1673498
  96.2606138 101.1354698  40.9373301  90.3966686  96.2496813  41.5024944
  90.0916821  96.5642962  42.3535087  91.3497128  96.3278233  41.5452277
  88.8413118 102.4087036  43.1517898  88.3134479 101.6739796  42.8391135
  88.3400620 103.1861712  42.9057866  93.8205964 100.6036057  48.2684944
  93.1629638 101.2935318  48.3565073  94.6246363 100.9932488  48.6118930
  83.5731845  93.0706702  45.5124509  84.1475597  92.8481884  44.7797702
  84.1602828  93.1395397  46.2653110  92.6311423  98.9580429  46.3188886
  93.1443304  99.5910421  46.8210595  93.2812646  98.3581625  45.9532246
  83.9001432  95.1011163  39.5320394  83.0638745  95.4385850  39.8529669
  83.7606202  94.9660143  38.5947531  85.8754513  89.9447951  44.2399579
  85.2218925  89.6296968  43.6156193  85.8334987  89.3223692  44.9659402
  86.9865718 100.2267246  36.1552871  86.0792780  99.9956500  36.3544020
  87.4836750  99.4304866  36.3426852  89.8933797 108.9364754  39.0749557
  89.2195496 109.2396450  39.6834515  90.2799619 109.7393834  38.7255014
  89.1092253  96.4329885  48.5647226  88.1914815  96.6544832  48.4068914
  89.5252397  96.5076195  47.7058934  89.8927301  97.8321300  43.6949906
  90.6399120  98.3442698  43.3857029  90.1618891  97.5105353  44.5554300
  88.1653951 100.3279841  40.6776861  87.2565171 100.0438874  40.7749331
  88.1949035 100.7478920  39.8180168  93.3973219 103.9386431  44.4468028
  92.9435546 103.0977341  44.5033219  92.7667185 104.5747829  44.7842808
  92.3406138  94.8678417  45.6768696  91.6028895  94.3555803  46.0078938
  92.5932912  94.4278798  44.8651973  91.8406158 105.7762927  45.3817846
  92.1329132 106.3367984  44.6630212  92.3504779 106.0691488  46.1371006
  92.4417766  87.6454669  46.2710465  92.7476642  86.7852032  45.9836380
  93.1670370  88.2372289  46.0709459  78.7342122  98.0485355  44.6592063
  78.5366522  97.4554716  43.9343130  78.1788786  97.7437566  45.3768002
  86.7138845  97.9408462  46.7786656  86.7687455  96.9882298  46.7029133
  85.9030047  98.0967901  47.2627955  87.8630039 101.8688585  38.0164939
  87.4249469 101.1524444  37.5570577  88.6040480 102.0964700  37.4550031
  84.6531205  96.5585522  44.5377035  83.8399071  96.8579692  44.9442227
  85.1490199  96.1641210  45.2551517  86.8039783 106.5543278  46.4711300
  86.7615962 106.7804125  45.5419832  87.7202482 106.3206653  46.6197101
  90.2505417  97.0227346  53.3691929  90.6054805  97.2498819  54.2286395
  90.8977548  97.3545723  52.7469184  95.9803154 100.1445782  44.0741258
  95.8421052 100.3347378  43.1462447  95.6239373 100.9065165  44.5309309
  84.1445280  94.1303877  50.1538270  84.7844659  93.9892636  49.4561233
  83.3122811  93.8438390  49.7776872  96.0072534 102.2122309  49.0852529
  96.4409040 102.1197598  49.9335583  96.7204114 102.1879809  48.4472545
  84.9205584 103.4306307  46.2673262  85.7146182 102.9356628  46.0655837
  84.2097276 102.9024171  45.9040968  89.7400428 105.8124403  50.6185630
  89.7937451 106.3815339  51.3863346  88.8715210 105.9826288  50.2539667
  81.2288347  97.5749389  42.3433015  80.2985936  97.5133845  42.5602977
  81.3245819  97.0525342  41.5469656  81.1473896  94.1004202  44.9311257
  81.4080714  95.0149535  44.8220417  81.9691069  93.6328645  45.0807870
  82.6198822  95.5141959  52.1010081  83.2921875  95.3059321  51.4522730
  81.7928608  95.3164045  51.6615314  96.8688083 102.2546010  51.6185415
  97.0623973 103.1591820  51.8644690  96.7688701 101.7953429  52.4524000
  88.5224394  92.1403900  54.1175742  87.8752309  92.8393850  54.0240219
  89.2925409  92.5740044  54.4851990  91.9303192 102.4052752  57.1926295
  91.7788698 102.1763304  56.2756379  91.9207871 103.3623354  57.2057640
  88.6988528  99.9784665  52.1772562  89.6280588 100.1295825  52.0041529
  88.2779558 100.0668686  51.3221208  87.4976860 104.0035329  49.9471100
  87.3587946 103.6354114  50.8197038  86.7091456 104.5182969  49.7755057
  88.0925012 109.1044426  41.2896636  88.2676768 108.6332469  42.1042259
  87.4057800 109.7310192  41.5177897  89.0482075 103.3816932  47.3359937
  88.7131908 103.3417702  48.2317587  88.5486021 102.7161648  46.8630348
  83.0226319  98.7884562  52.8612518  82.8846117  98.0564801  53.4624057
  83.9331243  98.6993462  52.5796706  91.9841267 100.7272967  37.6096997
  91.3670437 100.0019795  37.5130050  91.5157755 101.4882327  37.2664071
  85.6508620  98.5004522  52.3496198  86.3608238  97.8597714  52.3082817
  85.6077928  98.7517416  53.2722379  93.6395398 105.4371875  55.2702777
  93.5807945 104.7531095  54.6033360  94.0414917 106.1790865  54.8183403
  84.3637554  95.4869739  54.1691838  83.8274911  95.0360478  54.8213434
  83.7754262  95.6215648  53.4262302  82.6586097 112.2533789  48.0636496
  82.8982695 112.8852313  48.7415515  81.8155294 111.9021829  48.3501855
  83.7739813  94.9458391  36.7318301  82.8969279  94.8247192  36.3680548
  84.2497566  94.1544469  36.4797190  93.6412806 103.4011459  53.5016757
  92.7539584 103.0637381  53.6243156  94.2111357 102.6694490  53.7385522
  75.2941953  99.7335551  46.8259808  75.9812993  99.4197281  46.2380824
  75.1390081 100.6376915  46.5527060  80.0976675  94.6225747  51.2544832
  80.0134864  94.0151417  50.5195242  79.2759381  95.1134765  51.2554328
  87.1713959 108.0612911  50.4678000  87.0984131 108.8667883  50.9797305
  86.7291352 108.2604877  49.6426022  86.9603739 107.2984681  43.9780822
  86.1771261 107.8406361  44.0719046  87.6596484 107.8158661  44.3775063
  90.2700389  93.1079311  46.6215027  90.7669088  92.3549273  46.3016097
  89.4987370  93.1443627  46.0558236  98.1230146  98.8119676  48.2633319
  98.1120022  99.6944392  47.8927252  97.2547526  98.4591227  48.0687856
  89.6312643 107.9599745  52.6236159  90.3440615 108.5947210  52.5512060
  89.1402671 108.0563611  51.8076161  91.3530169 101.8650998  44.1953451
  90.4186448 101.9852460  44.0258155  91.5306838 100.9623465  43.9313460
  86.8535358  95.2496694  46.3486712  86.4833145  94.6967734  47.0367617
  87.3494450  94.6454827  45.7961712  94.7402721  97.7068317  44.7303485
  95.2063173  98.5396309  44.6563787  95.1910221  97.2413299  45.4348743
  84.6824556 105.7094189  53.4441730  85.3834016 106.3430672  53.5971124
  84.2119671 106.0508920  52.6837369  92.8078952 104.0512138  41.7289637
  93.0838796 103.9368733  42.6383511  91.9383451 103.6529623  41.6901810
  92.7119384  90.0748904  48.7694386  91.7982463  90.3053131  48.9376593
  93.1412485  90.1587348  49.6208418  92.4825842  98.2638796  51.2694280
  91.8297292  98.5114704  50.6146733  92.8606222  97.4502934  50.9356757
  89.4433016 108.2998489  45.3722450  89.6255410 107.4820145  45.8350203
  90.2666002 108.5166182  44.9347340  89.7775181 107.2266674  42.6337499
  90.3062948 106.7159129  42.0207661  90.0403401 106.9109205  43.4983032
  88.5313415  99.0058607  57.7560317  87.8554052  98.9052736  58.4262692
  89.3541049  98.8497821  58.2196314  80.2792274 105.2430544  50.3772832
  80.8645711 104.4974232  50.5100737  80.0817113 105.5534500  51.2609496
  83.1330929 108.2781791  45.3935275  82.4641305 108.7627919  44.9099315
  82.9943799 108.5251012  46.3078653  74.8709929  97.8136144  49.0977276
  74.9094028  97.2799735  49.8914394  74.3650222  97.2871349  48.4788253
  87.2736198 110.3125535  51.9917933  87.8254506 110.4757156  52.7567018
  87.6142391 110.9029972  51.3197958  82.2500691  92.6600684  52.5939818
  82.3142018  93.5215515  52.1817215  82.1867811  92.0474686  51.8612176
  81.7252964  94.7323817  56.2412852  82.3525003  94.3500894  56.8550376
  80.8680883  94.5138019  56.6068545  92.1247072 105.1386792  57.8466588
  92.6686976 105.7516750  57.3521542  91.5433917 105.6966371  58.3633601
  78.5018506  96.5400246  42.1731207  78.7971948  95.6310924  42.1198261
  77.6006542  96.5187985  41.8512209  90.4104585 108.2607510  48.9781615
  90.2855725 107.4597250  48.4692561  91.0683676 108.7553703  48.4895585
  82.0312753  94.6156243  48.1558755  81.3099339  95.2292210  48.0166229
  82.8206009  95.1514007  48.0775401  92.4739494 106.0616530  50.6061165
  91.5269829 105.9421881  50.5339492  92.8222267 105.1739028  50.6887427
  84.8339067  91.9510669  54.4299407  85.3573469  92.1972966  55.1925717
  84.6151400  92.7830704  54.0102545  80.2306348  94.2214344  42.2970532
  79.9019054  93.3411723  42.1145638  80.5845719  94.1662012  43.1846921
  89.4785927 105.8569246  46.8065518  89.3310889 104.9285954  46.9873088
  90.3039420 105.8789337  46.3222593  83.3448171  94.5087314  42.6646010
  83.6844244  95.0373235  41.9424618  83.7920292  94.8467720  43.4404576
  93.0820049 106.6797805  47.8930390  94.0066596 106.4740666  47.7554841
  92.9135352 106.4314206  48.8019732  86.0391612  92.8924364  52.1149078
  85.6988432  92.0932177  52.5169758  85.3330618  93.1926075  51.5425911
  86.6908084  89.9773677  50.5676401  87.5134153  89.5034155  50.4455291
  86.9346147  90.7564160  51.0675087  85.3316318  93.0061935  40.8639302
  86.0524681  93.3843188  40.3603019  84.7081622  93.7250812  40.9674280
  89.4747441  93.7107084  41.7997635  89.6911056  94.5931722  41.4986463
  88.9941508  93.3193297  41.0703277  84.2146663  96.6692797  48.3768379
  84.0691243  96.9833100  49.2692661  83.7371866  97.2877698  47.8239278
  86.0743046  93.6595345  48.4249269  86.0604614  92.7636439  48.0881567
  86.7915474  93.6666009  49.0587555  87.9269176  94.0932685  50.4702396
  87.6686954  95.0149756  50.4686727  87.3954217  93.6963120  51.1602861
  92.8715365 107.1983473  43.2492482  93.0452243 106.6329895  42.4966334
  93.3644256 107.9984367  43.0671972  78.6892325  99.2098142  51.3156041
  78.1445793  99.9857950  51.4476315  79.5671675  99.5568946  51.1575162
  85.4779941  92.5409726  43.6936839  85.5995853  91.6126372  43.8927727
  85.1881984  92.5548412  42.7815155  88.3471132  90.2264636  46.8303559
  88.3692829  90.2903969  45.8755538  88.7639191  89.3869145  47.0244065
  98.7254756  99.9619896  44.8682782  99.1685902  99.2127221  44.4701905
  97.8481266  99.9530032  44.4856514  93.8590537 106.5150237  40.3489380
  94.5541442 107.1356930  40.5676695  94.2013688 105.6645588  40.6241758
  79.4758347  98.3368038  54.2086197  78.7340083  98.4850673  54.7950828
  79.1551091  98.5976304  53.3452947  95.7581961 103.9649943  41.8776711
  96.2833285 104.3037215  41.1526031  95.6704313 103.0296958  41.6939845
  87.4202009 107.8784016  54.0066587  87.7289136 107.6333163  54.8789287
  88.2177491 108.0830655  53.5185458  87.4422621 110.0321926  46.2371964
  87.0027612 109.5398305  46.9304821  88.1930738 109.4894893  45.9964039
  79.9214960 106.2233467  46.2396592  80.7472980 105.9237239  45.8595236
  79.5709012 105.4541089  46.6886381  84.8896494 105.5759935  48.3094266
  84.2676503 104.9130640  48.0096494  85.5601360 105.6021067  47.6267913
  78.1223565 104.1419793  47.1985526  77.2855474 103.7141967  47.0169527
  78.0947211 104.3352236  48.1356317  84.9621021  94.0541723  57.9026772
  85.0109176  94.9303846  57.5204541  85.5043535  93.5119116  57.3298415
  95.4475867 104.5982846  57.1827909  94.6571410 104.5806985  56.6432408
  95.2109221 105.1371140  57.9376945  95.5673742 101.4475313  54.4960637
  95.6171747 101.2825320  55.4376160  95.4587665 100.5802572  54.1058518
  84.4510000 104.1263858  41.7852726  84.5998121 104.8099323  41.1319399
  85.2576444 104.1068948  42.3002182  92.8577504  97.4306241  55.8119944
  93.7587367  97.2912705  55.5203942  92.9325479  97.5960695  56.7518121
  87.1920309  94.8073095  54.6573130  86.3223619  95.1006661  54.3855719
  87.4279790  95.3913540  55.3780394  97.0691939 103.8672254  54.7402659
  96.7776747 104.2302235  55.5766120  96.4564070 103.1539262  54.5615991
  98.2687621 101.4325134  47.2605229  99.1034512 101.8714938  47.4242789
  98.4046750 100.9563787  46.4413475  95.3179127  98.9904869  53.2082717
  95.7933248  99.1832515  52.4001568  94.3944692  99.0464055  52.9626101
  82.2062633 100.1529036  42.7913795  81.9608675  99.2491366  42.9894005
  82.3758548 100.1546186  41.8493273  89.8959343  91.0252712  52.1738551
  90.4141287  91.7613739  51.8485039  89.5414476  91.3316706  53.0085310
  81.4758281  95.8857393  40.2899957  80.7827526  95.9601748  39.6339993
  81.2310033  95.1217737  40.8121474  90.1471937  87.4452995  47.6939447
  90.4273691  86.7776184  48.3199874  90.9322544  87.6382090  47.1814111
  87.9505406 106.6211989  39.2564474  87.3779373 107.2402176  38.8034946
  88.5238200 107.1711350  39.7904396  94.0180796  95.8670629  51.4411022
  94.9698219  95.9668726  51.4623246  93.8484246  95.0748897  51.9509107
  92.0395175  92.9526212  51.6270423  91.4445107  93.2331225  50.9316912
  91.7544872  93.4420113  52.3987164  91.1702666 106.9049139  40.3873056
  92.1033339 106.8394701  40.5905931  91.0825879 107.7405406  39.9287589
  93.7990682 106.2215009  37.3477003  93.7204314 105.8874873  38.2412761
  94.6200349 106.7136777  37.3468476  96.4968874  99.0876748  50.5553322
  96.4645194  98.1492749  50.7413006  97.1069497  99.1660785  49.8219147
  88.3352204  97.9572801  36.5980526  89.2811309  97.8279010  36.6668944
  87.9566449  97.2187463  37.0749954  96.6463362  95.8787792  50.6011605
  96.1302411  95.0946249  50.4141534  97.5303311  95.5506509  50.7658125
  94.3074089  89.6228807  46.5607418  94.1098910  89.3143896  47.4450750
  94.9173795  90.3490446  46.6905348 102.3145423 100.1492755  49.6959359
 103.0448812  99.8878043  50.2567062 101.7052369  99.4121477  49.7361427
 100.3960721  98.2900618  50.2933810  99.6693884  98.1556583  49.6850302
  99.9808007  98.5977447  51.0990528  88.2190897 102.0090548  58.0581183
  89.1393906 102.1869147  58.2521230  88.1840480 101.0646593  57.9060882
  86.5195122  95.8822778  36.5335411  85.6126577  95.5855891  36.6098125
  86.7971103  95.5852596  35.6669698  77.4373062  97.2029141  46.9834458
  77.1175846  96.3494449  46.6908832  76.8906490  97.4177719  47.7392425
  81.2152970  99.9191582  50.7003964  81.4338979 100.8508690  50.7191998
  81.6278743  99.5599557  51.4858768  88.1357187  90.4259668  42.6879653
  87.3257916  90.0806753  43.0634899  88.8241604  90.1167211  43.2767264
  90.0647736  89.5037714  44.3103949  90.6178774  89.9233168  44.9693972
  90.3017822  88.5773462  44.3526905  86.0880835  95.4924788  60.0906713
  85.9877562  96.4419145  60.0218804  85.8702377  95.1643027  59.2182783
  85.2893906  92.7409713  36.6747391  86.1513070  93.0664611  36.9343208
  85.4744250  91.9541209  36.1620456  77.3061322 100.8232053  48.9527579
  76.6124793 100.4086006  48.4397534  78.0534313 100.8652589  48.3560998
  93.4426543  91.6138240  43.8182614  92.8625212  92.2723044  43.4360666
  93.1762475  90.7915584  43.4070031  91.8930109  91.0143297  46.0203934
  92.3929887  91.1259832  45.2118253  92.5365717  90.7104350  46.6604742
  85.9512105  98.9221927  58.9071775  85.4679187  99.7222287  59.1135664
  86.0373044  98.9329872  57.9539219  79.2198064 100.7550307  46.8293594
  79.1968753 100.8537994  45.8775477  79.5298701 101.6015457  47.1510760
  81.8785442 102.8126462  50.9440209  82.8328696 102.7810404  50.8770140
  81.6797966 102.3517085  51.7590435  82.4684824 101.3827578  53.5111006
  83.2877713 101.8771656  53.5345844  82.7421632 100.4659546  53.4828574
  92.2251421  93.7738330  42.8738962  91.3377276  94.0587981  42.6559157
  92.6405410  93.6132093  42.0266239  95.5765957  93.7984851  46.5893301
  96.3526347  94.2881303  46.8617918  94.8514091  94.2242905  47.0465171
  98.0138515  94.5112470  47.6467242  98.6083006  94.2708206  46.9360550
  98.0865099  93.7919601  48.2740778  80.2335671 108.3546081  47.9610407
  80.0990139 107.5946482  47.3948405  79.8167733 109.0786981  47.4939195
  91.3694634 103.5383005  36.9686982  92.0730484 103.7433007  37.5844637
  90.6457283 104.1059766  37.2336065  92.1992444  99.2892866  43.0889252
  92.1427646  99.7461417  42.2496884  92.7520787  98.5283550  42.9112095
  96.0097250  95.0782598  43.9139371  95.7534185  94.6779233  44.7447579
  95.3850118  95.7926392  43.7889511 100.3209588  97.8178671  46.4210663
  99.7609146  97.8871860  47.1942225  99.7153092  97.6419656  45.7010159
  83.3904797 109.2515398  48.1728849  83.2737181 110.1960831  48.0707539
  82.5697243 108.9488960  48.5614648  93.2781332 103.9765534  39.0185442
  94.1126936 103.5446732  38.8362917  93.1165674 103.8047547  39.9462336
  92.9327224 100.4797647  40.3841781  92.8776028 100.3141919  39.4430225
  92.3073279 101.1873680  40.5403971  77.7219739  95.7165711  54.2103203
  78.3678602  95.2064665  54.6990429  77.5136890  96.4534393  54.7846629
  90.2473131 102.7846559  59.7095344  91.1164291 102.9587211  59.3481979
  89.7679882 103.6040976  59.5871073  86.2423349  89.9805756  39.9627100
  86.2302019  90.9247596  40.1195370  87.1346771  89.7975901  39.6686561
  84.4159311 109.9043660  51.3884778  85.3186558 109.9367270  51.7051273
  84.1896681 108.9744111  51.4031113  86.1712913 108.6574646  48.0494856
  85.2208544 108.6576508  47.9359228  86.4745399 107.9107381  47.5330891
  90.0575469  86.5748533  44.2173036  89.2907864  86.0207019  44.3629719
  90.4686174  86.6470401  45.0787188  82.0617230  92.8633329  58.3078218
  82.9248691  92.5070133  58.5181542  81.4882640  92.5247223  58.9953622
 101.9065607 114.4935185  49.1140619 102.5444017 114.3741932  48.4103959
 101.7886450 115.4416029  49.1728571  98.7155313 114.4462613  49.0502143
  98.3773824 114.3303678  48.1622678  99.5845081 114.0453778  49.0303149
  94.5742129 116.2998089  45.0399034  94.0106994 116.2088026  44.2715322
  94.4594524 115.4797994  45.5201527  99.1975096 115.5997465  55.0088349
  99.1863737 115.2050263  54.1368852  99.3595735 114.8663537  55.6022120
  92.1206561 117.7949281  47.8783255  92.9127852 117.4540106  47.4629554
  92.3603211 117.9044256  48.7985408  94.0797315 117.0558194  40.7500634
  94.8528191 116.5087181  40.6113509  94.4322713 117.9202444  40.9615095
  95.9182357 118.3834577  53.9567533  95.6272223 119.2880207  53.8414199
  96.5539341 118.4251104  54.6711602  96.8438564 115.7611425  50.5468892
  97.4402136 115.5367447  49.8325855  96.9013535 115.0196171  51.1494340
  96.4163592 113.2150860  38.3819083  96.6689113 112.6932382  37.6202546
  95.4788151 113.0517006  38.4845767 101.4606875 112.2186639  46.1893827
 102.2469964 111.8006062  45.8384244 101.7245579 113.1232731  46.3575475
 106.8615302 112.1561872  47.0926805 107.5940474 111.5861089  47.3264635
 106.1054658 111.7683472  47.5333311  96.1359881 115.1178966  40.5843458
  96.0196139 114.4423870  41.2524543  96.2462141 114.6311340  39.7675611
  98.4791422 114.5789113  44.2890148  98.1149629 114.0519734  45.0003069
  99.3358538 114.1887582  44.1156633 104.3840723 105.8683446  51.5521414
 104.0524047 106.7378857  51.3282629 103.7886336 105.5519730  52.2315444
  98.1196909 109.6079013  39.2851496  98.2871311 110.4759250  39.6521967
  97.9294078 109.7706295  38.3612785  94.3284724 114.5209789  46.9854031
  93.4035220 114.3886003  47.1931723  94.5769137 115.3004008  47.4823973
 104.2769386 110.5878532  48.6314764 103.3686263 110.5193941  48.3373525
 104.2256982 111.0650477  49.4596589  98.0986130 112.0636671  40.2698163
  97.9785755 112.5093721  41.1083643  97.4038718 112.4121988  39.7111701
  91.6893535 114.1643062  47.8197820  91.8185916 114.4177541  48.7337232
  91.0090986 114.7570770  47.5002475  98.3510252 112.0068178  56.5749661
  97.5743586 112.5662098  56.5652526  98.9900815 112.4924961  57.0964531
 106.1431032 108.7894971  50.4092638 105.5005413 109.0827504  49.7632432
 105.6385961 108.6747891  51.2145834 103.7971196 112.5358144  41.0978497
 104.7089052 112.7685531  40.9226195 103.2880843 113.1195188  40.5353576
  96.6056624 114.8153631  56.1367628  97.3471308 115.3538675  55.8602452
  95.8993610 115.4419920  56.2939180 102.0811964 116.9582772  54.7339790
 102.4895320 116.5165182  53.9894422 101.3589225 116.3835399  54.9873982
  98.4343034 111.8955378  52.1073347  99.2804229 112.3194792  52.2507996
  98.3741671 111.2389003  52.8011910 101.5842479 109.5559747  53.7654520
 101.3403411 110.3101807  53.2288796 101.8602410 109.9345094  54.6001767
 101.1407171 108.7116180  49.3468358 100.2791650 109.0097433  49.6385095
 101.1669605 108.9286579  48.4149391  97.9568740 117.2558370  45.7542164
  98.4207086 117.5346073  44.9646786  97.6925538 116.3541815  45.5715254
  94.8492821 116.8029852  48.6921927  95.4194178 117.2317120  48.0539411
  95.4400933 116.5212437  49.3906112  96.8937626 113.3781523  42.5631729
  97.5961670 113.8302566  43.0305655  96.5618255 112.7365342  43.1911622
  95.3417988 111.9693279  56.9382938  94.7116648 112.6509560  57.1718335
  95.2354076 111.8576361  55.9936076  90.6362960 111.6365075  47.8648862
  89.8462014 111.8922604  47.3888973  91.1274208 112.4513413  47.9700903
  92.5877706 112.0009655  44.8232339  91.7908869 112.1128349  45.3415835
  92.3603298 112.3396307  43.9573229  98.4183373 118.5254358  52.7714854
  98.4827806 118.9874765  53.6073025  97.7094297 117.8951723  52.8997163
  88.9200663 111.8895566  50.2963853  89.1708702 112.7742576  50.5621429
  89.4560212 111.7100167  49.5238945  94.6198731 106.2714045  59.3008189
  94.2265676 105.7180244  59.9755833  95.4364871 106.5824624  59.6914707
  91.5860788 117.7097903  43.2121759  92.0985309 118.5041154  43.3627324
  92.2383501 117.0124194  43.1455360  93.3955673 120.8263660  45.2944512
  93.5722301 121.7481624  45.1065496  94.1912506 120.5122079  45.7238892
  97.5366692 107.6871924  56.8928446  98.2776405 108.2879077  56.8132908
  97.7684614 106.9449562  56.3346488  92.6808030 112.8728292  55.1706675
  92.5661545 111.9713549  55.4713774  91.8252547 113.1191988  54.8191492
  94.5186988 122.3441833  51.2954855  95.0694414 122.2158897  50.5231848
  93.6798464 122.6436722  50.9449747  98.3154159 118.6092961  55.6399086
  98.8482496 117.8481249  55.4098394  97.7868241 118.3166613  56.3823240
 101.4823854 103.7153027  51.1692727 101.1388124 104.6054669  51.0931838
 101.8502817 103.5254685  50.3062312  89.5509705 116.0386558  43.9881330
  90.3884927 116.4483566  43.7715037  89.7287973 115.0986000  43.9581523
 101.4474137 113.7061638  39.6765163 100.9320761 114.4766243  39.9153550
 101.1751446 113.0326774  40.2998224  99.0321248 108.5511339  44.7350401
  98.1762845 108.1618189  44.5556040  99.4448200 108.6303300  43.8750186
 100.5620395 106.0857682  49.1341961 100.0585190 106.0487818  48.3209766
 100.8551002 106.9950425  49.1938617  96.8063281 106.1696412  48.1408142
  97.6716277 105.9739221  47.7814032  96.8740790 105.9406764  49.0677499
 101.2360440 111.5788730  41.5024944 100.9310576 111.8934880  42.3535087
 102.1890882 111.6570150  41.5452277  99.6806872 117.7378954  43.1517898
  99.1528234 117.0031713  42.8391135  99.1794375 118.5153630  42.9057866
  94.4125600 108.3998620  45.5124509  94.9869352 108.1773802  44.7797702
  94.9996582 108.4687315  46.2653110 103.4705177 114.2872347  46.3188886
 103.9837059 114.9202339  46.8210595 104.1206401 113.6873542  45.9532246
  94.7395187 110.4303081  39.5320394  93.9032499 110.7677768  39.8529669
  94.5999957 110.2952061  38.5947531  96.7148268 105.2739869  44.2399579
  96.0612680 104.9588886  43.6156193  96.6728742 104.6515609  44.9659402
  97.8259472 115.5559164  36.1552871  96.9186534 115.3248417  36.3544020
  98.3230504 114.7596783  36.3426852  99.9486008 111.7621802  48.5647226
  99.0308569 111.9836749  48.4068914 100.3646151 111.8368113  47.7058934
 100.7321056 113.1613218  43.6949906 101.4792875 113.6734615  43.3857029
 101.0012645 112.8397271  44.5554300  99.0047706 115.6571759  40.6776861
  98.0958925 115.3730792  40.7749331  99.0342790 116.0770837  39.8180168
 103.1799893 110.1970334  45.6768696 102.4422650 109.6847721  46.0078938
 103.4326666 109.7570716  44.8651973 103.2811520 102.9746586  46.2710465
 103.5870397 102.1143950  45.9836380 104.0064125 103.5664207  46.0709459
  89.5735876 113.3777273  44.6592063  89.3760276 112.7846634  43.9343130
  89.0182540 113.0729483  45.3768002  97.5532600 113.2700379  46.7786656
  97.6081210 112.3174216  46.7029133  96.7423802 113.4259819  47.2627955
  98.7023794 117.1980503  38.0164939  98.2643224 116.4816361  37.5570577
  99.4434234 117.4256617  37.4550031  95.4924960 111.8877439  44.5377035
  94.6792825 112.1871610  44.9442227  95.9883954 111.4933128  45.2551517
 101.0899171 112.3519264  53.3691929 101.4448559 112.5790737  54.2286395
 101.7371303 112.6837640  52.7469184  94.9839035 109.4595795  50.1538270
  95.6238414 109.3184554  49.4561233  94.1516565 109.1730308  49.7776872
  95.7599338 118.7598225  46.2673262  96.5539937 118.2648545  46.0655837
  95.0491031 118.2316088  45.9040968  92.0682102 112.9041307  42.3433015
  91.1379690 112.8425762  42.5602977  92.1639574 112.3817260  41.5469656
  91.9867651 109.4296120  44.9311257  92.2474468 110.3441453  44.8220417
  92.8084823 108.9620562  45.0807870  93.4592576 110.8433877  52.1010081
  94.1315630 110.6351239  51.4522730  92.6322363 110.6455963  51.6615314
  99.3618148 107.4695818  54.1175742  98.7146063 108.1685767  54.0240219
 100.1319164 107.9031962  54.4851990  99.5382283 115.3076583  52.1772562
 100.4674343 115.4587742  52.0041529  99.1173313 115.3960604  51.3221208
  98.3370614 119.3327247  49.9471100  98.1981700 118.9646032  50.8197038
  97.5485211 119.8474887  49.7755057  99.8875830 118.7108850  47.3359937
  99.5525662 118.6709620  48.2317587  99.3879775 118.0453566  46.8630348
  93.8620074 114.1176480  52.8612518  93.7239871 113.3856719  53.4624057
  94.7724997 114.0285380  52.5796706 102.8235021 116.0564884  37.6096997
 102.2064192 115.3311712  37.5130050 102.3551510 116.8174244  37.2664071
  96.4902374 113.8296439  52.3496198  97.2001993 113.1889631  52.3082817
  96.4471682 114.0809334  53.2722379  95.2031308 110.8161657  54.1691838
  94.6668665 110.3652396  54.8213434  94.6148017 110.9507566  53.4262302
  94.6133567 110.2750308  36.7318301  93.7363033 110.1539109  36.3680548
  95.0891320 109.4836387  36.4797190  86.1335707 115.0627468  46.8259808
  86.8206747 114.7489198  46.2380824  85.9783836 115.9668833  46.5527060
  90.9370429 109.9517665  51.2544832  90.8528618 109.3443334  50.5195242
  90.1153136 110.4426683  51.2554328 101.1094143 108.4371228  46.6215027
 101.6062843 107.6841191  46.3016097 100.3381125 108.4735545  46.0558236
 102.1923924 117.1942916  44.1953451 101.2580203 117.3144378  44.0258155
 102.3700592 116.2915382  43.9313460  97.6929112 110.5788611  46.3486712
  97.3226900 110.0259652  47.0367617  98.1888204 109.9746745  45.7961712
 105.5796475 113.0360235  44.7303485 106.0456928 113.8688226  44.6563787
 106.0303976 112.5705216  45.4348743  95.5218311 121.0386106  53.4441730
  96.2227770 121.6722589  53.5971124  95.0513426 121.3800838  52.6837369
 103.5513138 105.4040822  48.7694386 102.6376218 105.6345049  48.9376593
 103.9806240 105.4879266  49.6208418 103.3219597 113.5930714  51.2694280
 102.6691047 113.8406621  50.6146733 103.6999976 112.7794852  50.9356757
  99.3707170 114.3350525  57.7560317  98.6947807 114.2344654  58.4262692
 100.1934803 114.1789739  58.2196314  91.1186029 120.5722461  50.3772832
  91.7039465 119.8266149  50.5100737  90.9210867 120.8826418  51.2609496
  85.7103683 113.1428062  49.0977276  85.7487783 112.6091652  49.8914394
  85.2043976 112.6163267  48.4788253  93.0894446 107.9892602  52.5939818
  93.1535772 108.8507433  52.1817215  93.0261566 107.3766604  51.8612176
  92.5646718 110.0615735  56.2412852  93.1918757 109.6792812  56.8550376
  91.7074637 109.8429937  56.6068545  89.3412261 111.8692164  42.1731207
  89.6365702 110.9602842  42.1198261  88.4400297 111.8479903  41.8512209
  92.8706508 109.9448160  48.1558755  92.1493094 110.5584128  48.0166229
  93.6599764 110.4805925  48.0775401  95.6732822 107.2802587  54.4299407
  96.1967223 107.5264883  55.1925717  95.4545155 108.1122622  54.0102545
  91.0700103 109.5506261  42.2970532  90.7412809 108.6703640  42.1145638
  91.4239473 109.4953930  43.1846921  94.1841926 109.8379231  42.6646010
  94.5237998 110.3665152  41.9424618  94.6314046 110.1759637  43.4404576
  96.8785367 108.2216282  52.1149078  96.5382187 107.4224095  52.5169758
  96.1724373 108.5217993  51.5425911  97.5301838 105.3065594  50.5676401
  98.3527908 104.8326073  50.4455291  97.7739902 106.0856078  51.0675087
  96.1710073 108.3353853  40.8639302  96.8918435 108.7135106  40.3603019
  95.5475377 109.0542730  40.9674280 100.3141196 109.0399002  41.7997635
 100.5304810 109.9223640  41.4986463  99.8335263 108.6485215  41.0703277
  95.0540417 111.9984715  48.3768379  94.9084998 112.3125018  49.2692661
  94.5765621 112.6169615  47.8239278  96.9136800 108.9887263  48.4249269
  96.8998369 108.0928356  48.0881567  97.6309228 108.9957927  49.0587555
  98.7662931 109.4224603  50.4702396  98.5080709 110.3441674  50.4686727
  98.2347971 109.0255038  51.1602861  89.5286079 114.5390059  51.3156041
  88.9839547 115.3149867  51.4476315  90.4065429 114.8860864  51.1575162
  96.3173696 107.8701643  43.6936839  96.4389607 106.9418289  43.8927727
  96.0275738 107.8840329  42.7815155  99.1864886 105.5556554  46.8303559
  99.2086583 105.6195887  45.8755538  99.6032945 104.7161062  47.0244065
  90.3152101 113.6659956  54.2086197  89.5733837 113.8142591  54.7950828
  89.9944845 113.9268221  53.3452947  90.7608715 121.5525384  46.2396592
  91.5866735 121.2529156  45.8595236  90.4102767 120.7833007  46.6886381
  95.7290248 120.9051853  48.3094266  95.1070257 120.2422558  48.0096494
  96.3995115 120.9312984  47.6267913  88.9617320 119.4711711  47.1985526
  88.1249228 119.0433885  47.0169527  88.9340965 119.6644154  48.1356317
  95.8014775 109.3833641  57.9026772  95.8502931 110.2595763  57.5204541
  96.3437290 108.8411034  57.3298415  95.2903755 119.4555776  41.7852726
  95.4391875 120.1391240  41.1319399  96.0970198 119.4360866  42.3002182
 103.6971259 112.7598158  55.8119944 104.5981121 112.6204623  55.5203942
 103.7719233 112.9252613  56.7518121  98.0314064 110.1365013  54.6573130
  97.1617373 110.4298579  54.3855719  98.2673544 110.7205458  55.3780394
  93.0456388 115.4820954  42.7913795  92.8002430 114.5783284  42.9894005
  93.2152302 115.4838104  41.8493273 100.7353098 106.3544630  52.1738551
 101.2535042 107.0905657  51.8485039 100.3808231 106.6608623  53.0085310
  92.3152035 111.2149311  40.2899957  91.6221280 111.2893666  39.6339993
  92.0703787 110.4509655  40.8121474 100.9865692 102.7744912  47.6939447
 101.2667446 102.1068102  48.3199874 101.7716299 102.9674008  47.1814111
 104.8574550 111.1962546  51.4411022 105.8091973 111.2960644  51.4623246
 104.6878001 110.4040815  51.9509107 102.8788930 108.2818130  51.6270423
 102.2838862 108.5623142  50.9316912 102.5938626 108.7712031  52.3987164
  99.1745959 113.2864719  36.5980526 100.1205064 113.1570927  36.6668944
  98.7960204 112.5479381  37.0749954 107.4857117 111.2079710  50.6011605
 106.9696165 110.4238166  50.4141534 108.3697065 110.8798426  50.7658125
 105.1467843 104.9520725  46.5607418 104.9492665 104.6435813  47.4450750
 105.7567549 105.6782364  46.6905348  99.0584651 117.3382465  58.0581183
  99.9787661 117.5161064  58.2521230  99.0234234 116.3938511  57.9060882
  97.3588876 111.2114696  36.5335411  96.4520331 110.9147808  36.6098125
  97.6364857 110.9144514  35.6669698  88.2766816 112.5321059  46.9834458
  87.9569601 111.6786367  46.6908832  87.7300245 112.7469637  47.7392425
  92.0546724 115.2483500  50.7003964  92.2732734 116.1800608  50.7191998
  92.4672498 114.8891474  51.4858768  98.9750942 105.7551585  42.6879653
  98.1651670 105.4098670  43.0634899  99.6635359 105.4459129  43.2767264
 100.9041490 104.8329632  44.3103949 101.4572529 105.2525085  44.9693972
 101.1411576 103.9065380  44.3526905  96.9274589 110.8216706  60.0906713
  96.8271316 111.7711063  60.0218804  96.7096131 110.4934945  59.2182783
  96.1287661 108.0701631  36.6747391  96.9906825 108.3956529  36.9343208
  96.3138005 107.2833127  36.1620456  88.1455076 116.1523970  48.9527579
  87.4518548 115.7377923  48.4397534  88.8928067 116.1944507  48.3560998
 104.2820297 106.9430157  43.8182614 103.7018966 107.6014961  43.4360666
 104.0156230 106.1207502  43.4070031 102.7323864 106.3435215  46.0203934
 103.2323642 106.4551749  45.2118253 103.3759471 106.0396268  46.6604742
  96.7905859 114.2513845  58.9071775  96.3072941 115.0514205  59.1135664
  96.8766798 114.2621789  57.9539219  90.0591819 116.0842224  46.8293594
  90.0362507 116.1829911  45.8775477  90.3692455 116.9307375  47.1510760
  92.7179197 118.1418379  50.9440209  93.6722450 118.1102322  50.8770140
  92.5191720 117.6809003  51.7590435  93.3078579 116.7119495  53.5111006
  94.1271468 117.2063574  53.5345844  93.5815387 115.7951463  53.4828574
 103.0645175 109.1030248  42.8738962 102.1771030 109.3879898  42.6559157
 103.4799164 108.9424011  42.0266239 106.4159711 109.1276769  46.5893301
 107.1920101 109.6173221  46.8617918 105.6907845 109.5534823  47.0465171
 108.8532270 109.8404388  47.6467242 109.4476761 109.6000124  46.9360550
 108.9258854 109.1211518  48.2740778  91.0729426 123.6837999  47.9610407
  90.9383894 122.9238400  47.3948405  90.6561488 124.4078899  47.4939195
 103.0386199 114.6184784  43.0889252 102.9821400 115.0753335  42.2496884
 103.5914541 113.8575468  42.9112095 106.8491005 110.4074515  43.9139371
 106.5927939 110.0071151  44.7447579 106.2243873 111.1218309  43.7889511
 103.7720978 115.8089565  40.3841781 103.7169782 115.6433836  39.4430225
 103.1467034 116.5165598  40.5403971  88.5613493 111.0457629  54.2103203
  89.2072357 110.5356583  54.6990429  88.3530644 111.7826311  54.7846629
  97.0817104 105.3097674  39.9627100  97.0695774 106.2539514  40.1195370
  97.9740526 105.1267819  39.6686561 100.8969223 101.9040450  44.2173036
 100.1301619 101.3498937  44.3629719 101.3079928 101.9762319  45.0787188
  92.9010984 108.1925246  58.3078218  93.7642446 107.8362051  58.5181542
  92.3276395 107.8539141  58.9953622  36.8703081  -0.4754199  35.8385925
  37.5081491  -0.5947451  35.1349265  36.7523924   0.4726645  35.8973877
  33.6792787  -0.5226770  35.7747450  33.3411299  -0.6385706  34.8867985
  34.5482555  -0.9235605  35.7548456  34.1612570   0.6308081  41.7333655
  34.1501211   0.2360880  40.8614159  34.3233210  -0.1025846  42.3267427
  27.0844035   2.8259898  34.6028561  27.8765327   2.4850722  34.1874861
  27.3240685   2.9354873  35.5230715  30.8819831   3.4145193  40.6812839
  30.5909697   4.3190824  40.5659506  31.5176816   3.4561721  41.3956909
  31.8076038   0.7922042  37.2714199  32.4039610   0.5678064  36.5571162
  31.8651010   0.0506787  37.8739647  41.8252777  -2.8127512  33.8172112
  42.5577949  -3.3828295  34.0509941  41.0692132  -3.2005911  34.2578617
  35.8409716   3.1006609  37.6762633  35.5410440   4.0031647  37.5678440
  35.4960776   2.8338792  38.5283786  39.2406860  -4.3810851  35.3560070
  38.3323738  -4.4495443  35.0618831  39.1894456  -3.9038906  36.1841896
  30.8230496   9.8650929  30.6433601  30.7454526  10.8158754  30.7222081
  30.2192140   9.5196801  31.3008527  33.3147726  -2.9621206  43.2994968
  32.5381060  -2.4027286  43.2897832  33.9538289  -2.4764423  43.8209838
  41.1068507  -6.1794413  37.1337944  40.4642887  -5.8861880  36.4877739
  40.6023435  -6.2941493  37.9391141  31.5694098  -0.1535752  42.8612935
  32.3108783   0.3849292  42.5847758  30.8631084   0.4730536  43.0184487
  37.0449438   1.9893388  41.4585096  37.4532794   1.5475799  40.7139729
  36.3226699   1.4146016  41.7119289  33.3980508  -3.0734005  38.8318653
  34.2441703  -2.6494592  38.9753302  33.3379146  -3.7300381  39.5257216
  37.3678253   2.5494579  35.2137385  36.7387115   2.7140293  34.5113453
  36.9803915   2.9636188  35.9848349  41.2467485   3.4849017  32.5681749
  40.5618523   3.8647918  32.0178782  41.3311334   4.0944343  33.3013697
  36.5479953  -5.4129637  40.4899827  36.3040885  -4.6587576  39.9534102
  36.8239884  -5.0344289  41.3247074  38.5018416   1.1308976  39.1677092
  38.7135311   1.7740736  38.4911473  38.4548164   0.2971292  38.6999022
  29.8130296   1.8340468  35.4167233  30.3831653   2.2627737  34.7784718
  30.4038407   1.5523053  36.1151419  39.6164244   4.0080931  37.3399450
  40.4381688   3.6061118  37.0582131  39.6126647   3.9049165  38.2915566
  33.3820848   3.5564974  39.4960160  33.4465280   4.0185382  40.3318332
  32.6731771   2.9262339  39.6242470  47.7070237   0.3519680  33.6884421
  46.9533946  -0.2172922  33.5328426  47.8417778   0.3182344  34.6355056
  28.3593147   5.8574276  32.0189819  28.5359776   6.7792241  31.8310803
  29.1549981   5.5432695  32.4484199  34.7237342   5.8456648  43.4939483
  34.2801196   5.0593027  43.1760387  35.3854555   6.0335799  42.8283373
  29.4824463   7.3752450  38.0200161  30.0331888   7.2469513  37.2477155
  28.6435939   7.6747339  37.6695054  36.8218580   6.1259448  41.5220884
  36.8037055   6.9468329  41.0301153  37.7438500   6.0013524  41.7471025
  33.2791634   3.6403578  42.3644392  33.8119971   2.8791866  42.1343700
  32.7505715   3.3477230  43.1068547  39.6237193   0.9638591  34.9930251
  38.9660867   1.6537852  35.0810379  40.4277592   1.3535023  35.3364237
  38.4342651  -0.6817037  33.0434192  38.9474533  -0.0487045  33.5455902
  39.0843875  -1.2815841  32.6777552  34.9123482  -3.2067581  35.2892533
  33.9946044  -2.9852634  35.1314221  35.3283626  -3.1321271  34.4304240
  39.2004448   4.2988965  31.1713335  38.7466775   3.4579875  31.2278525
  38.5698414   4.9350363  31.5088115  37.6437387   6.1365462  32.1063153
  37.9360361   6.6970519  31.3875519  38.1536007   6.4294023  32.8616312
  32.6071012   6.9145813  33.1956606  32.5647191   7.1406659  32.2665138
  33.5233711   6.6809187  33.3442407  36.0536646  -2.6170120  40.0937236
  36.4086033  -2.3898647  40.9531701  36.7008777  -2.2851743  39.4714491
  41.7834383   0.5048316  30.7986565  41.6452281   0.6949912  29.8707754
  41.4270602   1.2667699  31.2554616  41.8103762   2.5724843  35.8097836
  42.2440269   2.4800132  36.6580890  42.5235343   2.5482344  35.1717852
  35.5431657   6.1726937  37.3430937  35.5968679   6.7417874  38.1108653
  34.6746439   6.3428822  36.9784974  42.6719312   2.6148544  38.3430721
  42.8655202   3.5194354  38.5889996  42.5719930   2.1555963  39.1769306
  37.7334421   2.7655287  43.9171602  37.5819927   2.5365838  43.0001686
  37.7239100   3.7225888  43.9302947  34.5019757   0.3387199  38.9017869
  35.4311817   0.4898359  38.7286836  34.0810787   0.4271220  38.0466515
  33.3008089   4.3637864  36.6716406  33.1619174   3.9956648  37.5442344
  32.5122685   4.8785503  36.5000364  33.8956241   9.4646960  28.0141943
  34.0707996   8.9935003  28.8287565  33.2089029  10.0912726  28.2423203
  34.8513304   3.7419466  34.0605244  34.5163136   3.7020236  34.9562894
  34.3517250   3.0764182  33.5875654  28.8257548  -0.8512904  39.5857825
  28.6877346  -1.5832665  40.1869364  29.7362471  -0.9404003  39.3042013
  31.4539849  -1.1392944  39.0741505  32.1639467  -1.7799752  39.0328123
  31.4109157  -0.8880049  39.9967686  39.4426627   5.7974409  41.9948084
  39.3839173   5.1133629  41.3278667  39.8446146   6.5393399  41.5428710
  28.4617326  12.6136323  34.7881803  28.7013924  13.2454847  35.4660821
  27.6186522  12.2624363  35.0747162  39.4444034   3.7613993  40.2262064
  38.5570813   3.4239915  40.3488462  40.0142586   3.0297024  40.4630829
  32.9745188   8.4215445  37.1923307  32.9015359   9.2270417  37.7042611
  32.5322581   8.6207411  36.3671328  32.7634967   7.6587215  30.7026128
  31.9802489   8.2008896  30.7964353  33.4627713   8.1761195  31.1020370
  43.9261375  -0.8277790  34.9878625  43.9151251   0.0546926  34.6172558
  43.0578754  -1.1806239  34.7933162  35.4343871   8.3202279  39.3481465
  36.1471844   8.9549744  39.2757367  34.9433900   8.4166145  38.5321467
  30.4855785   6.0696723  40.1687036  31.1865244   6.7033206  40.3216431
  30.0150900   6.4111454  39.4082676  38.2857071  -1.3758670  37.9939587
  37.6328521  -1.1282762  37.3392039  38.6637451  -2.1894532  37.6602064
  35.2464245   8.6601023  32.0967757  35.4286639   7.8422679  32.5595509
  36.0697231   8.8768716  31.6592647  35.5806410   7.5869209  29.3582805
  36.1094177   7.0761663  28.7452968  35.8434630   7.2711739  30.2228338
  34.3344644  -0.6338859  44.4805624  33.6585281  -0.7344729  45.1507999
  35.1572278  -0.7899645  44.9441621  26.0823503   5.6033078  37.1018139
  26.6676940   4.8576766  37.2346043  25.8848341   5.9137035  37.9854803
  28.9362158   8.6384325  32.1180581  28.2672533   9.1230453  31.6344621
  28.7975028   8.8853546  33.0323960  33.0767427  10.6728069  38.7163240
  33.6285735  10.8359690  39.4812325  33.4173620  11.2632507  38.0443265
  37.9278301   5.4989326  44.5711894  38.4718205   6.1119285  44.0766849
  37.3465146   6.0568905  45.0878907  36.2135814   8.6210044  35.7026922
  36.0886954   7.8199784  35.1937867  36.8714905   9.1156238  35.2140892
  38.2770722   6.4219064  37.3306472  37.3301058   6.3024416  37.2584799
  38.6253496   5.5341562  37.4132733  35.2817156   6.2171781  33.5310824
  35.1342118   5.2888488  33.7118394  36.1070649   6.2391871  33.0467899
  38.8851278   7.0400339  34.6175697  39.8097825   6.8343201  34.4800148
  38.7166581   6.7916741  35.5265038  38.6746594   7.5586007  29.9737788
  38.8483471   6.9932429  29.2211641  39.1675485   8.3586902  29.7917278
  44.5285985   0.3222430  31.5928088  44.9717131  -0.4270245  31.1947211
  43.6512495   0.3132566  31.2101820  39.6621766   6.8752771  27.0734687
  40.3572671   7.4959464  27.2922001  40.0044916   6.0248122  27.3487065
  41.5613189   4.3252477  28.6022017  42.0864513   4.6639750  27.8771337
  41.4735542   3.3899492  28.4185152  33.2233238   8.2386550  40.7311894
  33.5320365   7.9935697  41.6034594  34.0208720   8.4433189  40.2430764
  33.2453850  10.3924460  32.9617271  32.8058840   9.9000839  33.6550127
  33.9961967   9.8497428  32.7209346  25.7246189   6.5836001  32.9641899
  26.5504209   6.2839773  32.5840542  25.3740241   5.8143623  33.4131687
  30.6927722   5.9362469  35.0339572  30.0707732   5.2733174  34.7341800
  31.3632589   5.9623601  34.3513220  41.2507095   4.9585380  43.9073215
  40.4602639   4.9409519  43.3677715  41.0140450   5.4973674  44.6622252
  41.3704971   1.8077847  41.2205944  41.4202975   1.6427854  42.1621467
  41.2618894   0.9405106  40.8303825  38.6608733  -2.2091225  42.5365251
  39.5618596  -2.3484760  42.2449248  38.7356707  -2.0436770  43.4763428
  42.8723167   4.2274788  41.4647965  42.5807976   4.5904769  42.3011426
  42.2595299   3.5141797  41.2861298  44.0718850   1.7927668  33.9850536
  44.9065741   2.2317472  34.1488096  44.2077978   1.3166321  33.1658781
  41.1210356  -0.6492597  39.9328023  41.5964477  -0.4564951  39.1246875
  40.1975921  -0.5933411  39.6871407  39.8212025  -3.7726837  38.1656329
  40.7729447  -3.6728739  38.1868553  39.6515475  -4.5648568  38.6754413
  37.8426404  -6.6871254  38.3515730  37.2476336  -6.4066241  37.6562219
  37.5576101  -6.1977353  39.1232471  42.3000102  -0.5520717  37.2798629
  42.2676422  -1.4904717  37.4658313  42.9100726  -0.4736681  36.5464454
  42.4494591  -3.7609674  37.3256912  41.9333640  -4.5451217  37.1386841
  43.3334539  -4.0890957  37.4903431  48.1176652   0.5095290  36.4204666
  48.8480041   0.2480578  36.9812369  47.5083598  -0.2275989  36.4606734
  46.1991949  -1.3496848  37.0179117  45.4725113  -1.4840883  36.4095608
  45.7839236  -1.0420019  37.8235835  34.0222126   2.3693082  44.7826490
  34.9425135   2.5471681  44.9766536  33.9871709   1.4249127  44.6306189
  27.0184198   0.2794116  37.4249271  27.2370208   1.2111224  37.4437305
  27.4309972  -0.0797909  38.2104075  31.7543334  -0.7175539  45.6317081
  31.2710415   0.0824821  45.8380971  31.8404273  -0.7067594  44.6784525
  27.6816671   3.1728996  37.6685515  28.6359925   3.1412938  37.6015447
  27.4829195   2.7119619  38.4835741  28.2716053   1.7430112  40.2356313
  29.0908942   2.2374190  40.2591150  28.5452861   0.8262080  40.2073880
  43.8169744  -5.1284996  34.3712548  44.4114235  -5.3689260  33.6605857
  43.8896328  -5.8477865  34.9986085  26.0366900   8.7148615  34.6855713
  25.9021368   7.9549016  34.1193711  25.6198962   9.4389515  34.2184502
  46.1240817  -1.8218795  33.1455970  45.5640375  -1.7525606  33.9187532
  45.5184320  -1.9977810  32.4255466  29.1936026   9.6117932  34.8974156
  29.0768410  10.5563365  34.7952846  28.3728472   9.3091494  35.2859955
  36.0504360   3.1449093  46.4340651  36.9195519   3.3189745  46.0727285
  35.5711111   3.9643510  46.3116380  30.2190540  10.2646194  38.1130084
  31.1217787  10.2969804  38.4296579  29.9927910   9.3346645  38.1276420
  31.9744142   9.0177181  34.7740163  31.0239773   9.0179042  34.6604535
  32.2776628   8.2709915  34.2576197  47.7096835  14.8537719  35.8385925
  48.3475245  14.7344466  35.1349265  47.5917678  15.8018563  35.8973877
  44.5186542  14.8065147  35.7747450  44.1805053  14.6906212  34.8867985
  45.3876310  14.4056312  35.7548456  40.3773357  16.6600624  31.7644341
  39.8138223  16.5690561  30.9960629  40.2625752  15.8400528  32.2446833
  45.0006325  15.9599999  41.7333655  44.9894966  15.5652797  40.8614159
  45.1626964  15.2266072  42.3267427  37.9237789  18.1551815  34.6028561
  38.7159081  17.8142640  34.1874861  38.1634440  18.2646790  35.5230715
  45.9572916  20.3271591  27.0758806  45.3060896  20.9125672  26.6892820
  46.7517279  20.8577786  27.1353843  39.8828543  17.4160728  27.4745940
  40.6559419  16.8689716  27.3358816  40.2353942  18.2804978  27.6860402
  41.7213586  18.7437111  40.6812839  41.4303452  19.6482742  40.5659506
  42.3570570  18.7853638  41.3956909  42.6469793  16.1213959  37.2714199
  43.2433365  15.8969982  36.5571162  42.7044764  15.3798705  37.8739647
  42.2194821  13.5753395  25.1064390  42.4720342  13.0534916  24.3447853
  41.2819380  13.4119540  25.2091074  47.2638104  12.5789173  32.9139133
  48.0501193  12.1608596  32.5629550  47.5276808  13.4835265  33.0820782
  47.4348181  18.0162023  27.6127790  46.7994014  18.0896650  28.3248695
  47.1045588  18.6055622  26.9346869  52.6646531  12.5164406  33.8172112
  53.3971703  11.9463623  34.0509941  51.9085887  12.1286007  34.2578617
  41.9391110  15.4781501  27.3088765  41.8227368  14.8026404  27.9769849
  42.0493370  14.9913874  26.4920918  44.2822651  14.9391648  31.0135454
  43.9180858  14.4122269  31.7248376  45.1389767  14.5490117  30.8401940
  50.1871951   6.2285980  38.2766720  49.8555276   7.0981391  38.0527935
  49.5917565   5.9122264  38.9560751  43.9228138   9.9681547  26.0096803
  44.0902540  10.8361784  26.3767274  43.7325307  10.1308829  25.0858092
  46.6803471  18.4298526  37.6762633  46.3804194  19.3323565  37.5678440
  46.3354530  18.1630709  38.5283786  40.1315952  14.8812323  33.7099338
  39.2066449  14.7488537  33.9177029  40.3800366  15.6606542  34.2069280
  50.0800615  10.9481066  35.3560070  49.1717492  10.8796475  35.0618831
  50.0288211  11.4253011  36.1841896  43.9017359  12.4239205  26.9943470
  43.7816984  12.8696256  27.8328950  43.2069947  12.7724523  26.4357008
  37.4924763  14.5245597  34.5443127  37.6217145  14.7780076  35.4582538
  36.8122215  15.1173305  34.2247782  41.6624251  25.1942847  30.6433601
  41.5848280  26.1450672  30.7222081  41.0585894  24.8488719  31.3008527
  44.1541481  12.3670712  43.2994968  43.3774815  12.9264632  43.2897832
  44.7932044  12.8527495  43.8209838  51.9462261   9.1497505  37.1337944
  51.3036641   9.4430038  36.4877739  51.4417190   9.0350425  37.9391141
  49.6002425  12.8960678  27.8223804  50.5120281  13.1288065  27.6471501
  49.0912072  13.4797722  27.2598882  42.4087853  15.1756165  42.8612935
  43.1502537  15.7141209  42.5847758  41.7024838  15.8022454  43.0184487
  47.8843192  17.3185306  41.4585096  48.2926549  16.8767716  40.7139729
  47.1620454  16.7437933  41.7119289  44.2374263  12.2557913  38.8318653
  45.0835458  12.6797326  38.9753302  44.1772900  11.5991537  39.5257216
  48.2072007  17.8786496  35.2137385  47.5780870  18.0432211  34.5113453
  47.8197669  18.2928106  35.9848349  52.0861239  18.8140934  32.5681749
  51.4012277  19.1939836  32.0178782  52.1705088  19.4236261  33.3013697
  47.3873708   9.9162281  40.4899827  47.1434640  10.6704342  39.9534102
  47.6633638  10.2947629  41.3247074  49.3412171  16.4600893  39.1677092
  49.5529066  17.1032653  38.4911473  49.2941919  15.6263210  38.6999022
  46.9438400   9.0718714  36.0713665  46.0822879   9.3699968  36.3630402
  46.9700834   9.2889113  35.1394697  43.7599969  17.6160905  32.4787470
  44.2238315  17.8948608  31.6892093  43.4956767  16.7144349  32.2960561
  40.6524050  17.1632386  35.4167233  41.2225407  17.5919654  34.7784718
  41.2432162  16.8814971  36.1151419  42.6968855  13.7384057  29.2877035
  43.3992898  14.1905101  29.7550962  42.3649484  13.0967876  29.9156928
  41.1449217  12.3295814  43.6628245  40.5147877  13.0112094  43.8963642
  41.0385304  12.2178895  42.7181383  36.4394189  11.9967610  34.5894169
  35.6493243  12.2525138  34.1134280  36.9305436  12.8115947  34.6946209
  50.4557999  19.3372849  37.3399450  51.2775442  18.9353036  37.0582131
  50.4520401  19.2341083  38.2915566  38.3908934  12.3612189  31.5477646
  37.5940098  12.4730883  32.0661141  38.1634527  12.6998841  30.6818536
  44.2214602  18.8856892  39.4960160  44.2859035  19.3477299  40.3318332
  43.5125526  18.2554257  39.6242470  34.7231892  12.2498100  37.0209160
  34.9739930  13.1345110  37.2866736  35.2591440  12.0702702  36.2484252
  58.5463992  15.6811597  33.6884421  57.7927700  15.1118995  33.5328426
  58.6811533  15.6474262  34.6355056  43.9362620  20.5525000  29.3639141
  43.8008294  21.3976535  29.7923988  44.4772432  20.7544277  28.6005074
  40.4229959   6.6316579  46.0253496  40.0296905   6.0782778  46.7001140
  41.2396100   6.9427158  46.4160013  37.3892017  18.0700438  29.9367066
  37.9016538  18.8643688  30.0872630  38.0414730  17.3726728  29.8700667
  39.1986902  21.1866194  32.0189819  39.3753530  22.1084159  31.8310803
  39.9943735  20.8724613  32.4484199  43.3397920   8.0474458  43.6173752
  44.0807634   8.6481612  43.5378215  43.5715843   7.3052096  43.0591795
  38.4839258  13.2330826  41.8951982  38.3692773  12.3316083  42.1959081
  37.6283776  13.4794523  41.5436799  45.5631096  21.1748566  43.4939483
  45.1194950  20.3884945  43.1760387  46.2248310  21.3627717  42.8283373
  40.3218217  22.7044368  38.0200161  40.8725642  22.5761431  37.2477155
  39.4829693  23.0039257  37.6695054  47.6612334  21.4551366  41.5220884
  47.6430809  22.2760247  41.0301153  48.5832254  21.3305441  41.7471025
  44.1185388  18.9695495  42.3644392  44.6513725  18.2083784  42.1343700
  43.5899469  18.6769147  43.1068547  47.2855083   4.0755561  37.8938034
  46.9419353   4.9657203  37.8177145  47.6534046   3.8857219  37.0307619
  35.3540934  16.3989092  30.7126636  36.1916156  16.8086100  30.4960344
  35.5319202  15.4588534  30.6826830  47.2505366  14.0664173  26.4010469
  46.7351989  14.8368777  26.6398857  46.9782674  13.3929309  27.0243531
  44.8352477   8.9113873  31.4595708  43.9794073   8.5220724  31.2801346
  45.2479429   8.9905834  30.5995493  46.3651624   6.4460217  35.8587267
  45.8616419   6.4090352  35.0455073  46.6582231   7.3552959  35.9183924
  42.6094510   6.5298946  34.8653449  43.4747506   6.3341755  34.5059338
  42.6772018   6.3009298  35.7922806  52.2239640  16.8196527  28.3363643
  51.4469083  16.4807687  27.8918805  52.9031121  16.8249150  27.6618608
  47.0391669  11.9391265  28.2270250  46.7341805  12.2537414  29.0780394
  47.9922111  12.0172685  28.2697583  45.4838101  18.0981488  29.8763204
  44.9559463  17.3634248  29.5636442  44.9825604  18.8756164  29.6303173
  50.4630947  16.2930508  34.9930251  49.8054621  16.9829770  35.0810379
  51.2671346  16.6826940  35.3364237  40.2156829   8.7601154  32.2369816
  40.7900581   8.5376336  31.5043009  40.8027811   8.8289849  32.9898417
  49.2736406  14.6474881  33.0434192  49.7868288  15.2804873  33.5455902
  49.9237630  14.0476077  32.6777552  40.5426416  10.7905615  26.2565701
  39.7063728  11.1280302  26.5774976  40.4031185  10.6554595  25.3192838
  42.5179496   5.6342403  30.9644885  41.8643909   5.3191420  30.3401500
  42.4759970   5.0118144  31.6904708  43.6290701  15.9161698  22.8798177
  42.7217763  15.6850952  23.0789326  44.1261733  15.1199317  23.0672159
  46.5358780  24.6259205  25.7994863  45.8620479  24.9290902  26.4079821
  46.9224602  25.4288286  25.4500321  45.7517237  12.1224337  35.2892533
  44.8339798  12.3439284  35.1314221  46.1677380  12.1970647  34.4304240
  46.5352284  13.5215752  30.4195213  47.2824103  14.0337150  30.1102335
  46.8043874  13.1999805  31.2799607  44.8078935  16.0174293  27.4022167
  43.8990154  15.7333326  27.4994637  44.8374018  16.4373372  26.5425474
  50.0398202  19.6280883  31.1713335  49.5860529  18.7871792  31.2278525
  49.4092169  20.2642281  31.5088115  48.9831122  10.5572869  32.4014002
  48.2453878  10.0450255  32.7324245  49.2357895  10.1173250  31.5897279
  48.4831141  21.4657379  32.1063153  48.7754116  22.0262436  31.3875519
  48.9929762  21.7585940  32.8616312  49.0842749   3.3349121  32.9955772
  49.3901626   2.4746484  32.7081687  49.8095354   3.9266741  32.7954766
  35.3767105  13.7379807  31.3837370  35.1791505  13.1449168  30.6588436
  34.8213769  13.4332017  32.1013308  43.3563829  13.6302914  33.5031963
  43.4112438  12.6776750  33.4274439  42.5455031  13.7862353  33.9873261
  44.5055022  17.5583037  24.7410246  44.0674452  16.8418896  24.2815883
  45.2465463  17.7859152  24.1795337  41.2956189  12.2479973  31.2622342
  40.4824054  12.5474144  31.6687534  41.7915183  11.8535662  31.9796824
  43.4464766  22.2437730  33.1956606  43.4040945  22.4698577  32.2665138
  44.3627465  22.0101105  33.3442407  46.8930400  12.7121798  40.0937236
  47.2479788  12.9393271  40.9531701  47.5402531  13.0440175  39.4714491
  52.6228137  15.8340234  30.7986565  52.4846036  16.0241830  29.8707754
  52.2664356  16.5959617  31.2554616  40.7870263   9.8198329  36.8783577
  41.4269643   9.6787088  36.1806540  39.9547794   9.5332842  36.5022179
  52.6497517  17.9016761  35.8097836  53.0834023  17.8092050  36.6580890
  53.3629098  17.8774261  35.1717852  41.5630567  19.1200759  32.9918569
  42.3571166  18.6251080  32.7901144  40.8522260  18.5918623  32.6286275
  46.3825412  21.5018855  37.3430937  46.4362434  22.0709791  38.1108653
  45.5140193  21.6720740  36.9784974  37.8713331  13.2643841  29.0678322
  36.9410919  13.2028297  29.2848284  37.9670803  12.7419794  28.2714963
  37.7898880   9.7898654  31.6556563  38.0505697  10.7043987  31.5465724
  38.6116052   9.3223097  31.8053176  39.2623805  11.2036411  38.8255388
  39.9346859  10.9953773  38.1768037  38.4353592  11.0058497  38.3860620
  53.5113066  17.9440461  38.3430721  53.7048956  18.8486272  38.5889996
  53.4113685  17.4847881  39.1769306  45.1649377   7.8298352  40.8421049
  44.5177292   8.5288302  40.7485525  45.9350392   8.2634496  41.2097297
  48.5728175  18.0947204  43.9171602  48.4213681  17.8657756  43.0001686
  48.5632855  19.0517806  43.9302947  45.3413511  15.6679117  38.9017869
  46.2705571  15.8190277  38.7286836  44.9204541  15.7563138  38.0466515
  44.1401843  19.6929781  36.6716406  44.0012929  19.3248566  37.5442344
  43.3516439  20.2077421  36.5000364  44.7349995  24.7938878  28.0141943
  44.9101751  24.3226921  28.8287565  44.0482783  25.4204644  28.2423203
  45.6907058  19.0711384  34.0605244  45.3556891  19.0312154  34.9562894
  45.1911004  18.4056100  33.5875654  39.6651302  14.4779014  39.5857825
  39.5271100  13.7459253  40.1869364  40.5756226  14.3887914  39.3042013
  48.6266250  16.4167418  24.3342304  48.0095421  15.6914247  24.2375356
  48.1582738  17.1776779  23.9909378  42.2933603  14.1898973  39.0741505
  43.0033222  13.5492166  39.0328123  42.2502911  14.4411868  39.9967686
  50.2820382  21.1266327  41.9948084  50.2232928  20.4425547  41.3278667
  50.6839900  21.8685317  41.5428710  41.0062537  11.1764191  40.8937144
  40.4699894  10.7254930  41.5458741  40.4179245  11.3110100  40.1507609
  39.3011080  27.9428241  34.7881803  39.5407679  28.5746765  35.4660821
  38.4580277  27.5916281  35.0747162  50.2837789  19.0905911  40.2262064
  49.3964568  18.7531832  40.3488462  50.8536340  18.3588942  40.4630829
  31.9366936  15.4230002  33.5505115  32.6237976  15.1091732  32.9626130
  31.7815065  16.3271367  33.2772366  36.7401658  10.3120199  37.9790139
  36.6559847   9.7045869  37.2440549  35.9184365  10.8029217  37.9799635
  43.8138942  23.7507363  37.1923307  43.7409114  24.5562335  37.7042611
  43.3716335  23.9499329  36.3671328  43.6028722  22.9879133  30.7026128
  42.8196244  23.5300813  30.7964353  44.3021467  23.5053113  31.1020370
  46.9125372   8.7973763  33.3460334  47.4094072   8.0443725  33.0261404
  46.1412354   8.8338079  32.7803543  54.7655129  14.5014128  34.9878625
  54.7545006  15.3838843  34.6172558  53.8972509  14.1485679  34.7933162
  46.2737626  23.6494197  39.3481465  46.9865598  24.2841662  39.2757367
  45.7827655  23.7458063  38.5321467  47.9955153  17.5545450  30.9198757
  47.0611432  17.6746912  30.7503461  48.1731821  16.6517917  30.6558767
  43.4960341  10.9391146  33.0732018  43.1258128  10.3862186  33.7612924
  43.9919433  10.3349279  32.5207018  51.3827704  13.3962769  31.4548791
  51.8488156  14.2290761  31.3809094  51.8335205  12.9307751  32.1594050
  41.3249539  21.3988641  40.1687036  42.0258999  22.0325123  40.3216431
  40.8544654  21.7403372  39.4082676  49.4503935  19.7406590  28.4534943
  49.7263779  19.6263185  29.3628817  48.5808434  19.3424075  28.4147116
  49.3544367   5.7643356  35.4939693  48.4407447   5.9947583  35.6621900
  49.7837468   5.8481800  36.3453725  49.1250825  13.9533248  37.9939587
  48.4722276  14.2009155  37.3392039  49.5031205  13.1397386  37.6602064
  46.0857999  23.9892941  32.0967757  46.2680394  23.1714597  32.5595509
  46.9090985  24.2060633  31.6592647  46.4200165  22.9161126  29.3582805
  46.9487931  22.4053581  28.7452968  46.6828384  22.6003656  30.2228338
  45.1738398  14.6953059  44.4805624  44.4979035  14.5947188  45.1507999
  45.9966032  14.5392273  44.9441621  36.9217257  20.9324996  37.1018139
  37.5070694  20.1868683  37.2346043  36.7242096  21.2428952  37.9854803
  39.7755913  23.9676243  32.1180581  39.1066288  24.4522371  31.6344621
  39.6368782  24.2145463  33.0323960  31.5134912  13.5030596  35.8222582
  31.5519012  12.9694186  36.6159700  31.0075205  12.9765801  35.2033559
  43.9161181  26.0019986  38.7163240  44.4679489  26.1651608  39.4812325
  44.2567375  26.5924424  38.0443265  38.8925674   8.3495136  39.3185124
  38.9567001   9.2109967  38.9062522  38.8292795   7.7369138  38.5857483
  38.3677947  10.4218269  42.9658159  38.9949986  10.0395346  43.5795683
  37.5105866  10.2032471  43.3313851  48.7672056  20.8281244  44.5711894
  49.3111960  21.4411202  44.0766849  48.1858900  21.3860822  45.0878907
  35.1443490  12.2294698  28.8976514  35.4396931  11.3205376  28.8443567
  34.2431526  12.2082437  28.5757516  47.0529569  23.9501962  35.7026922
  46.9280708  23.1491702  35.1937867  47.7108660  24.4448155  35.2140892
  38.6737737  10.3050695  34.8804062  37.9524323  10.9186662  34.7411535
  39.4630993  10.8408459  34.8020708  49.1164477  21.7510982  37.3306472
  48.1694812  21.6316333  37.2584799  49.4647250  20.8633480  37.4132733
  41.4764050   7.6405121  41.1544714  41.9998452   7.8867418  41.9171023
  41.2576384   8.4725156  40.7347851  36.8731331   9.9108796  29.0215839
  36.5444038   9.0306175  28.8390945  37.2270702   9.8556464  29.9092228
  46.1210910  21.5463698  33.5310824  45.9735873  20.6180406  33.7118394
  46.9464404  21.5683789  33.0467899  39.9873155  10.1981765  29.3891316
  40.3269227  10.7267687  28.6669925  40.4345275  10.5362172  30.1649883
  49.7245032  22.3692257  34.6175697  50.6491580  22.1635118  34.4800148
  49.5560335  22.1208658  35.5265038  42.6816595   8.5818816  38.8394384
  42.3413416   7.7826629  39.2415064  41.9755602   8.8820527  38.2671218
  43.3333067   5.6668129  37.2921707  44.1559136   5.1928607  37.1700598
  43.5771131   6.4458612  37.7920394  41.9741302   8.6956387  27.5884609
  42.6949664   9.0737640  27.0848326  41.3506606   9.4145264  27.6919587
  46.1172425   9.4001536  28.5242941  46.3336039  10.2826174  28.2231770
  45.6366492   9.0087749  27.7948583  40.8571646  12.3587249  35.1013686
  40.7116227  12.6727552  35.9937968  40.3796850  12.9772150  34.5484585
  42.7168029   9.3489797  35.1494576  42.7029598   8.4530890  34.8126874
  43.4340457   9.3560461  35.7832862  44.5694160   9.7827137  37.1947703
  44.3111937  10.7044208  37.1932033  44.0379200   9.3857572  37.8848167
  49.5140348  22.8877924  29.9737788  49.6877226  22.3224347  29.2211641
  50.0069240  23.6878819  29.7917278  35.3317308  14.8992594  38.0401347
  34.7870776  15.6752402  38.1721622  36.2096658  15.2463398  37.8820469
  42.1204925   8.2304177  30.4182146  42.2420836   7.3020824  30.6173033
  41.8306967   8.2442863  29.5060461  44.9896115   5.9159088  33.5548866
  45.0117812   5.9798421  32.6000845  45.4064174   5.0763597  33.7489372
  55.3679739  15.6514347  31.5928088  55.8110885  14.9021673  31.1947211
  54.4906250  15.6424484  31.2101820  50.5015521  22.2044689  27.0734687
  51.1966425  22.8251382  27.2922001  50.8438671  21.3540040  27.3487065
  36.1183330  14.0262490  40.9331504  35.3765066  14.1745125  41.5196135
  35.7976074  14.2870755  40.0698253  52.4006944  19.6544394  28.6022017
  52.9258268  19.9931667  27.8771337  52.3129296  18.7191410  28.4185152
  44.0626993  23.5678468  40.7311894  44.3714119  23.3227615  41.6034594
  44.8602475  23.7725107  40.2430764  44.0847605  25.7216378  32.9617271
  43.6452595  25.2292756  33.6550127  44.8355722  25.1789345  32.7209346
  36.5639944  21.9127919  32.9641899  37.3897964  21.6131690  32.5840542
  36.2133996  21.1435541  33.4131687  41.5321477  21.2654387  35.0339572
  40.9101486  20.6025092  34.7341800  42.2026344  21.2915519  34.3513220
  34.7648549  19.8314245  33.9230832  33.9280457  19.4036419  33.7414834
  34.7372194  20.0246688  34.8601624  41.6046004   9.7436175  44.6272078
  41.6534160  10.6198298  44.2449848  42.1468518   9.2013568  44.0543722
  52.0900850  20.2877298  43.9073215  51.2996394  20.2701437  43.3677715
  51.8534205  20.8265592  44.6622252  52.2098725  17.1369764  41.2205944
  52.2596730  16.9719772  42.1621467  52.1012648  16.2697023  40.8303825
  41.0934984  19.8158310  28.5098033  41.2423104  20.4993775  27.8564706
  41.9001427  19.7963400  29.0247489  49.5002487  13.1200692  42.5365251
  50.4012350  12.9807157  42.2449248  49.5750462  13.2855147  43.4763428
  43.8345293  10.4967547  41.3818437  42.9648602  10.7901113  41.1101026
  44.0704773  11.0807992  42.1025701  53.7116922  19.5566706  41.4647965
  53.4201730  19.9196687  42.3011426  53.0989053  18.8433714  41.2861298
  54.9112604  17.1219586  33.9850536  55.7459496  17.5609390  34.1488096
  55.0471733  16.6458239  33.1658781  51.9604110  14.6799321  39.9328023
  52.4358232  14.8726967  39.1246875  51.0369675  14.7358506  39.6871407
  38.8487617  15.8423488  29.5159102  38.6033659  14.9385818  29.7139312
  39.0183531  15.8440638  28.5738580  46.5384327   6.7147164  38.8983857
  47.0566270   7.4508191  38.5730346  46.1839459   7.0211157  39.7330616
  38.1183264  11.5751845  27.0145263  37.4252509  11.6496200  26.3585299
  37.8735016  10.8112189  27.5366780  46.7896921   3.1347447  34.4184754
  47.0698674   2.4670636  35.0445181  47.5747528   3.3276542  33.9059418
  44.5930389  22.3106441  25.9809780  44.0204356  22.9296628  25.5280252
  45.1663183  22.8605802  26.5149702  50.6605779  11.5565081  38.1656329
  51.6123202  11.6563178  38.1868553  50.4909229  10.7643349  38.6754413
  48.6820159   8.6420664  38.3515730  48.0870091   8.9225677  37.6562219
  48.3969855   9.1314565  39.1232471  47.8127649  22.5943591  27.1118363
  48.7458322  22.5289152  27.3151238  47.7250862  23.4299858  26.6532895
  50.4415666  21.9109461  24.0722310  50.3629297  21.5769325  24.9658068
  51.2625332  22.4031229  24.0713782  53.1393857  14.7771200  37.2798629
  53.1070177  13.8387201  37.4658313  53.7494481  14.8555237  36.5464454
  44.9777188  13.6467253  23.3225833  45.9236292  13.5173461  23.3914251
  44.5991433  12.9081915  23.7995261  53.2888345  11.5682244  37.3256912
  52.7727394  10.7840700  37.1386841  54.1728294  11.2400960  37.4903431
  50.9499072   5.3123259  33.2852725  50.7523893   5.0038348  34.1696057
  51.5598778   6.0384898  33.4150654  58.9570407  15.8387207  36.4204666
  59.6873795  15.5772495  36.9812369  58.3477352  15.1015929  36.4606734
  57.0385704  13.9795070  37.0179117  56.3118867  13.8451035  36.4095608
  56.6232991  14.2871898  37.8235835  44.8615880  17.6984999  44.7826490
  45.7818890  17.8763598  44.9766536  44.8265463  16.7541045  44.6306189
  34.0798045  12.8923593  33.7079764  33.7600830  12.0388901  33.4154138
  33.5331473  13.1072171  34.4637732  37.8577953  15.6086034  37.4249271
  38.0763963  16.5403142  37.4437305  38.2703727  15.2494009  38.2104075
  44.7782171   6.1154119  29.4124959  43.9682899   5.7701204  29.7880205
  45.4666588   5.8061663  30.0012571  46.7072719   5.1932166  31.0349256
  47.2603758   5.6127620  31.6939279  46.9442805   4.2667914  31.0772212
  42.7305818  11.1819240  46.8152020  42.6302545  12.1313597  46.7464111
  42.5127360  10.8537479  45.9428090  33.9486305  16.5126505  35.6772886
  33.2549777  16.0980457  35.1642840  34.6959296  16.5547041  35.0806305
  50.0851526   7.3032691  30.5427920  49.5050195   7.9617495  30.1605973
  49.8187459   6.4810036  30.1315338  48.5355092   6.7037749  32.7449241
  49.0354871   6.8154284  31.9363559  49.1790700   6.3998802  33.3850049
  42.5937088  14.6116379  45.6317081  42.1104170  15.4116739  45.8380971
  42.6798027  14.6224324  44.6784525  35.8623048  16.4444758  33.5538901
  35.8393736  16.5432446  32.6020784  36.1723684  17.2909909  33.8756067
  38.5210426  18.5020913  37.6685515  39.4753679  18.4704856  37.6015447
  38.3222949  18.0411537  38.4835741  39.1109808  17.0722029  40.2356313
  39.9302697  17.5666108  40.2591150  39.3846616  16.1553998  40.2073880
  48.8676404   9.4632782  29.5984268  47.9802259   9.7482432  29.3804463
  49.2830393   9.3026545  28.7511545  52.2190940   9.4879303  33.3138608
  52.9951330   9.9775755  33.5863225  51.4939074   9.9137357  33.7710477
  54.6563499  10.2006922  34.3712548  55.2507990   9.9602658  33.6605857
  54.7290082   9.4814053  34.9986085  36.8760654  24.0440533  34.6855713
  36.7415122  23.2840934  34.1193711  36.4592717  24.7681433  34.2184502
  48.0119617  19.2277456  23.6932288  48.7155468  19.4327459  24.3089944
  47.2882266  19.7954218  23.9581372  48.8417428  14.9787318  29.8134559
  48.7852629  15.4355869  28.9742191  49.3945770  14.2178002  29.6357401
  52.6522234  10.7677050  30.6384678  52.3959168  10.3673685  31.4692886
  52.0275102  11.4820844  30.5134817  56.9634572  13.5073123  33.1455970
  56.4034129  13.5766312  33.9187532  56.3578075  13.3314107  32.4255466
  40.0329780  24.9409850  34.8974156  39.9162164  25.8855282  34.7952846
  39.2122227  24.6383411  35.2859955  49.9206315  19.6659986  25.7430748
  50.7551919  19.2341184  25.5608223  49.7590658  19.4941999  26.6707643
  49.5752207  16.1692099  27.1087088  49.5201011  16.0036370  26.1675532
  48.9498262  16.8768132  27.2649278  34.3644722  11.4060163  40.9348510
  35.0103586  10.8959117  41.4235735  34.1561873  12.1428845  41.5091935
  46.8898114  18.4741011  46.4340651  47.7589274  18.6481663  46.0727285
  46.4104866  19.2935428  46.3116380  42.8848333   5.6700208  26.6872406
  42.8727002   6.6142048  26.8440677  43.7771754   5.4870353  26.3931867
  41.0584294  25.5938112  38.1130084  41.9611541  25.6261722  38.4296579
  40.8321665  24.6638563  38.1276420  42.8137896  24.3469098  34.7740163
  41.8633527  24.3470960  34.6604535  43.1170383  23.6001833  34.2576197
  46.7000452   2.2642985  30.9418343  45.9332848   1.7101471  31.0875025
  47.1111157   2.3364853  31.8032495  38.7042213   8.5527780  45.0323524
  39.5673675   8.1964585  45.2426849  38.1307624   8.2141675  45.7198929
  58.5490590  30.1829637  35.8385925  59.1869000  30.0636384  35.1349265
  58.4311433  31.1310481  35.8973877  55.3580296  30.1357065  35.7747450
  55.0198808  30.0198130  34.8867985  56.2270064  29.7348230  35.7548456
  51.2167112  31.9892541  31.7644341  50.6531977  31.8982478  30.9960629
  51.1019507  31.1692446  32.2446833  55.8400079  31.2891917  41.7333655
  55.8288720  30.8944715  40.8614159  56.0020719  30.5557989  42.3267427
  48.7631544  33.4843733  34.6028561  49.5552836  33.1434558  34.1874861
  49.0028194  33.5938708  35.5230715  56.7966671  35.6563509  27.0758806
  56.1454650  36.2417589  26.6892820  57.5911033  36.1869704  27.1353843
  50.7222298  32.7452646  27.4745940  51.4953174  32.1981633  27.3358816
  51.0747697  33.6096895  27.6860402  52.5607340  34.0729028  40.6812839
  52.2697206  34.9774659  40.5659506  53.1964325  34.1145556  41.3956909
  53.4863547  31.4505877  37.2714199  54.0827119  31.2261899  36.5571162
  53.5438519  30.7090622  37.8739647  53.0588576  28.9045312  25.1064390
  53.3114096  28.3826834  24.3447853  52.1213135  28.7411458  25.2091074
  58.1031858  27.9081091  32.9139133  58.8894948  27.4900514  32.5629550
  58.3670563  28.8127183  33.0820782  58.2741936  33.3453941  27.6127790
  57.6387769  33.4188567  28.3248695  57.9439342  33.9347540  26.9346869
  63.5040286  27.8456324  33.8172112  64.2365458  27.2755541  34.0509941
  62.7479641  27.4577924  34.2578617  52.7784864  30.8073418  27.3088765
  52.6621122  30.1318322  27.9769849  52.8887124  30.3205792  26.4920918
  55.1216405  30.2683565  31.0135454  54.7574613  29.7414186  31.7248376
  55.9783521  29.8782034  30.8401940  61.0265706  21.5577898  38.2766720
  60.6949031  22.4273309  38.0527935  60.4311319  21.2414182  38.9560751
  54.7621892  25.2973465  26.0096803  54.9296295  26.1653701  26.3767274
  54.5719061  25.4600747  25.0858092  57.5197225  33.7590444  37.6762633
  57.2197949  34.6615483  37.5678440  57.1748285  33.4922627  38.5283786
  50.9709707  30.2104241  33.7099338  50.0460203  30.0780455  33.9177029
  51.2194120  30.9898460  34.2069280  60.9194369  26.2772984  35.3560070
  60.0111247  26.2088393  35.0618831  60.8681965  26.7544929  36.1841896
  54.7411113  27.7531123  26.9943470  54.6210738  28.1988173  27.8328950
  54.0463702  28.1016440  26.4357008  48.3318518  29.8537514  34.5443127
  48.4610899  30.1071993  35.4582538  47.6515969  30.4465222  34.2247782
  52.5018005  40.5234764  30.6433601  52.4242035  41.4742589  30.7222081
  51.8979649  40.1780637  31.3008527  54.9935235  27.6962630  43.2994968
  54.2168569  28.2556550  43.2897832  55.6325798  28.1819413  43.8209838
  62.7856016  24.4789423  37.1337944  62.1430396  24.7721956  36.4877739
  62.2810944  24.3642343  37.9391141  60.4396179  28.2252596  27.8223804
  61.3514035  28.4579982  27.6471501  59.9305826  28.8089640  27.2598882
  53.2481607  30.5048083  42.8612935  53.9896292  31.0433127  42.5847758
  52.5418593  31.1314372  43.0184487  58.7236947  32.6477224  41.4585096
  59.1320303  32.2059634  40.7139729  58.0014208  32.0729851  41.7119289
  55.0768017  27.5849830  38.8318653  55.9229212  28.0089244  38.9753302
  55.0166655  26.9283455  39.5257216  59.0465762  33.2078414  35.2137385
  58.4174624  33.3724128  34.5113453  58.6591424  33.6220024  35.9848349
  62.9254994  34.1432852  32.5681749  62.2406032  34.5231753  32.0178782
  63.0098843  34.7528179  33.3013697  58.2267462  25.2454199  40.4899827
  57.9828394  25.9996259  39.9534102  58.5027393  25.6239546  41.3247074
  60.1805925  31.7892811  39.1677092  60.3922820  32.4324571  38.4911473
  60.1335673  30.9555128  38.6999022  57.7832154  24.4010632  36.0713665
  56.9216633  24.6991885  36.3630402  57.8094589  24.6181031  35.1394697
  54.5993723  32.9452822  32.4787470  55.0632069  33.2240525  31.6892093
  54.3350522  32.0436267  32.2960561  51.4917805  32.4924304  35.4167233
  52.0619162  32.9211572  34.7784718  52.0825916  32.2106888  36.1151419
  53.5362610  29.0675975  29.2877035  54.2386653  29.5197018  29.7550962
  53.2043238  28.4259793  29.9156928  51.9842971  27.6587731  43.6628245
  51.3541632  28.3404012  43.8963642  51.8779059  27.5470813  42.7181383
  47.2787944  27.3259527  34.5894169  46.4886997  27.5817056  34.1134280
  47.7699191  28.1407865  34.6946209  61.2951753  34.6664766  37.3399450
  62.1169197  34.2644954  37.0582131  61.2914156  34.5633001  38.2915566
  49.2302689  27.6904107  31.5477646  48.4333852  27.8022801  32.0661141
  49.0028281  28.0290759  30.6818536  55.0608357  34.2148810  39.4960160
  55.1252789  34.6769217  40.3318332  54.3519280  33.5846175  39.6242470
  45.5625646  27.5790018  37.0209160  45.8133685  28.4637028  37.2866736
  46.0985195  27.3994619  36.2484252  69.3857746  31.0103515  33.6884421
  68.6321455  30.4410913  33.5328426  69.5205287  30.9766179  34.6355056
  54.7756374  35.8816917  29.3639141  54.6402049  36.7268453  29.7923988
  55.3166187  36.0836195  28.6005074  51.2623714  21.9608497  46.0253496
  50.8690659  21.4074696  46.7001140  52.0789854  22.2719076  46.4160013
  48.2285772  33.3992355  29.9367066  48.7410292  34.1935606  30.0872630
  48.8808484  32.7018646  29.8700667  50.0380656  36.5158112  32.0189819
  50.2147285  37.4376076  31.8310803  50.8337490  36.2016531  32.4484199
  54.1791675  23.3766376  43.6173752  54.9201388  23.9773529  43.5378215
  54.4109598  22.6344014  43.0591795  49.3233013  28.5622743  41.8951982
  49.2086528  27.6608001  42.1959081  48.4677531  28.8086440  41.5436799
  56.4024851  36.5040484  43.4939483  55.9588705  35.7176862  43.1760387
  57.0642064  36.6919634  42.8283373  51.1611972  38.0336285  38.0200161
  51.7119397  37.9053349  37.2477155  50.3223448  38.3331174  37.6695054
  58.5006089  36.7843284  41.5220884  58.4824564  37.6052165  41.0301153
  59.4226009  36.6597359  41.7471025  54.9579143  34.2987413  42.3644392
  55.4907480  33.5375701  42.1343700  54.4293224  34.0061065  43.1068547
  58.1248838  19.4047479  37.8938034  57.7813107  20.2949121  37.8177145
  58.4927800  19.2149137  37.0307619  46.1934688  31.7281010  30.7126636
  47.0309910  32.1378018  30.4960344  46.3712956  30.7880452  30.6826830
  58.0899120  29.3956090  26.4010469  57.5745744  30.1660695  26.6398857
  57.8176429  28.7221226  27.0243531  55.6746231  24.2405791  31.4595708
  54.8187828  23.8512641  31.2801346  56.0873183  24.3197752  30.5995493
  57.2045378  21.7752134  35.8587267  56.7010174  21.7382269  35.0455073
  57.4975985  22.6844877  35.9183924  53.4488264  21.8590864  34.8653449
  54.3141261  21.6633673  34.5059338  53.5165773  21.6301216  35.7922806
  63.0633395  32.1488445  28.3363643  62.2862837  31.8099604  27.8918805
  63.7424876  32.1541068  27.6618608  57.8785424  27.2683182  28.2270250
  57.5735559  27.5829331  29.0780394  58.8315866  27.3464602  28.2697583
  56.3231855  33.4273406  29.8763204  55.7953217  32.6926165  29.5636442
  55.8219358  34.2048082  29.6303173  61.3024702  31.6222426  34.9930251
  60.6448376  32.3121688  35.0810379  62.1065101  32.0118858  35.3364237
  51.0550583  24.0893072  32.2369816  51.6294335  23.8668253  31.5043009
  51.6421566  24.1581766  32.9898417  60.1130160  29.9766799  33.0434192
  60.6262042  30.6096791  33.5455902  60.7631384  29.3767994  32.6777552
  51.3820170  26.1197533  26.2565701  50.5457482  26.4572219  26.5774976
  51.2424940  25.9846513  25.3192838  53.3573251  20.9634321  30.9644885
  52.7037663  20.6483338  30.3401500  53.3153725  20.3410061  31.6904708
  54.4684456  31.2453616  22.8798177  53.5611517  31.0142869  23.0789326
  54.9655488  30.4491235  23.0672159  57.3752535  39.9551123  25.7994863
  56.7014233  40.2582820  26.4079821  57.7618357  40.7580203  25.4500321
  56.5910991  27.4516254  35.2892533  55.6733553  27.6731201  35.1314221
  57.0071135  27.5262565  34.4304240  57.3746039  28.8507670  30.4195213
  58.1217858  29.3629067  30.1102335  57.6437628  28.5291723  31.2799607
  55.6472689  31.3466211  27.4022167  54.7383908  31.0625244  27.4994637
  55.6767773  31.7665289  26.5425474  60.8791957  34.9572800  31.1713335
  60.4254284  34.1163710  31.2278525  60.2485923  35.5934199  31.5088115
  59.8224876  25.8864786  32.4014002  59.0847633  25.3742172  32.7324245
  60.0751650  25.4465168  31.5897279  59.3224896  36.7949297  32.1063153
  59.6147870  37.3554354  31.3875519  59.8323516  37.0877858  32.8616312
  59.9236503  18.6641038  32.9955772  60.2295380  17.8038402  32.7081687
  60.6489108  19.2558658  32.7954766  46.2160859  29.0671725  31.3837370
  46.0185259  28.4741086  30.6588436  45.6607523  28.7623935  32.1013308
  54.1957583  28.9594831  33.5031963  54.2506193  28.0068668  33.4274439
  53.3848785  29.1154270  33.9873261  55.3448777  32.8874954  24.7410246
  54.9068207  32.1710813  24.2815883  56.0859218  33.1151069  24.1795337
  52.1349943  27.5771891  31.2622342  51.3217809  27.8766062  31.6687534
  52.6308937  27.1827580  31.9796824  54.2858521  37.5729648  33.1956606
  54.2434700  37.7990494  32.2665138  55.2021220  37.3393023  33.3442407
  57.7324155  28.0413716  40.0937236  58.0873542  28.2685189  40.9531701
  58.3796286  28.3732092  39.4714491  63.4621892  31.1632151  30.7986565
  63.3239790  31.3533747  29.8707754  63.1058110  31.9251534  31.2554616
  51.6264018  25.1490247  36.8783577  52.2663397  25.0079006  36.1806540
  50.7941548  24.8624760  36.5022179  63.4891271  33.2308678  35.8097836
  63.9227778  33.1383968  36.6580890  64.2022852  33.2066179  35.1717852
  52.4024322  34.4492677  32.9918569  53.1964920  33.9542997  32.7901144
  51.6916014  33.9210540  32.6286275  57.2219166  36.8310773  37.3430937
  57.2756188  37.4001709  38.1108653  56.3533948  37.0012658  36.9784974
  48.7107085  28.5935759  29.0678322  47.7804673  28.5320214  29.2848284
  48.8064557  28.0711712  28.2714963  48.6292634  25.1190572  31.6556563
  48.8899452  26.0335905  31.5465724  49.4509807  24.6515014  31.8053176
  50.1017560  26.5328329  38.8255388  50.7740613  26.3245691  38.1768037
  49.2747346  26.3350415  38.3860620  64.3506821  33.2732379  38.3430721
  64.5442711  34.1778190  38.5889996  64.2507439  32.8139798  39.1769306
  56.0043132  23.1590270  40.8421049  55.3571047  23.8580219  40.7485525
  56.7744147  23.5926414  41.2097297  59.4121930  33.4239122  43.9171602
  59.2607436  33.1949674  43.0001686  59.4026609  34.3809723  43.9302947
  56.1807266  30.9971035  38.9017869  57.1099326  31.1482194  38.7286836
  55.7598296  31.0855055  38.0466515  54.9795598  35.0221699  36.6716406
  54.8406683  34.6540483  37.5442344  54.1910194  35.5369338  36.5000364
  55.5743750  40.1230795  28.0141943  55.7495505  39.6518839  28.8287565
  54.8876538  40.7496562  28.2423203  56.5300813  34.4003302  34.0605244
  56.1950645  34.3604072  34.9562894  56.0304759  33.7348018  33.5875654
  50.5045057  29.8070932  39.5857825  50.3664855  29.0751171  40.1869364
  51.4149980  29.7179832  39.3042013  59.4660005  31.7459336  24.3342304
  58.8489175  31.0206164  24.2375356  58.9976493  32.5068696  23.9909378
  53.1327357  29.5190891  39.0741505  53.8426976  28.8784083  39.0328123
  53.0896666  29.7703786  39.9967686  61.1214136  36.4558244  41.9948084
  61.0626682  35.7717465  41.3278667  61.5233655  37.1977234  41.5428710
  51.8456291  26.5056109  40.8937144  51.3093648  26.0546847  41.5458741
  51.2573000  26.6402018  40.1507609  50.1404835  43.2720158  34.7881803
  50.3801433  43.9038682  35.4660821  49.2974031  42.9208198  35.0747162
  51.2558550  25.9644760  23.4563608  50.3788017  25.8433561  23.0925855
  51.7316303  25.1730839  23.2042497  61.1231543  34.4197828  40.2262064
  60.2358322  34.0823750  40.3488462  61.6930095  33.6880860  40.4630829
  42.7760691  30.7521920  33.5505115  43.4631730  30.4383650  32.9626130
  42.6208819  31.6563285  33.2772366  47.5795413  25.6412117  37.9790139
  47.4953601  25.0337786  37.2440549  46.7578119  26.1321135  37.9799635
  54.6532697  39.0799281  37.1923307  54.5802868  39.8854252  37.7042611
  54.2110090  39.2791247  36.3671328  54.4422476  38.3171051  30.7026128
  53.6589998  38.8592731  30.7964353  55.1415222  38.8345030  31.1020370
  57.7519127  24.1265680  33.3460334  58.2487826  23.3735643  33.0261404
  56.9806108  24.1629997  32.7803543  65.6048884  29.8306046  34.9878625
  65.5938760  30.7130761  34.6172558  64.7366263  29.4777597  34.7933162
  57.1131380  38.9786115  39.3481465  57.8259353  39.6133580  39.2757367
  56.6221409  39.0749981  38.5321467  58.8348907  32.8837367  30.9198757
  57.9005186  33.0038830  30.7503461  59.0125576  31.9809834  30.6558767
  54.3354095  26.2683063  33.0732018  53.9651883  25.7154104  33.7612924
  54.8313188  25.6641197  32.5207018  62.2221459  28.7254687  31.4548791
  62.6881911  29.5582678  31.3809094  62.6728959  28.2599668  32.1594050
  52.1643294  36.7280558  40.1687036  52.8652753  37.3617041  40.3216431
  51.6938409  37.0695290  39.4082676  60.2897690  35.0698508  28.4534943
  60.5657534  34.9555103  29.3628817  59.4202188  34.6715993  28.4147116
  60.1938121  21.0935274  35.4939693  59.2801201  21.3239501  35.6621900
  60.6231223  21.1773718  36.3453725  59.9644580  29.2825166  37.9939587
  59.3116030  29.5301073  37.3392039  60.3424960  28.4689304  37.6602064
  56.9251754  39.3184859  32.0967757  57.1074148  38.5006515  32.5595509
  57.7484740  39.5352551  31.6592647  57.2593919  38.2453044  29.3582805
  57.7881686  37.7345499  28.7452968  57.5222139  37.9295574  30.2228338
  56.0132153  30.0244977  44.4805624  55.3372790  29.9239106  45.1507999
  56.8359787  29.8684190  44.9441621  47.7611012  36.2616913  37.1018139
  48.3464449  35.5160601  37.2346043  47.5635850  36.5720870  37.9854803
  50.6149667  39.2968161  32.1180581  49.9460042  39.7814288  31.6344621
  50.4762537  39.5437381  33.0323960  42.3528667  28.8322513  35.8222582
  42.3912766  28.2986104  36.6159700  41.8468960  28.3057719  35.2033559
  54.7554936  41.3311904  38.7163240  55.3073244  41.4943526  39.4812325
  55.0961129  41.9216342  38.0443265  49.7319429  23.6787054  39.3185124
  49.7960755  24.5401885  38.9062522  49.6686549  23.0661056  38.5857483
  49.2071702  25.7510187  42.9658159  49.8343740  25.3687264  43.5795683
  48.3499620  25.5324388  43.3313851  59.6065810  36.1573162  44.5711894
  60.1505714  36.7703120  44.0766849  59.0252655  36.7152740  45.0878907
  45.9837244  27.5586616  28.8976514  46.2790685  26.6497294  28.8443567
  45.0825280  27.5374355  28.5757516  57.8923323  39.2793880  35.7026922
  57.7674462  38.4783620  35.1937867  58.5502414  39.7740073  35.2140892
  49.5131491  25.6342612  34.8804062  48.7918077  26.2478580  34.7411535
  50.3024747  26.1700377  34.8020708  59.9558231  37.0802900  37.3306472
  59.0088567  36.9608251  37.2584799  60.3041005  36.1925398  37.4132733
  52.3157805  22.9697039  41.1544714  52.8392207  23.2159335  41.9171023
  52.0970138  23.8017074  40.7347851  47.7125086  25.2400713  29.0215839
  47.3837792  24.3598092  28.8390945  48.0664457  25.1848382  29.9092228
  56.9604665  36.8755616  33.5310824  56.8129627  35.9472323  33.7118394
  57.7858158  36.8975707  33.0467899  50.8266909  25.5273683  29.3891316
  51.1662982  26.0559604  28.6669925  51.2739029  25.8654089  30.1649883
  60.5638787  37.6984175  34.6175697  61.4885334  37.4927036  34.4800148
  60.3954090  37.4500576  35.5265038  53.5210350  23.9110734  38.8394384
  53.1807170  23.1118547  39.2415064  52.8149356  24.2112445  38.2671218
  54.1726822  20.9960046  37.2921707  54.9952891  20.5220524  37.1700598
  54.4164885  21.7750530  37.7920394  52.8135056  24.0248305  27.5884609
  53.5343419  24.4029557  27.0848326  52.1900360  24.7437181  27.6919587
  56.9566179  24.7293454  28.5242941  57.1729793  25.6118092  28.2231770
  56.4760246  24.3379667  27.7948583  51.6965400  27.6879167  35.1013686
  51.5509981  28.0019470  35.9937968  51.2190604  28.3064067  34.5484585
  53.5561783  24.6781715  35.1494576  53.5423352  23.7822808  34.8126874
  54.2734211  24.6852379  35.7832862  55.4087914  25.1119055  37.1947703
  55.1505692  26.0336126  37.1932033  54.8772954  24.7149490  37.8848167
  60.3534103  38.2169842  29.9737788  60.5270980  37.6516265  29.2211641
  60.8462994  39.0170737  29.7917278  46.1711063  30.2284511  38.0401347
  45.6264531  31.0044319  38.1721622  47.0490412  30.5755316  37.8820469
  52.9598679  23.5596095  30.4182146  53.0814590  22.6312741  30.6173033
  52.6700722  23.5734781  29.5060461  55.8289870  21.2451006  33.5548866
  55.8511566  21.3090339  32.6000845  56.2457929  20.4055514  33.7489372
  66.2073494  30.9806265  31.5928088  66.6504640  30.2313590  31.1947211
  65.3300004  30.9716401  31.2101820  61.3409275  37.5336607  27.0734687
  62.0360180  38.1543299  27.2922001  61.6832425  36.6831958  27.3487065
  46.9577084  29.3554408  40.9331504  46.2158820  29.5037043  41.5196135
  46.6369829  29.6162673  40.0698253  63.2400698  34.9836312  28.6022017
  63.7652022  35.3223585  27.8771337  63.1523051  34.0483327  28.4185152
  54.9020747  38.8970386  40.7311894  55.2107874  38.6519533  41.6034594
  55.6996229  39.1017024  40.2430764  54.9241359  41.0508295  32.9617271
  54.4846349  40.5584674  33.6550127  55.6749476  40.5081263  32.7209346
  47.4033698  37.2419836  32.9641899  48.2291718  36.9423608  32.5840542
  47.0527750  36.4727459  33.4131687  52.3715231  36.5946304  35.0339572
  51.7495241  35.9317009  34.7341800  53.0420098  36.6207436  34.3513220
  45.6042303  35.1606163  33.9230832  44.7674211  34.7328337  33.7414834
  45.5765949  35.3538606  34.8601624  52.4439759  25.0728092  44.6272078
  52.4927914  25.9490215  44.2449848  52.9862273  24.5305486  44.0543722
  62.9294604  35.6169216  43.9073215  62.1390148  35.5993355  43.3677715
  62.6927959  36.1557509  44.6622252  63.0492479  32.4661682  41.2205944
  63.0990484  32.3011690  42.1621467  62.9406403  31.5988941  40.8303825
  51.9328738  35.1450228  28.5098033  52.0816859  35.8285692  27.8564706
  52.7395182  35.1255318  29.0247489  60.3396242  28.4492610  42.5365251
  61.2406105  28.3099075  42.2449248  60.4144216  28.6147065  43.4763428
  54.6739047  25.8259465  41.3818437  53.8042357  26.1193031  41.1101026
  54.9098528  26.4099910  42.1025701  64.5510676  34.8858624  41.4647965
  64.2595485  35.2488604  42.3011426  63.9382808  34.1725632  41.2861298
  65.7506359  32.4511503  33.9850536  66.5853250  32.8901307  34.1488096
  65.8865487  31.9750157  33.1658781  62.7997865  30.0091238  39.9328023
  63.2751986  30.2018885  39.1246875  61.8763430  30.0650424  39.6871407
  49.6881371  31.1715405  29.5159102  49.4427413  30.2677735  29.7139312
  49.8577286  31.1732556  28.5738580  57.3778081  22.0439082  38.8983857
  57.8960025  22.7800109  38.5730346  57.0233214  22.3503075  39.7330616
  48.9577019  26.9043763  27.0145263  48.2646264  26.9788118  26.3585299
  48.7128771  26.1404107  27.5366780  57.6290675  18.4639364  34.4184754
  57.9092429  17.7962553  35.0445181  58.4141282  18.6568460  33.9059418
  55.4324144  37.6398358  25.9809780  54.8598111  38.2588545  25.5280252
  56.0056937  38.1897720  26.5149702  61.4999534  26.8856998  38.1656329
  62.4516956  26.9855096  38.1868553  61.3302984  26.0935267  38.6754413
  59.5213913  23.9712582  38.3515730  58.9263845  24.2517594  37.6562219
  59.2363610  24.4606482  39.1232471  58.6521404  37.9235508  27.1118363
  59.5852077  37.8581070  27.3151238  58.5644616  38.7591775  26.6532895
  61.2809420  37.2401379  24.0722310  61.2023052  36.9061242  24.9658068
  62.1019087  37.7323147  24.0713782  63.9787611  30.1063118  37.2798629
  63.9463931  29.1679119  37.4658313  64.5888235  30.1847155  36.5464454
  55.8170942  28.9759171  23.3225833  56.7630047  28.8465379  23.3914251
  55.4385187  28.2373833  23.7995261  64.1282100  26.8974161  37.3256912
  63.6121148  26.1132618  37.1386841  65.0122048  26.5692878  37.4903431
  61.7892827  20.6415177  33.2852725  61.5917648  20.3330265  34.1696057
  62.3992532  21.3676816  33.4150654  69.7964161  31.1679125  36.4204666
  70.5267550  30.9064413  36.9812369  69.1871107  30.4307847  36.4606734
  67.8779458  29.3086987  37.0179117  67.1512622  29.1742952  36.4095608
  67.4626745  29.6163816  37.8235835  55.7009635  33.0276917  44.7826490
  56.6212644  33.2055516  44.9766536  55.6659218  32.0832962  44.6306189
  54.0013859  26.9009147  23.2580718  53.0945315  26.6042260  23.3343432
  54.2789840  26.6038965  22.3915004  44.9191800  28.2215511  33.7079764
  44.5994584  27.3680819  33.4154138  44.3725228  28.4364089  34.4637732
  48.6971707  30.9377952  37.4249271  48.9157717  31.8695060  37.4437305
  49.1097481  30.5785926  38.2104075  55.6175925  21.4446037  29.4124959
  54.8076653  21.0993122  29.7880205  56.3060342  21.1353581  30.0012571
  57.5466473  20.5224084  31.0349256  58.0997512  20.9419537  31.6939279
  57.7836560  19.5959832  31.0772212  53.5699573  26.5111158  46.8152020
  53.4696300  27.4605515  46.7464111  53.3521115  26.1829396  45.9428090
  52.7712644  23.7596083  23.3992697  53.6331808  24.0850981  23.6588515
  52.9562988  22.9727579  22.8865763  44.7880060  31.8418422  35.6772886
  44.0943531  31.4272375  35.1642840  45.5353051  31.8838959  35.0806305
  60.9245280  22.6324609  30.5427920  60.3443950  23.2909413  30.1605973
  60.6581213  21.8101954  30.1315338  59.3748847  22.0329667  32.7449241
  59.8748625  22.1446201  31.9363559  60.0184455  21.7290720  33.3850049
  53.4330843  29.9408296  45.6317081  52.9497924  30.7408657  45.8380971
  53.5191782  29.9516241  44.6784525  46.7016802  31.7736676  33.5538901
  46.6787490  31.8724363  32.6020784  47.0117439  32.6201827  33.8756067
  49.3604180  33.8312831  37.6685515  50.3147434  33.7996773  37.6015447
  49.1616704  33.3703455  38.4835741  49.9503562  32.4013947  40.2356313
  50.7696451  32.8958026  40.2591150  50.2240370  31.4845915  40.2073880
  59.7070158  24.7924699  29.5984268  58.8196014  25.0774350  29.3804463
  60.1224148  24.6318463  28.7511545  63.0584695  24.8171220  33.3138608
  63.8345085  25.3067673  33.5863225  62.3332829  25.2429275  33.7710477
  65.4957253  25.5298840  34.3712548  66.0901744  25.2894576  33.6605857
  65.5683837  24.8105970  34.9986085  47.7154409  39.3732451  34.6855713
  47.5808877  38.6132851  34.1193711  47.2986471  40.0973350  34.2184502
  58.8513372  34.5569374  23.6932288  59.5549222  34.7619377  24.3089944
  58.1276021  35.1246136  23.9581372  59.6811182  30.3079235  29.8134559
  59.6246384  30.7647787  28.9742191  60.2339525  29.5469920  29.6357401
  63.4915988  26.0968967  30.6384678  63.2352922  25.6965603  31.4692886
  62.8668856  26.8112761  30.5134817  67.8028326  28.8365041  33.1455970
  67.2427884  28.9058230  33.9187532  67.1971829  28.6606025  32.4255466
  50.8723535  40.2701768  34.8974156  50.7555919  41.2147200  34.7952846
  50.0515981  39.9675329  35.2859955  60.7600069  34.9951903  25.7430748
  61.5945673  34.5633102  25.5608223  60.5984412  34.8233917  26.6707643
  60.4145962  31.4984017  27.1087088  60.3594765  31.3328288  26.1675532
  59.7892017  32.2060050  27.2649278  45.2038477  26.7352081  40.9348510
  45.8497340  26.2251035  41.4235735  44.9955628  27.4720763  41.5091935
  57.7291869  33.8032929  46.4340651  58.5983028  33.9773581  46.0727285
  57.2498620  34.6227345  46.3116380  53.7242087  20.9992126  26.6872406
  53.7120757  21.9433966  26.8440677  54.6165509  20.8162271  26.3931867
  51.8978049  40.9230030  38.1130084  52.8005296  40.9553640  38.4296579
  51.6715419  39.9930480  38.1276420  53.6531651  39.6761016  34.7740163
  52.7027282  39.6762878  34.6604535  53.9564137  38.9293751  34.2576197
  57.5394206  17.5934902  30.9418343  56.7726602  17.0393389  31.0875025
  57.9504911  17.6656771  31.8032495  49.5435968  23.8819698  45.0323524
  50.4067429  23.5256503  45.2426849  48.9701378  23.5433593  45.7198929
  62.1017468  37.2900415  46.0253496  61.7084414  36.7366613  46.7001140
  62.9183609  37.6010993  46.4160013  60.1626767  43.8914661  41.8951982
  60.0480282  42.9899918  42.1959081  59.3071285  44.1378358  41.5436799
  57.0328443  47.0572927  30.7126636  57.8703665  47.4669936  30.4960344
  57.2106711  46.1172369  30.6826830  64.2882019  37.1882782  34.8653449
  65.1535015  36.9925590  34.5059338  64.3559527  36.9593133  35.7922806
  61.8944338  39.4184990  32.2369816  62.4688089  39.1960171  31.5043009
  62.4815320  39.4873684  32.9898417  64.1967005  36.2926238  30.9644885
  63.5431418  35.9775256  30.3401500  64.1547479  35.6701979  31.6904708
  65.3078210  46.5745534  22.8798177  64.4005272  46.3434787  23.0789326
  65.8049242  45.7783153  23.0672159  70.7630258  33.9932956  32.9955772
  71.0689135  33.1330319  32.7081687  71.4882863  34.5850576  32.7954766
  57.0554614  44.3963643  31.3837370  56.8579014  43.8033003  30.6588436
  56.5001278  44.0915853  32.1013308  59.5500840  43.9227676  29.0678322
  58.6198428  43.8612132  29.2848284  59.6458312  43.4003629  28.2714963
  59.4686389  40.4482489  31.6556563  59.7293206  41.3627823  31.5465724
  60.2903561  39.9806932  31.8053176  62.0952305  41.2936678  23.4563608
  61.2181771  41.1725479  23.0925855  62.5710058  40.5022756  23.2042497
  53.6154445  46.0813838  33.5505115  54.3025485  45.7675568  32.9626130
  53.4602574  46.9855202  33.2772366  53.1922421  44.1614431  35.8222582
  53.2306521  43.6278022  36.6159700  52.6862714  43.6349637  35.2033559
  60.5713183  39.0078972  39.3185124  60.6354510  39.8693803  38.9062522
  60.5080304  38.3952973  38.5857483  60.0465456  41.0802104  42.9658159
  60.6737495  40.6979182  43.5795683  59.1893375  40.8616306  43.3313851
  56.8230999  42.8878533  28.8976514  57.1184440  41.9789212  28.8443567
  55.9219035  42.8666273  28.5757516  63.1551559  38.2988956  41.1544714
  63.6785961  38.5451253  41.9171023  62.9363893  39.1308991  40.7347851
  58.5518840  40.5692631  29.0215839  58.2231547  39.6890010  28.8390945
  58.9058211  40.5140300  29.9092228  66.6683624  36.5742923  33.5548866
  66.6905321  36.6382256  32.6000845  67.0851683  35.7347432  33.7489372
  57.7970839  44.6846325  40.9331504  57.0552575  44.8328961  41.5196135
  57.4763583  44.9454591  40.0698253  59.7970773  42.2335681  27.0145263
  59.1040018  42.3080036  26.3585299  59.5522525  41.4696024  27.5366780
  68.4684430  33.7931282  34.4184754  68.7486183  33.1254471  35.0445181
  69.2535037  33.9860378  33.9059418  66.6564697  44.3051089  23.3225833
  67.6023801  44.1757297  23.3914251  66.2778942  43.5665751  23.7995261
  55.7585554  43.5507428  33.7079764  55.4388339  42.6972737  33.4154138
  55.2118982  43.7656007  34.4637732  66.4569680  36.7737955  29.4124959
  65.6470408  36.4285040  29.7880205  67.1454097  36.4645499  30.0012571
  68.3860228  35.8516002  31.0349256  68.9391266  36.2711455  31.6939279
  68.6230314  34.9251750  31.0772212  63.6106398  39.0888000  23.3992697
  64.4725562  39.4142899  23.6588515  63.7956743  38.3019496  22.8865763
  55.6273814  47.1710340  35.6772886  54.9337286  46.7564293  35.1642840
  56.3746805  47.2130876  35.0806305  57.5410557  47.1028594  33.5538901
  57.5181245  47.2016281  32.6020784  57.8511193  47.9493745  33.8756067
  56.0432231  42.0643999  40.9348510  56.6891095  41.5542953  41.4235735
  55.8349382  42.8012680  41.5091935  64.5635841  36.3284043  26.6872406
  64.5514511  37.2725883  26.8440677  65.4559263  36.1454189  26.3931867
  68.3787961  32.9226820  30.9418343  67.6120357  32.3685307  31.0875025
  68.7898666  32.9948689  31.8032495  60.3829722  39.2111616  45.0323524
  61.2461184  38.8548421  45.2426849  59.8095133  38.8725511  45.7198929
  78.4754180  66.3147344  27.0758806  77.8242159  66.9001425  26.6892820
  79.2698542  66.8453539  27.1353843  79.9529445  64.0037776  27.6127790
  79.3175278  64.0772403  28.3248695  79.6226851  64.5931375  26.9346869
  85.1827795  58.5040159  33.8172112  85.9152967  57.9339376  34.0509941
  84.4267150  58.1161760  34.2578617  74.1805514  71.1818600  30.6433601
  74.1029544  72.1326425  30.7222081  73.5767158  70.8364472  31.3008527
  82.1183688  58.8836431  27.8223804  83.0301544  59.1163818  27.6471501
  81.6093335  59.4673475  27.2598882  91.0645255  61.6687350  33.6884421
  90.3108963  61.0994748  33.5328426  91.1992796  61.6350015  34.6355056
  76.4543883  66.5400753  29.3639141  76.3189558  67.3852288  29.7923988
  76.9953696  66.7420030  28.6005074  79.7686629  60.0539926  26.4010469
  79.2533253  60.8244530  26.6398857  79.4963938  59.3805062  27.0243531
  84.7420904  62.8072280  28.3363643  83.9650346  62.4683440  27.8918805
  85.4212385  62.8124903  27.6618608  76.1471965  61.9037451  22.8798177
  75.2399026  61.6726705  23.0789326  76.6442997  61.1075070  23.0672159
  79.0540044  70.6134958  25.7994863  78.3801742  70.9166655  26.4079821
  79.4405865  71.4164039  25.4500321  77.0236286  63.5458790  24.7410246
  76.5855716  62.8294649  24.2815883  77.7646727  63.7734905  24.1795337
  75.9646030  68.2313483  33.1956606  75.9222209  68.4574330  32.2665138
  76.8808729  67.9976858  33.3442407  85.1409401  61.8215987  30.7986565
  85.0027299  62.0117583  29.8707754  84.7845619  62.5835370  31.2554616
  77.2531259  70.7814631  28.0141943  77.4283014  70.3102674  28.8287565
  76.5664047  71.4080397  28.2423203  81.1447513  62.4043171  24.3342304
  80.5276684  61.6790000  24.2375356  80.6764002  63.1652532  23.9909378
  76.3320206  69.7383116  37.1923307  76.2590377  70.5438088  37.7042611
  75.8897599  69.9375082  36.3671328  76.1209985  68.9754886  30.7026128
  75.3377507  69.5176566  30.7964353  76.8202731  69.4928866  31.1020370
  87.2836393  60.4889881  34.9878625  87.2726269  61.3714597  34.6172558
  86.4153772  60.1361432  34.7933162  83.9008968  59.3838522  31.4548791
  84.3669420  60.2166514  31.3809094  84.3516468  58.9183504  32.1594050
  81.9685199  65.7282343  28.4534943  82.2445043  65.6138938  29.3628817
  81.0989697  65.3299828  28.4147116  76.4342445  71.9895740  38.7163240
  76.9860753  72.1527361  39.4812325  76.7748638  72.5800177  38.0443265
  81.2853319  66.8156997  44.5711894  81.8293223  67.4286955  44.0766849
  80.7040164  67.3736575  45.0878907  87.8861003  61.6390100  31.5928088
  88.3292149  60.8897426  31.1947211  87.0087513  61.6300237  31.2101820
  83.0196784  68.1920442  27.0734687  83.7147689  68.8127135  27.2922001
  83.3619934  67.3415793  27.3487065  84.9188207  65.6420147  28.6022017
  85.4439531  65.9807420  27.8771337  84.8310560  64.7067163  28.4185152
  76.6028868  71.7092131  32.9617271  76.1633858  71.2168509  33.6550127
  77.3536985  71.1665098  32.7209346  84.6082113  66.2753051  43.9073215
  83.8177657  66.2577190  43.3677715  84.3715468  66.8141345  44.6622252
  86.2298185  65.5442459  41.4647965  85.9382994  65.9072440  42.3011426
  85.6170317  64.8309467  41.2861298  87.4293868  63.1095339  33.9850536
  88.2640759  63.5485143  34.1488096  87.5652996  62.6333992  33.1658781
  77.1111653  68.2982194  25.9809780  76.5385620  68.9172381  25.5280252
  77.6844446  68.8481555  26.5149702  80.3308912  68.5819344  27.1118363
  81.2639586  68.5164905  27.3151238  80.2432125  69.4175611  26.6532895
  82.9596929  67.8985214  24.0722310  82.8810561  67.5645078  24.9658068
  83.7806596  68.3906982  24.0713782  77.4958451  59.6343006  23.3225833
  78.4417556  59.5049214  23.3914251  77.1172696  58.8957668  23.7995261
  91.4751670  61.8262960  36.4204666  92.2055059  61.5648248  36.9812369
  90.8658616  61.0891682  36.4606734  89.5566967  59.9670823  37.0179117
  88.8300131  59.8326788  36.4095608  89.1414254  60.2747651  37.8235835
  87.1744762  56.1882675  34.3712548  87.7689253  55.9478411  33.6605857
  87.2471346  55.4689806  34.9986085  80.5300881  65.2153209  23.6932288
  81.2336731  65.4203212  24.3089944  79.8063530  65.7829971  23.9581372
  81.3598691  60.9663071  29.8134559  81.3033893  61.4231622  28.9742191
  81.9127034  60.2053755  29.6357401  85.1703497  56.7552803  30.6384678
  84.9140431  56.3549438  31.4692886  84.5456365  57.4696597  30.5134817
  89.4815835  59.4948876  33.1455970  88.9215393  59.5642065  33.9187532
  88.8759338  59.3189860  32.4255466  82.4387578  65.6535739  25.7430748
  83.2733182  65.2216937  25.5608223  82.2771921  65.4817752  26.6707643
  82.0933471  62.1567852  27.1087088  82.0382274  61.9912123  26.1675532
  81.4679526  62.8643885  27.2649278  79.4079378  64.4616764  46.4340651
  80.2770537  64.6357416  46.0727285  78.9286129  65.2811181  46.3116380
  91.0671853  76.1705390  35.8385925  91.7050263  76.0512137  35.1349265
  90.9492696  77.1186234  35.8973877  87.8761560  76.1232818  35.7747450
  87.5380071  76.0073883  34.8867985  88.7451328  75.7223983  35.7548456
  83.7348375  77.9768294  31.7644341  83.1713241  77.8858231  30.9960629
  83.6200770  77.1568199  32.2446833  88.3581343  77.2767670  41.7333655
  88.3469983  76.8820468  40.8614159  88.5201982  76.5433742  42.3267427
  81.2812807  79.4719486  34.6028561  82.0734099  79.1310311  34.1874861
  81.5209458  79.5814461  35.5230715  89.3147934  81.6439262  27.0758806
  88.6635914  82.2293342  26.6892820  90.1092297  82.1745457  27.1353843
  83.2403561  78.7328399  27.4745940  84.0134437  78.1857386  27.3358816
  83.5928960  79.5972648  27.6860402  85.0788604  80.0604781  40.6812839
  84.7878470  80.9650412  40.5659506  85.7145588  80.1021309  41.3956909
  86.0044811  77.4381630  37.2714199  86.6008383  77.2137652  36.5571162
  86.0619782  76.6966375  37.8739647  85.5769839  74.8921065  25.1064390
  85.8295360  74.3702587  24.3447853  84.6394398  74.7287211  25.2091074
  90.6213122  73.8956844  32.9139133  91.4076211  73.4776267  32.5629550
  90.8851826  74.8002936  33.0820782  90.7923199  79.3329694  27.6127790
  90.1569032  79.4064320  28.3248695  90.4620606  79.9223293  26.9346869
  96.0221549  73.8332077  33.8172112  96.7546721  73.2631294  34.0509941
  95.2660905  73.4453677  34.2578617  85.2966128  76.7949171  27.3088765
  85.1802386  76.1194075  27.9769849  85.4068388  76.3081545  26.4920918
  87.6397669  76.2559318  31.0135454  87.2755876  75.7289939  31.7248376
  88.4964785  75.8657787  30.8401940  93.5446969  67.5453651  38.2766720
  93.2130294  68.4149062  38.0527935  92.9492583  67.2289935  38.9560751
  87.2803156  71.2849218  26.0096803  87.4477558  72.1529454  26.3767274
  87.0900325  71.4476500  25.0858092  90.0378489  79.7466197  37.6762633
  89.7379212  80.6491236  37.5678440  89.6929548  79.4798380  38.5283786
  83.4890970  76.1979994  33.7099338  82.5641467  76.0656208  33.9177029
  83.7375384  76.9774213  34.2069280  93.4375633  72.2648737  35.3560070
  92.5292510  72.1964146  35.0618831  93.3863229  72.7420682  36.1841896
  87.2592377  73.7406876  26.9943470  87.1392002  74.1863926  27.8328950
  86.5644965  74.0892193  26.4357008  80.8499781  75.8413267  34.5443127
  80.9792163  76.0947746  35.4582538  80.1697233  76.4340975  34.2247782
  85.0199269  86.5110517  30.6433601  84.9423298  87.4618342  30.7222081
  84.4160912  86.1656390  31.3008527  87.5116498  73.6838383  43.2994968
  86.7349833  74.2432303  43.2897832  88.1507062  74.1695166  43.8209838
  95.3037279  70.4665176  37.1337944  94.6611659  70.7597709  36.4877739
  94.7992208  70.3518096  37.9391141  92.9577443  74.2128349  27.8223804
  93.8695299  74.4455735  27.6471501  92.4487090  74.7965393  27.2598882
  85.7662871  76.4923836  42.8612935  86.5077555  77.0308880  42.5847758
  85.0599856  77.1190125  43.0184487  91.2418210  78.6352977  41.4585096
  91.6501566  78.1935387  40.7139729  90.5195472  78.0605604  41.7119289
  87.5949280  73.5725583  38.8318653  88.4410476  73.9964997  38.9753302
  87.5347918  72.9159208  39.5257216  91.5647025  79.1954167  35.2137385
  90.9355888  79.3599881  34.5113453  91.1772687  79.6095777  35.9848349
  95.4436257  80.1308605  32.5681749  94.7587295  80.5107506  32.0178782
  95.5280106  80.7403932  33.3013697  90.7448726  71.2329952  40.4899827
  90.5009658  71.9872012  39.9534102  91.0208656  71.6115299  41.3247074
  92.6987189  77.7768564  39.1677092  92.9104084  78.4200324  38.4911473
  92.6516937  76.9430881  38.6999022  90.3013418  70.3886385  36.0713665
  89.4397897  70.6867638  36.3630402  90.3275852  70.6056784  35.1394697
  87.1174987  78.9328575  32.4787470  87.5813333  79.2116278  31.6892093
  86.8531785  78.0312020  32.2960561  84.0099068  78.4800057  35.4167233
  84.5800425  78.9087325  34.7784718  84.6007180  78.1982642  36.1151419
  86.0543873  75.0551728  29.2877035  86.7567916  75.5072771  29.7550962
  85.7224502  74.4135546  29.9156928  84.5024235  73.6463484  43.6628245
  83.8722895  74.3279765  43.8963642  84.3960322  73.5346566  42.7181383
  79.7969207  73.3135280  34.5894169  79.0068261  73.5692809  34.1134280
  80.2880454  74.1283618  34.6946209  93.8133017  80.6540519  37.3399450
  94.6350460  80.2520707  37.0582131  93.8095419  80.5508754  38.2915566
  81.7483952  73.6779860  31.5477646  80.9515116  73.7898554  32.0661141
  81.5209545  74.0166512  30.6818536  87.5789620  80.2024563  39.4960160
  87.6434053  80.6644970  40.3318332  86.8700544  79.5721928  39.6242470
  78.0806910  73.5665771  37.0209160  78.3314948  74.4512781  37.2866736
  78.6166458  73.3870372  36.2484252 101.9039010  76.9979268  33.6884421
 101.1502718  76.4286666  33.5328426 102.0386551  76.9641932  34.6355056
  87.2937638  81.8692670  29.3639141  87.1583312  82.7144206  29.7923988
  87.8347450  82.0711948  28.6005074  83.7804977  67.9484250  46.0253496
  83.3871923  67.3950449  46.7001140  84.5971118  68.2594829  46.4160013
  80.7467035  79.3868108  29.9367066  81.2591556  80.1811359  30.0872630
  81.3989748  78.6894399  29.8700667  82.5561920  82.5033865  32.0189819
  82.7328548  83.4251829  31.8310803  83.3518753  82.1892284  32.4484199
  86.6972938  69.3642129  43.6173752  87.4382652  69.9649282  43.5378215
  86.9290861  68.6219767  43.0591795  81.8414276  74.5498496  41.8951982
  81.7267791  73.6483754  42.1959081  80.9858794  74.7962193  41.5436799
  88.9206114  82.4916237  43.4939483  88.4769968  81.7052615  43.1760387
  89.5823328  82.6795387  42.8283373  83.6793235  84.0212038  38.0200161
  84.2300660  83.8929102  37.2477155  82.8404711  84.3206927  37.6695054
  91.0187352  82.7719037  41.5220884  91.0005827  83.5927918  41.0301153
  91.9407272  82.6473112  41.7471025  87.4760406  80.2863166  42.3644392
  88.0088743  79.5251454  42.1343700  86.9474487  79.9936818  43.1068547
  90.6430101  65.3923232  37.8938034  90.2994371  66.2824874  37.8177145
  91.0109064  65.2024890  37.0307619  78.7115952  77.7156763  30.7126636
  79.5491174  78.1253771  30.4960344  78.8894220  76.7756205  30.6826830
  90.6080384  75.3831843  26.4010469  90.0927007  76.1536448  26.6398857
  90.3357692  74.7096979  27.0243531  88.1927495  70.2281544  31.4595708
  87.3369091  69.8388394  31.2801346  88.6054447  70.3073505  30.5995493
  89.7226642  67.7627887  35.8587267  89.2191437  67.7258022  35.0455073
  90.0157248  68.6720630  35.9183924  85.9669527  67.8466617  34.8653449
  86.8322524  67.6509426  34.5059338  86.0347036  67.6176969  35.7922806
  95.5814658  78.1364198  28.3363643  94.8044101  77.7975357  27.8918805
  96.2606139  78.1416821  27.6618608  90.3966687  73.2558935  28.2270250
  90.0916823  73.5705085  29.0780394  91.3497129  73.3340355  28.2697583
  88.8413119  79.4149159  29.8763204  88.3134481  78.6801918  29.5636442
  88.3400622  80.1923835  29.6303173  93.8205965  77.6098179  34.9930251
  93.1629639  78.2997441  35.0810379  94.6246364  77.9994611  35.3364237
  83.5731847  70.0768825  32.2369816  84.1475598  69.8544006  31.5043009
  84.1602829  70.1457519  32.9898417  92.6311424  75.9642552  33.0434192
  93.1443306  76.5972544  33.5455902  93.2812648  75.3643747  32.6777552
  83.9001434  72.1073286  26.2565701  83.0638746  72.4447973  26.5774976
  83.7606203  71.9722266  25.3192838  85.8754514  66.9510074  30.9644885
  85.2218927  66.6359091  30.3401500  85.8334988  66.3285814  31.6904708
  86.9865719  77.2329369  22.8798177  86.0792781  77.0018622  23.0789326
  87.4836751  76.4366988  23.0672159  89.8933798  85.9426876  25.7994863
  89.2195497  86.2458573  26.4079821  90.2799620  86.7455956  25.4500321
  89.1092255  73.4392007  35.2892533  88.1914816  73.6606954  35.1314221
  89.5252398  73.5138318  34.4304240  89.8927302  74.8383423  30.4195213
  90.6399121  75.3504820  30.1102335  90.1618892  74.5167476  31.2799607
  88.1653953  77.3341964  27.4022167  87.2565172  77.0500997  27.4994637
  88.1949036  77.7541042  26.5425474  93.3973220  80.9448553  31.1713335
  92.9435547  80.1039463  31.2278525  92.7667187  81.5809952  31.5088115
  92.3406140  71.8740539  32.4014002  91.6028896  71.3617926  32.7324245
  92.5932913  71.4340921  31.5897279  91.8406159  82.7825050  32.1063153
  92.1329134  83.3430107  31.3875519  92.3504780  83.0753611  32.8616312
  92.4417767  64.6516791  32.9955772  92.7476644  63.7914155  32.7081687
  93.1670372  65.2434412  32.7954766  78.7342123  75.0547478  31.3837370
  78.5366523  74.4616839  30.6588436  78.1788787  74.7499688  32.1013308
  86.7138847  74.9470584  33.5031963  86.7687456  73.9944421  33.4274439
  85.9030049  75.1030023  33.9873261  87.8630040  78.8750707  24.7410246
  87.4249470  78.1586566  24.2815883  88.6040481  79.1026822  24.1795337
  84.6531207  73.5647644  31.2622342  83.8399072  73.8641815  31.6687534
  85.1490201  73.1703333  31.9796824  86.8039784  83.5605401  33.1956606
  86.7615963  83.7866247  32.2665138  87.7202483  83.3268776  33.3442407
  90.2505418  74.0289469  40.0937236  90.6054806  74.2560942  40.9531701
  90.8977549  74.3607845  39.4714491  95.9803155  77.1507904  30.7986565
  95.8421054  77.3409500  29.8707754  95.6239374  77.9127287  31.2554616
  84.1445281  71.1366000  36.8783577  84.7844661  70.9954759  36.1806540
  83.3122812  70.8500513  36.5022179  96.0072535  79.2184431  35.8097836
  96.4409041  79.1259721  36.6580890  96.7204115  79.1941932  35.1717852
  84.9205585  80.4368430  32.9918569  85.7146184  79.9418750  32.7901144
  84.2097278  79.9086293  32.6286275  89.7400430  82.8186526  37.3430937
  89.7937452  83.3877462  38.1108653  88.8715211  82.9888411  36.9784974
  81.2288349  74.5811512  29.0678322  80.2985937  74.5195967  29.2848284
  81.3245821  74.0587465  28.2714963  82.6198823  72.5204082  38.8255388
  83.2921876  72.3121444  38.1768037  81.7928610  72.3226168  38.3860620
  96.8688084  79.2608132  38.3430721  97.0623974  80.1653943  38.5889996
  96.7688702  78.8015551  39.1769306  88.5224395  69.1466023  40.8421049
  87.8752310  69.8455972  40.7485525  89.2925410  69.5802167  41.2097297
  91.9303193  79.4114875  43.9171602  91.7788699  79.1825427  43.0001686
  91.9207872  80.3685476  43.9302947  88.6988529  76.9846788  38.9017869
  89.6280589  77.1357947  38.7286836  88.2779559  77.0730808  38.0466515
  87.4976861  81.0097452  36.6716406  87.3587947  80.6416236  37.5442344
  86.7091457  81.5245091  36.5000364  88.0925013  86.1106549  28.0141943
  88.2676769  85.6394592  28.8287565  87.4057801  86.7372315  28.2423203
  89.0482076  80.3879055  34.0605244  88.7131909  80.3479825  34.9562894
  88.5486022  79.7223771  33.5875654  83.0226320  75.7946685  39.5857825
  82.8846118  75.0626924  40.1869364  83.9331244  75.7055585  39.3042013
  91.9841268  77.7335089  24.3342304  91.3670439  77.0081917  24.2375356
  91.5157756  78.4944449  23.9909378  85.6508621  75.5066644  39.0741505
  86.3608239  74.8659836  39.0328123  85.6077929  75.7579539  39.9967686
  93.6395400  82.4433997  41.9948084  93.5807946  81.7593218  41.3278667
  94.0414918  83.1852987  41.5428710  84.3637555  72.4931862  40.8937144
  83.8274912  72.0422600  41.5458741  83.7754263  72.6277771  40.1507609
  82.6586098  89.2595911  34.7881803  82.8982697  89.8914435  35.4660821
  81.8155295  88.9083951  35.0747162  83.7739814  71.9520513  23.4563608
  82.8969280  71.8309314  23.0925855  84.2497567  71.1606592  23.2042497
  93.6412807  80.4073581  40.2262064  92.7539586  80.0699503  40.3488462
  94.2111358  79.6756613  40.4630829  87.1713960  85.0675034  37.1923307
  87.0984132  85.8730005  37.7042611  86.7291353  85.2667000  36.3671328
  86.9603740  84.3046804  30.7026128  86.1771262  84.8468484  30.7964353
  87.6596485  84.8220783  31.1020370  90.2700390  70.1141433  33.3460334
  90.7669090  69.3611396  33.0261404  89.4987372  70.1505750  32.7803543
  98.1230147  75.8181799  34.9878625  98.1120024  76.7006514  34.6172558
  97.2547527  75.4653350  34.7933162  89.6312644  84.9661868  39.3481465
  90.3440616  85.6009333  39.2757367  89.1402672  85.0625734  38.5321467
  91.3530171  78.8713120  30.9198757  90.4186449  78.9914583  30.7503461
  91.5306839  77.9685587  30.6558767  86.8535359  72.2558816  33.0732018
  86.4833146  71.7029857  33.7612924  87.3494451  71.6516950  32.5207018
  94.7402722  74.7130440  31.4548791  95.2063174  75.5458431  31.3809094
  95.1910223  74.2475421  32.1594050  84.6824557  82.7156311  40.1687036
  85.3834017  83.3492794  40.3216431  84.2119672  83.0571043  39.4082676
  92.8078953  81.0574261  28.4534943  93.0838797  80.9430856  29.3628817
  91.9383452  80.6591746  28.4147116  92.7119385  67.0811027  35.4939693
  91.7982465  67.3115254  35.6621900  93.1412486  67.1649471  36.3453725
  92.4825843  75.2700919  37.9939587  91.8297294  75.5176826  37.3392039
  92.8606223  74.4565057  37.6602064  89.4433017  85.3060612  32.0967757
  89.6255412  84.4882268  32.5595509  90.2666003  85.5228304  31.6592647
  89.7775183  84.2328797  29.3582805  90.3062949  83.7221252  28.7452968
  90.0403402  83.9171327  30.2228338  88.5313416  76.0120730  44.4805624
  87.8554053  75.9114859  45.1507999  89.3541050  75.8559943  44.9441621
  80.2792275  82.2492666  37.1018139  80.8645712  81.5036354  37.2346043
  80.0817114  82.5596623  37.9854803  83.1330931  85.2843914  32.1180581
  82.4641306  85.7690041  31.6344621  82.9943800  85.5313134  33.0323960
  87.2736199  87.3187657  38.7163240  87.8254507  87.4819279  39.4812325
  87.6142393  87.9092095  38.0443265  81.7252965  71.7385940  42.9658159
  82.3525004  71.3563017  43.5795683  80.8680884  71.5200141  43.3313851
  92.1247074  82.1448915  44.5711894  92.6686978  82.7578873  44.0766849
  91.5433918  82.7028493  45.0878907  78.5018508  73.5462369  28.8976514
  78.7971949  72.6373047  28.8443567  77.6006544  73.5250108  28.5757516
  90.4104587  85.2669633  35.7026922  90.2855726  84.4659373  35.1937867
  91.0683678  85.7615826  35.2140892  82.0312755  71.6218365  34.8804062
  81.3099340  72.2354333  34.7411535  82.8206011  72.1576130  34.8020708
  92.4739495  83.0678653  37.3306472  91.5269830  82.9484004  37.2584799
  92.8222268  82.1801151  37.4132733  84.8339068  68.9572792  41.1544714
  85.3573470  69.2035088  41.9171023  84.6151402  69.7892827  40.7347851
  80.2306349  71.2276466  29.0215839  79.9019055  70.3473845  28.8390945
  80.5845720  71.1724135  29.9092228  89.4785928  82.8631369  33.5310824
  89.3310891  81.9348076  33.7118394  90.3039422  82.8851460  33.0467899
  83.3448172  71.5149436  29.3891316  83.6844245  72.0435357  28.6669925
  83.7920293  71.8529842  30.1649883  93.0820050  83.6859928  34.6175697
  94.0066598  83.4802789  34.4800148  92.9135353  83.4376329  35.5265038
  86.0391613  69.8986487  38.8394384  85.6988434  69.0994300  39.2415064
  85.3330620  70.1988198  38.2671218  86.6908085  66.9835799  37.2921707
  87.5134154  66.5096277  37.1700598  86.9346149  67.7626283  37.7920394
  85.3316320  70.0124058  27.5884609  86.0524682  70.3905310  27.0848326
  84.7081624  70.7312935  27.6919587  89.4747443  70.7169207  28.5242941
  89.6911057  71.5993845  28.2231770  88.9941510  70.3255420  27.7948583
  84.2146664  73.6754920  35.1013686  84.0691245  73.9895223  35.9937968
  83.7371868  74.2939820  34.5484585  86.0743047  70.6657468  35.1494576
  86.0604616  69.7698561  34.8126874  86.7915475  70.6728132  35.7832862
  87.9269177  71.0994808  37.1947703  87.6686955  72.0211879  37.1932033
  87.3954218  70.7025243  37.8848167  92.8715366  84.2045595  29.9737788
  93.0452244  83.6392018  29.2211641  93.3644257  85.0046490  29.7917278
  78.6892326  76.2160264  38.0401347  78.1445794  76.9920072  38.1721622
  79.5671676  76.5631069  37.8820469  85.4779943  69.5471848  30.4182146
  85.5995854  68.6188494  30.6173033  85.1881985  69.5610534  29.5060461
  88.3471133  67.2326759  33.5548866  88.3692830  67.2966092  32.6000845
  88.7639192  66.3931267  33.7489372  98.7254757  76.9682018  31.5928088
  99.1685903  76.2189343  31.1947211  97.8481268  76.9592155  31.2101820
  93.8590539  83.5212360  27.0734687  94.5541443  84.1419052  27.2922001
  94.2013689  82.6707711  27.3487065  79.4758348  75.3430161  40.9331504
  78.7340084  75.4912796  41.5196135  79.1551092  75.6038426  40.0698253
  95.7581962  80.9712065  28.6022017  96.2833286  81.3099338  27.8771337
  95.6704314  80.0359080  28.4185152  87.4202011  84.8846139  40.7311894
  87.7289137  84.6395286  41.6034594  88.2177493  85.0892777  40.2430764
  87.4422623  87.0384048  32.9617271  87.0027613  86.5460427  33.6550127
  88.1930740  86.4957016  32.7209346  79.9214962  83.2295589  32.9641899
  80.7472981  82.9299361  32.5840542  79.5709014  82.4603212  33.4131687
  84.8896495  82.5822058  35.0339572  84.2676504  81.9192763  34.7341800
  85.5601362  82.6083189  34.3513220  78.1223567  81.1481916  33.9230832
  77.2855475  80.7204090  33.7414834  78.0947212  81.3414359  34.8601624
  84.9621022  71.0603846  44.6272078  85.0109178  71.9365968  44.2449848
  85.5043536  70.5181239  44.0543722  95.4475868  81.6044969  43.9073215
  94.6571412  81.5869108  43.3677715  95.2109222  82.1433262  44.6622252
  95.5673743  78.4537435  41.2205944  95.6171748  78.2887443  42.1621467
  95.4587666  77.5864694  40.8303825  84.4510002  81.1325981  28.5098033
  84.5998122  81.8161445  27.8564706  85.2576445  81.1131071  29.0247489
  92.8577505  74.4368363  42.5365251  93.7587368  74.2974828  42.2449248
  92.9325480  74.6022818  43.4763428  87.1920311  71.8135218  41.3818437
  86.3223620  72.1068784  41.1101026  87.4279791  72.3975663  42.1025701
  97.0691940  80.8734377  41.4647965  96.7776748  81.2364357  42.3011426
  96.4564071  80.1601385  41.2861298  98.2687622  78.4387256  33.9850536
  99.1034513  78.8777061  34.1488096  98.4046751  77.9625910  33.1658781
  95.3179128  75.9966991  39.9328023  95.7933250  76.1894638  39.1246875
  94.3944693  76.0526177  39.6871407  82.2062635  77.1591158  29.5159102
  81.9608677  76.2553488  29.7139312  82.3758549  77.1608309  28.5738580
  89.8959345  68.0314835  38.8983857  90.4141288  68.7675862  38.5730346
  89.5414477  68.3378828  39.7330616  81.4758282  72.8919516  27.0145263
  80.7827527  72.9663871  26.3585299  81.2310034  72.1279860  27.5366780
  90.1471939  64.4515117  34.4184754  90.4273692  63.7838306  35.0445181
  90.9322546  64.6444213  33.9059418  87.9505407  83.6274111  25.9809780
  87.3779374  84.2464298  25.5280252  88.5238201  84.1773473  26.5149702
  94.0180797  72.8732751  38.1656329  94.9698220  72.9730849  38.1868553
  93.8484247  72.0811020  38.6754413  92.0395177  69.9588335  38.3515730
  91.4445109  70.2393347  37.6562219  91.7544873  70.4482236  39.1232471
  91.1702667  83.9111261  27.1118363  92.1033340  83.8456823  27.3151238
  91.0825880  84.7467528  26.6532895  93.7990684  83.2277132  24.0722310
  93.7204315  82.8936995  24.9658068  94.6200350  83.7198900  24.0713782
  96.4968875  76.0938871  37.2798629  96.4645195  75.1554872  37.4658313
  97.1069498  76.1722908  36.5464454  88.3352206  74.9634924  23.3225833
  89.2811310  74.8341132  23.3914251  87.9566451  74.2249586  23.7995261
  96.6463363  72.8849914  37.3256912  96.1302412  72.1008371  37.1386841
  97.5303312  72.5568631  37.4903431  94.3074090  66.6290930  33.2852725
  94.1098911  66.3206018  34.1696057  94.9173796  67.3552569  33.4150654
 102.3145425  77.1554878  36.4204666 103.0448813  76.8940166  36.9812369
 101.7052370  76.4183600  36.4606734 100.3960722  75.2962740  37.0179117
  99.6693885  75.1618705  36.4095608  99.9808009  75.6039569  37.8235835
  88.2190898  79.0152670  44.7826490  89.1393908  79.1931269  44.9766536
  88.1840481  78.0708716  44.6306189  86.5195123  72.8884900  23.2580718
  85.6126578  72.5918013  23.3343432  86.7971104  72.5914719  22.3915004
  81.2152971  76.9253705  37.4249271  81.4338981  77.8570813  37.4437305
  81.6278745  76.5661679  38.2104075  88.1357189  67.4321790  29.4124959
  87.3257917  67.0868875  29.7880205  88.8241605  67.1229334  30.0012571
  90.0647737  66.5099837  31.0349256  90.6178775  66.9295290  31.6939279
  90.3017823  65.5835585  31.0772212  86.0880836  72.4986911  46.8152020
  85.9877563  73.4481268  46.7464111  85.8702378  72.1705149  45.9428090
  85.2893907  69.7471836  23.3992697  86.1513071  70.0726734  23.6588515
  85.4744252  68.9603332  22.8865763  93.4426544  68.6200362  30.5427920
  92.8625213  69.2785166  30.1605973  93.1762477  67.7977707  30.1315338
  91.8930110  68.0205420  32.7449241  92.3929889  68.1321954  31.9363559
  92.5365718  67.7166473  33.3850049  85.9512106  75.9284049  45.6317081
  85.4679188  76.7284410  45.8380971  86.0373045  75.9391994  44.6784525
  79.2198066  77.7612429  33.5538901  79.1968754  77.8600116  32.6020784
  79.5298702  78.6077580  33.8756067  81.8785444  79.8188584  37.6685515
  82.8328697  79.7872526  37.6015447  81.6797967  79.3579208  38.4835741
  82.4684826  78.3889700  40.2356313  83.2877715  78.8833779  40.2591150
  82.7421633  77.4721668  40.2073880  92.2251422  70.7800452  29.5984268
  91.3377277  71.0650103  29.3804463  92.6405411  70.6194216  28.7511545
  95.5765958  70.8046973  33.3138608  96.3526348  71.2943426  33.5863225
  94.8514092  71.2305028  33.7710477  98.0138517  71.5174593  34.3712548
  98.6083008  71.2770329  33.6605857  98.0865100  70.7981723  34.9986085
  80.2335672  85.3608204  34.6855713  80.0990140  84.6008605  34.1193711
  79.8167735  86.0849103  34.2184502  91.3694635  80.5445127  23.6932288
  92.0730486  80.7495130  24.3089944  90.6457284  81.1121889  23.9581372
  92.1992446  76.2954988  29.8134559  92.1427647  76.7523540  28.9742191
  92.7520788  75.5345673  29.6357401  96.0097252  72.0844720  30.6384678
  95.7534186  71.6841356  31.4692886  95.3850120  72.7988514  30.5134817
 100.3209589  74.8240794  33.1455970  99.7609147  74.8933983  33.9187532
  99.7153093  74.6481778  32.4255466  83.3904798  86.2577521  34.8974156
  83.2737182  87.2022953  34.7952846  82.5697245  85.9551082  35.2859955
  93.2781333  80.9827656  25.7430748  94.1126937  80.5508855  25.5608223
  93.1165676  80.8109670  26.6707643  92.9327225  77.4859770  27.1087088
  92.8776029  77.3204041  26.1675532  92.3073280  78.1935803  27.2649278
  77.7219740  72.7227834  40.9348510  78.3678604  72.2126788  41.4235735
  77.5136891  73.4596516  41.5091935  90.2473132  79.7908682  46.4340651
  91.1164292  79.9649334  46.0727285  89.7679884  80.6103098  46.3116380
  86.2423350  66.9867879  26.6872406  86.2302020  67.9309719  26.8440677
  87.1346772  66.8038024  26.3931867  84.4159312  86.9105783  38.1130084
  85.3186559  86.9429393  38.4296579  84.1896682  85.9806233  38.1276420
  86.1712914  85.6636769  34.7740163  85.2208545  85.6638631  34.6604535
  86.4745401  84.9169504  34.2576197  90.0575470  63.5810655  30.9418343
  89.2907866  63.0269142  31.0875025  90.4686175  63.6532524  31.8032495
  82.0617231  69.8695451  45.0323524  82.9248693  69.5132256  45.2426849
  81.4882642  69.5309346  45.7198929 101.9065608  91.4997307  35.8385925
 102.5444018  91.3804055  35.1349265 101.7886451  92.4478151  35.8973877
  98.7155314  91.4524736  35.7747450  98.3773826  91.3365800  34.8867985
  99.5845082  91.0515901  35.7548456  94.5742130  93.3060212  31.7644341
  94.0106995  93.2150149  30.9960629  94.4594525  92.4860116  32.2446833
  99.1975097  92.6059587  41.7333655  99.1863738  92.2112386  40.8614159
  99.3595737  91.8725660  42.3267427  92.1206562  94.8011404  34.6028561
  92.9127854  94.4602228  34.1874861  92.3603212  94.9106379  35.5230715
 100.1541689  96.9731180  27.0758806  99.5029668  97.5585260  26.6892820
 100.9486051  97.5037375  27.1353843  94.0797316  94.0620317  27.4745940
  94.8528192  93.5149304  27.3358816  94.4322715  94.9264566  27.6860402
  95.9182358  95.3896699  40.6812839  95.6272224  96.2942330  40.5659506
  96.5539343  95.4313227  41.3956909  96.8438565  92.7673548  37.2714199
  97.4402137  92.5429570  36.5571162  96.9013537  92.0258293  37.8739647
  96.4163594  90.2212983  25.1064390  96.6689114  89.6994504  24.3447853
  95.4788153  90.0579128  25.2091074 101.4606876  89.2248761  32.9139133
 102.2469966  88.8068184  32.5629550 101.7245581  90.1294854  33.0820782
 101.6316954  94.6621612  27.6127790 100.9962787  94.7356238  28.3248695
 101.3014360  95.2515210  26.9346869 106.8615304  89.1623995  33.8172112
 107.5940475  88.5923211  34.0509941 106.1054659  88.7745595  34.2578617
  96.1359882  92.1241089  27.3088765  96.0196140  91.4485992  27.9769849
  96.2462142  91.6373463  26.4920918  98.4791423  91.5851236  31.0135454
  98.1149630  91.0581857  31.7248376  99.3358539  91.1949705  30.8401940
 104.3840724  82.8745569  38.2766720 104.0524049  83.7440980  38.0527935
 103.7886337  82.5581853  38.9560751  98.1196910  86.6141136  26.0096803
  98.2871313  87.4821372  26.3767274  97.9294079  86.7768417  25.0858092
 100.8772243  95.0758115  37.6762633 100.5772967  95.9783153  37.5678440
 100.5323303  94.8090298  38.5283786  94.3284725  91.5271911  33.7099338
  93.4035221  91.3948126  33.9177029  94.5769138  92.3066131  34.2069280
 104.2769387  87.5940655  35.3560070 103.3686265  87.5256063  35.0618831
 104.2256983  88.0712600  36.1841896  98.0986131  89.0698793  26.9943470
  97.9785756  89.5155844  27.8328950  97.4038719  89.4184111  26.4357008
  91.6893536  91.1705185  34.5443127  91.8185917  91.4239664  35.4582538
  91.0090987  91.7632893  34.2247782  95.8593023 101.8402435  30.6433601
  95.7817053 102.7910260  30.7222081  95.2554667 101.4948307  31.3008527
  98.3510253  89.0130300  43.2994968  97.5743587  89.5724221  43.2897832
  98.9900816  89.4987083  43.8209838 106.1431034  85.7957093  37.1337944
 105.5005414  86.0889626  36.4877739 105.6385962  85.6810014  37.9391141
 103.7971197  89.5420266  27.8223804 104.7089053  89.7747653  27.6471501
 103.2880844  90.1257311  27.2598882  96.6056625  91.8215754  42.8612935
  97.3471310  92.3600798  42.5847758  95.8993611  92.4482043  43.0184487
 102.0811965  93.9644894  41.4585096 102.4895321  93.5227305  40.7139729
 101.3589226  93.3897522  41.7119289  98.4343035  88.9017501  38.8318653
  99.2804230  89.3256915  38.9753302  98.3741673  88.2451125  39.5257216
 102.4040780  94.5246085  35.2137385 101.7749642  94.6891799  34.5113453
 102.0166442  94.9387694  35.9848349 106.2830011  95.4600523  32.5681749
 105.5981050  95.8399424  32.0178782 106.3673861  96.0695849  33.3013697
 101.5842480  86.5621869  40.4899827 101.3403412  87.3163930  39.9534102
 101.8602411  86.9407217  41.3247074 103.5380943  93.1060482  39.1677092
 103.7497838  93.7492242  38.4911473 103.4910691  92.2722798  38.6999022
 101.1407172  85.7178302  36.0713665 100.2791651  86.0159556  36.3630402
 101.1669607  85.9348701  35.1394697  97.9568741  94.2620493  32.4787470
  98.4207087  94.5408196  31.6892093  97.6925540  93.3603938  32.2960561
  94.8492823  93.8091974  35.4167233  95.4194180  94.2379243  34.7784718
  95.4400934  93.5274559  36.1151419  96.8937628  90.3843645  29.2877035
  97.5961671  90.8364689  29.7550962  96.5618256  89.7427464  29.9156928
  95.3417989  88.9755402  43.6628245  94.7116650  89.6571683  43.8963642
  95.2354077  88.8638484  42.7181383  90.6362961  88.6427198  34.5894169
  89.8462015  88.8984727  34.1134280  91.1274209  89.4575536  34.6946209
 104.6526771  95.9832437  37.3399450 105.4744215  95.5812624  37.0582131
 104.6489174  95.8800671  38.2915566  92.5877707  89.0071777  31.5477646
  91.7908870  89.1190471  32.0661141  92.3603299  89.3458429  30.6818536
  98.4183374  95.5316480  39.4960160  98.4827807  95.9936888  40.3318332
  97.7094298  94.9013845  39.6242470  88.9200664  88.8957688  37.0209160
  89.1708703  89.7804698  37.2866736  89.4560213  88.7162290  36.2484252
 112.7432764  92.3271186  33.6884421 111.9896472  91.7578584  33.5328426
 112.8780305  92.2933850  34.6355056  98.1331392  97.1984588  29.3639141
  97.9977067  98.0436124  29.7923988  98.6741205  97.4003866  28.6005074
  94.6198732  83.2776168  46.0253496  94.2265677  82.7242366  46.7001140
  95.4364872  83.5886746  46.4160013  91.5860790  94.7160026  29.9367066
  92.0985310  95.5103276  30.0872630  92.2383502  94.0186316  29.8700667
  93.3955674  97.8325782  32.0189819  93.5722303  98.7543747  31.8310803
  94.1912508  97.5184201  32.4484199  97.5366693  84.6934047  43.6173752
  98.2776406  85.2941200  43.5378215  97.7684616  83.9511685  43.0591795
  92.6808031  89.8790414  41.8951982  92.5661546  88.9775671  42.1959081
  91.8252549  90.1254111  41.5436799  99.7599869  97.8208154  43.4939483
  99.3163723  97.0344533  43.1760387 100.4217082  98.0087305  42.8283373
  94.5186990  99.3503956  38.0200161  95.0694415  99.2221019  37.2477155
  93.6798466  99.6498845  37.6695054 101.8581107  98.1010954  41.5220884
 101.8399582  98.9219835  41.0301153 102.7801027  97.9765030  41.7471025
  98.3154161  95.6155084  42.3644392  98.8482498  94.8543372  42.1343700
  97.7868242  95.3228736  43.1068547 101.4823856  80.7215150  37.8938034
 101.1388125  81.6116791  37.8177145 101.8502818  80.5316807  37.0307619
  89.5509706  93.0448680  30.7126636  90.3884928  93.4545689  30.4960344
  89.7287974  92.1048122  30.6826830 101.4474138  90.7123761  26.4010469
 100.9320762  91.4828366  26.6398857 101.1751447  90.0388897  27.0243531
  99.0321249  85.5573462  31.4595708  98.1762846  85.1680312  31.2801346
  99.4448201  85.6365422  30.5995493 100.5620396  83.0919805  35.8587267
 100.0585192  83.0549940  35.0455073 100.8551003  84.0012548  35.9183924
  96.8063282  83.1758535  34.8653449  97.6716279  82.9801343  34.5059338
  96.8740791  82.9468886  35.7922806 106.4208413  93.4656116  28.3363643
 105.6437855  93.1267275  27.8918805 107.0999894  93.4708739  27.6618608
 101.2360442  88.5850853  28.2270250 100.9310577  88.8997002  29.0780394
 102.1890884  88.6632273  28.2697583  99.6806873  94.7441076  29.8763204
  99.1528235  94.0093836  29.5636442  99.1794376  95.5215753  29.6303173
 104.6599719  92.9390097  34.9930251 104.0023394  93.6289358  35.0810379
 105.4640119  93.3286529  35.3364237  94.4125601  85.4060743  32.2369816
  94.9869353  85.1835924  31.5043009  94.9996583  85.4749437  32.9898417
 103.4705178  91.2934470  33.0434192 103.9837060  91.9264461  33.5455902
 104.1206402  90.6935665  32.6777552  94.7395188  87.4365204  26.2565701
  93.9032500  87.7739890  26.5774976  94.5999958  87.3014183  25.3192838
  96.7148269  82.2801992  30.9644885  96.0612681  81.9651009  30.3401500
  96.6728743  81.6577732  31.6904708  97.8259474  92.5621287  22.8798177
  96.9186535  92.3310540  23.0789326  98.3230506  91.7658906  23.0672159
  99.9486009  88.7683925  35.2892533  99.0308570  88.9898872  35.1314221
 100.3646153  88.8430236  34.4304240 100.7321057  90.1675341  30.4195213
 101.4792876  90.6796738  30.1102335 101.0012646  89.8459393  31.2799607
  99.0047707  92.6633881  27.4022167  98.0958926  92.3792914  27.4994637
  99.0342791  93.0832960  26.5425474 104.2366974  96.2740471  31.1713335
 103.7829302  95.4331381  31.2278525 103.6060941  96.9101869  31.5088115
 103.1799894  87.2032457  32.4014002 102.4422651  86.6909843  32.7324245
 103.4326668  86.7632839  31.5897279 102.6799914  98.1116968  32.1063153
 102.9722888  98.6722025  31.3875519 103.1898534  98.4045529  32.8616312
 103.2811521  79.9808709  32.9955772 103.5870398  79.1206072  32.7081687
 104.0064126  80.5726329  32.7954766  89.5735877  90.3839396  31.3837370
  89.3760277  89.7908756  30.6588436  89.0182541  90.0791606  32.1013308
  97.5532601  90.2762502  33.5031963  97.6081211  89.3236338  33.4274439
  96.7423803  90.4321941  33.9873261  98.7023795  94.2042625  24.7410246
  98.2643225  93.4878484  24.2815883  99.4434236  94.4318740  24.1795337
  95.4924961  88.8939562  31.2622342  94.6792827  89.1933732  31.6687534
  95.9883955  88.4995251  31.9796824  97.6433539  98.8897319  33.1956606
  97.6009718  99.1158165  32.2665138  98.5596238  98.6560693  33.3442407
 101.0899173  89.3581386  40.0937236 101.4448560  89.5852859  40.9531701
 101.7371304  89.6899763  39.4714491 106.8196910  92.4799822  30.7986565
 106.6814808  92.6701418  29.8707754 106.4633128  93.2419205  31.2554616
  94.9839036  86.4657917  36.8783577  95.6238415  86.3246676  36.1806540
  94.1516566  86.1792431  36.5022179 106.8466289  94.5476349  35.8097836
 107.2802796  94.4551638  36.6580890 107.5597870  94.5233850  35.1717852
  95.7599340  95.7660348  32.9918569  96.5539938  95.2710668  32.7901144
  95.0491032  95.2378211  32.6286275 100.5794184  98.1478443  37.3430937
 100.6331206  98.7169380  38.1108653  99.7108966  98.3180328  36.9784974
  92.0682103  89.9103429  29.0678322  91.1379691  89.8487885  29.2848284
  92.1639575  89.3879382  28.2714963  91.9867652  86.4358242  31.6556563
  92.2474470  87.3503576  31.5465724  92.8084825  85.9682685  31.8053176
  93.4592578  87.8495999  38.8255388  94.1315631  87.6413362  38.1768037
  92.6322364  87.6518085  38.3860620 107.7081839  94.5900050  38.3430721
 107.9017729  95.4945860  38.5889996 107.6082457  94.1307469  39.1769306
  99.3618150  84.4757940  40.8421049  98.7146065  85.1747890  40.7485525
 100.1319165  84.9094084  41.2097297 102.7696947  94.7406793  43.9171602
 102.6182454  94.5117344  43.0001686 102.7601627  95.6977394  43.9302947
  99.5382284  92.3138705  38.9017869 100.4674344  92.4649865  38.7286836
  99.1173314  92.4022726  38.0466515  98.3370616  96.3389370  36.6716406
  98.1981701  95.9708154  37.5442344  97.5485212  96.8537009  36.5000364
  98.9318768 101.4398466  28.0141943  99.1070523 100.9686509  28.8287565
  98.2451556 102.0664232  28.2423203  99.8875831  95.7170972  34.0605244
  99.5525663  95.6771742  34.9562894  99.3879777  95.0515688  33.5875654
  93.8620075  91.1238602  39.5857825  93.7239873  90.3918841  40.1869364
  94.7724998  91.0347503  39.3042013 102.8235022  93.0627007  24.3342304
 102.2064193  92.3373835  24.2375356 102.3551511  93.8236367  23.9909378
  96.4902375  90.8358562  39.0741505  97.2001994  90.1951754  39.0328123
  96.4471684  91.0871457  39.9967686 104.4789154  97.7725915  41.9948084
 104.4201700  97.0885135  41.3278667 104.8808673  98.5144905  41.5428710
  95.2031309  87.8223780  40.8937144  94.6668666  87.3714518  41.5458741
  94.6148018  87.9569689  40.1507609  93.4979853 104.5887829  34.7881803
  93.7376451 105.2206353  35.4660821  92.6549049 104.2375869  35.0747162
  94.6133568  87.2812431  23.4563608  93.7363035  87.1601232  23.0925855
  95.0891321  86.4898509  23.2042497 104.4806561  95.7365499  40.2262064
 103.5933340  95.3991421  40.3488462 105.0505112  95.0048530  40.4630829
  86.1335709  92.0689591  33.5505115  86.8206748  91.7551321  32.9626130
  85.9783837  92.9730955  33.2772366  90.9370431  86.9579787  37.9790139
  90.8528619  86.3505457  37.2440549  90.1153137  87.4488806  37.9799635
  98.0107715 100.3966951  37.1923307  97.9377886 101.2021923  37.7042611
  97.5685108 100.5958917  36.3671328  97.7997494  99.6338721  30.7026128
  97.0165016 100.1760402  30.7964353  98.4990240 100.1512701  31.1020370
 101.1094145  85.4433351  33.3460334 101.6062844  84.6903313  33.0261404
 100.3381126  85.4797668  32.7803543 108.9623902  91.1473716  34.9878625
 108.9513778  92.0298432  34.6172558 108.0941281  90.7945267  34.7933162
 100.4706398 100.2953785  39.3481465 101.1834371 100.9301250  39.2757367
  99.9796427 100.3917651  38.5321467 102.1923925  94.2005038  30.9198757
 101.2580204  94.3206501  30.7503461 102.3700594  93.2977505  30.6558767
  97.6929113  87.5850734  33.0732018  97.3226901  87.0321774  33.7612924
  98.1888206  86.9808867  32.5207018 105.5796477  90.0422357  31.4548791
 106.0456929  90.8750349  31.3809094 106.0303977  89.5767339  32.1594050
  95.5218312  98.0448229  40.1687036  96.2227771  98.6784712  40.3216431
  95.0513427  98.3862960  39.4082676 103.6472708  96.3866179  28.4534943
 103.9232552  96.2722773  29.3628817 102.7777206  95.9883664  28.4147116
 103.5513139  82.4102944  35.4939693 102.6376219  82.6407171  35.6621900
 103.9806241  82.4941388  36.3453725 103.3219598  90.5992836  37.9939587
 102.6691048  90.8468744  37.3392039 103.6999978  89.7856975  37.6602064
 100.2826772 100.6352530  32.0967757 100.4649166  99.8174185  32.5595509
 101.1059758 100.8520222  31.6592647 100.6168937  99.5620715  29.3582805
 101.1456704  99.0513169  28.7452968 100.8797157  99.2463245  30.2228338
  99.3707171  91.3412647  44.4805624  98.6947808  91.2406777  45.1507999
 100.1934805  91.1851861  44.9441621  91.1186030  97.5784584  37.1018139
  91.7039467  96.8328272  37.2346043  90.9210868  97.8888541  37.9854803
  93.9724685 100.6135831  32.1180581  93.3035060 101.0981959  31.6344621
  93.8337555 100.8605052  33.0323960  85.7103685  90.1490184  35.8222582
  85.7487784  89.6153775  36.6159700  85.2043977  89.6225390  35.2033559
  98.1129954 102.6479575  38.7163240  98.6648262 102.8111196  39.4812325
  98.4536147 103.2384013  38.0443265  93.0894447  84.9954725  39.3185124
  93.1535773  85.8569556  38.9062522  93.0261567  84.3828726  38.5857483
  92.5646719  87.0677857  42.9658159  93.1918758  86.6854935  43.5795683
  91.7074638  86.8492059  43.3313851 102.9640828  97.4740832  44.5711894
 103.5080732  98.0870791  44.0766849 102.3827673  98.0320411  45.0878907
  89.3412262  88.8754286  28.8976514  89.6365703  87.9664965  28.8443567
  88.4400298  88.8542026  28.5757516 101.2498341 100.5961550  35.7026922
 101.1249480  99.7951290  35.1937867 101.9077432 101.0907744  35.2140892
  92.8706509  86.9510283  34.8804062  92.1493095  87.5646251  34.7411535
  93.6599765  87.4868048  34.8020708 103.3133249  98.3970570  37.3306472
 102.3663585  98.2775922  37.2584799 103.6616022  97.5093069  37.4132733
  95.6732823  84.2864709  41.1544714  96.1967225  84.5327006  41.9171023
  95.4545156  85.1184744  40.7347851  91.0700104  86.5568384  29.0215839
  90.7412810  85.6765763  28.8390945  91.4239475  86.5016053  29.9092228
 100.3179683  98.1923287  33.5310824 100.1704645  97.2639994  33.7118394
 101.1433176  98.2143377  33.0467899  94.1841927  86.8441354  29.3891316
  94.5237999  87.3727275  28.6669925  94.6314047  87.1821760  30.1649883
 103.9213805  99.0151845  34.6175697 104.8460352  98.8094707  34.4800148
 103.7529108  98.7668247  35.5265038  96.8785368  85.2278405  38.8394384
  96.5382188  84.4286218  39.2415064  96.1724374  85.5280115  38.2671218
  97.5301840  82.3127717  37.2921707  98.3527909  81.8388195  37.1700598
  97.7739903  83.0918201  37.7920394  96.1710074  85.3415975  27.5884609
  96.8918437  85.7197228  27.0848326  95.5475378  86.0604852  27.6919587
 100.3141197  86.0461124  28.5242941 100.5304811  86.9285762  28.2231770
  99.8335264  85.6547338  27.7948583  95.0540418  89.0046838  35.1013686
  94.9084999  89.3187141  35.9937968  94.5765622  89.6231738  34.5484585
  96.9136801  85.9949386  35.1494576  96.8998370  85.0990479  34.8126874
  97.6309229  86.0020049  35.7832862  98.7662932  86.4286726  37.1947703
  98.5080710  87.3503796  37.1932033  98.2347972  86.0317160  37.8848167
 103.7109121  99.5337513  29.9737788 103.8845998  98.9683935  29.2211641
 104.2038012 100.3338408  29.7917278  89.5286081  91.5452182  38.0401347
  88.9839549  92.3211990  38.1721622  90.4065430  91.8922986  37.8820469
  96.3173697  84.8763766  30.4182146  96.4389608  83.9480412  30.6173033
  96.0275740  84.8902452  29.5060461  99.1864888  82.5618676  33.5548866
  99.2086584  82.6258009  32.6000845  99.6032947  81.7223185  33.7489372
 109.5648512  92.2973936  31.5928088 110.0079658  91.5481261  31.1947211
 108.6875022  92.2884072  31.2101820 104.6984293  98.8504277  27.0734687
 105.3935198  99.4710970  27.2922001 105.0407443  97.9999629  27.3487065
  90.3152102  90.6722078  40.9331504  89.5733838  90.8204714  41.5196135
  89.9944847  90.9330344  40.0698253 106.5975716  96.3003983  28.6022017
 107.1227040  96.6391256  27.8771337 106.5098069  95.3650998  28.4185152
  98.2595765 100.2138056  40.7311894  98.5682891  99.9687203  41.6034594
  99.0571247 100.4184695  40.2430764  98.2816377 102.3675966  32.9617271
  97.8421367 101.8752345  33.6550127  99.0324494 101.8248934  32.7209346
  90.7608716  98.5587507  32.9641899  91.5866736  98.2591279  32.5840542
  90.4102768  97.7895129  33.4131687  95.7290249  97.9113975  35.0339572
  95.1070259  97.2484680  34.7341800  96.3995116  97.9375107  34.3513220
  88.9617321  96.4773833  33.9230832  88.1249229  96.0496008  33.7414834
  88.9340967  96.6706277  34.8601624  95.8014777  86.3895763  44.6272078
  95.8502932  87.2657886  44.2449848  96.3437291  85.8473156  44.0543722
 106.2869622  96.9336886  43.9073215 105.4965166  96.9161025  43.3677715
 106.0502977  97.4725180  44.6622252 106.4067497  93.7829353  41.2205944
 106.4565502  93.6179360  42.1621467 106.2981421  92.9156612  40.8303825
  95.2903756  96.4617899  28.5098033  95.4391877  97.1453363  27.8564706
  96.0970200  96.4422989  29.0247489 103.6971260  89.7660281  42.5365251
 104.5981123  89.6266746  42.2449248 103.7719234  89.9314736  43.4763428
  98.0314065  87.1427136  41.3818437  97.1617375  87.4360702  41.1101026
  98.2673546  87.7267581  42.1025701 107.9085694  96.2026294  41.4647965
 107.6170503  96.5656275  42.3011426 107.2957826  95.4893303  41.2861298
 109.1081377  93.7679174  33.9850536 109.9428268  94.2068978  34.1488096
 109.2440505  93.2917827  33.1658781 106.1572883  91.3258909  39.9328023
 106.6327004  91.5186555  39.1246875 105.2338448  91.3818095  39.6871407
  93.0456389  92.4883076  29.5159102  92.8002431  91.5845406  29.7139312
  93.2152304  92.4900227  28.5738580 100.7353099  83.3606753  38.8983857
 101.2535043  84.0967779  38.5730346 100.3808232  83.6670746  39.7330616
  92.3152037  88.2211434  27.0145263  91.6221282  88.2955789  26.3585299
  92.0703789  87.4571777  27.5366780 100.9865693  79.7807035  34.4184754
 101.2667447  79.1130224  35.0445181 101.7716300  79.9736131  33.9059418
  98.7899162  98.9566029  25.9809780  98.2173129  99.5756216  25.5280252
  99.3631955  99.5065391  26.5149702 104.8574552  88.2024669  38.1656329
 105.8091974  88.3022767  38.1868553 104.6878002  87.4102938  38.6754413
 102.8788931  85.2880252  38.3515730 102.2838863  85.5685265  37.6562219
 102.5938628  85.7774153  39.1232471 102.0096421  99.2403179  27.1118363
 102.9427095  99.1748741  27.3151238 101.9219634 100.0759446  26.6532895
 107.3362629  91.4230789  37.2798629 107.3038949  90.4846789  37.4658313
 107.9463253  91.5014825  36.5464454  99.1745960  90.2926842  23.3225833
 100.1205065  90.1633050  23.3914251  98.7960205  89.5541504  23.7995261
 107.4857118  88.2141832  37.3256912 106.9696166  87.4300289  37.1386841
 108.3697066  87.8860549  37.4903431 105.1467845  81.9582848  33.2852725
 104.9492666  81.6497936  34.1696057 105.7567550  82.6844487  33.4150654
 113.1539179  92.4846796  36.4204666 113.8842568  92.2232084  36.9812369
 112.5446125  91.7475518  36.4606734 111.2354476  90.6254658  37.0179117
 110.5087640  90.4910623  36.4095608 110.8201763  90.9331487  37.8235835
  99.0584653  94.3444588  44.7826490  99.9787662  94.5223187  44.9766536
  99.0234236  93.4000633  44.6306189  97.3588877  88.2176818  23.2580718
  96.4520333  87.9209931  23.3343432  97.6364858  87.9206636  22.3915004
  88.2766818  89.5383182  33.7079764  87.9569602  88.6848490  33.4154138
  87.7300246  89.7531760  34.4637732  92.0546725  92.2545623  37.4249271
  92.2732735  93.1862730  37.4437305  92.4672499  91.8953597  38.2104075
  98.9750943  82.7613708  29.4124959  98.1651671  82.4160793  29.7880205
  99.6635360  82.4521252  30.0012571 100.9041491  81.8391755  31.0349256
 101.4572530  82.2587208  31.6939279 101.1411578  80.9127503  31.0772212
  96.9274591  87.8278828  46.8152020  96.8271317  88.7773185  46.7464111
  96.7096133  87.4997067  45.9428090  96.1287662  85.0763753  23.3992697
  96.9906826  85.4018652  23.6588515  96.3138006  84.2895249  22.8865763
  88.1455078  93.1586093  35.6772886  87.4518549  92.7440046  35.1642840
  88.8928069  93.2006630  35.0806305 104.2820298  83.9492280  30.5427920
 103.7018967  84.6077084  30.1605973 104.0156231  83.1269624  30.1315338
 102.7323865  83.3497337  32.7449241 103.2323643  83.4613872  31.9363559
 103.3759473  83.0458390  33.3850049  96.7905861  91.2575967  45.6317081
  96.3072942  92.0576327  45.8380971  96.8766800  91.2683912  44.6784525
  90.0591820  93.0904347  33.5538901  90.0362508  93.1892034  32.6020784
  90.3692457  93.9369498  33.8756067  92.7179198  95.1480502  37.6685515
  93.6722452  95.1164444  37.6015447  92.5191722  94.6871126  38.4835741
  93.3078580  93.7181618  40.2356313  94.1271469  94.2125697  40.2591150
  93.5815388  92.8013586  40.2073880 103.0645176  86.1092370  29.5984268
 102.1771031  86.3942021  29.3804463 103.4799166  85.9486134  28.7511545
 106.4159713  86.1338891  33.3138608 107.1920103  86.6235344  33.5863225
 105.6907847  86.5596945  33.7710477 108.8532271  86.8466510  34.3712548
 109.4476762  86.6062246  33.6605857 108.9258855  86.1273641  34.9986085
  91.0729427 100.6900121  34.6855713  90.9383895  99.9300522  34.1193711
  90.6561489 101.4141021  34.2184502 103.0386200  91.6246906  29.8134559
 102.9821402  92.0815458  28.9742191 103.5914543  90.8637591  29.6357401
 106.8491006  87.4136638  30.6384678 106.5927940  87.0133274  31.4692886
 106.2243874  88.1280432  30.5134817 111.1603344  90.1532711  33.1455970
 110.6002902  90.2225901  33.9187532 110.5546847  89.9773696  32.4255466
  94.2298553 101.5869438  34.8974156  94.1130937 102.5314871  34.7952846
  93.4090999 101.2843000  35.2859955 104.1175087  96.3119574  25.7430748
 104.9520691  95.8800773  25.5608223 103.9559430  96.1401588  26.6707643
 103.7720980  92.8151687  27.1087088 103.7169783  92.6495959  26.1675532
 103.1467035  93.5227720  27.2649278  88.5613494  88.0519752  40.9348510
  89.2072358  87.5418706  41.4235735  88.3530646  88.7888433  41.5091935
 101.0866887  95.1200599  46.4340651 101.9558046  95.2941252  46.0727285
 100.6073638  95.9395016  46.3116380  97.0817105  82.3159796  26.6872406
  97.0695775  83.2601636  26.8440677  97.9740527  82.1329942  26.3931867
  95.2553067 102.2397700  38.1130084  96.1580314 102.2721310  38.4296579
  95.0290437 101.3098151  38.1276420  97.0106669 100.9928687  34.7740163
  96.0602300 100.9930548  34.6604535  97.3139155 100.2461421  34.2576197
 100.8969224  78.9102573  30.9418343 100.1301620  78.3561060  31.0875025
 101.3079929  78.9824442  31.8032495  92.9010985  85.1987369  45.0323524
  93.7642447  84.8424174  45.2426849  92.3276396  84.8601264  45.7198929
 112.7459362 106.8289225  35.8385925 113.3837772 106.7095973  35.1349265
 112.6280205 107.7770069  35.8973877 109.5549069 106.7816653  35.7747450
 109.2167580 106.6657718  34.8867985 110.4238837 106.3807818  35.7548456
 110.0368852 107.9351505  41.7333655 110.0257492 107.5404303  40.8614159
 110.1989491 107.2017578  42.3267427 102.9600316 110.1303321  34.6028561
 103.7521608 109.7894146  34.1874861 103.1996966 110.2398296  35.5230715
 106.7576113 110.7188617  40.6812839 106.4665979 111.6234248  40.5659506
 107.3933097 110.7605144  41.3956909 107.6832320 108.0965465  37.2714199
 108.2795892 107.8721488  36.5571162 107.7407291 107.3550211  37.8739647
 115.2234478  98.2037486  38.2766720 114.8917803  99.0732897  38.0527935
 114.6280092  97.8873770  38.9560751 105.1678479 106.8563829  33.7099338
 104.2428976 106.7240043  33.9177029 105.4162893 107.6358048  34.2069280
 115.1163142 102.9232572  35.3560070 114.2080019 102.8547981  35.0618831
 115.0650737 103.4004517  36.1841896 102.5287290 106.4997103  34.5443127
 102.6579672 106.7531582  35.4582538 101.8484742 107.0924811  34.2247782
 109.1904007 104.3422218  43.2994968 108.4137342 104.9016138  43.2897832
 109.8294571 104.8279001  43.8209838 116.9824788 101.1249011  37.1337944
 116.3399168 101.4181544  36.4877739 116.4779717 101.0101931  37.9391141
 107.4450380 107.1507671  42.8612935 108.1865064 107.6892715  42.5847758
 106.7387365 107.7773960  43.0184487 112.9205719 109.2936812  41.4585096
 113.3289075 108.8519222  40.7139729 112.1982981 108.7189439  41.7119289
 109.2736789 104.2309419  38.8318653 110.1197985 104.6548832  38.9753302
 109.2135427 103.5743043  39.5257216 112.4236235 101.8913787  40.4899827
 112.1797167 102.6455848  39.9534102 112.6996165 102.2699135  41.3247074
 111.9800927 101.0470220  36.0713665 111.1185406 101.3451474  36.3630402
 112.0063361 101.2640619  35.1394697 105.6886577 109.1383892  35.4167233
 106.2587934 109.5671161  34.7784718 106.2794689 108.8566477  36.1151419
 106.1811744 104.3047320  43.6628245 105.5510404 104.9863600  43.8963642
 106.0747831 104.1930401  42.7181383 101.4756716 103.9719116  34.5894169
 100.6855770 104.2276644  34.1134280 101.9667963 104.7867454  34.6946209
 103.4271461 104.3363695  31.5477646 102.6302625 104.4482389  32.0661141
 103.1997054 104.6750347  30.6818536 109.2577129 110.8608398  39.4960160
 109.3221561 111.3228805  40.3318332 108.5488053 110.2305763  39.6242470
  99.7594419 104.2249606  37.0209160 100.0102457 105.1096616  37.2866736
 100.2953967 104.0454208  36.2484252 105.4592486  98.6068085  46.0253496
 105.0659432  98.0534284  46.7001140 106.2758627  98.9178664  46.4160013
 108.3760447 100.0225965  43.6173752 109.1170161 100.6233118  43.5378215
 108.6078370  99.2803602  43.0591795 103.5201785 105.2082332  41.8951982
 103.4055300 104.3067589  42.1959081 102.6646303 105.4546029  41.5436799
 105.3580744 114.6795874  38.0200161 105.9088169 114.5512937  37.2477155
 104.5192220 114.9790763  37.6695054 109.1547915 110.9447002  42.3644392
 109.6876252 110.1835290  42.1343700 108.6261996 110.6520653  43.1068547
 112.3217610  96.0507067  37.8938034 111.9781880  96.9408709  37.8177145
 112.6896573  95.8608725  37.0307619 109.8715004 100.8865379  31.4595708
 109.0156600 100.4972230  31.2801346 110.2841956 100.9657340  30.5995493
 111.4014151  98.4211723  35.8587267 110.8978946  98.3841858  35.0455073
 111.6944757  99.3304465  35.9183924 107.6457036  98.5050452  34.8653449
 108.5110033  98.3093261  34.5059338 107.7134545  98.2760804  35.7922806
 105.2519356 100.7352660  32.2369816 105.8263107 100.5127842  31.5043009
 105.8390338 100.8041355  32.9898417 107.5542023  97.6093909  30.9644885
 106.9006436  97.2942926  30.3401500 107.5122497  96.9869650  31.6904708
 110.7879764 104.0975843  35.2892533 109.8702325 104.3190790  35.1314221
 111.2039907 104.1722153  34.4304240 114.1205276  95.3100627  32.9955772
 114.4264153  94.4497990  32.7081687 114.8457881  95.9018247  32.7954766
 100.4129632 105.7131313  31.3837370 100.2154032 105.1200674  30.6588436
  99.8576296 105.4083523  32.1013308 108.3926356 105.6054420  33.5031963
 108.4474965 104.6528256  33.4274439 107.5817558 105.7613859  33.9873261
 106.3318716 104.2231479  31.2622342 105.5186581 104.5225650  31.6687534
 106.8277710 103.8287168  31.9796824 111.9292927 104.6873304  40.0937236
 112.2842315 104.9144777  40.9531701 112.5765058 105.0191681  39.4714491
 105.8232790 101.7949835  36.8783577 106.4632170 101.6538594  36.1806540
 104.9910321 101.5084348  36.5022179 102.8261407 101.7650160  31.6556563
 103.0868224 102.6795493  31.5465724 103.6478579 101.2974603  31.8053176
 104.2986332 103.1787917  38.8255388 104.9709385 102.9705279  38.1768037
 103.4716119 102.9810003  38.3860620 110.2011904  99.8049858  40.8421049
 109.5539819 100.5039808  40.7485525 110.9712919 100.2386002  41.2097297
 110.3776038 107.6430623  38.9017869 111.3068098 107.7941783  38.7286836
 109.9567068 107.7314644  38.0466515 109.1764370 111.6681287  36.6716406
 109.0375456 111.3000072  37.5442344 108.3878966 112.1828927  36.5000364
 104.7013829 106.4530520  39.5857825 104.5633627 105.7210759  40.1869364
 105.6118753 106.3639420  39.3042013 107.3296130 106.1650479  39.0741505
 108.0395748 105.5243672  39.0328123 107.2865438 106.4163374  39.9967686
 106.0425064 103.1515697  40.8937144 105.5062421 102.7006436  41.5458741
 105.4541772 103.2861606  40.1507609  96.9729463 107.3981508  33.5505115
  97.6600503 107.0843239  32.9626130  96.8177592 108.3022873  33.2772366
 101.7764185 102.2871705  37.9790139 101.6922374 101.6797375  37.2440549
 100.9546892 102.7780723  37.9799635 111.9487899 100.7725269  33.3460334
 112.4456599 100.0195231  33.0261404 111.1774881 100.8089585  32.7803543
 108.5322868 102.9142652  33.0732018 108.1620655 102.3613692  33.7612924
 109.0281960 102.3100785  32.5207018 106.3612066 113.3740147  40.1687036
 107.0621526 114.0076630  40.3216431 105.8907181 113.7154878  39.4082676
 114.3906894  97.7394862  35.4939693 113.4769974  97.9699089  35.6621900
 114.8199995  97.8233306  36.3453725 114.1613352 105.9284754  37.9939587
 113.5084803 106.1760661  37.3392039 114.5393732 105.1148892  37.6602064
 110.2100925 106.6704565  44.4805624 109.5341562 106.5698694  45.1507999
 111.0328559 106.5143779  44.9441621 101.9579784 112.9076502  37.1018139
 102.5433221 112.1620190  37.2346043 101.7604623 113.2180458  37.9854803
  96.5497439 105.4782102  35.8222582  96.5881539 104.9445693  36.6159700
  96.0437732 104.9517307  35.2033559 103.9288201 100.3246642  39.3185124
 103.9929528 101.1861473  38.9062522 103.8655322  99.7120644  38.5857483
 103.4040474 102.3969775  42.9658159 104.0312513 102.0146852  43.5795683
 102.5468393 102.1783977  43.3313851 100.1806017 104.2046204  28.8976514
 100.4759458 103.2956882  28.8443567  99.2794052 104.1833943  28.5757516
 103.7100264 102.2802201  34.8804062 102.9886849 102.8938168  34.7411535
 104.4993519 102.8159965  34.8020708 106.5126577  99.6156627  41.1544714
 107.0360979  99.8618924  41.9171023 106.2938911 100.4476662  40.7347851
 101.9093858 101.8860302  29.0215839 101.5806564 101.0057681  28.8390945
 102.2633229 101.8307970  29.9092228 107.7179122 100.5570322  38.8394384
 107.3775943  99.7578135  39.2415064 107.0118129 100.8572033  38.2671218
 108.3695594  97.6419635  37.2921707 109.1921663  97.1680113  37.1700598
 108.6133658  98.4210118  37.7920394 105.8934173 104.3338755  35.1013686
 105.7478754 104.6479058  35.9937968 105.4159376 104.9523656  34.5484585
 107.7530556 101.3241303  35.1494576 107.7392125 100.4282397  34.8126874
 108.4702984 101.3311967  35.7832862 109.6056686 101.7578643  37.1947703
 109.3474464 102.6795714  37.1932033 109.0741727 101.3609078  37.8848167
 100.3679835 106.8744100  38.0401347  99.8233303 107.6503908  38.1721622
 101.2459185 107.2214904  37.8820469 107.1567452 100.2055684  30.4182146
 107.2783363  99.2772330  30.6173033 106.8669494 100.2194369  29.5060461
 110.0258642  97.8910594  33.5548866 110.0480339  97.9549927  32.6000845
 110.4426701  97.0515103  33.7489372 101.1545857 106.0013996  40.9331504
 100.4127593 106.1496631  41.5196135 100.8338601 106.2622262  40.0698253
  99.8011076 111.8065751  33.9230832  98.9642984 111.3787925  33.7414834
  99.7734721 111.9998194  34.8601624 106.6408531 101.7187681  44.6272078
 106.6896687 102.5949804  44.2449848 107.1831045 101.1765074  44.0543722
 114.5365014 105.0952199  42.5365251 115.4374877 104.9558663  42.2449248
 114.6112989 105.2606653  43.4763428 108.8707820 102.4719053  41.3818437
 108.0011129 102.7652619  41.1101026 109.1067300 103.0559498  42.1025701
 111.5746854  98.6898670  38.8983857 112.0928797  99.4259697  38.5730346
 111.2201986  98.9962664  39.7330616 111.8259448  95.1098953  34.4184754
 112.1061201  94.4422142  35.0445181 112.6110055  95.3028048  33.9059418
 115.6968306 103.5316587  38.1656329 116.6485729 103.6314684  38.1868553
 115.5271756 102.7394855  38.6754413 113.7182685 100.6172170  38.3515730
 113.1232618 100.8977183  37.6562219 113.4332382 101.1066071  39.1232471
 118.3250872 103.5433750  37.3256912 117.8089921 102.7592206  37.1386841
 119.2090821 103.2152466  37.4903431 115.9861599  97.2874765  33.2852725
 115.7886420  96.9789854  34.1696057 116.5961305  98.0136404  33.4150654
 109.8978407 109.6736506  44.7826490 110.8181417 109.8515105  44.9766536
 109.8627990 108.7292551  44.6306189  99.1160572 104.8675099  33.7079764
  98.7963357 104.0140407  33.4154138  98.5694000 105.0823677  34.4637732
 102.8940480 107.5837540  37.4249271 103.1126490 108.5154648  37.4437305
 103.3066254 107.2245515  38.2104075 109.8144698  98.0905625  29.4124959
 109.0045426  97.7452710  29.7880205 110.5029114  97.7813169  30.0012571
 111.7435246  97.1683672  31.0349256 112.2966284  97.5879126  31.6939279
 111.9805332  96.2419420  31.0772212 107.7668345 103.1570746  46.8152020
 107.6665072 104.1065103  46.7464111 107.5489887 102.8288985  45.9428090
  98.9848832 108.4878011  35.6772886  98.2912304 108.0731963  35.1642840
  99.7321823 108.5298547  35.0806305 113.5717619  98.6789255  32.7449241
 114.0717398  98.7905790  31.9363559 114.2153227  98.3750308  33.3850049
 107.6299615 106.5867885  45.6317081 107.1466697 107.3868245  45.8380971
 107.7160554 106.5975830  44.6784525 100.8985575 108.4196264  33.5538901
 100.8756263 108.5183952  32.6020784 101.2086211 109.2661415  33.8756067
 103.5572953 110.4772419  37.6685515 104.5116206 110.4456362  37.6015447
 103.3585476 110.0163043  38.4835741 104.1472335 109.0473536  40.2356313
 104.9665224 109.5417614  40.2591150 104.4209142 108.1305504  40.2073880
  99.4007249 103.3811669  40.9348510 100.0466113 102.8710623  41.4235735
  99.1924400 104.1180351  41.5091935 111.7362979  94.2394491  30.9418343
 110.9695375  93.6852977  31.0875025 112.1473684  94.3116359  31.8032495
 103.7404740 100.5279286  45.0323524 104.6036202 100.1716091  45.2426849
 103.1670151 100.1893181  45.7198929  50.2820383  -1.8671551  28.7193391
  50.2232929  -2.5512331  28.0523974  50.6839901  -1.1252561  28.2674017
  48.7672057  -2.1656633  31.2957201  49.3111961  -1.5526675  30.8012156
  48.1858902  -1.6077055  31.8124214  52.0900851  -2.7060579  30.6318522
  51.2996395  -2.7236440  30.0923021  51.8534206  -2.1672286  31.3867559
  53.7116923  -3.4371171  28.1893272  53.4201731  -3.0741191  29.0256733
  53.0989054  -4.1504163  28.0106604  46.8898115  -4.5196867  33.1585957
  47.7589275  -4.3456214  32.7972592  46.4104867  -3.7002450  33.0361687
  58.5490591   7.1891759  22.5631232  59.1869001   7.0698507  21.8594572
  58.4311434   8.1372603  22.6219184  55.3580298   7.1419187  22.4992757
  55.0198809   7.0260252  21.6113291  56.2270066   6.7410353  22.4793763
  55.8400080   8.2954039  28.4578962  55.8288721   7.9006837  27.5859466
  56.0020720   7.5620112  29.0512734  48.7631545  10.4905855  21.3273868
  49.5552837  10.1496680  20.9120167  49.0028195  10.6000831  22.2476021
  52.5607342  11.0791151  27.4058146  52.2697208  11.9836782  27.2904812
  53.1964326  11.1207679  28.1202216  53.4863548   8.4568000  23.9959506
  54.0827121   8.2324022  23.2816469  53.5438520   7.7152745  24.5984954
  63.5040287   4.8518446  20.5417418  64.2365459   4.2817663  20.7755248
  62.7479643   4.4640047  20.9823924  61.0265707  -1.4359979  25.0012027
  60.6949032  -0.5664569  24.7773242  60.4311321  -1.7523695  25.6806057
  57.5197227  10.7652567  24.4007940  57.2197950  11.6677605  24.2923747
  57.1748286  10.4984750  25.2529093  60.9194371   3.2835107  22.0805377
  60.0111248   3.2150515  21.7864138  60.8681966   3.7607052  22.9087203
  52.5018007  17.5296887  17.3678907  52.4242036  18.4804712  17.4467388
  51.8979650  17.1842759  18.0253834  54.9935236   4.7024752  30.0240274
  54.2168570   5.2618672  30.0143139  55.6325799   5.1881535  30.5455144
  62.7856017   1.4851545  23.8583251  62.1430397   1.7784078  23.2123046
  62.2810945   1.3704465  24.6636448  53.2481609   7.5110206  29.5858241
  53.9896293   8.0495250  29.3093065  52.5418594   8.1376494  29.7429793
  58.7236948   9.6539346  28.1830403  59.1320304   9.2121757  27.4385035
  58.0014210   9.0791974  28.4364596  55.0768018   4.5911953  25.5563960
  55.9229213   5.0151366  25.6998609  55.0166656   3.9345577  26.2502523
  59.0465763  10.2140537  21.9382692  58.4174625  10.3786251  21.2358760
  58.6591425  10.6282146  22.7093656  62.9254995  11.1494975  19.2927056
  62.2406033  11.5293876  18.7424089  63.0098844  11.7590301  20.0259003
  58.2267464   2.2516321  27.2145133  57.9828395   3.0058382  26.6779409
  58.5027394   2.6301669  28.0492381  60.1805926   8.7954934  25.8922399
  60.3922822   9.4386694  25.2156780  60.1335675   7.9617250  25.4244329
  51.4917806   9.4986426  22.1412540  52.0619163   9.9273695  21.5030025
  52.0825918   9.2169011  22.8396726  51.9842972   4.6649854  30.3873551
  51.3541633   5.3466135  30.6208948  51.8779060   4.5532935  29.4426690
  61.2951754  11.6726889  24.0644756  62.1169198  11.2707076  23.7827438
  61.2914157  11.5695123  25.0160872  55.0608358  11.2210932  26.2205467
  55.1252790  11.6831340  27.0563639  54.3519282  10.5908297  26.3487777
  69.3857747   8.0165638  20.4129728  68.6321456   7.4473036  20.2573732
  69.5205289   7.9828302  21.3600363  51.2623715  -1.0329380  32.7498802
  50.8690661  -1.5863182  33.4246447  52.0789855  -0.7218802  33.1405320
  50.0380658  13.5220234  18.7435125  50.2147286  14.4438199  18.5556109
  50.8337491  13.2078653  19.1729505  54.1791676   0.3828499  30.3419059
  54.9201389   0.9835652  30.2623521  54.4109599  -0.3593863  29.7837102
  49.3233014   5.5684866  28.6197289  49.2086529   4.6670123  28.9204388
  48.4677532   5.8148563  28.2682105  56.4024852  13.5102606  30.2184789
  55.9588706  12.7238985  29.9005694  57.0642065  13.6981757  29.5528680
  51.1611973  15.0398408  24.7445468  51.7119398  14.9115471  23.9722462
  50.3223449  15.3393297  24.3940361  58.5006090  13.7905406  28.2466191
  58.4824565  14.6114287  27.7546460  59.4226010  13.6659481  28.4716332
  54.9579144  11.3049536  29.0889699  55.4907481  10.5437824  28.8589007
  54.4293225  11.0123188  29.8313853  61.3024703   8.6284549  21.7175557
  60.6448377   9.3183810  21.8055686  62.1065102   9.0180981  22.0609544
  60.1130162   6.9828921  19.7679499  60.6262043   7.6158913  20.2701209
  60.7631385   6.3830117  19.4022859  56.5910992   4.4578377  22.0137840
  55.6733554   4.6793324  21.8559528  57.0071136   4.5324687  21.1549547
  60.8791958  11.9634923  17.8958642  60.4254285  11.1225833  17.9523832
  60.2485924  12.5996321  18.2333422  59.3224897  13.8011420  18.8308460
  59.6147871  14.3616477  18.1120825  59.8323518  14.0939981  19.5861619
  54.2858522  14.5791771  19.9201913  54.2434701  14.8052617  18.9910445
  55.2021221  14.3455145  20.0687714  57.7324156   5.0475838  26.8182542
  58.0873544   5.2747311  27.6777008  58.3796287   5.3794215  26.1959797
  63.4621893   8.1694274  17.5231871  63.3239792   8.3595870  16.5953060
  63.1058112   8.9313657  17.9799922  63.4891273  10.2370801  22.5343143
  63.9227779  10.1446090  23.3826197  64.2022853  10.2128302  21.8963159
  57.2219167  13.8372895  24.0676243  57.2756190  14.4063831  24.8353959
  56.3533949  14.0074780  23.7030280  50.1017561   3.5390451  25.5500695
  50.7740614   3.3307814  24.9013343  49.2747347   3.3412537  25.1105927
  64.3506822  10.2794502  25.0676028  64.5442712  11.1840312  25.3135303
  64.2507440   9.8201921  25.9014613  56.0043133   0.1652392  27.5666355
  55.3571048   0.8642342  27.4730832  56.7744148   0.5988536  27.9342604
  59.4121931  10.4301244  30.6416909  59.2607437  10.2011796  29.7246992
  59.4026610  11.3871846  30.6548254  56.1807267   8.0033157  25.6263175
  57.1099327   8.1544317  25.4532142  55.7598297   8.0917178  24.7711822
  54.9795599  12.0283822  23.3961713  54.8406685  11.6602606  24.2687651
  54.1910195  12.5431461  23.2245671  55.5743751  17.1292918  14.7387249
  55.7495507  16.6580961  15.5532872  54.8876539  17.7558684  14.9668510
  56.5300814  11.4065424  20.7850551  56.1950647  11.3666194  21.6808200
  56.0304760  10.7410140  20.3120961  50.5045058   6.8133054  26.3103132
  50.3664856   6.0813293  26.9114671  51.4149982   6.7241954  26.0287319
  53.1327359   6.5253014  25.7986811  53.8426977   5.8846206  25.7573430
  53.0896667   6.7765909  26.7212992  61.1214137  13.4620367  28.7193391
  61.0626684  12.7779587  28.0523974  61.5233656  14.2039357  28.2674017
  51.8456293   3.5118232  27.6182451  51.3093650   3.0608970  28.2704047
  51.2573001   3.6464140  26.8752915  50.1404836  20.2782281  21.5127109
  50.3801434  20.9100805  22.1906128  49.2974033  19.9270321  21.7992469
  61.1231545  11.4259951  26.9507370  60.2358323  11.0885873  27.0733769
  61.6930096  10.6942982  27.1876136  54.6532698  16.0861403  23.9168613
  54.5802870  16.8916375  24.4287918  54.2110091  16.2853369  23.0916635
  54.4422478  15.3233173  17.4271435  53.6590000  15.8654854  17.5209660
  55.1415223  15.8407153  17.8265676  65.6048885   6.8368168  21.7123932
  65.5938761   7.7192884  21.3417865  64.7366265   6.4839719  21.5178469
  57.1131382  15.9848237  26.0726772  57.8259354  16.6195702  26.0002674
  56.6221410  16.0812103  25.2566774  52.1643295  13.7342681  26.8932343
  52.8652755  14.3679164  27.0461737  51.6938410  14.0757412  26.1327982
  59.9644581   6.2887288  24.7184893  59.3116031   6.5363196  24.0637346
  60.3424961   5.4751426  24.3847371  56.9251755  16.3246981  18.8213064
  57.1074150  15.5068637  19.2840816  57.7484741  16.5414674  18.3837954
  57.2593920  15.2515167  16.0828112  57.7881687  14.7407621  15.4698274
  57.5222140  14.9357697  16.9473645  56.0132154   7.0307099  31.2050930
  55.3372791   6.9301229  31.8753306  56.8359788   6.8746313  31.6686928
  47.7611013  13.2679036  23.8263446  48.3464450  12.5222724  23.9591350
  47.5635852  13.5782993  24.7100110  50.6149668  16.3030283  18.8425888
  49.9460044  16.7876411  18.3589928  50.4762538  16.5499504  19.7569267
  54.7554937  18.3374027  25.4408546  55.3073245  18.5005648  26.2057632
  55.0961130  18.9278465  24.7688571  49.2071703   2.7572309  29.6903465
  49.8343742   2.3749386  30.3040990  48.3499622   2.5386511  30.0559158
  59.6065811  13.1635284  31.2957201  60.1505715  13.7765243  30.8012156
  59.0252656  13.7214863  31.8124214  57.8923324  16.2856002  22.4272229
  57.7674464  15.4845742  21.9183174  58.5502415  16.7802196  21.9386199
  59.9558233  14.0865022  24.0551779  59.0088568  13.9670374  23.9830105
  60.3041006  13.1987520  24.1378040  52.3157806  -0.0240839  27.8790021
  52.8392208   0.2221458  28.6416330  52.0970139   0.8079196  27.4593158
  56.9604666  13.8817739  20.2556131  56.8129628  12.9534446  20.4363701
  57.7858159  13.9037829  19.7713206  60.5638788  14.7046297  21.3421004
  61.4885335  14.4989159  21.2045455  60.3954091  14.4562698  22.2510345
  53.5210351   0.9172856  25.5639691  53.1807171   0.1180669  25.9660371
  52.8149357   1.2174567  24.9916524  55.4087915   2.1181178  23.9193010
  55.1505693   3.0398248  23.9177340  54.8772956   1.7211612  24.6093474
  60.3534104  15.2231965  16.6983095  60.5270982  14.6578387  15.9456948
  60.8462995  16.0232860  16.5162585  46.1711064   7.2346634  24.7646654
  45.6264532   8.0106442  24.8966928  47.0490414   7.5817438  24.6065775
  66.2073495   7.9868388  18.3173395  66.6504641   7.2375713  17.9192518
  65.3300005   7.9778524  17.9347127  61.3409277  14.5398729  13.7979993
  62.0360181  15.1605422  14.0167308  61.6832427  13.6894080  14.0732371
  46.9577086   6.3616530  27.6576811  46.2158822   6.5099165  28.2441441
  46.6369830   6.6224796  26.7943560  63.2400700  11.9898435  15.3267324
  63.7652024  12.3285707  14.6016644  63.1523052  11.0545450  15.1430459
  54.9020748  15.9032508  27.4557201  55.2107875  15.6581655  28.3279900
  55.6996230  16.1079147  26.9676071  54.9241360  18.0570418  19.6862577
  54.4846351  17.5646797  20.3795434  55.6749477  17.5143386  19.4454653
  47.4033699  14.2481959  19.6887205  48.2291719  13.9485731  19.3085849
  47.0527751  13.4789581  20.1376994  52.3715233  13.6008427  21.7584879
  51.7495242  12.9379132  21.4587107  53.0420099  13.6269559  21.0758527
  52.4439760   2.0790215  31.3517385  52.4927916   2.9552338  30.9695155
  52.9862274   1.5367608  30.7789028  62.9294606  12.6231338  30.6318522
  62.1390149  12.6055477  30.0923021  62.6927960  13.1619632  31.3867559
  63.0492481   9.4723805  27.9451251  63.0990486   9.3073812  28.8866773
  62.9406404   8.6051064  27.5549131  60.3396243   5.4554733  29.2610557
  61.2406106   5.3161198  28.9694555  60.4144218   5.6209188  30.2008735
  54.6739048   2.8321587  28.1063744  53.8042358   3.1255154  27.8346332
  54.9098529   3.4162032  28.8271007  64.5510678  11.8920746  28.1893272
  64.2595486  12.2550727  29.0256733  63.9382809  11.1787755  28.0106604
  65.7506360   9.4573626  20.7095842  66.5853251   9.8963430  20.8733403
  65.8865489   8.9812279  19.8904088  62.7997866   7.0153361  26.6573330
  63.2751987   7.2081007  25.8492182  61.8763431   7.0712547  26.4116714
  57.3778082  -0.9498796  25.6229164  57.8960026  -0.2137769  25.2975653
  57.0233215  -0.6434802  26.4575923  61.4999535   3.8919121  24.8901636
  62.4516958   3.9917219  24.9113860  61.3302985   3.0997390  25.3999720
  59.5213914   0.9774704  25.0761037  58.9263846   1.2579717  24.3807525
  59.2363611   1.4668605  25.8477778  63.9787613   7.1125241  24.0043935
  63.9463933   6.1741241  24.1903619  64.5888236   7.1909277  23.2709760
  64.1282101   3.9036284  24.0502219  63.6121150   3.1194741  23.8632147
  65.0122050   3.5755001  24.2148738  69.7964162   8.1741247  23.1449972
  70.5267551   7.9126536  23.7057676  69.1871108   7.4369969  23.1852040
  67.8779460   6.3149110  23.7424423  67.1512623   6.1805075  23.1340915
  67.4626746   6.6225939  24.5481141  55.7009636  10.0339040  31.5071796
  56.6212645  10.2117639  31.7011843  55.6659219   9.0895085  31.3551496
  48.6971709   7.9440074  24.1494578  48.9157718   8.8757182  24.1682611
  49.1097482   7.5848049  24.9349381  53.5699574   3.5173280  33.5397326
  53.4696301   4.4667637  33.4709418  53.3521116   3.1891519  32.6673397
  53.4330844   6.9470419  32.3562388  52.9497926   7.7470779  32.5626277
  53.5191783   6.9578364  31.4029832  49.3604181  10.8374954  24.3930822
  50.3147435  10.8058896  24.3260753  49.1616705  10.3765577  25.2081048
  49.9503564   9.4076070  26.9601620  50.7696453   9.9020148  26.9836457
  50.2240371   8.4908038  26.9319187  65.4957254   2.5360962  21.0957855
  66.0901745   2.2956698  20.3851163  65.5683838   1.8168093  21.7231391
  47.7154410  16.3794573  21.4101020  47.5808878  15.6194974  20.8439018
  47.2986472  17.1035473  20.9429809  67.8028327   5.8427163  19.8701276
  67.2427885   5.9120352  20.6432838  67.1971831   5.6668148  19.1500772
  50.8723536  17.2763890  21.6219462  50.7555920  18.2209323  21.5198153
  50.0515982  16.9737452  22.0105262  45.2038478   3.7414204  27.6593817
  45.8497341   3.2313158  28.1481042  44.9955629   4.4782885  28.2337242
  57.7291870  10.8095051  33.1585957  58.5983030  10.9835703  32.7972592
  57.2498621  11.6289468  33.0361687  51.8978050  17.9292152  24.8375391
  52.8005297  17.9615762  25.1541886  51.6715420  16.9992603  24.8521727
  53.6531652  16.6823139  21.4985469  52.7027283  16.6825000  21.3849842
  53.9564138  15.9355873  20.9821504  49.5435969   0.8881821  31.7568831
  50.4067430   0.5318626  31.9672155  48.9701379   0.5495716  32.4444235
  69.3884346  22.5183677  22.5631232  70.0262756  22.3990424  21.8594572
  69.2705189  23.4664521  22.6219184  66.1974052  22.4711105  22.4992757
  65.8592564  22.3552170  21.6113291  67.0663820  22.0702270  22.4793763
  62.0560868  24.3246582  18.4889648  61.4925733  24.2336519  17.7205935
  61.9413263  23.5046486  18.9692140  66.6793835  23.6245957  28.4578962
  66.6682476  23.2298755  27.5859466  66.8414474  22.8912029  29.0512734
  59.6025300  25.8197773  21.3273868  60.3946592  25.4788598  20.9120167
  59.8421950  25.9292748  22.2476021  67.6360426  27.9917549  13.8004112
  66.9848406  28.5771630  13.4138126  68.4304789  28.5223744  13.8599150
  61.5616054  25.0806686  14.1991247  62.3346930  24.5335673  14.0604123
  61.9141452  25.9450936  14.4105708  63.4001096  26.4083069  27.4058146
  63.1090962  27.3128700  27.2904812  64.0358080  26.4499596  28.1202216
  64.3257303  23.7859917  23.9959506  64.9220875  23.5615940  23.2816469
  64.3832275  23.0444663  24.5984954  63.8982331  21.2399353  11.8309697
  64.1507852  20.7180874  11.0693160  62.9606890  21.0765498  11.9336380
  68.9425614  20.2435131  19.6384440  69.7288703  19.8254554  19.2874857
  69.2064319  21.1481223  19.8066088  69.1135692  25.6807981  14.3373097
  68.4781525  25.7542608  15.0494001  68.7833098  26.2701580  13.6592176
  74.3434041  20.1810364  20.5417418  75.0759213  19.6109581  20.7755248
  73.5873397  19.7931965  20.9823924  63.6178620  23.1427458  14.0334072
  63.5014878  22.4672362  14.7015156  63.7280880  22.6559832  13.2166225
  65.9610161  22.6037606  17.7380761  65.5968368  22.0768227  18.4493682
  66.8177277  22.2136075  17.5647246  71.8659462  13.8931938  25.0012027
  71.5342786  14.7627349  24.7773242  71.2705075  13.5768222  25.6806057
  65.6015648  17.6327505  12.7342109  65.7690050  18.5007742  13.1012580
  65.4112817  17.7954787  11.8103399  68.3590981  26.0944484  24.4007940
  68.0591704  26.9969523  24.2923747  68.0142041  25.8276667  25.2529093
  61.8103463  22.5458281  20.4344644  60.8853959  22.4134495  20.6422336
  62.0587876  23.3252500  20.9314587  71.7588125  18.6127024  22.0805377
  70.8505002  18.5442433  21.7864138  71.7075721  19.0898969  22.9087203
  65.5804869  20.0885163  13.7188776  65.4604494  20.5342214  14.5574257
  64.8857457  20.4370480  13.1602314  59.1712274  22.1891555  21.2688433
  59.3004655  22.4426034  22.1827845  58.4909725  22.7819263  20.9493088
  63.3411761  32.8588805  17.3678907  63.2635791  33.8096630  17.4467388
  62.7373405  32.5134677  18.0253834  65.8328991  20.0316670  30.0240274
  65.0562325  20.5910590  30.0143139  66.4719554  20.5173453  30.5455144
  73.6249771  16.8143463  23.8583251  72.9824152  17.1075996  23.2123046
  73.1204700  16.6996383  24.6636448  71.2789935  20.5606636  14.5469110
  72.1907791  20.7934023  14.3716808  70.7699582  21.1443680  13.9844189
  64.0875363  22.8402123  29.5858241  64.8290047  23.3787167  29.3093065
  63.3812349  23.4668412  29.7429793  69.5630703  24.9831264  28.1830403
  69.9714059  24.5413674  27.4385035  68.8407964  24.4083891  28.4364596
  65.9161773  19.9203871  25.5563960  66.7622968  20.3443284  25.6998609
  65.8560410  19.2637495  26.2502523  69.8859517  25.5432454  21.9382692
  69.2568380  25.7078169  21.2358760  69.4985179  25.9574064  22.7093656
  73.7648749  26.4786892  19.2927056  73.0799787  26.8585794  18.7424089
  73.8492599  27.0882219  20.0259003  69.0661218  17.5808239  27.2145133
  68.8222150  18.3350299  26.6779409  69.3421149  17.9593587  28.0492381
  71.0199681  24.1246851  25.8922399  71.2316576  24.7678611  25.2156780
  70.9729429  23.2909168  25.4244329  68.6225910  16.7364672  22.7958971
  67.7610389  17.0345926  23.0875709  68.6488344  16.9535071  21.8640004
  65.4387479  25.2806863  19.2032777  65.9025825  25.5594565  18.4137399
  65.1744277  24.3790307  19.0205868  62.3311560  24.8278344  22.1412540
  62.9012917  25.2565612  21.5030025  62.9219672  24.5460929  22.8396726
  64.3756365  21.4030015  16.0122342  65.0780409  21.8551059  16.4796268
  64.0436994  20.7613834  16.6402235  62.8236727  19.9941772  30.3873551
  62.1935387  20.6758052  30.6208948  62.7172815  19.8824853  29.4426690
  58.1181699  19.6613568  21.3139476  57.3280753  19.9171096  20.8379586
  58.6092947  20.4761905  21.4191516  72.1345509  27.0018807  24.0644756
  72.9562953  26.5998994  23.7827438  72.1307912  26.8987041  25.0160872
  60.0696445  20.0258147  18.2722952  59.2727608  20.1376841  18.7906448
  59.8422037  20.3644799  17.4063843  65.9002112  26.5502850  26.2205467
  65.9646545  27.0123257  27.0563639  65.1913036  25.9200215  26.3487777
  56.4019402  19.9144058  23.7454466  56.6527441  20.7991068  24.0112042
  56.9378951  19.7348660  22.9729558  80.2251502  23.3457555  20.4129728
  79.4715210  22.7764953  20.2573732  80.3599043  23.3120220  21.3600363
  65.6150130  28.2170957  16.0884447  65.4795805  29.0622493  16.5169295
  66.1559942  28.4190235  15.3250381  62.1017470  14.2962537  32.7498802
  61.7084415  13.7428736  33.4246447  62.9183610  14.6073116  33.1405320
  59.0679527  25.7346396  16.6612372  59.5804048  26.5289646  16.8117937
  59.7202240  25.0372686  16.5945974  60.8774412  28.8512152  18.7435125
  61.0541040  29.7730117  18.5556109  61.6731246  28.5370571  19.1729505
  65.0185431  15.7120416  30.3419059  65.7595144  16.3127570  30.2623521
  65.2503353  14.9698054  29.7837102  60.1626769  20.8976784  28.6197289
  60.0480284  19.9962041  28.9204388  59.3071286  21.1440480  28.2682105
  67.2418606  28.8394524  30.2184789  66.7982460  28.0530903  29.9005694
  67.9035820  29.0273675  29.5528680  62.0005727  30.3690326  24.7445468
  62.5513153  30.2407389  23.9722462  61.1617203  30.6685215  24.3940361
  69.3399844  29.1197324  28.2466191  69.3218320  29.9406205  27.7546460
  70.2619764  28.9951399  28.4716332  65.7972899  26.6341453  29.0889699
  66.3301235  25.8729742  28.8589007  65.2686980  26.3415105  29.8313853
  68.9642593  11.7401519  24.6183341  68.6206863  12.6303161  24.5422451
  69.3321556  11.5503177  23.7552926  57.0328444  24.0635050  17.4371943
  57.8703666  24.4732058  17.2205651  57.2106712  23.1234492  17.4072137
  68.9292876  21.7310130  13.1255776  68.4139500  22.5014735  13.3644163
  68.6570185  21.0575267  13.7488837  66.5139987  16.5759831  18.1841014
  65.6581584  16.1866682  18.0046653  66.9266939  16.6551792  17.3240800
  68.0439134  14.1106175  22.5832574  67.5403929  14.0736310  21.7700379
  68.3369741  15.0198917  22.6429231  64.2882020  14.1944904  21.5898756
  65.1535017  13.9987713  21.2304645  64.3559529  13.9655256  22.5168112
  73.9027150  24.4842485  15.0608949  73.1256593  24.1453645  14.6164111
  74.5818631  24.4895108  14.3863914  68.7179179  19.6037223  14.9515557
  68.4129315  19.9183372  15.8025700  69.6709622  19.6818642  14.9942890
  67.1625611  25.7627446  16.6008511  66.6346973  25.0280205  16.2881748
  66.6613114  26.5402122  16.3548479  72.1418457  23.9576466  21.7175557
  71.4842132  24.6475728  21.8055686  72.9458856  24.3472898  22.0609544
  61.8944339  16.4247112  18.9615122  62.4688091  16.2022294  18.2288315
  62.4815321  16.4935807  19.7143724  70.9523916  22.3120839  19.7679499
  71.4655798  22.9450831  20.2701209  71.6025140  21.7122035  19.4022859
  62.2213926  18.4551573  12.9811008  61.3851238  18.7926260  13.3020282
  62.0818696  18.3200553  12.0438145  64.1967007  13.2988361  17.6890192
  63.5431419  12.9837378  17.0646807  64.1547481  12.6764102  18.4150015
  65.3078211  23.5807656   9.6043484  64.4005273  23.3496910   9.8034633
  65.8049243  22.7845275   9.7917466  68.2146290  32.2905163  12.5240170
  67.5407989  32.5936860  13.1325128  68.6012112  33.0934244  12.1745627
  67.4304747  19.7870295  22.0137840  66.5127308  20.0085242  21.8559528
  67.8464891  19.8616605  21.1549547  68.2139795  21.1861710  17.1440520
  68.9611614  21.6983108  16.8347642  68.4831384  20.8645763  18.0044913
  66.4866445  23.6820251  14.1267474  65.5777664  23.3979284  14.2239944
  66.5161529  24.1019330  13.2670781  70.6618632  18.2218827  19.1259309
  69.9241389  17.7096213  19.4569552  70.9145405  17.7819208  18.3142586
  70.1618652  29.1303337  18.8308460  70.4541626  29.6908394  18.1120825
  70.6717272  29.4231898  19.5861619  70.7630259  10.9995079  19.7201078
  71.0689136  10.1392442  19.4326993  71.4882864  11.5912699  19.5200072
  57.0554615  21.4025765  18.1082676  56.8579015  20.8095126  17.3833743
  56.5001279  21.0977975  18.8258615  65.0351339  21.2948872  20.2277269
  65.0899949  20.3422708  20.1519746  64.2242541  21.4508311  20.7118568
  66.1842533  25.2228995  11.4655553  65.7461963  24.5064854  11.0061190
  66.9252974  25.4505110  10.9040644  62.9743699  19.9125931  17.9867648
  62.1611564  20.2120102  18.3932840  63.4702693  19.5181620  18.7042131
  65.1252277  29.9083688  19.9201913  65.0828455  30.1344535  18.9910445
  66.0414976  29.6747063  20.0687714  68.5717910  20.3767756  26.8182542
  68.9267298  20.6039229  27.6777008  69.2190042  20.7086133  26.1959797
  74.3015647  23.4986192  17.5231871  74.1633546  23.6887788  16.5953060
  73.9451866  24.2605575  17.9799922  62.4657774  17.4844287  23.6028883
  63.1057153  17.3433046  22.9051847  61.6335304  17.1978800  23.2267485
  74.3285027  25.5662719  22.5343143  74.7621534  25.4738008  23.3826197
  75.0416608  25.5420219  21.8963159  63.2418077  26.7846717  19.7163876
  64.0358676  26.2897037  19.5146451  62.5309770  26.2564580  19.3531581
  68.0612922  29.1664813  24.0676243  68.1149944  29.7355749  24.8353959
  67.1927703  29.3366698  23.7030280  59.5500841  20.9289799  15.7923628
  58.6198429  20.8674255  16.0093591  59.6458313  20.4065752  14.9960270
  59.4686390  17.4544612  18.3801870  59.7293207  18.3689945  18.2711030
  60.2903562  16.9869054  18.5298483  60.9411315  18.8682369  25.5500695
  61.6134369  18.6599731  24.9013343  60.1141102  18.6704455  25.1105927
  75.1900577  25.6086419  25.0676028  75.3836467  26.5132230  25.3135303
  75.0901195  25.1493838  25.9014613  66.8436887  15.4944310  27.5666355
  66.1964802  16.1934260  27.4730832  67.6137903  15.9280454  27.9342604
  70.2515685  25.7593162  30.6416909  70.1001192  25.5303714  29.7246992
  70.2420365  26.7163764  30.6548254  67.0201022  23.3325075  25.6263175
  67.9493082  23.4836235  25.4532142  66.5992052  23.4209096  24.7711822
  65.8189353  27.3575739  23.3961713  65.6800439  26.9894524  24.2687651
  65.0303950  27.8723379  23.2245671  66.4137505  32.4584836  14.7387249
  66.5889261  31.9872879  15.5532872  65.7270293  33.0850602  14.9668510
  67.3694569  26.7357342  20.7850551  67.0344401  26.6958112  21.6808200
  66.8698514  26.0702058  20.3120961  61.3438813  22.1424972  26.3103132
  61.2058611  21.4105211  26.9114671  62.2543736  22.0533872  26.0287319
  70.3053760  24.0813376  11.0587610  69.6882931  23.3560205  10.9620663
  69.8370249  24.8422737  10.7154684  63.9721113  21.8544931  25.7986811
  64.6820732  21.2138124  25.7573430  63.9290421  22.1057826  26.7212992
  71.9607892  28.7912285  28.7193391  71.9020438  28.1071505  28.0523974
  72.3627410  29.5331275  28.2674017  62.6850047  18.8410149  27.6182451
  62.1487404  18.3900888  28.2704047  62.0966756  18.9756058  26.8752915
  60.9798591  35.6074199  21.5127109  61.2195189  36.2392723  22.1906128
  60.1367787  35.2562239  21.7992469  71.9625299  26.7551869  26.9507370
  71.0752078  26.4177790  27.0733769  72.5323850  26.0234900  27.1876136
  53.6154446  23.0875960  20.2750422  54.3025486  22.7737690  19.6871437
  53.4602575  23.9917325  20.0017673  58.4189168  17.9766157  24.7035445
  58.3347357  17.3691826  23.9685855  57.5971875  18.4675175  24.7044942
  65.4926453  31.4153321  23.9168613  65.4196624  32.2208292  24.4287918
  65.0503846  31.6145287  23.0916635  65.2816232  30.6525091  17.4271435
  64.4983754  31.1946771  17.5209660  65.9808977  31.1699071  17.8265676
  68.5912882  16.4619720  20.0705640  69.0881582  15.7089683  19.7506711
  67.8199864  16.4984037  19.5048850  76.4442640  22.1660086  21.7123932
  76.4332516  23.0484801  21.3417865  75.5760019  21.8131637  21.5178469
  67.9525136  31.3140155  26.0726772  68.6653108  31.9487620  26.0002674
  67.4615165  31.4104021  25.2566774  69.6742663  25.2191408  17.6444064
  68.7398942  25.3392870  17.4748768  69.8519331  24.3163874  17.3804074
  65.1747851  18.6037103  19.7977325  64.8045639  18.0508144  20.4858231
  65.6706944  17.9995237  19.2452325  73.0615214  21.0608727  18.1794098
  73.5275667  21.8936719  18.1054401  73.5122715  20.5953709  18.8839356
  63.0037050  29.0634598  26.8932343  63.7046509  29.6971081  27.0461737
  62.5332165  29.4049330  26.1327982  71.1291445  27.4052548  15.1780250
  71.4051289  27.2909143  16.0874124  70.2595944  27.0070033  15.1392423
  71.0331877  13.4289314  22.2184999  70.1194957  13.6593541  22.3867206
  71.4624979  13.5127758  23.0699032  70.8038336  21.6179206  24.7184893
  70.1509786  21.8655113  24.0637346  71.1818716  20.8043344  24.3847371
  67.7645509  31.6538899  18.8213064  67.9467904  30.8360555  19.2840816
  68.5878495  31.8706591  18.3837954  68.0987675  30.5807084  16.0828112
  68.6275441  30.0699539  15.4698274  68.3615895  30.2649614  16.9473645
  66.8525909  22.3599017  31.2050930  66.1766546  22.2593146  31.8753306
  67.6753543  22.2038231  31.6686928  58.6004768  28.5970954  23.8263446
  59.1858205  27.8514641  23.9591350  58.4029606  28.9074910  24.7100110
  61.4543423  31.6322201  18.8425888  60.7853798  32.1168329  18.3589928
  61.3156293  31.8791421  19.7569267  53.1922422  21.1676554  22.5467889
  53.2306522  20.6340144  23.3405007  52.6862715  20.6411759  21.9278866
  65.5948692  33.6665944  25.4408546  66.1467000  33.8297566  26.2057632
  65.9354885  34.2570382  24.7688571  60.5713185  16.0141094  26.0430431
  60.6354511  16.8755925  25.6307829  60.5080305  15.4015096  25.3102790
  60.0465457  18.0864227  29.6903465  60.6737496  17.7041304  30.3040990
  59.1893376  17.8678429  30.0559158  70.4459566  28.4927202  31.2957201
  70.9899470  29.1057160  30.8012156  69.8646411  29.0506780  31.8124214
  56.8231000  19.8940656  15.6221820  57.1184441  18.9851334  15.5688874
  55.9219036  19.8728395  15.3002823  68.7317079  31.6147920  22.4272229
  68.6068218  30.8137660  21.9183174  69.3896170  32.1094113  21.9386199
  60.3525247  17.9696652  21.6049369  59.6311833  18.5832620  21.4656842
  61.1418503  18.5054417  21.5266015  70.7951987  29.4156940  24.0551779
  69.8482323  29.2962291  23.9830105  71.1434760  28.5279438  24.1378040
  63.1551561  15.3051079  27.8790021  63.6785962  15.5513376  28.6416330
  62.9363894  16.1371114  27.4593158  58.5518842  17.5754754  15.7461145
  58.2231548  16.6952132  15.5636251  58.9058212  17.5202422  16.6337535
  67.7998420  29.2109656  20.2556131  67.6523383  28.2826364  20.4363701
  68.6251914  29.2329747  19.7713206  61.6660665  17.8627723  16.1136623
  62.0056737  18.3913645  15.3915231  62.1132785  18.2008129  16.8895190
  71.4032542  30.0338215  21.3421004  72.3279090  29.8281076  21.2045455
  71.2347846  29.7854616  22.2510345  64.3604106  16.2464774  25.5639691
  64.0200926  15.4472587  25.9660371  63.6543112  16.5466485  24.9916524
  65.0120577  13.3314086  24.0167014  65.8346647  12.8574565  23.8945904
  65.2558641  14.1104570  24.5165700  63.6528812  16.3602345  14.3129916
  64.3737174  16.7383598  13.8093633  63.0294116  17.0791222  14.4164894
  67.7959935  17.0647494  15.2488248  68.0123549  17.9472132  14.9477076
  67.3154002  16.6733707  14.5193890  62.5359156  20.0233207  21.8258993
  62.3903737  20.3373510  22.7183274  62.0584360  20.6418107  21.2729891
  64.3955539  17.0135755  21.8739882  64.3817108  16.1176848  21.5372180
  65.1127967  17.0206419  22.5078168  66.2481670  17.4473095  23.9193010
  65.9899448  18.3690166  23.9177340  65.7166710  17.0503530  24.6093474
  57.0104818  22.5638552  24.7646654  56.4658286  23.3398359  24.8966928
  57.8884168  22.9109356  24.6065775  63.7992435  15.8950135  17.1427452
  63.9208346  14.9666782  17.3418340  63.5094477  15.9088821  16.2305768
  66.6683625  13.5805046  20.2794172  66.6905322  13.6444379  19.3246152
  67.0851684  12.7409554  20.4734678  77.0467250  23.3160305  18.3173395
  77.4898396  22.5667631  17.9192518  76.1693760  23.3070442  17.9347127
  72.1803031  29.8690647  13.7979993  72.8753936  30.4897340  14.0167308
  72.5226181  29.0185998  14.0732371  57.7970840  21.6908448  27.6576811
  57.0552576  21.8391083  28.2441441  57.4763584  21.9516713  26.7943560
  65.7414503  31.2324426  27.4557201  66.0501629  30.9873573  28.3279900
  66.5389985  31.4371064  26.9676071  65.7635115  33.3862336  19.6862577
  65.3240105  32.8938714  20.3795434  66.5143232  32.8435303  19.4454653
  58.2427454  29.5773877  19.6887205  59.0685474  29.2777648  19.3085849
  57.8921506  28.8081499  20.1376994  63.2108987  28.9300345  21.7584879
  62.5888996  28.2671050  21.4587107  63.8813854  28.9561477  21.0758527
  56.4436059  27.4960203  20.6476139  55.6067967  27.0682377  20.4660140
  56.4159704  27.6892646  21.5846930  63.2833515  17.4082133  31.3517385
  63.3321670  18.2844256  30.9695155  63.8256029  16.8659526  30.7789028
  73.7688360  27.9523256  30.6318522  72.9783904  27.9347395  30.0923021
  73.5321715  28.4911550  31.3867559  73.8886235  24.8015722  27.9451251
  73.9384240  24.6365730  28.8866773  73.7800159  23.9342981  27.5549131
  62.7722494  27.4804268  15.2343340  62.9210614  28.1639732  14.5810012
  63.5788937  27.4609358  15.7492795  71.1789998  20.7846650  29.2610557
  72.0799860  20.6453115  28.9694555  71.2537972  20.9501105  30.2008735
  65.5132803  18.1613505  28.1063744  64.6436112  18.4547071  27.8346332
  65.7492283  18.7453950  28.8271007  75.3904432  27.2212664  28.1893272
  75.0989240  27.5842644  29.0256733  74.7776563  26.5079672  28.0106604
  76.5900114  24.7865544  20.7095842  77.4247006  25.2255348  20.8733403
  76.7259243  24.3104197  19.8904088  73.6391620  22.3445279  26.6573330
  74.1145742  22.5372925  25.8492182  72.7157186  22.4004464  26.4116714
  60.5275127  23.5069446  16.2404408  60.2821169  22.6031776  16.4384619
  60.6971041  23.5086596  15.2983886  68.2171837  14.3793122  25.6229164
  68.7353781  15.1154149  25.2975653  67.8626970  14.6857115  26.4575923
  59.7970774  19.2397803  13.7390570  59.1040019  19.3142158  13.0830606
  59.5522526  18.4758147  14.2612087  68.4684431  10.7993405  21.1430061
  68.7486185  10.1316594  21.7690487  69.2535038  10.9922500  20.6304724
  66.2717899  29.9752399  12.7055087  65.6991867  30.5942586  12.2525559
  66.8450693  30.5251760  13.2395009  72.3393289  19.2211039  24.8901636
  73.2910712  19.3209136  24.9113860  72.1696740  18.4289307  25.3999720
  70.3607669  16.3066622  25.0761037  69.7657601  16.5871635  24.3807525
  70.0757365  16.7960523  25.8477778  69.4915159  30.2589549  13.8363669
  70.4245832  30.1935110  14.0396545  69.4038372  31.0945816  13.3778202
  72.1203176  29.5755419  10.7967617  72.0416807  29.2415283  11.6903375
  72.9412843  30.0677187  10.7959089  74.8181367  22.4417158  24.0043935
  74.7857687  21.5033159  24.1903619  75.4281991  22.5201195  23.2709760
  66.6564698  21.3113211  10.0471139  67.6023803  21.1819419  10.1159557
  66.2778943  20.5727873  10.5240568  74.9675856  19.2328202  24.0502219
  74.4514904  18.4486658  23.8632147  75.8515804  18.9046918  24.2148738
  72.6286583  12.9769217  20.0098031  72.4311404  12.6684306  20.8941363
  73.2386288  13.7030856  20.1395961  80.6357917  23.5033165  23.1449972
  81.3661305  23.2418453  23.7057676  80.0264862  22.7661887  23.1852040
  78.7173214  21.6441028  23.7424423  77.9906378  21.5096993  23.1340915
  78.3020501  21.9517856  24.5481141  66.5403390  25.3630957  31.5071796
  67.4606400  25.5409556  31.7011843  66.5052974  24.4187003  31.3551496
  55.7585555  20.5569551  20.4325071  55.4388340  19.7034859  20.1399445
  55.2118984  20.7718129  21.1883038  59.5365463  23.2731992  24.1494578
  59.7551473  24.2049100  24.1682611  59.9491237  22.9139966  24.9349381
  66.4569681  13.7800077  16.1370266  65.6470409  13.4347162  16.5125512
  67.1454098  13.4707621  16.7257878  68.3860229  12.8578124  17.7594563
  68.9391268  13.2773578  18.4184586  68.6230315  11.9313872  17.8017519
  64.4093328  18.8465198  33.5397326  64.3090055  19.7959555  33.4709418
  64.1914870  18.5183437  32.6673397  55.6273815  24.1772463  22.4018193
  54.9337287  23.7626415  21.8888147  56.3746806  24.2192999  21.8051612
  71.7639036  14.9678649  17.2673227  71.1837705  15.6263453  16.8851279
  71.4974969  14.1455994  16.8560644  70.2142603  14.3683707  19.4694547
  70.7142381  14.4800242  18.6608866  70.8578211  14.0644760  20.1095356
  64.2724598  22.2762337  32.3562388  63.7891680  23.0762697  32.5626277
  64.3585537  22.2870282  31.4029832  57.5410558  24.1090716  20.2784208
  57.5181246  24.2078404  19.3266091  57.8511195  24.9555867  20.6001374
  60.1997936  26.1666871  24.3930822  61.1541189  26.1350814  24.3260753
  60.0010459  25.7057495  25.2081048  60.7897318  24.7367987  26.9601620
  61.6090207  25.2312066  26.9836457  61.0634126  23.8199956  26.9319187
  70.5463914  17.1278740  16.3229575  69.6589769  17.4128390  16.1049770
  70.9617903  16.9672503  15.4756852  73.8978450  17.1525261  20.0383914
  74.6738840  17.6421713  20.3108531  73.1726585  17.5783315  20.4955784
  76.3351009  17.8652880  21.0957855  76.9295500  17.6248616  20.3851163
  76.4077593  17.1460011  21.7231391  58.5548165  31.7086491  21.4101020
  58.4202633  30.9486892  20.8439018  58.1380227  32.4327391  20.9429809
  69.6907128  26.8923414  10.4177595  70.3942978  27.0973417  11.0335251
  68.9669776  27.4600176  10.6826679  70.5204938  22.6433276  16.5379865
  70.4640139  23.1001827  15.6987498  71.0733280  21.8823960  16.3602708
  74.3309744  18.4323008  17.3629985  74.0746678  18.0319643  18.1938192
  73.7062612  19.1466801  17.2380124  61.7117291  32.6055808  21.6219462
  61.5949675  33.5501240  21.5198153  60.8909737  32.3029369  22.0105262
  71.5993825  27.3305944  12.4676055  72.4339429  26.8987142  12.2853530
  71.4378168  27.1587957  13.3952950  71.2539717  23.8338057  13.8332394
  71.1988521  23.6682328  12.8920839  70.6285773  24.5414090  13.9894584
  56.0432232  19.0706121  27.6593817  56.6891096  18.5605075  28.1481042
  55.8349383  19.8074803  28.2337242  68.5685624  26.1386969  33.1585957
  69.4376784  26.3127621  32.7972592  68.0892376  26.9581386  33.0361687
  64.5635843  13.3346166  13.4117713  64.5514513  14.2788006  13.5685984
  65.4559265  13.1516311  13.1177174  62.7371805  33.2584070  24.8375391
  63.6399051  33.2907680  25.1541886  62.5109175  32.3284521  24.8521727
  64.4925407  32.0115056  21.4985469  63.5421038  32.0116918  21.3849842
  64.7957893  31.2647791  20.9821504  68.3787962   9.9288943  17.6663650
  67.6120358   9.3747429  17.8120332  68.7898667  10.0010811  18.5277801
  60.3829723  16.2173738  31.7568831  61.2461185  15.8610543  31.9672155
  59.8095134  15.8787633  32.4444235  80.2278100  37.8475595  22.5631232
  80.8656510  37.7282342  21.8594572  80.1098943  38.7956439  22.6219184
  77.0367806  37.8003023  22.4992757  76.6986318  37.6844088  21.6113291
  77.9057575  37.3994188  22.4793763  72.8954622  39.6538499  18.4889648
  72.3319487  39.5628436  17.7205935  72.7807017  38.8338404  18.9692140
  70.4419054  41.1489691  21.3273868  71.2340346  40.8080515  20.9120167
  70.6815704  41.2584666  22.2476021  78.4754181  43.3209467  13.8004112
  77.8242161  43.9063547  13.4138126  79.2698544  43.8515662  13.8599150
  72.4009808  40.4098604  14.1991247  73.1740684  39.8627591  14.0604123
  72.7535207  41.2742853  14.4105708  75.1651057  39.1151835  23.9959506
  75.7614630  38.8907857  23.2816469  75.2226029  38.3736580  24.5984954
  74.7376086  36.5691270  11.8309697  74.9901607  36.0472791  11.0693160
  73.8000645  36.4057416  11.9336380  79.7819369  35.5727049  19.6384440
  80.5682458  35.1546472  19.2874857  80.0458073  36.4773141  19.8066088
  79.9529446  41.0099899  14.3373097  79.3175279  41.0834525  15.0494001
  79.6226852  41.5993498  13.6592176  85.1827796  35.5102282  20.5417418
  85.9152968  34.9401499  20.7755248  84.4267152  35.1223882  20.9823924
  74.4572375  38.4719376  14.0334072  74.3408633  37.7964280  14.7015156
  74.5674635  37.9851750  13.2166225  76.8003916  37.9329523  17.7380761
  76.4362123  37.4060144  18.4493682  77.6571031  37.5427992  17.5647246
  82.7053216  29.2223856  25.0012027  82.3736541  30.0919267  24.7773242
  82.1098830  28.9060140  25.6806057  76.4409403  32.9619423  12.7342109
  76.6083805  33.8299659  13.1012580  76.2506572  33.1246705  11.8103399
  79.1984736  41.4236402  24.4007940  78.8985459  42.3261441  24.2923747
  78.8535795  41.1568585  25.2529093  72.6497217  37.8750199  20.4344644
  71.7247714  37.7426413  20.6422336  72.8981630  38.6544418  20.9314587
  82.5981879  33.9418942  22.0805377  81.6898757  33.8734350  21.7864138
  82.5469475  34.4190887  22.9087203  70.0106028  37.5183472  21.2688433
  70.1398409  37.7717951  22.1827845  69.3303480  38.1111180  20.9493088
  74.1805516  48.1880722  17.3678907  74.1029545  49.1388547  17.4467388
  73.5767159  47.8426595  18.0253834  84.4643526  32.1435380  23.8583251
  83.8217906  32.4367914  23.2123046  83.9598454  32.0288301  24.6636448
  82.1183690  35.8898554  14.5469110  83.0301546  36.1225940  14.3716808
  81.6093337  36.4735598  13.9844189  74.9269118  38.1694041  29.5858241
  75.6683802  38.7079085  29.3093065  74.2206103  38.7960330  29.7429793
  76.7555527  35.2495788  25.5563960  77.6016722  35.6735202  25.6998609
  76.6954165  34.5929413  26.2502523  80.7253272  40.8724372  21.9382692
  80.0962134  41.0370086  21.2358760  80.3378934  41.2865982  22.7093656
  84.6042504  41.8078810  19.2927056  83.9193542  42.1877711  18.7424089
  84.6886353  42.4174137  20.0259003  79.9054973  32.9100157  27.2145133
  79.6615904  33.6642217  26.6779409  80.1814903  33.2885504  28.0492381
  81.8593435  39.4538769  25.8922399  82.0710331  40.0970529  25.2156780
  81.8123184  38.6201086  25.4244329  79.4619664  32.0656590  22.7958971
  78.6004143  32.3637843  23.0875709  79.4882099  32.2826989  21.8640004
  76.2781234  40.6098780  19.2032777  76.7419579  40.8886483  18.4137399
  76.0138032  39.7082225  19.0205868  73.1705315  40.1570262  22.1412540
  73.7406672  40.5857530  21.5030025  73.7613427  39.8752846  22.8396726
  75.2150120  36.7321933  16.0122342  75.9174163  37.1842976  16.4796268
  74.8830748  36.0905751  16.6402235  73.6630481  35.3233689  30.3873551
  73.0329142  36.0049970  30.6208948  73.5566569  35.2116771  29.4426690
  68.9575454  34.9905485  21.3139476  68.1674508  35.2463014  20.8379586
  69.4486701  35.8053823  21.4191516  82.9739263  42.3310724  24.0644756
  83.7956707  41.9290912  23.7827438  82.9701666  42.2278959  25.0160872
  70.9090199  35.3550064  18.2722952  70.1121362  35.4668759  18.7906448
  70.6815791  35.6936717  17.4063843  67.2413157  35.2435976  23.7454466
  67.4921195  36.1282986  24.0112042  67.7772705  35.0640577  22.9729558
  91.0645256  38.6749473  20.4129728  90.3108965  38.1056871  20.2573732
  91.1992798  38.6412137  21.3600363  76.4543884  43.5462875  16.0884447
  76.3189559  44.3914411  16.5169295  76.9953697  43.7482153  15.3250381
  72.9411224  29.6254455  32.7498802  72.5478170  29.0720654  33.4246447
  73.7577364  29.9365033  33.1405320  69.9073282  41.0638313  16.6612372
  70.4197802  41.8581563  16.8117937  70.5595995  40.3664604  16.5945974
  71.7168167  44.1804069  18.7435125  71.8934795  45.1022034  18.5556109
  72.5125000  43.8662489  19.1729505  71.0020523  36.2268701  28.6197289
  70.8874038  35.3253959  28.9204388  70.1465041  36.4732398  28.2682105
  79.8036348  27.0693437  24.6183341  79.4600617  27.9595079  24.5422451
  80.1715311  26.8795095  23.7552926  67.8722199  39.3926968  17.4371943
  68.7097421  39.8023976  17.2205651  68.0500466  38.4526410  17.4072137
  79.7686631  37.0602048  13.1255776  79.2533254  37.8306653  13.3644163
  79.4963939  36.3867184  13.7488837  78.8832888  29.4398092  22.5832574
  78.3797684  29.4028227  21.7700379  79.1763495  30.3490835  22.6429231
  75.1275774  29.5236822  21.5898756  75.9928771  29.3279631  21.2304645
  75.1953283  29.2947174  22.5168112  84.7420905  39.8134403  15.0608949
  83.9650348  39.4745562  14.6164111  85.4212386  39.8187026  14.3863914
  78.0019366  41.0919364  16.6008511  77.4740727  40.3572123  16.2881748
  77.5006868  41.8694040  16.3548479  82.9812212  39.2868384  21.7175557
  82.3235886  39.9767645  21.8055686  83.7852611  39.6764816  22.0609544
  72.7338093  31.7539030  18.9615122  73.3081845  31.5314211  18.2288315
  73.3209076  31.8227724  19.7143724  81.7917671  37.6412757  19.7679499
  82.3049552  38.2742749  20.2701209  82.4418894  37.0413952  19.4022859
  73.0607680  33.7843491  12.9811008  72.2244993  34.1218177  13.3020282
  72.9212450  33.6492471  12.0438145  75.0360761  28.6280279  17.6890192
  74.3825173  28.3129296  17.0646807  74.9941235  28.0056019  18.4150015
  76.1471966  38.9099574   9.6043484  75.2399028  38.6788827   9.8034633
  76.6442998  38.1137193   9.7917466  79.0540045  47.6197081  12.5240170
  78.3801744  47.9228778  13.1325128  79.4405867  48.4226161  12.1745627
  78.2698501  35.1162212  22.0137840  77.3521063  35.3377159  21.8559528
  78.6858645  35.1908523  21.1549547  79.0533549  36.5153628  17.1440520
  79.8005368  37.0275025  16.8347642  79.3225139  36.1937681  18.0044913
  77.3260199  39.0112169  14.1267474  76.4171419  38.7271202  14.2239944
  77.3555283  39.4311247  13.2670781  82.5579467  42.6218758  17.8958642
  82.1041794  41.7809668  17.9523832  81.9273433  43.2580157  18.2333422
  81.5012386  33.5510744  19.1259309  80.7635143  33.0388130  19.4569552
  81.7539160  33.1111126  18.3142586  81.0012406  44.4595255  18.8308460
  81.2935380  45.0200312  18.1120825  81.5111027  44.7523816  19.5861619
  81.6024014  26.3286996  19.7201078  81.9082890  25.4684360  19.4326993
  82.3276618  26.9204616  19.5200072  67.8948370  36.7317683  18.1082676
  67.6972770  36.1387044  17.3833743  67.3395034  36.4269893  18.8258615
  75.8745093  36.6240789  20.2277269  75.9293703  35.6714626  20.1519746
  75.0636295  36.7800228  20.7118568  77.0236287  40.5520912  11.4655553
  76.5855717  39.8356771  11.0061190  77.7646728  40.7797027  10.9040644
  75.9646031  45.2375606  19.9201913  75.9222210  45.4636452  18.9910445
  76.8808730  45.0038981  20.0687714  79.4111665  35.7059674  26.8182542
  79.7661053  35.9331147  27.6777008  80.0583796  36.0378050  26.1959797
  85.1409402  38.8278109  17.5231871  85.0027301  39.0179705  16.5953060
  84.7845621  39.5897492  17.9799922  73.3051528  32.8136205  23.6028883
  73.9450907  32.6724964  22.9051847  72.4729059  32.5270718  23.2267485
  85.1678782  40.8954636  22.5343143  85.6015288  40.8029926  23.3826197
  85.8810362  40.8712137  21.8963159  74.0811832  42.1138635  19.7163876
  74.8752430  41.6188955  19.5146451  73.3703524  41.5856498  19.3531581
  70.3894595  36.2581717  15.7923628  69.4592184  36.1966172  16.0093591
  70.4852067  35.7357669  14.9960270  70.3080144  32.7836530  18.3801870
  70.5686962  33.6981863  18.2711030  71.1297317  32.3160972  18.5298483
  71.7805070  34.1974287  25.5500695  72.4528123  33.9891649  24.9013343
  70.9534856  33.9996373  25.1105927  86.0294331  40.9378337  25.0676028
  86.2230221  41.8424148  25.3135303  85.9294949  40.4785756  25.9014613
  77.8594776  38.6616993  25.6263175  78.7886836  38.8128152  25.4532142
  77.4385806  38.7501013  24.7711822  76.6583108  42.6867657  23.3961713
  76.5194194  42.3186441  24.2687651  75.8697704  43.2015296  23.2245671
  77.2531260  47.7876753  14.7387249  77.4283016  47.3164797  15.5532872
  76.5664048  48.4142520  14.9668510  78.2088323  42.0649260  20.7850551
  77.8738156  42.0250030  21.6808200  77.7092269  41.3993976  20.3120961
  72.1832567  37.4716890  26.3103132  72.0452365  36.7397129  26.9114671
  73.0937491  37.3825790  26.0287319  81.1447515  39.4105294  11.0587610
  80.5276685  38.6852122  10.9620663  80.6764003  40.1714654  10.7154684
  74.8114868  37.1836849  25.7986811  75.5214486  36.5430041  25.7573430
  74.7684176  37.4349744  26.7212992  82.8001646  44.1204202  28.7193391
  82.7414193  43.4363423  28.0523974  83.2021165  44.8623192  28.2674017
  73.5243802  34.1702067  27.6182451  72.9881159  33.7192805  28.2704047
  72.9360510  34.3047976  26.8752915  72.9346061  33.6290718  10.1808914
  72.0575527  33.5079519   9.8171161  73.4103814  32.8376797   9.9287803
  82.8019054  42.0843786  26.9507370  81.9145832  41.7469708  27.0733769
  83.3717605  41.3526818  27.1876136  64.4548201  38.4167878  20.2750422
  65.1419241  38.1029608  19.6871437  64.2996329  39.3209243  20.0017673
  69.2582923  33.3058075  24.7035445  69.1741112  32.6983744  23.9685855
  68.4365629  33.7967093  24.7044942  76.1209987  45.9817009  17.4271435
  75.3377509  46.5238689  17.5209660  76.8202732  46.4990988  17.8265676
  79.4306637  31.7911638  20.0705640  79.9275336  31.0381600  19.7506711
  78.6593618  31.8275955  19.5048850  87.2836394  37.4952004  21.7123932
  87.2726270  38.3776719  21.3417865  86.4153774  37.1423555  21.5178469
  80.5136418  40.5483325  17.6444064  79.5792696  40.6684788  17.4748768
  80.6913086  39.6455792  17.3804074  76.0141606  33.9329021  19.7977325
  75.6439393  33.3800062  20.4858231  76.5100698  33.3287155  19.2452325
  81.9685200  42.7344466  15.1780250  82.2445044  42.6201061  16.0874124
  81.0989699  42.3361951  15.1392423  81.8725632  28.7581232  22.2184999
  80.9588711  28.9885458  22.3867206  82.3018733  28.8419676  23.0699032
  81.6432090  36.9471124  24.7184893  80.9903540  37.1947031  24.0637346
  82.0212470  36.1335262  24.3847371  78.6039264  46.9830817  18.8213064
  78.7861659  46.1652473  19.2840816  79.4272250  47.1998509  18.3837954
  78.9381429  45.9099002  16.0828112  79.4669196  45.3991456  15.4698274
  79.2009649  45.5941532  16.9473645  69.4398522  43.9262871  23.8263446
  70.0251959  43.1806559  23.9591350  69.2423361  44.2366828  24.7100110
  72.2937177  46.9614119  18.8425888  71.6247553  47.4460246  18.3589928
  72.1550047  47.2083339  19.7569267  64.0316177  36.4968471  22.5467889
  64.0700276  35.9632062  23.3405007  63.5256470  35.9703677  21.9278866
  71.4106939  31.3433012  26.0430431  71.4748266  32.2047843  25.6307829
  71.3474059  30.7307014  25.3102790  70.8859212  33.4156144  29.6903465
  71.5131251  33.0333222  30.3040990  70.0287131  33.1970346  30.0559158
  67.6624755  35.2232574  15.6221820  67.9578196  34.3143252  15.5688874
  66.7612790  35.2020313  15.3002823  79.5710833  46.9439838  22.4272229
  79.4461973  46.1429577  21.9183174  80.2289924  47.4386031  21.9386199
  71.1919002  33.2988570  21.6049369  70.4705587  33.9124538  21.4656842
  71.9812257  33.8346335  21.5266015  81.6345742  44.7448858  24.0551779
  80.6876077  44.6254209  23.9830105  81.9828515  43.8571356  24.1378040
  73.9945315  30.6342997  27.8790021  74.5179717  30.8805293  28.6416330
  73.7757648  31.4663031  27.4593158  69.3912596  32.9046671  15.7461145
  69.0625302  32.0244050  15.5636251  69.7451967  32.8494340  16.6337535
  78.6392175  44.5401574  20.2556131  78.4917137  43.6118281  20.4363701
  79.4645668  44.5621665  19.7713206  72.5054419  33.1919641  16.1136623
  72.8450492  33.7205562  15.3915231  72.9526540  33.5300047  16.8895190
  82.2426297  45.3630133  21.3421004  83.1672844  45.1572994  21.2045455
  82.0741600  45.1146534  22.2510345  75.1997860  31.5756692  25.5639691
  74.8594680  30.7764505  25.9660371  74.4936866  31.8758403  24.9916524
  75.8514332  28.6606004  24.0167014  76.6740401  28.1866482  23.8945904
  76.0952395  29.4396488  24.5165700  78.6353689  32.3939412  15.2488248
  78.8517304  33.2764049  14.9477076  78.1547756  32.0025625  14.5193890
  73.3752911  35.3525125  21.8258993  73.2297491  35.6665428  22.7183274
  72.8978114  35.9710025  21.2729891  75.2349294  32.3427673  21.8739882
  75.2210862  31.4468766  21.5372180  75.9521722  32.3498337  22.5078168
  77.0875424  32.7765013  23.9193010  76.8293202  33.6982084  23.9177340
  76.5560465  32.3795448  24.6093474  82.0321613  45.8815800  16.6983095
  82.2058491  45.3162223  15.9456948  82.5250504  46.6816695  16.5162585
  67.8498573  37.8930469  24.7646654  67.3052041  38.6690277  24.8966928
  68.7277923  38.2401274  24.6065775  74.6386189  31.2242053  17.1427452
  74.7602101  30.2958699  17.3418340  74.3488232  31.2380739  16.2305768
  77.5077380  28.9096964  20.2794172  77.5299077  28.9736297  19.3246152
  77.9245439  28.0701472  20.4734678  87.8861004  38.6452223  18.3173395
  88.3292150  37.8959548  17.9192518  87.0087514  38.6362359  17.9347127
  83.0196786  45.1982565  13.7979993  83.7147690  45.8189257  14.0167308
  83.3619936  44.3477916  14.0732371  68.6364595  37.0200365  27.6576811
  67.8946331  37.1683001  28.2441441  68.3157339  37.2808631  26.7943560
  84.9188209  42.6482270  15.3267324  85.4439533  42.9869543  14.6016644
  84.8310561  41.7129285  15.1430459  76.6028869  48.7154253  19.6862577
  76.1633860  48.2230632  20.3795434  77.3536986  48.1727221  19.4454653
  69.0821208  44.9065794  19.6887205  69.9079228  44.6069566  19.3085849
  68.7315260  44.1373417  20.1376994  74.0502742  44.2592262  21.7584879
  73.4282751  43.5962967  21.4587107  74.7207608  44.2853394  21.0758527
  67.2829813  42.8252121  20.6476139  66.4461722  42.3974295  20.4660140
  67.2553459  43.0184564  21.5846930  84.7279990  40.1307640  27.9451251
  84.7777995  39.9657648  28.8866773  84.6193913  39.2634899  27.5549131
  73.6116248  42.8096186  15.2343340  73.7604369  43.4931650  14.5810012
  74.4182692  42.7901276  15.7492795  87.4293869  40.1157461  20.7095842
  88.2640760  40.5547265  20.8733403  87.5652998  39.6396115  19.8904088
  84.4785375  37.6737196  26.6573330  84.9539496  37.8664843  25.8492182
  83.5550940  37.7296382  26.4116714  71.3668881  38.8361363  16.2404408
  71.1214923  37.9323693  16.4384619  71.5364796  38.8378514  15.2983886
  79.0565591  29.7085040  25.6229164  79.5747535  30.4446067  25.2975653
  78.7020724  30.0149033  26.4575923  70.6364529  34.5689721  13.7390570
  69.9433774  34.6434076  13.0830606  70.3916281  33.8050065  14.2612087
  79.3078185  26.1285322  21.1430061  79.5879939  25.4608511  21.7690487
  80.0928792  26.3214418  20.6304724  77.1111654  45.3044316  12.7055087
  76.5385621  45.9234503  12.2525559  77.6844448  45.8543678  13.2395009
  83.1787044  34.5502956  24.8901636  84.1304467  34.6501054  24.9113860
  83.0090494  33.7581225  25.3999720  81.2001423  31.6358540  25.0761037
  80.6051355  31.9163552  24.3807525  80.9151120  32.1252440  25.8477778
  80.3308914  45.5881466  13.8363669  81.2639587  45.5227028  14.0396545
  80.2432127  46.4237733  13.3778202  82.9596930  44.9047337  10.7967617
  82.8810562  44.5707200  11.6903375  83.7806597  45.3969105  10.7959089
  85.6575122  37.7709076  24.0043935  85.6251442  36.8325077  24.1903619
  86.2675745  37.8493113  23.2709760  77.4958452  36.6405129  10.0471139
  78.4417557  36.5111337  10.1159557  77.1172697  35.9019791  10.5240568
  85.8069610  34.5620119  24.0502219  85.2908659  33.7778576  23.8632147
  86.6909559  34.2338836  24.2148738  83.4680337  28.3061135  20.0098031
  83.2705158  27.9976223  20.8941363  84.0780043  29.0322774  20.1395961
  91.4751671  38.8325083  23.1449972  92.2055060  38.5710371  23.7057676
  90.8658617  38.0953805  23.1852040  89.5566969  36.9732945  23.7424423
  88.8300132  36.8388910  23.1340915  89.1414255  37.2809774  24.5481141
  75.6801370  34.5655105   9.9826025  74.7732825  34.2688218  10.0588738
  75.9577351  34.2684923   9.1160311  66.5979310  35.8861469  20.4325071
  66.2782094  35.0326777  20.1399445  66.0512738  36.1010047  21.1883038
  70.3759218  38.6023910  24.1494578  70.5945227  39.5341018  24.1682611
  70.7884991  38.2431884  24.9349381  77.2963435  29.1091995  16.1370266
  76.4864164  28.7639080  16.5125512  77.9847852  28.7999539  16.7257878
  74.4500154  31.4242041  10.1238004  75.3119318  31.7496939  10.3833821
  74.6350498  30.6373536   9.6111070  66.4667570  39.5064380  22.4018193
  65.7731041  39.0918333  21.8888147  67.2140561  39.5484917  21.8051612
  81.0536357  29.6975625  19.4694547  81.5536135  29.8092159  18.6608866
  81.6971965  29.3936678  20.1095356  68.3804313  39.4382634  20.2784208
  68.3575001  39.5370321  19.3266091  68.6904949  40.2847785  20.6001374
  81.3857669  32.4570657  16.3229575  80.4983524  32.7420308  16.1049770
  81.8011658  32.2964421  15.4756852  84.7372205  32.4817178  20.0383914
  85.5132595  32.9713631  20.3108531  84.0120339  32.9075233  20.4955784
  87.1744763  33.1944798  21.0957855  87.7689254  32.9540534  20.3851163
  87.2471347  32.4751928  21.7231391  69.3941919  47.0378409  21.4101020
  69.2596387  46.2778809  20.8439018  68.9773981  47.7619308  20.9429809
  80.5300882  42.2215332  10.4177595  81.2336732  42.4265335  11.0335251
  79.8063531  42.7892094  10.6826679  81.3598692  37.9725193  16.5379865
  81.3033894  38.4293745  15.6987498  81.9127035  37.2115878  16.3602708
  85.1703498  33.7614925  17.3629985  84.9140433  33.3611561  18.1938192
  84.5456366  34.4758719  17.2380124  89.4815836  36.5010998  19.8701276
  88.9215394  36.5704188  20.6432838  88.8759340  36.3251983  19.1500772
  82.4387580  42.6597861  12.4676055  83.2733184  42.2279060  12.2853530
  82.2771923  42.4879875  13.3952950  82.0933472  39.1629975  13.8332394
  82.0382276  38.9974246  12.8920839  81.4679527  39.8706008  13.9894584
  66.8825987  34.3998039  27.6593817  67.5284850  33.8896993  28.1481042
  66.6743138  35.1366721  28.2337242  75.4029597  28.6638084  13.4117713
  75.3908267  29.6079924  13.5685984  76.2953019  28.4808229  13.1177174
  75.3319161  47.3406974  21.4985469  74.3814792  47.3408836  21.3849842
  75.6351647  46.5939709  20.9821504  79.2181717  25.2580860  17.6663650
  78.4514113  24.7039347  17.8120332  79.6292422  25.3302729  18.5277801
  71.2223478  31.5465656  31.7568831  72.0854939  31.1902461  31.9672155
  70.6488888  31.2079551  32.4444235  91.0671855  53.1767512  22.5631232
  91.7050265  53.0574260  21.8594572  90.9492698  54.1248356  22.6219184
  87.8761561  53.1294941  22.4992757  87.5380072  53.0136005  21.6113291
  88.7451329  52.7286106  22.4793763  83.7348377  54.9830417  18.4889648
  83.1713242  54.8920354  17.7205935  83.6200772  54.1630321  18.9692140
  88.3581344  54.2829792  28.4578962  88.3469985  53.8882590  27.5859466
  88.5201983  53.5495865  29.0512734  81.2812809  56.4781609  21.3273868
  82.0734101  56.1372433  20.9120167  81.5209459  56.5876584  22.2476021
  89.3147935  58.6501385  13.8004112  88.6635915  59.2355465  13.4138126
  90.1092298  59.1807580  13.8599150  83.2403563  55.7390522  14.1991247
  84.0134439  55.1919509  14.0604123  83.5928961  56.6034771  14.4105708
  85.0788605  57.0666904  27.4058146  84.7878471  57.9712535  27.2904812
  85.7145589  57.1083432  28.1202216  86.0044812  54.4443753  23.9959506
  86.6008384  54.2199775  23.2816469  86.0619783  53.7028498  24.5984954
  85.5769840  51.8983188  11.8309697  85.8295361  51.3764709  11.0693160
  84.6394399  51.7349333  11.9336380  90.6213123  50.9018966  19.6384440
  91.4076212  50.4838389  19.2874857  90.8851828  51.8065058  19.8066088
  90.7923201  56.3391817  14.3373097  90.1569034  56.4126443  15.0494001
  90.4620607  56.9285415  13.6592176  96.0221550  50.8394199  20.5417418
  96.7546722  50.2693416  20.7755248  95.2660906  50.4515800  20.9823924
  85.2966129  53.8011294  14.0334072  85.1802387  53.1256197  14.7015156
  85.4068389  53.3143668  13.2166225  87.6397670  53.2621441  17.7380761
  87.2755877  52.7352062  18.4493682  88.4964786  52.8719910  17.5647246
  93.5446971  44.5515774  25.0012027  93.2130295  45.4211185  24.7773242
  92.9492584  44.2352058  25.6806057  87.2803157  48.2911341  12.7342109
  87.4477559  49.1591577  13.1012580  87.0900326  48.4538622  11.8103399
  90.0378490  56.7528320  24.4007940  89.7379213  57.6553358  24.2923747
  89.6929550  56.4860503  25.2529093  83.4890972  53.2042116  20.4344644
  82.5641468  53.0718330  20.6422336  83.7375385  53.9836336  20.9314587
  93.4375634  49.2710860  22.0805377  92.5292511  49.2026268  21.7864138
  93.3863230  49.7482805  22.9087203  87.2592378  50.7468998  13.7188776
  87.1392003  51.1926049  14.5574257  86.5644966  51.0954316  13.1602314
  80.8499783  52.8475390  21.2688433  80.9792164  53.1009869  22.1827845
  80.1697234  53.4403098  20.9493088  85.0199270  63.5172640  17.3678907
  84.9423300  64.4680465  17.4467388  84.4160914  63.1718512  18.0253834
  87.5116500  50.6900505  30.0240274  86.7349834  51.2494425  30.0143139
  88.1507063  51.1757288  30.5455144  95.3037280  47.4727298  23.8583251
  94.6611661  47.7659831  23.2123046  94.7992209  47.3580218  24.6636448
  92.9577444  51.2190471  14.5469110  93.8695300  51.4517858  14.3716808
  92.4487091  51.8027516  13.9844189  85.7662872  53.4985959  29.5858241
  86.5077556  54.0371003  29.3093065  85.0599858  54.1252247  29.7429793
  91.2418212  55.6415099  28.1830403  91.6501568  55.1997510  27.4385035
  90.5195473  55.0667727  28.4364596  87.5949282  50.5787706  25.5563960
  88.4410477  51.0027119  25.6998609  87.5347919  49.9221330  26.2502523
  91.5647026  56.2016290  21.9382692  90.9355889  56.3662004  21.2358760
  91.1772688  56.6157899  22.7093656  95.4436258  57.1370728  19.2927056
  94.7587296  57.5169629  18.7424089  95.5280108  57.7466054  20.0259003
  90.7448727  48.2392074  27.2145133  90.5009659  48.9934135  26.6779409
  91.0208658  48.6177422  28.0492381  92.6987190  54.7830687  25.8922399
  92.9104085  55.4262447  25.2156780  92.6516938  53.9493003  25.4244329
  90.3013419  47.3948507  22.7958971  89.4397898  47.6929761  23.0875709
  90.3275853  47.6118906  21.8640004  87.1174988  55.9390698  19.2032777
  87.5813334  56.2178401  18.4137399  86.8531786  55.0374142  19.0205868
  84.0099069  55.4862179  22.1412540  84.5800426  55.9149448  21.5030025
  84.6007181  55.2044764  22.8396726  86.0543874  52.0613850  16.0122342
  86.7567918  52.5134894  16.4796268  85.7224503  51.4197669  16.6402235
  84.5024236  50.6525607  30.3873551  83.8722896  51.3341888  30.6208948
  84.3960324  50.5408688  29.4426690  79.7969208  50.3197403  21.3139476
  79.0068262  50.5754931  20.8379586  80.2880456  51.1345741  21.4191516
  93.8133018  57.6602642  24.0644756  94.6350462  57.2582829  23.7827438
  93.8095421  57.5570876  25.0160872  81.7483954  50.6841982  18.2722952
  80.9515117  50.7960676  18.7906448  81.5209546  51.0228634  17.4063843
  87.5789621  57.2086685  26.2205467  87.6434054  57.6707093  27.0563639
  86.8700545  56.5784050  26.3487777 101.9039011  54.0041391  20.4129728
 101.1502719  53.4348789  20.2573732 102.0386552  53.9704055  21.3600363
  87.2937639  58.8754793  16.0884447  87.1583314  59.7206329  16.5169295
  87.8347451  59.0774070  15.3250381  83.7804979  44.9546373  32.7498802
  83.3871924  44.4012571  33.4246447  84.5971119  45.2656951  33.1405320
  80.7467036  56.3930231  16.6612372  81.2591557  57.1873481  16.8117937
  81.3989749  55.6956521  16.5945974  82.5561921  59.5095987  18.7435125
  82.7328549  60.4313952  18.5556109  83.3518755  59.1954406  19.1729505
  88.9206115  59.4978359  30.2184789  88.4769969  58.7114738  29.9005694
  89.5823329  59.6857510  29.5528680  83.6793236  61.0274161  24.7445468
  84.2300662  60.8991224  23.9722462  82.8404712  61.3269050  24.3940361
  91.0187353  59.7781159  28.2466191  91.0005829  60.5990040  27.7546460
  91.9407273  59.6535235  28.4716332  87.4760408  57.2925289  29.0889699
  88.0088744  56.5313577  28.8589007  86.9474489  56.9998941  29.8313853
  90.6430102  42.3985355  24.6183341  90.2994372  43.2886996  24.5422451
  91.0109065  42.2087012  23.7552926  78.7115953  54.7218885  17.4371943
  79.5491175  55.1315894  17.2205651  78.8894221  53.7818327  17.4072137
  90.6080385  52.3893966  13.1255776  90.0927009  53.1598570  13.3644163
  90.3357694  51.7159102  13.7488837  88.1927496  47.2343667  18.1841014
  87.3369093  46.8450517  18.0046653  88.6054448  47.3135627  17.3240800
  89.7226643  44.7690010  22.5832574  89.2191438  44.7320145  21.7700379
  90.0157250  45.6782753  22.6429231  85.9669529  44.8528740  21.5898756
  86.8322526  44.6571548  21.2304645  86.0347038  44.6239091  22.5168112
  95.5814659  55.1426320  15.0608949  94.8044102  54.8037480  14.6164111
  96.2606140  55.1478944  14.3863914  90.3966688  50.2621058  14.9515557
  90.0916824  50.5767207  15.8025700  91.3497130  50.3402478  14.9942890
  88.8413120  56.4211281  16.6008511  88.3134482  55.6864041  16.2881748
  88.3400623  57.1985958  16.3548479  93.8205966  54.6160302  21.7175557
  93.1629641  55.3059563  21.8055686  94.6246365  55.0056734  22.0609544
  83.5731848  47.0830948  18.9615122  84.1475600  46.8606129  18.2288315
  84.1602830  47.1519642  19.7143724  92.6311425  52.9704674  19.7679499
  93.1443307  53.6034666  20.2701209  93.2812649  52.3705870  19.4022859
  83.9001435  49.1135409  12.9811008  83.0638747  49.4510095  13.3020282
  83.7606205  48.9784388  12.0438145  85.8754516  43.9572196  17.6890192
  85.2218928  43.6421214  17.0646807  85.8334990  43.3347937  18.4150015
  86.9865720  54.2391492   9.6043484  86.0792782  54.0080745   9.8034633
  87.4836752  53.4429111   9.7917466  89.8933799  62.9488999  12.5240170
  89.2195498  63.2520695  13.1325128  90.2799621  63.7518079  12.1745627
  89.1092256  50.4454130  22.0137840  88.1914817  50.6669077  21.8559528
  89.5252400  50.5200440  21.1549547  89.8927304  51.8445546  17.1440520
  90.6399123  52.3566943  16.8347642  90.1618893  51.5229598  18.0044913
  88.1653954  54.3404086  14.1267474  87.2565173  54.0563119  14.2239944
  88.1949038  54.7603165  13.2670781  93.3973221  57.9510676  17.8958642
  92.9435548  57.1101586  17.9523832  92.7667188  58.5872074  18.2333422
  92.3406141  48.8802662  19.1259309  91.6028898  48.3680048  19.4569552
  92.5932914  48.4403044  18.3142586  91.8406160  59.7887173  18.8308460
  92.1329135  60.3492230  18.1120825  92.3504781  60.0815734  19.5861619
  92.4417768  41.6578914  19.7201078  92.7476645  40.7976277  19.4326993
  93.1670373  42.2496534  19.5200072  78.7342124  52.0609601  18.1082676
  78.5366524  51.4678961  17.3833743  78.1788788  51.7561811  18.8258615
  86.7138848  51.9532707  20.2277269  86.7687458  51.0006543  20.1519746
  85.9030050  52.1092146  20.7118568  87.8630042  55.8812830  11.4655553
  87.4249472  55.1648689  11.0061190  88.6040482  56.1088945  10.9040644
  84.6531208  50.5709767  17.9867648  83.8399073  50.8703937  18.3932840
  85.1490202  50.1765456  18.7042131  86.8039786  60.5667524  19.9201913
  86.7615964  60.7928370  18.9910445  87.7202485  60.3330898  20.0687714
  90.2505419  51.0351591  26.8182542  90.6054807  51.2623064  27.6777008
  90.8977551  51.3669968  26.1959797  95.9803156  54.1570027  17.5231871
  95.8421055  54.3471623  16.5953060  95.6239375  54.9189410  17.9799922
  84.1445283  48.1428122  23.6028883  84.7844662  48.0016881  22.9051847
  83.3122813  47.8562636  23.2267485  96.0072536  56.2246554  22.5343143
  96.4409043  56.1321843  23.3826197  96.7204117  56.2004055  21.8963159
  84.9205586  57.4430553  19.7163876  85.7146185  56.9480873  19.5146451
  84.2097279  56.9148416  19.3531581  89.7400431  59.8248648  24.0676243
  89.7937453  60.3939585  24.8353959  88.8715212  59.9950533  23.7030280
  81.2288350  51.5873634  15.7923628  80.2985938  51.5258090  16.0093591
  81.3245822  51.0649587  14.9960270  81.1473899  48.1128447  18.3801870
  81.4080716  49.0273780  18.2711030  81.9691071  47.6452890  18.5298483
  82.6198824  49.5266204  25.5500695  83.2921878  49.3183567  24.9013343
  81.7928611  49.3288290  25.1105927  96.8688086  56.2670255  25.0676028
  97.0623976  57.1716065  25.3135303  96.7688704  55.8077674  25.9014613
  88.5224396  46.1528145  27.5666355  87.8752311  46.8518095  27.4730832
  89.2925412  46.5864289  27.9342604  91.9303194  56.4176998  30.6416909
  91.7788701  56.1887549  29.7246992  91.9207874  57.3747599  30.6548254
  88.6988531  53.9908910  25.6263175  89.6280591  54.1420070  25.4532142
  88.2779561  54.0792931  24.7711822  87.4976862  58.0159575  23.3961713
  87.3587948  57.6478359  24.2687651  86.7091459  58.5307214  23.2245671
  88.0925014  63.1168671  14.7387249  88.2676770  62.6456714  15.5532872
  87.4057802  63.7434437  14.9668510  89.0482078  57.3941177  20.7850551
  88.7131910  57.3541947  21.6808200  88.5486023  56.7285893  20.3120961
  83.0226322  52.8008807  26.3103132  82.8846119  52.0689046  26.9114671
  83.9331245  52.7117707  26.0287319  91.9841269  54.7397212  11.0587610
  91.3670440  54.0144040  10.9620663  91.5157758  55.5006572  10.7154684
  85.6508622  52.5128767  25.7986811  86.3608241  51.8721959  25.7573430
  85.6077930  52.7641662  26.7212992  93.6395401  59.4496120  28.7193391
  93.5807947  58.7655340  28.0523974  94.0414919  60.1915110  28.2674017
  84.3637556  49.4993985  27.6182451  83.8274913  49.0484723  28.2704047
  83.7754265  49.6339893  26.8752915  82.6586100  66.2658034  21.5127109
  82.8982698  66.8976558  22.1906128  81.8155296  65.9146074  21.7992469
  83.7739815  48.9582636  10.1808914  82.8969281  48.8371437   9.8171161
  84.2497568  48.1668714   9.9287803  93.6412808  57.4135704  26.9507370
  92.7539587  57.0761626  27.0733769  94.2111359  56.6818735  27.1876136
  75.2941955  53.7459796  20.2750422  75.9812995  53.4321526  19.6871437
  75.1390084  54.6501160  20.0017673  87.1713962  62.0737156  23.9168613
  87.0984133  62.8792128  24.4287918  86.7291355  62.2729122  23.0916635
  86.9603741  61.3108926  17.4271435  86.1771263  61.8530607  17.5209660
  87.6596486  61.8282906  17.8265676  90.2700391  47.1203556  20.0705640
  90.7669091  46.3673518  19.7506711  89.4987373  47.1567872  19.5048850
  98.1230149  52.8243921  21.7123932  98.1120025  53.7068637  21.3417865
  97.2547528  52.4715472  21.5178469  89.6312645  61.9723990  26.0726772
  90.3440617  62.6071455  26.0002674  89.1402674  62.0687856  25.2566774
  91.3530172  55.8775243  17.6444064  90.4186451  55.9976706  17.4748768
  91.5306840  54.9747710  17.3804074  86.8535360  49.2620939  19.7977325
  86.4833148  48.7091979  20.4858231  87.3494453  48.6579072  19.2452325
  94.7402723  51.7192562  18.1794098  95.2063176  52.5520554  18.1054401
  95.1910224  51.2537544  18.8839356  84.6824559  59.7218434  26.8932343
  85.3834018  60.3554917  27.0461737  84.2119674  60.0633165  26.1327982
  92.8078954  58.0636384  15.1780250  93.0838798  57.9492978  16.0874124
  91.9383453  57.6653868  15.1392423  92.7119386  44.0873149  22.2184999
  91.7982466  44.3177376  22.3867206  93.1412488  44.1711593  23.0699032
  92.4825845  52.2763041  24.7184893  91.8297295  52.5238949  24.0637346
  92.8606224  51.4627179  24.3847371  89.4433018  62.3122734  18.8213064
  89.6255413  61.4944390  19.2840816  90.2666004  62.5290427  18.3837954
  89.7775184  61.2390920  16.0828112  90.3062950  60.7283374  15.4698274
  90.0403404  60.9233450  16.9473645  88.5313418  53.0182852  31.2050930
  87.8554055  52.9176982  31.8753306  89.3541051  52.8622066  31.6686928
  80.2792277  59.2554789  23.8263446  80.8645714  58.5098477  23.9591350
  80.0817115  59.5658746  24.7100110  83.1330932  62.2906036  18.8425888
  82.4641307  62.7752164  18.3589928  82.9943802  62.5375257  19.7569267
  74.8709931  51.8260389  22.5467889  74.9094031  51.2923980  23.3405007
  74.3650224  51.2995595  21.9278866  87.2736200  64.3249780  25.4408546
  87.8254509  64.4881401  26.2057632  87.6142394  64.9154218  24.7688571
  82.2500694  46.6724930  26.0430431  82.3142020  47.5339760  25.6307829
  82.1867814  46.0598931  25.3102790  92.1247075  59.1511037  31.2957201
  92.6686979  59.7640996  30.8012156  91.5433920  59.7090616  31.8124214
  78.5018509  50.5524491  15.6221820  78.7971950  49.6435170  15.5688874
  77.6006545  50.5312231  15.3002823  90.4104588  62.2731755  22.4272229
  90.2855727  61.4721495  21.9183174  91.0683679  62.7677949  21.9386199
  82.0312756  48.6280488  21.6049369  81.3099342  49.2416456  21.4656842
  82.8206012  49.1638253  21.5266015  92.4739496  60.0740775  24.0551779
  91.5269832  59.9546127  23.9830105  92.8222269  59.1863273  24.1378040
  84.8339070  45.9634914  27.8790021  85.3573471  46.2097211  28.6416330
  84.6151403  46.7954949  27.4593158  80.2306351  48.2338589  15.7461145
  79.9019057  47.3535968  15.5636251  80.5845721  48.1786258  16.6337535
  89.4785929  59.8693492  20.2556131  89.3310892  58.9410199  20.4363701
  90.3039423  59.8913582  19.7713206  83.3448174  48.5211559  16.1136623
  83.6844246  49.0497480  15.3915231  83.7920294  48.8591965  16.8895190
  93.0820051  60.6922050  21.3421004  94.0066599  60.4864912  21.2045455
  92.9135355  60.4438452  22.2510345  86.0391615  46.9048609  25.5639691
  85.6988435  46.1056422  25.9660371  85.3330621  47.2050320  24.9916524
  86.6908086  43.9897922  24.0167014  87.5134156  43.5158400  23.8945904
  86.9346150  44.7688406  24.5165700  85.3316321  47.0186180  14.3129916
  86.0524683  47.3967433  13.8093633  84.7081625  47.7375057  14.4164894
  89.4747444  47.7231329  15.2488248  89.6911058  48.6055967  14.9477076
  88.9941511  47.3317543  14.5193890  84.2146665  50.6817042  21.8258993
  84.0691246  50.9957346  22.7183274  83.7371869  51.3001943  21.2729891
  86.0743048  47.6719590  21.8739882  86.0604617  46.7760684  21.5372180
  86.7915476  47.6790254  22.5078168  87.9269179  48.1056931  23.9193010
  87.6686957  49.0274001  23.9177340  87.3954219  47.7087365  24.6093474
  92.8715368  61.2107718  16.6983095  93.0452245  60.6454140  15.9456948
  93.3644259  62.0108613  16.5162585  85.4779944  46.5533971  17.1427452
  85.5995855  45.6250617  17.3418340  85.1881986  46.5672657  16.2305768
  88.3471134  44.2388881  20.2794172  88.3692831  44.3028214  19.3246152
  88.7639193  43.3993390  20.4734678  98.7254759  53.9744141  18.3173395
  99.1685905  53.2251466  17.9192518  97.8481269  53.9654277  17.9347127
  93.8590540  60.5274482  13.7979993  94.5541445  61.1481175  14.0167308
  94.2013690  59.6769833  14.0732371  95.7581963  57.9774188  15.3267324
  96.2833287  58.3161460  14.6016644  95.6704316  57.0421203  15.1430459
  87.4202012  61.8908261  27.4557201  87.7289138  61.6457408  28.3279900
  88.2177494  62.0954900  26.9676071  87.4422624  64.0446171  19.6862577
  87.0027614  63.5522550  20.3795434  88.1930741  63.5019139  19.4454653
  79.9214963  60.2357712  19.6887205  80.7472983  59.9361484  19.3085849
  79.5709015  59.4665334  20.1376994  84.8896496  59.5884180  21.7584879
  84.2676505  58.9254885  21.4587107  85.5601363  59.6145312  21.0758527
  78.1223568  58.1544038  20.6476139  77.2855476  57.7266213  20.4660140
  78.0947213  58.3476482  21.5846930  84.9621024  48.0665968  31.3517385
  85.0109179  48.9428091  30.9695155  85.5043538  47.5243361  30.7789028
  95.4475869  58.6107091  30.6318522  94.6571413  58.5931230  30.0923021
  95.2109224  59.1495385  31.3867559  95.5673744  55.4599558  27.9451251
  95.6171749  55.2949565  28.8866773  95.4587668  54.5926817  27.5549131
  84.4510003  58.1388103  15.2343340  84.5998123  58.8223568  14.5810012
  85.2576446  58.1193193  15.7492795  92.8577507  51.4430486  29.2610557
  93.7587369  51.3036951  28.9694555  92.9325481  51.6084941  30.2008735
  87.1920312  48.8197341  28.1063744  86.3223621  49.1130907  27.8346332
  87.4279792  49.4037786  28.8271007  97.0691941  57.8796499  28.1893272
  96.7776749  58.2426480  29.0256733  96.4564072  57.1663508  28.0106604
  98.2687623  55.4449379  20.7095842  99.1034515  55.8839183  20.8733403
  98.4046752  54.9688032  19.8904088  95.3179129  53.0029114  26.6573330
  95.7933251  53.1956760  25.8492182  94.3944695  53.0588300  26.4116714
  82.2062636  54.1653281  16.2404408  81.9608678  53.2615611  16.4384619
  82.3758550  54.1670432  15.2983886  89.8959346  45.0376957  25.6229164
  90.4141290  45.7737984  25.2975653  89.5414479  45.3440951  26.4575923
  81.4758283  49.8981639  13.7390570  80.7827528  49.9725994  13.0830606
  81.2310035  49.1341982  14.2612087  90.1471940  41.4577240  21.1430061
  90.4273694  40.7900429  21.7690487  90.9322547  41.6506336  20.6304724
  87.9505408  60.6336234  12.7055087  87.3779376  61.2526421  12.2525559
  88.5238202  61.1835596  13.2395009  94.0180798  49.8794874  24.8901636
  94.9698221  49.9792972  24.9113860  93.8484249  49.0873143  25.3999720
  92.0395178  46.9650457  25.0761037  91.4445110  47.2455470  24.3807525
  91.7544874  47.4544358  25.8477778  91.1702668  60.9173384  13.8363669
  92.1033341  60.8518946  14.0396545  91.0825881  61.7529651  13.3778202
  93.7990685  60.2339254  10.7967617  93.7204316  59.8999118  11.6903375
  94.6200352  60.7261022  10.7959089  96.4968876  53.1000994  24.0043935
  96.4645196  52.1616994  24.1903619  97.1069500  53.1785030  23.2709760
  88.3352207  51.9697047  10.0471139  89.2811312  51.8403255  10.1159557
  87.9566452  51.2311709  10.5240568  96.6463365  49.8912037  24.0502219
  96.1302413  49.1070494  23.8632147  97.5303313  49.5630754  24.2148738
  94.3074091  43.6353053  20.0098031  94.1098913  43.3268141  20.8941363
  94.9173797  44.3614692  20.1395961 102.3145426  54.1617001  23.1449972
 103.0448814  53.9002289  23.7057676 101.7052371  53.4245722  23.1852040
 100.3960723  52.3024863  23.7424423  99.6693887  52.1680828  23.1340915
  99.9808010  52.6101692  24.5481141  88.2190899  56.0214793  31.5071796
  89.1393909  56.1993392  31.7011843  88.1840483  55.0770838  31.3551496
  86.5195124  49.8947023   9.9826025  85.6126579  49.5980136  10.0588738
  86.7971105  49.5976841   9.1160311  77.4373064  51.2153386  20.4325071
  77.1175849  50.3618695  20.1399445  76.8906493  51.4301965  21.1883038
  88.1357190  44.4383913  16.1370266  87.3257918  44.0930998  16.5125512
  88.8241607  44.1291456  16.7257878  90.0647738  43.5161960  17.7594563
  90.6178777  43.9357413  18.4184586  90.3017824  42.5897708  17.8017519
  86.0880837  49.5049033  33.5397326  85.9877564  50.4543390  33.4709418
  85.8702379  49.1767272  32.6673397  85.2893909  46.7533958  10.1238004
  86.1513073  47.0788857  10.3833821  85.4744253  45.9665454   9.6111070
  77.3061324  54.8356298  22.4018193  76.6124796  54.4210251  21.8888147
  78.0534315  54.8776834  21.8051612  93.4426545  45.6262485  17.2673227
  92.8625214  46.2847289  16.8851279  93.1762478  44.8039829  16.8560644
  91.8930112  45.0267542  19.4694547  92.3929890  45.1384077  18.6608866
  92.5365719  44.7228595  20.1095356  79.2198067  54.7674552  20.2784208
  79.1968755  54.8662239  19.3266091  79.5298704  55.6139703  20.6001374
  81.8785445  56.8250707  24.3930822  82.8328698  56.7934649  24.3260753
  81.6797968  56.3641330  25.2081048  92.2251423  47.7862575  16.3229575
  91.3377278  48.0712226  16.1049770  92.6405412  47.6256338  15.4756852
  95.5765959  47.8109096  20.0383914  96.3526349  48.3005549  20.3108531
  94.8514094  48.2367150  20.4955784  98.0138518  48.5236715  21.0957855
  98.6083009  48.2832451  20.3851163  98.0865102  47.8043846  21.7231391
  80.2335674  62.3670326  21.4101020  80.0990142  61.6070727  20.8439018
  79.8167736  63.0911226  20.9429809  91.3694637  57.5507250  10.4177595
  92.0730487  57.7557252  11.0335251  90.6457285  58.1184012  10.6826679
  92.1992447  53.3017111  16.5379865  92.1427648  53.7585662  15.6987498
  92.7520789  52.5407796  16.3602708  96.0097253  49.0906843  17.3629985
  95.7534187  48.6903479  18.1938192  95.3850121  49.8050637  17.2380124
 100.3209591  51.8302916  19.8701276  99.7609149  51.8996105  20.6432838
  99.7153094  51.6543901  19.1500772  83.3904800  63.2639643  21.6219462
  83.2737184  64.2085076  21.5198153  82.5697246  62.9613205  22.0105262
  93.2781334  57.9889779  12.4676055  94.1126938  57.5570977  12.2853530
  93.1165677  57.8171793  13.3952950  92.9327226  54.4921892  13.8332394
  92.8776030  54.3266164  12.8920839  92.3073282  55.1997925  13.9894584
  90.2473133  56.7970804  33.1585957  91.1164293  56.9711456  32.7972592
  89.7679885  57.6165221  33.0361687  86.2423352  43.9930001  13.4117713
  86.2302022  44.9371841  13.5685984  87.1346774  43.8100147  13.1177174
  84.4159314  63.9167905  24.8375391  85.3186560  63.9491515  25.1541886
  84.1896684  62.9868356  24.8521727  86.1712916  62.6698892  21.4985469
  85.2208547  62.6700753  21.3849842  86.4745402  61.9231626  20.9821504
  90.0575471  40.5872778  17.6663650  89.2907867  40.0331265  17.8120332
  90.4686176  40.6594647  18.5277801 101.9065609  68.5059430  22.5631232
 102.5444019  68.3866177  21.8594572 101.7886452  69.4540274  22.6219184
  98.7155315  68.4586858  22.4992757  98.3773827  68.3427923  21.6113291
  99.5845084  68.0578023  22.4793763  94.5742131  70.3122335  18.4889648
  94.0106996  70.2212272  17.7205935  94.4594526  69.4922239  18.9692140
  99.1975098  69.6121710  28.4578962  99.1863739  69.2174508  27.5859466
  99.3595738  68.8787783  29.0512734  92.1206563  71.8073526  21.3273868
  92.9127855  71.4664351  20.9120167  92.3603213  71.9168501  22.2476021
 100.1541690  73.9793302  13.8004112  99.5029670  74.5647383  13.4138126
 100.9486053  74.5099497  13.8599150  94.0797317  71.0682439  14.1991247
  94.8528193  70.5211427  14.0604123  94.4322716  71.9326689  14.4105708
  95.9182360  72.3958822  27.4058146  95.6272226  73.3004453  27.2904812
  96.5539344  72.4375349  28.1202216  96.8438566  69.7735670  23.9959506
  97.4402139  69.5491693  23.2816469  96.9013538  69.0320416  24.5984954
  96.4163595  67.2275106  11.8309697  96.6689116  66.7056627  11.0693160
  95.4788154  67.0641251  11.9336380 101.4606878  66.2310884  19.6384440
 102.2469967  65.8130307  19.2874857 101.7245582  67.1356976  19.8066088
 101.6316955  71.6683734  14.3373097 100.9962788  71.7418361  15.0494001
 101.3014361  72.2577333  13.6592176 106.8615305  66.1686117  20.5417418
 107.5940477  65.5985334  20.7755248 106.1054661  65.7807718  20.9823924
  96.1359884  69.1303212  14.0334072  96.0196142  68.4548115  14.7015156
  96.2462143  68.6435585  13.2166225  98.4791425  68.5913359  17.7380761
  98.1149632  68.0643980  18.4493682  99.3358540  68.2011828  17.5647246
 104.3840725  59.8807691  25.0012027 104.0524050  60.7503102  24.7773242
 103.7886339  59.5643975  25.6806057  98.1196912  63.6203258  12.7342109
  98.2871314  64.4883495  13.1012580  97.9294081  63.7830540  11.8103399
 100.8772245  72.0820237  24.4007940 100.5772968  72.9845276  24.2923747
 100.5323304  71.8152420  25.2529093  94.3284726  68.5334034  20.4344644
  93.4035223  68.4010248  20.6422336  94.5769139  69.3128253  20.9314587
 104.2769388  64.6002777  22.0805377 103.3686266  64.5318186  21.7864138
 104.2256984  65.0774722  22.9087203  98.0986132  66.0760916  13.7188776
  97.9785758  66.5217967  14.5574257  97.4038721  66.4246233  13.1602314
  91.6893537  68.1767308  21.2688433  91.8185918  68.4301787  22.1827845
  91.0090989  68.7695016  20.9493088  95.8593024  78.8464558  17.3678907
  95.7817054  79.7972383  17.4467388  95.2554668  78.5010430  18.0253834
  98.3510254  66.0192423  30.0240274  97.5743588  66.5786343  30.0143139
  98.9900817  66.5049206  30.5455144 106.1431035  62.8019216  23.8583251
 105.5005415  63.0951749  23.2123046 105.6385963  62.6872136  24.6636448
 103.7971199  66.5482389  14.5469110 104.7089055  66.7809776  14.3716808
 103.2880846  67.1319433  13.9844189  96.6056627  68.8277876  29.5858241
  97.3471311  69.3662920  29.3093065  95.8993612  69.4544165  29.7429793
 102.0811966  70.9707017  28.1830403 102.4895322  70.5289427  27.4385035
 101.3589228  70.3959644  28.4364596  98.4343036  65.9079624  25.5563960
  99.2804231  66.3319037  25.6998609  98.3741674  65.2513248  26.2502523
 102.4040781  71.5308207  21.9382692 101.7749643  71.6953922  21.2358760
 102.0166443  71.9449817  22.7093656 106.2830013  72.4662645  19.2927056
 105.5981051  72.8461547  18.7424089 106.3673862  73.0757972  20.0259003
 101.5842482  63.5683992  27.2145133 101.3403413  64.3226052  26.6779409
 101.8602412  63.9469340  28.0492381 103.5380944  70.1122604  25.8922399
 103.7497840  70.7554364  25.2156780 103.4910693  69.2784921  25.4244329
 101.1407173  62.7240425  22.7958971 100.2791652  63.0221679  23.0875709
 101.1669608  62.9410824  21.8640004  97.9568743  71.2682616  19.2032777
  98.4207088  71.5470319  18.4137399  97.6925541  70.3666060  19.0205868
  94.8492824  70.8154097  22.1412540  95.4194181  71.2441365  21.5030025
  95.4400936  70.5336682  22.8396726  96.8937629  67.3905768  16.0122342
  97.5961672  67.8426812  16.4796268  96.5618257  66.7489587  16.6402235
  95.3417990  65.9817525  30.3873551  94.7116651  66.6633805  30.6208948
  95.2354078  65.8700606  29.4426690  90.6362963  65.6489321  21.3139476
  89.8462017  65.9046849  20.8379586  91.1274210  66.4637658  21.4191516
 104.6526772  72.9894560  24.0644756 105.4744216  72.5874747  23.7827438
 104.6489175  72.8862794  25.0160872  92.5877708  66.0133900  18.2722952
  91.7908871  66.1252594  18.7906448  92.3603300  66.3520552  17.4063843
  98.4183376  72.5378603  26.2205467  98.4827808  72.9999010  27.0563639
  97.7094300  71.9075968  26.3487777  88.9200666  65.9019811  23.7454466
  89.1708704  66.7866821  24.0112042  89.4560214  65.7224413  22.9729558
 112.7432765  69.3333308  20.4129728 111.9896474  68.7640706  20.2573732
 112.8780307  69.2995973  21.3600363  98.1331393  74.2046711  16.0884447
  97.9977068  75.0498246  16.5169295  98.6741206  74.4065988  15.3250381
  94.6198733  60.2838290  32.7498802  94.2265679  59.7304489  33.4246447
  95.4364873  60.5948869  33.1405320  91.5860791  71.7222149  16.6612372
  92.0985311  72.5165399  16.8117937  92.2383504  71.0248439  16.5945974
  93.3955675  74.8387905  18.7435125  93.5722304  75.7605870  18.5556109
  94.1912509  74.5246324  19.1729505  97.5366694  61.6996169  30.3419059
  98.2776407  62.3003323  30.2623521  97.7684617  60.9573807  29.7837102
  92.6808032  66.8852537  28.6197289  92.5661547  65.9837794  28.9204388
  91.8252550  67.1316233  28.2682105  99.7599870  74.8270277  30.2184789
  99.3163724  74.0406656  29.9005694 100.4217083  75.0149428  29.5528680
  94.5186991  76.3566079  24.7445468  95.0694416  76.2283142  23.9722462
  93.6798467  76.6560968  24.3940361 101.8581108  75.1073077  28.2466191
 101.8399583  75.9281958  27.7546460 102.7801028  74.9827152  28.4716332
  98.3154162  72.6217206  29.0889699  98.8482499  71.8605495  28.8589007
  97.7868243  72.3290858  29.8313853 101.4823857  57.7277272  24.6183341
 101.1388126  58.6178914  24.5422451 101.8502820  57.5378930  23.7552926
  89.5509708  70.0510803  17.4371943  90.3884930  70.4607811  17.2205651
  89.7287975  69.1110245  17.4072137 101.4474140  67.7185884  13.1255776
 100.9320763  68.4890488  13.3644163 101.1751448  67.0451020  13.7488837
  99.0321251  62.5635584  18.1841014  98.1762847  62.1742435  18.0046653
  99.4448202  62.6427545  17.3240800 100.5620397  60.0981928  22.5832574
 100.0585193  60.0612063  21.7700379 100.8551004  61.0074670  22.6429231
  96.8063283  60.1820657  21.5898756  97.6716280  59.9863466  21.2304645
  96.8740792  59.9531009  22.5168112 106.4208414  70.4718238  15.0608949
 105.6437857  70.1329398  14.6164111 107.0999895  70.4770861  14.3863914
 101.2360443  65.5912976  14.9515557 100.9310578  65.9059125  15.8025700
 102.1890885  65.6694396  14.9942890  99.6806875  71.7503199  16.6008511
  99.1528236  71.0155959  16.2881748  99.1794377  72.5277875  16.3548479
 104.6599721  69.9452219  21.7175557 104.0023395  70.6351481  21.8055686
 105.4640120  70.3348651  22.0609544  94.4125602  62.4122865  18.9615122
  94.9869354  62.1898047  18.2288315  94.9996585  62.4811560  19.7143724
 103.4705180  68.2996592  19.7679499 103.9837061  68.9326584  20.2701209
 104.1206403  67.6997788  19.4022859  94.7395189  64.4427326  12.9811008
  93.9032502  64.7802013  13.3020282  94.5999959  64.3076306  12.0438145
  96.7148270  59.2864114  17.6890192  96.0612682  58.9713131  17.0646807
  96.6728744  58.6639855  18.4150015  97.8259475  69.5683409   9.6043484
  96.9186537  69.3372663   9.8034633  98.3230507  68.7721028   9.7917466
  99.9486010  65.7746048  22.0137840  99.0308572  65.9960995  21.8559528
 100.3646154  65.8492358  21.1549547 100.7321058  67.1737463  17.1440520
 101.4792877  67.6858861  16.8347642 101.0012648  66.8521516  18.0044913
  99.0047708  69.6696004  14.1267474  98.0958928  69.3855037  14.2239944
  99.0342792  70.0895083  13.2670781 104.2366976  73.2802594  17.8958642
 103.7829303  72.4393503  17.9523832 103.6060942  73.9163992  18.2333422
 103.1799895  64.2094580  19.1259309 102.4422652  63.6971966  19.4569552
 103.4326669  63.7694961  18.3142586 102.6799915  75.1179090  18.8308460
 102.9722889  75.6784147  18.1120825 103.1898536  75.4107651  19.5861619
 103.2811523  56.9870832  19.7201078 103.5870399  56.1268195  19.4326993
 104.0064127  57.5788452  19.5200072  89.5735879  67.3901518  18.1082676
  89.3760279  66.7970879  17.3833743  89.0182543  67.0853728  18.8258615
  97.5532602  67.2824625  20.2277269  97.6081212  66.3298461  20.1519746
  96.7423804  67.4384064  20.7118568  98.7023796  71.2104748  11.4655553
  98.2643226  70.4940607  11.0061190  99.4434237  71.4380863  10.9040644
  95.4924962  65.9001684  17.9867648  94.6792828  66.1995855  18.3932840
  95.9883956  65.5057373  18.7042131  97.6433540  75.8959441  19.9201913
  97.6009719  76.1220288  18.9910445  98.5596239  75.6622816  20.0687714
 101.0899174  66.3643509  26.8182542 101.4448562  66.5914982  27.6777008
 101.7371305  66.6961886  26.1959797 106.8196911  69.4861945  17.5231871
 106.6814809  69.6763541  16.5953060 106.4633130  70.2481328  17.9799922
  94.9839037  63.4720040  23.6028883  95.6238416  63.3308799  22.9051847
  94.1516568  63.1854553  23.2267485 106.8466291  71.5538472  22.5343143
 107.2802797  71.4613761  23.3826197 107.5597871  71.5295972  21.8963159
  95.7599341  72.7722470  19.7163876  96.5539939  72.2772790  19.5146451
  95.0491033  72.2440333  19.3531581 100.5794185  75.1540566  24.0676243
 100.6331208  75.7231502  24.8353959  99.7108967  75.3242451  23.7030280
  92.0682104  66.9165552  15.7923628  91.1379693  66.8550008  16.0093591
  92.1639576  66.3941505  14.9960270  91.9867653  63.4420365  18.3801870
  92.2474471  64.3565698  18.2711030  92.8084826  62.9744807  18.5298483
  93.4592579  64.8558122  25.5500695  94.1315632  64.6475484  24.9013343
  92.6322365  64.6580208  25.1105927 107.7081840  71.5962172  25.0676028
 107.9017730  72.5007983  25.3135303 107.6082458  71.1369592  25.9014613
  99.3618151  61.4820063  27.5666355  98.7146066  62.1810013  27.4730832
 100.1319166  61.9156207  27.9342604 102.7696949  71.7468915  30.6416909
 102.6182455  71.5179467  29.7246992 102.7601628  72.7039517  30.6548254
  99.5382285  69.3200828  25.6263175 100.4674345  69.4711988  25.4532142
  99.1173315  69.4084849  24.7711822  98.3370617  73.3451492  23.3961713
  98.1981703  72.9770277  24.2687651  97.5485213  73.8599132  23.2245671
  98.9318769  78.4460589  14.7387249  99.1070525  77.9748632  15.5532872
  98.2451557  79.0726355  14.9668510  99.8875832  72.7233095  20.7850551
  99.5525665  72.6833865  21.6808200  99.3879778  72.0577811  20.3120961
  93.8620076  68.1300725  26.3103132  93.7239874  67.3980964  26.9114671
  94.7725000  68.0409625  26.0287319 102.8235024  70.0689129  11.0587610
 102.2064194  69.3435958  10.9620663 102.3551512  70.8298490  10.7154684
  96.4902377  67.8420684  25.7986811  97.2001995  67.2013877  25.7573430
  96.4471685  68.0933579  26.7212992 104.4789155  74.7788038  28.7193391
 104.4201702  74.0947258  28.0523974 104.8808674  75.5207028  28.2674017
  95.2031311  64.8285902  27.6182451  94.6668668  64.3776641  28.2704047
  94.6148019  64.9631811  26.8752915  93.4979854  81.5949952  21.5127109
  93.7376452  82.2268476  22.1906128  92.6549051  81.2437992  21.7992469
  94.6133570  64.2874554  10.1808914  93.7363036  64.1663354   9.8171161
  95.0891323  63.4960632   9.9287803 104.4806563  72.7427622  26.9507370
 103.5933341  72.4053543  27.0733769 105.0505114  72.0110653  27.1876136
  86.1335710  69.0751713  20.2750422  86.8206750  68.7613443  19.6871437
  85.9783838  69.9793078  20.0017673  90.9370432  63.9641910  24.7035445
  90.8528621  63.3567580  23.9685855  90.1153138  64.4550928  24.7044942
  98.0107716  77.4029074  23.9168613  97.9377888  78.2084046  24.4287918
  97.5685109  77.6021040  23.0916635  97.7997496  76.6400844  17.4271435
  97.0165018  77.1822524  17.5209660  98.4990241  77.1574824  17.8265676
 101.1094146  62.4495474  20.0705640 101.6062845  61.6965436  19.7506711
 100.3381127  62.4859790  19.5048850 108.9623903  68.1535839  21.7123932
 108.9513779  69.0360554  21.3417865 108.0941283  67.8007390  21.5178469
 100.4706400  77.3015908  26.0726772 101.1834372  77.9363373  26.0002674
  99.9796428  77.3979774  25.2566774 102.1923926  71.2067161  17.6444064
 101.2580205  71.3268623  17.4748768 102.3700595  70.3039627  17.3804074
  97.6929115  64.5912856  19.7977325  97.3226902  64.0383897  20.4858231
  98.1888207  63.9870990  19.2452325 105.5796478  67.0484480  18.1794098
 106.0456930  67.8812472  18.1054401 106.0303978  66.5829462  18.8839356
  95.5218313  75.0510352  26.8932343  96.2227773  75.6846834  27.0461737
  95.0513428  75.3925083  26.1327982 103.6472709  73.3928301  15.1780250
 103.9232553  73.2784896  16.0874124 102.7777208  72.9945786  15.1392423
 103.5513141  59.4165067  22.2184999 102.6376220  59.6469294  22.3867206
 103.9806242  59.5003511  23.0699032 103.3219599  67.6054959  24.7184893
 102.6691049  67.8530866  24.0637346 103.6999979  66.7919097  24.3847371
 100.2826773  77.6414652  18.8213064 100.4649167  76.8236308  19.2840816
 101.1059759  77.8582344  18.3837954 100.6168938  76.5682837  16.0828112
 101.1456705  76.0575292  15.4698274 100.8797158  76.2525367  16.9473645
  99.3707172  68.3474770  31.2050930  98.6947809  68.2468899  31.8753306
 100.1934806  68.1913984  31.6686928  91.1186031  74.5846707  23.8263446
  91.7039468  73.8390394  23.9591350  90.9210870  74.8950663  24.7100110
  93.9724686  77.6197954  18.8425888  93.3035062  78.1044082  18.3589928
  93.8337556  77.8667174  19.7569267  85.7103686  67.1552307  22.5467889
  85.7487785  66.6215897  23.3405007  85.2043979  66.6287512  21.9278866
  98.1129955  79.6541697  25.4408546  98.6648263  79.8173319  26.2057632
  98.4536148  80.2446135  24.7688571  93.0894448  62.0016847  26.0430431
  93.1535775  62.8631678  25.6307829  93.0261568  61.3890849  25.3102790
  92.5646721  64.0739980  29.6903465  93.1918760  63.6917057  30.3040990
  91.7074640  63.8554182  30.0559158 102.9640829  74.4802955  31.2957201
 103.5080733  75.0932913  30.8012156 102.3827674  75.0382533  31.8124214
  89.3412263  65.8816409  15.6221820  89.6365705  64.9727087  15.5688874
  88.4400299  65.8604148  15.3002823 101.2498342  77.6023673  22.4272229
 101.1249482  76.8013413  21.9183174 101.9077433  78.0969866  21.9386199
  92.8706510  63.9572405  21.6049369  92.1493096  64.5708373  21.4656842
  93.6599766  64.4930170  21.5266015 103.3133251  75.4032693  24.0551779
 102.3663586  75.2838044  23.9830105 103.6616024  74.5155191  24.1378040
  95.6732824  61.2926832  27.8790021  96.1967226  61.5389129  28.6416330
  95.4545157  62.1246867  27.4593158  91.0700105  63.5630507  15.7461145
  90.7412811  62.6827885  15.5636251  91.4239476  63.5078175  16.6337535
 100.3179684  75.1985409  20.2556131 100.1704646  74.2702117  20.4363701
 101.1433177  75.2205500  19.7713206  94.1841928  63.8503476  16.1136623
  94.5238001  64.3789398  15.3915231  94.6314049  64.1883882  16.8895190
 103.9213806  76.0213968  21.3421004 104.8460353  75.8156829  21.2045455
 103.7529109  75.7730369  22.2510345  96.8785369  62.2340527  25.5639691
  96.5382189  61.4348340  25.9660371  96.1724375  62.5342238  24.9916524
  97.5301841  59.3189840  24.0167014  98.3527910  58.8450318  23.8945904
  97.7739904  60.0980323  24.5165700  96.1710075  62.3478098  14.3129916
  96.8918438  62.7259351  13.8093633  95.5475379  63.0666975  14.4164894
 100.3141198  63.0523247  15.2488248 100.5304813  63.9347885  14.9477076
  99.8335265  62.6609460  14.5193890  95.0540420  66.0108960  21.8258993
  94.9085000  66.3249263  22.7183274  94.5765623  66.6293860  21.2729891
  96.9136803  63.0011508  21.8739882  96.8998371  62.1052601  21.5372180
  97.6309231  63.0082172  22.5078168  98.7662933  63.4348848  23.9193010
  98.5080711  64.3565919  23.9177340  98.2347974  63.0379283  24.6093474
 103.7109122  76.5399635  16.6983095 103.8846000  75.9746058  15.9456948
 104.2038013  77.3400530  16.5162585  89.5286082  68.5514305  24.7646654
  88.9839550  69.3274113  24.8966928  90.4065432  68.8985109  24.6065775
  96.3173698  61.8825888  17.1427452  96.4389610  60.9542535  17.3418340
  96.0275741  61.8964574  16.2305768  99.1864889  59.5680799  20.2794172
  99.2086586  59.6320132  19.3246152  99.6032948  58.7285308  20.4734678
 109.5648513  69.3036058  18.3173395 110.0079659  68.5543384  17.9192518
 108.6875023  69.2946195  17.9347127 104.6984294  75.8566400  13.7979993
 105.3935199  76.4773093  14.0167308 105.0407445  75.0061751  14.0732371
  90.3152104  67.6784201  27.6576811  89.5733840  67.8266836  28.2441441
  89.9944848  67.9392466  26.7943560 106.5975718  73.3066105  15.3267324
 107.1227042  73.6453378  14.6016644 106.5098070  72.3713121  15.1430459
  98.2595766  77.2200179  27.4557201  98.5682893  76.9749326  28.3279900
  99.0571248  77.4246818  26.9676071  98.2816378  79.3738089  19.6862577
  97.8421369  78.8814467  20.3795434  99.0324495  78.8311056  19.4454653
  90.7608717  75.5649630  19.6887205  91.5866737  75.2653401  19.3085849
  90.4102769  74.7957252  20.1376994  95.7290251  74.9176098  21.7584879
  95.1070260  74.2546803  21.4587107  96.3995117  74.9437230  21.0758527
  88.9617322  73.4835956  20.6476139  88.1249231  73.0558130  20.4660140
  88.9340968  73.6768399  21.5846930  95.8014778  63.3957886  31.3517385
  95.8502933  64.2720009  30.9695155  96.3437292  62.8535279  30.7789028
 106.2869624  73.9399009  30.6318522 105.4965167  73.9223148  30.0923021
 106.0502978  74.4787303  31.3867559 106.4067499  70.7891475  27.9451251
 106.4565504  70.6241483  28.8866773 106.2981422  69.9218734  27.5549131
  95.2903757  73.4680021  15.2343340  95.4391878  74.1515486  14.5810012
  96.0970201  73.4485111  15.7492795 103.6971261  66.7722403  29.2610557
 104.5981124  66.6328868  28.9694555 103.7719236  66.9376858  30.2008735
  98.0314066  64.1489258  28.1063744  97.1617376  64.4422824  27.8346332
  98.2673547  64.7329703  28.8271007 107.9085696  73.2088417  28.1893272
 107.6170504  73.5718397  29.0256733 107.2957827  72.4955425  28.0106604
 109.1081378  70.7741297  20.7095842 109.9428269  71.2131101  20.8733403
 109.2440507  70.2979950  19.8904088 106.1572884  68.3321032  26.6573330
 106.6327005  68.5248678  25.8492182 105.2338449  68.3880217  26.4116714
  93.0456390  69.4945199  16.2404408  92.8002432  68.5907529  16.4384619
  93.2152305  69.4962349  15.2983886 100.7353100  60.3668875  25.6229164
 101.2535044  61.1029902  25.2975653 100.3808233  60.6732868  26.4575923
  92.3152038  65.2273556  13.7390570  91.6221283  65.3017911  13.0830606
  92.0703790  64.4633900  14.2612087 100.9865694  56.7869158  21.1430061
 101.2667448  56.1192347  21.7690487 101.7716301  56.9798253  20.6304724
  98.7899163  75.9628152  12.7055087  98.2173130  76.5818339  12.2525559
  99.3631957  76.5127513  13.2395009 104.8574553  65.2086792  24.8901636
 105.8091976  65.3084889  24.9113860 104.6878003  64.4165060  25.3999720
 102.8788932  62.2942375  25.0761037 102.2838864  62.5747388  24.3807525
 102.5938629  62.7836276  25.8477778 102.0096423  76.2465302  13.8363669
 102.9427096  76.1810863  14.0396545 101.9219636  77.0821569  13.3778202
 107.3362631  68.4292911  24.0043935 107.3038951  67.4908912  24.1903619
 107.9463254  68.5076948  23.2709760  99.1745961  67.2988964  10.0471139
 100.1205066  67.1695172  10.1159557  98.7960206  66.5603626  10.5240568
 107.4857119  65.2203955  24.0502219 106.9696168  64.4362411  23.8632147
 108.3697068  64.8922671  24.2148738 105.1467846  58.9644970  20.0098031
 104.9492667  58.6560059  20.8941363 105.7567552  59.6906609  20.1395961
 113.1539180  69.4908918  23.1449972 113.8842569  69.2294206  23.7057676
 112.5446126  68.7537640  23.1852040 111.2354478  67.6316781  23.7424423
 110.5087641  67.4972746  23.1340915 110.8201764  67.9393609  24.5481141
  99.0584654  71.3506710  31.5071796  99.9787663  71.5285309  31.7011843
  99.0234237  70.4062756  31.3551496  97.3588879  65.2238941   9.9826025
  96.4520334  64.9272053  10.0588738  97.6364860  64.9268759   9.1160311
  88.2766819  66.5445304  20.4325071  87.9569603  65.6910612  20.1399445
  87.7300247  66.7593882  21.1883038  92.0546727  69.2607745  24.1494578
  92.2732736  70.1924853  24.1682611  92.4672500  68.9015720  24.9349381
  98.9750944  59.7675830  16.1370266  98.1651673  59.4222915  16.5125512
  99.6635361  59.4583374  16.7257878 100.9041493  58.8453877  17.7594563
 101.4572531  59.2649331  18.4184586 101.1411579  57.9189625  17.8017519
  96.9274592  64.8340951  33.5397326  96.8271319  65.7835308  33.4709418
  96.7096134  64.5059190  32.6673397  96.1287663  62.0825876  10.1238004
  96.9906827  62.4080774  10.3833821  96.3138007  61.2957372   9.6111070
  88.1455079  70.1648216  22.4018193  87.4518550  69.7502168  21.8888147
  88.8928070  70.2068752  21.8051612 104.2820300  60.9554402  17.2673227
 103.7018969  61.6139206  16.8851279 104.0156232  60.1331747  16.8560644
 102.7323866  60.3559460  19.4694547 103.2323644  60.4675995  18.6608866
 103.3759474  60.0520513  20.1095356  96.7905862  68.2638090  32.3562388
  96.3072944  69.0638450  32.5626277  96.8766801  68.2746035  31.4029832
  90.0591821  70.0966469  20.2784208  90.0362510  70.1954157  19.3266091
  90.3692458  70.9431620  20.6001374  92.7179199  72.1542624  24.3930822
  93.6722453  72.1226567  24.3260753  92.5191723  71.6933248  25.2081048
  93.3078582  70.7243740  26.9601620  94.1271470  71.2187819  26.9836457
  93.5815389  69.8075709  26.9319187 103.0645178  63.1154493  16.3229575
 102.1771033  63.4004143  16.1049770 103.4799167  62.9548256  15.4756852
 106.4159714  63.1401014  20.0383914 107.1920104  63.6297466  20.3108531
 105.6907848  63.5659068  20.4955784 108.8532272  63.8528633  21.0957855
 109.4476763  63.6124369  20.3851163 108.9258856  63.1335764  21.7231391
  91.0729428  77.6962244  21.4101020  90.9383896  76.9362645  20.8439018
  90.6561490  78.4203144  20.9429809 103.0386201  68.6309029  16.5379865
 102.9821403  69.0877580  15.6987498 103.5914544  67.8699713  16.3602708
 106.8491007  64.4198761  17.3629985 106.5927942  64.0195396  18.1938192
 106.2243875  65.1342555  17.2380124 111.1603345  67.1594834  19.8701276
 110.6002903  67.2288023  20.6432838 110.5546849  66.9835818  19.1500772
  94.2298554  78.5931561  21.6219462  94.1130938  79.5376993  21.5198153
  93.4091000  78.2905122  22.0105262 104.1175089  73.3181697  12.4676055
 104.9520693  72.8862895  12.2853530 103.9559431  73.1463710  13.3952950
 103.7720981  69.8213810  13.8332394 103.7169785  69.6558081  12.8920839
 103.1467036  70.5289843  13.9894584  88.5613496  65.0581874  27.6593817
  89.2072359  64.5480828  28.1481042  88.3530647  65.7950556  28.2337242
 101.0866888  72.1262722  33.1585957 101.9558048  72.3003374  32.7972592
 100.6073639  72.9457139  33.0361687  97.0817106  59.3221919  13.4117713
  97.0695776  60.2663759  13.5685984  97.9740528  59.1392064  13.1177174
  95.2553068  79.2459823  24.8375391  96.1580315  79.2783433  25.1541886
  95.0290438  78.3160274  24.8521727  97.0106670  77.9990809  21.4985469
  96.0602301  77.9992671  21.3849842  97.3139156  77.2523544  20.9821504
 100.8969226  55.9164696  17.6663650 100.1301621  55.3623182  17.8120332
 101.3079931  55.9886564  18.5277801  92.9010987  62.2049491  31.7568831
  93.7642448  61.8486296  31.9672155  92.3276397  61.8663386  32.4444235
 112.7459364  83.8351348  22.5631232 113.3837774  83.7158095  21.8594572
 112.6280207  84.7832192  22.6219184 109.5549070  83.7878776  22.4992757
 109.2167581  83.6719841  21.6113291 110.4238838  83.3869941  22.4793763
 110.0368853  84.9413628  28.4578962 110.0257494  84.5466426  27.5859466
 110.1989492  84.2079700  29.0512734 102.9600318  87.1365444  21.3273868
 103.7521610  86.7956269  20.9120167 103.1996968  87.2460419  22.2476021
 106.7576114  87.7250739  27.4058146 106.4665980  88.6296370  27.2904812
 107.3933098  87.7667267  28.1202216 107.6832321  85.1027588  23.9959506
 108.2795893  84.8783610  23.2816469 107.7407292  84.3612333  24.5984954
 115.2234480  75.2099609  25.0012027 114.8917804  76.0795020  24.7773242
 114.6280093  74.8935893  25.6806057 111.7165999  87.4112155  24.4007940
 111.4166722  88.3137194  24.2923747 111.3717059  87.1444338  25.2529093
 105.1678481  83.8625952  20.4344644 104.2428977  83.7302166  20.6422336
 105.4162894  84.6420171  20.9314587 115.1163143  79.9294695  22.0805377
 114.2080020  79.8610104  21.7864138 115.0650739  80.4066640  22.9087203
 102.5287292  83.5059225  21.2688433 102.6579673  83.7593704  22.1827845
 101.8484743  84.0986933  20.9493088 109.1904009  81.3484341  30.0240274
 108.4137343  81.9078261  30.0143139 109.8294572  81.8341124  30.5455144
 116.9824789  78.1311133  23.8583251 116.3399170  78.4243667  23.2123046
 116.4779718  78.0164054  24.6636448 107.4450381  84.1569794  29.5858241
 108.1865065  84.6954838  29.3093065 106.7387367  84.7836083  29.7429793
 112.9205721  86.2998935  28.1830403 113.3289077  85.8581345  27.4385035
 112.1982982  85.7251562  28.4364596 109.2736791  81.2371541  25.5563960
 110.1197986  81.6610955  25.6998609 109.2135428  80.5805166  26.2502523
 112.4236236  78.8975910  27.2145133 112.1797168  79.6517970  26.6779409
 112.6996167  79.2761257  28.0492381 114.3774699  85.4414522  25.8922399
 114.5891594  86.0846282  25.2156780 114.3304447  84.6076839  25.4244329
 111.9800928  78.0532343  22.7958971 111.1185407  78.3513596  23.0875709
 112.0063362  78.2702742  21.8640004 105.6886578  86.1446015  22.1412540
 106.2587935  86.5733283  21.5030025 106.2794690  85.8628599  22.8396726
 106.1811745  81.3109442  30.3873551 105.5510405  81.9925723  30.6208948
 106.0747833  81.1992524  29.4426690 101.4756717  80.9781238  21.3139476
 100.6855771  81.2338767  20.8379586 101.9667965  81.7929576  21.4191516
 103.4271463  81.3425817  18.2722952 102.6302626  81.4544512  18.7906448
 103.1997055  81.6812470  17.4063843 109.2577130  87.8670521  26.2205467
 109.3221563  88.3290928  27.0563639 108.5488054  87.2367886  26.3487777
  99.7594420  81.2311729  23.7454466 100.0102459  82.1158739  24.0112042
 100.2953969  81.0516330  22.9729558 105.4592488  75.6130208  32.7498802
 105.0659433  75.0596407  33.4246447 106.2758628  75.9240787  33.1405320
 108.3760449  77.0288087  30.3419059 109.1170162  77.6295240  30.2623521
 108.6078371  76.2865725  29.7837102 103.5201787  82.2144454  28.6197289
 103.4055302  81.3129712  28.9204388 102.6646304  82.4608151  28.2682105
 110.5993624  90.1562195  30.2184789 110.1557478  89.3698573  29.9005694
 111.2610838  90.3441345  29.5528680 105.3580745  91.6857996  24.7445468
 105.9088171  91.5575060  23.9722462 104.5192221  91.9852885  24.3940361
 112.6974862  90.4364995  28.2466191 112.6793338  91.2573876  27.7546460
 113.6194782  90.3119070  28.4716332 109.1547916  87.9509124  29.0889699
 109.6876253  87.1897412  28.8589007 108.6261998  87.6582776  29.8313853
 112.3217611  73.0569190  24.6183341 111.9781881  73.9470832  24.5422451
 112.6896574  72.8670848  23.7552926 109.8715005  77.8927502  18.1841014
 109.0156602  77.5034352  18.0046653 110.2841957  77.9719463  17.3240800
 111.4014152  75.4273845  22.5832574 110.8978947  75.3903980  21.7700379
 111.6944759  76.3366588  22.6429231 107.6457038  75.5112575  21.5898756
 108.5110034  75.3155384  21.2304645 107.7134547  75.2822927  22.5168112
 105.2519357  77.7414783  18.9615122 105.8263109  77.5189964  18.2288315
 105.8390339  77.8103477  19.7143724 107.5542025  74.6156032  17.6890192
 106.9006437  74.3005049  17.0646807 107.5122499  73.9931772  18.4150015
 110.7879765  81.1037965  22.0137840 109.8702326  81.3252912  21.8559528
 111.2039909  81.1784276  21.1549547 114.1205277  72.3162749  19.7201078
 114.4264154  71.4560113  19.4326993 114.8457882  72.9080369  19.5200072
 100.4129633  82.7193436  18.1082676 100.2154033  82.1262797  17.3833743
  99.8576297  82.4145646  18.8258615 108.3926357  82.6116542  20.2277269
 108.4474967  81.6590379  20.1519746 107.5817559  82.7675981  20.7118568
 106.3318717  81.2293602  17.9867648 105.5186582  81.5287773  18.3932840
 106.8277711  80.8349291  18.7042131 111.9292928  81.6935427  26.8182542
 112.2842316  81.9206900  27.6777008 112.5765060  82.0253803  26.1959797
 105.8232792  78.8011958  23.6028883 106.4632171  78.6600717  22.9051847
 104.9910322  78.5146471  23.2267485 102.8261408  78.7712283  18.3801870
 103.0868225  79.6857616  18.2711030 103.6478580  78.3036725  18.5298483
 104.2986333  80.1850040  25.5500695 104.9709387  79.9767402  24.9013343
 103.4716120  79.9872126  25.1105927 110.2011905  76.8111981  27.5666355
 109.5539820  77.5101930  27.4730832 110.9712921  77.2448125  27.9342604
 113.6090703  87.0760833  30.6416909 113.4576210  86.8471385  29.7246992
 113.5995383  88.0331434  30.6548254 110.3776040  84.6492746  25.6263175
 111.3068100  84.8003905  25.4532142 109.9567070  84.7376766  24.7711822
 109.1764371  88.6743410  23.3961713 109.0375457  88.3062194  24.2687651
 108.3878968  89.1891049  23.2245671 104.7013831  83.4592643  26.3103132
 104.5633628  82.7272882  26.9114671 105.6118754  83.3701543  26.0287319
 107.3296131  83.1712602  25.7986811 108.0395750  82.5305794  25.7573430
 107.2865439  83.4225497  26.7212992 115.3182910  90.1079955  28.7193391
 115.2595456  89.4239176  28.0523974 115.7202428  90.8498945  28.2674017
 106.0425065  80.1577820  27.6182451 105.5062422  79.7068558  28.2704047
 105.4541774  80.2923729  26.8752915 115.3200317  88.0719539  26.9507370
 114.4327096  87.7345461  27.0733769 115.8898868  87.3402571  27.1876136
  96.9729464  84.4043631  20.2750422  97.6600504  84.0905361  19.6871437
  96.8177593  85.3084996  20.0017673 101.7764186  79.2933828  24.7035445
 101.6922375  78.6859497  23.9685855 100.9546893  79.7842846  24.7044942
 111.9487900  77.7787391  20.0705640 112.4456600  77.0257354  19.7506711
 111.1774882  77.8151708  19.5048850 108.5322869  79.9204774  19.7977325
 108.1620657  79.3675815  20.4858231 109.0281961  79.3162908  19.2452325
 106.3612068  90.3802269  26.8932343 107.0621527  91.0138752  27.0461737
 105.8907183  90.7217001  26.1327982 114.3906895  74.7456985  22.2184999
 113.4769975  74.9761212  22.3867206 114.8199997  74.8295429  23.0699032
 114.1613354  82.9346877  24.7184893 113.5084804  83.1822784  24.0637346
 114.5393733  82.1211015  24.3847371 110.2100927  83.6766688  31.2050930
 109.5341564  83.5760817  31.8753306 111.0328560  83.5205901  31.6686928
 101.9579786  89.9138624  23.8263446 102.5433222  89.1682312  23.9591350
 101.7604624  90.2242581  24.7100110  96.5497440  82.4844224  22.5467889
  96.5881540  81.9507815  23.3405007  96.0437733  81.9579430  21.9278866
 103.9288203  77.3308765  26.0430431 103.9929529  78.1923596  25.6307829
 103.8655323  76.7182767  25.3102790 103.4040475  79.4031897  29.6903465
 104.0312514  79.0208975  30.3040990 102.5468394  79.1846099  30.0559158
 113.8034584  89.8094873  31.2957201 114.3474488  90.4224831  30.8012156
 113.2221429  90.3674451  31.8124214 100.1806018  81.2108327  15.6221820
 100.4759459  80.3019005  15.5688874  99.2794054  81.1896066  15.3002823
 103.7100265  79.2864323  21.6049369 102.9886851  79.9000291  21.4656842
 104.4993521  79.8222088  21.5266015 106.5126579  76.6218750  27.8790021
 107.0360980  76.8681046  28.6416330 106.2938912  77.4538784  27.4593158
 101.9093860  78.8922424  15.7461145 101.5806566  78.0119803  15.5636251
 102.2633230  78.8370093  16.6337535 107.7179124  77.5632445  25.5639691
 107.3775944  76.7640258  25.9660371 107.0118130  77.8634156  24.9916524
 108.3695595  74.6481757  24.0167014 109.1921665  74.1742235  23.8945904
 108.6133659  75.4272241  24.5165700 105.8934174  81.3400878  21.8258993
 105.7478755  81.6541181  22.7183274 105.4159378  81.9585778  21.2729891
 107.7530557  78.3303426  21.8739882 107.7392126  77.4344519  21.5372180
 108.4702985  78.3374090  22.5078168 109.6056688  78.7640766  23.9193010
 109.3474466  79.6857837  23.9177340 109.0741728  78.3671201  24.6093474
 100.3679836  83.8806222  24.7646654  99.8233304  84.6566030  24.8966928
 101.2459186  84.2277027  24.6065775 107.1567453  77.2117806  17.1427452
 107.2783364  76.2834452  17.3418340 106.8669495  77.2256492  16.2305768
 110.0258643  74.8972717  20.2794172 110.0480340  74.9612050  19.3246152
 110.4426702  74.0577225  20.4734678 101.1545858  83.0076119  27.6576811
 100.4127594  83.1558754  28.2441441 100.8338602  83.2684384  26.7943560
 109.0989521  92.5492097  27.4557201 109.4076647  92.3041243  28.3279900
 109.8965003  92.7538735  26.9676071  99.8011077  88.8127874  20.6476139
  98.9642985  88.3850048  20.4660140  99.7734722  89.0060317  21.5846930
 106.6408532  78.7249803  31.3517385 106.6896688  79.6011926  30.9695155
 107.1831047  78.1827197  30.7789028 117.1263378  89.2690927  30.6318522
 116.3358922  89.2515066  30.0923021 116.8896733  89.8079220  31.3867559
 117.2461253  86.1183393  27.9451251 117.2959258  85.9533401  28.8866773
 117.1375177  85.2510652  27.5549131 114.5365016  82.1014321  29.2610557
 115.4374878  81.9620786  28.9694555 114.6112990  82.2668776  30.2008735
 108.8707821  79.4781176  28.1063744 108.0011130  79.7714742  27.8346332
 109.1067301  80.0621621  28.8271007 118.7479450  88.5380335  28.1893272
 118.4564258  88.9010315  29.0256733 118.1351581  87.8247343  28.0106604
 116.9966638  83.6612949  26.6573330 117.4720760  83.8540596  25.8492182
 116.0732204  83.7172135  26.4116714 111.5746855  75.6960793  25.6229164
 112.0928799  76.4321820  25.2975653 111.2201988  76.0024786  26.4575923
 111.8259449  72.1161075  21.1430061 112.1061203  71.4484264  21.7690487
 112.6110056  72.3090171  20.6304724 115.6968307  80.5378709  24.8901636
 116.6485730  80.6376807  24.9113860 115.5271758  79.7456978  25.3999720
 113.7182687  77.6234293  25.0761037 113.1232619  77.9039305  24.3807525
 113.4332383  78.1128193  25.8477778 118.3250874  80.5495872  24.0502219
 117.8089922  79.7654329  23.8632147 119.2090822  80.2214589  24.2148738
 115.9861600  74.2936888  20.0098031 115.7886422  73.9851976  20.8941363
 116.5961306  75.0198527  20.1395961 109.8978408  86.6798628  31.5071796
 110.8181418  86.8577227  31.7011843 109.8627991  85.7354673  31.3551496
  99.1160573  81.8737222  20.4325071  98.7963358  81.0202530  20.1399445
  98.5694002  82.0885800  21.1883038 102.8940481  84.5899663  24.1494578
 103.1126491  85.5216771  24.1682611 103.3066255  84.2307637  24.9349381
 109.8144699  75.0967748  16.1370266 109.0045427  74.7514833  16.5125512
 110.5029116  74.7875292  16.7257878 111.7435247  74.1745795  17.7594563
 112.2966286  74.5941248  18.4184586 111.9805333  73.2481543  17.8017519
 107.7668346  80.1632869  33.5397326 107.6665073  81.1127226  33.4709418
 107.5489888  79.8351107  32.6673397  98.9848833  85.4940133  22.4018193
  98.2912305  85.0794086  21.8888147  99.7321824  85.5360670  21.8051612
 113.5717621  75.6851378  19.4694547 114.0717399  75.7967912  18.6608866
 114.2153228  75.3812431  20.1095356 107.6299616  83.5930007  32.3562388
 107.1466698  84.3930367  32.5626277 107.7160555  83.6037952  31.4029832
 100.8985576  85.4258387  20.2784208 100.8756264  85.5246074  19.3266091
 101.2086212  86.2723538  20.6001374 103.5572954  87.4834542  24.3930822
 104.5116207  87.4518484  24.3260753 103.3585477  87.0225166  25.2081048
 104.1472336  86.0535658  26.9601620 104.9665225  86.5479737  26.9836457
 104.4209144  85.1367626  26.9319187  99.4007250  80.3873792  27.6593817
 100.0466114  79.8772746  28.1481042  99.1924401  81.1242474  28.2337242
 111.9260642  87.4554639  33.1585957 112.7951802  87.6295292  32.7972592
 111.4467394  88.2749056  33.0361687 106.0946823  94.5751740  24.8375391
 106.9974069  94.6075351  25.1541886 105.8684193  93.6452191  24.8521727
 111.7362980  71.2456613  17.6663650 110.9695376  70.6915100  17.8120332
 112.1473685  71.3178482  18.5277801 103.7404741  77.5341409  31.7568831
 104.6036203  77.1778214  31.9672155 103.1670152  77.1955304  32.4444235
 116.2986242  90.9422126  32.7498802 115.9053188  90.3888324  33.4246447
 117.1152382  91.2532704  33.1405320 119.2154203  92.3580005  30.3419059
 119.9563916  92.9587158  30.2623521 119.4472126  91.6157643  29.7837102
 114.2434230  94.7323815  29.6903465 114.8706269  94.3500892  30.3040990
 113.3862149  94.5138017  30.0559158 117.4802287  94.0541721  31.3517385
 117.5290442  94.9303844  30.9695155 118.0224801  93.5119114  30.7789028
 118.6062101  95.4924786  33.5397326 118.5058828  96.4419143  33.4709418
 118.3883643  95.1643025  32.6673397 110.2401005  95.7165710  27.6593817
 110.8859868  95.2064664  28.1481042 110.0318156  96.4534391  28.2337242
 114.5798496  92.8633327  31.7568831 115.4429957  92.5070132  31.9672155
 114.0063906  92.5247222  32.4444235  71.9607893   5.7974407  15.4438697
  71.9020439   5.1133627  14.7769280  72.3627412   6.5393397  14.9919323
  70.4459567   5.4989325  18.0202507  70.9899471   6.1119283  17.5257462
  69.8646412   6.0568903  18.5369520  73.7688361   4.9585379  17.3563829
  72.9783905   4.9409517  16.8168328  73.5321716   5.4973672  18.1112865
  75.3904433   4.2274787  14.9138579  75.0989242   4.5904767  15.7502040
  74.7776565   3.5141795  14.7351911  68.5685626   3.1449091  19.8831264
  69.4376785   3.3189744  19.5217899  68.0892377   3.9643508  19.7606993
  80.2278101  14.8537717   9.2876539  80.8656511  14.7344465   8.5839879
  80.1098944  15.8018561   9.3464491  77.0367808  14.8065145   9.2238063
  76.6986319  14.6906210   8.3358598  77.9057576  14.4056311   9.2039069
  77.5187591  15.9599997  15.1824269  77.5076231  15.5652795  14.3104772
  77.6808230  15.2266070  15.7758040  70.4419055  18.1551813   8.0519175
  71.2340347  17.8142638   7.6365474  70.6815706  18.2646788   8.9721328
  74.2394852  18.7437109  14.1303453  73.9484718  19.6482740  14.0150119
  74.8751836  18.7853637  14.8447522  75.1651059  16.1213957  10.7204812
  75.7614631  15.8969980  10.0061775  75.2226030  15.3798703  11.3230260
  82.7053217   6.2285978  11.7257334  82.3736542   7.0981389  11.5018549
  82.1098831   5.9122262  12.4051364  79.1984737  18.4298524  11.1253246
  78.8985460  19.3323563  11.0169054  78.8535796  18.1630708  11.9774399
  82.5981881  10.9481065   8.8050684  81.6898758  10.8796473   8.5109445
  82.5469477  11.4253010   9.6332509  74.1805517  25.1942845   4.0924214
  74.1029546  26.1450670   4.1712695  73.5767160  24.8488717   4.7499140
  76.6722747  12.3670710  16.7485581  75.8956081  12.9264630  16.7388446
  77.3113310  12.8527493  17.2700451  74.9269119  15.1756164  16.3103548
  75.6683803  15.7141208  16.0338372  74.2206104  15.8022452  16.4675100
  80.4024458  17.3185304  14.9075710  80.8107815  16.8767715  14.1630342
  79.6801720  16.7437932  15.1609902  76.7555529  12.2557911  12.2809266
  77.6016724  12.6797324  12.4243915  76.6954166  11.5991535  12.9747830
  80.7253273  17.8786495   8.6627998  80.0962136  18.0432209   7.9604066
  80.3378935  18.2928104   9.4338962  84.6042505  18.8140933   6.0172362
  83.9193543  19.1939834   5.4669395  84.6886354  19.4236259   6.7504310
  79.9054974   9.9162279  13.9390440  79.6615906  10.6704340  13.4024716
  80.1814904  10.2947627  14.7737687  81.8593437  16.4600892  12.6167706
  82.0710332  17.1032651  11.9402087  81.8123185  15.6263208  12.1489636
  73.1705316  17.1632384   8.8657847  73.7406673  17.5919653   8.2275331
  73.7613428  16.8814969   9.5642032  73.6630483  12.3295812  17.1118858
  73.0329143  13.0112093  17.3454255  73.5566570  12.2178893  16.1671996
  82.9739265  19.3372847  10.7890063  83.7956708  18.9353034  10.5072745
  82.9701667  19.2341081  11.7406179  76.7395868  18.8856890  12.9450774
  76.8040301  19.3477298  13.7808945  76.0306792  18.2554255  13.0733083
  72.9411225   6.6316578  19.4744109  72.5478171   6.0782776  20.1491753
  73.7577366   6.9427156  19.8650627  71.7168168  21.1866192   5.4680432
  71.8934796  22.1084157   5.2801416  72.5125001  20.8724611   5.8974812
  75.8579186   8.0474457  17.0664366  76.5988900   8.6481610  16.9868828
  76.0897109   7.3052095  16.5082408  71.0020524  13.2330824  15.3442595
  70.8874039  12.3316081  15.6449694  70.1465042  13.4794521  14.9927412
  78.0812362  21.1748564  16.9430096  77.6376216  20.3884943  16.6251000
  78.7429576  21.3627715  16.2773987  72.8399483  22.7044366  11.4690774
  73.3906908  22.5761429  10.6967768  72.0010959  23.0039255  11.1185667
  80.1793600  21.4551364  14.9711497  80.1612075  22.2760245  14.4791766
  81.1013520  21.3305439  15.1961638  76.6366654  18.9695494  15.8135006
  77.1694991  18.2083782  15.5834314  76.1080735  18.6769146  16.5559160
  82.9812213  16.2930507   8.4420864  82.3235887  16.9829768   8.5300993
  83.7852612  16.6826939   8.7854850  78.2698503  12.1224335   8.7383146
  77.3521064  12.3439282   8.5804834  78.6858646  12.1970645   7.8794853
  82.5579468  19.6280881   4.6203948  82.1041795  18.7871791   4.6769139
  81.9273435  20.2642279   4.9578728  81.0012407  21.4657377   5.5553766
  81.2935382  22.0262435   4.8366132  81.5111028  21.7585938   6.3106926
  75.9646032  22.2437729   6.6447220  75.9222211  22.4698575   5.7155752
  76.8808731  22.0101103   6.7933021  79.4111666  12.7121796  13.5427849
  79.7661054  12.9393269  14.4022315  80.0583797  13.0440173  12.9205104
  85.1678783  17.9016759   9.2588449  85.6015289  17.8092048  10.1071503
  85.8810363  17.8774259   8.6208465  78.9006678  21.5018853  10.7921550
  78.9543700  22.0709789  11.5599266  78.0321459  21.6720738  10.4275587
  71.7805071  11.2036409  12.2746001  72.4528124  10.9953771  11.6258650
  70.9534858  11.0058495  11.8351233  86.0294332  17.9440460  11.7921335
  86.2230222  18.8486270  12.0380610  85.9294951  17.4847879  12.6259920
  77.6830643   7.8298350  14.2911662  77.0358558   8.5288300  14.1976138
  78.4531658   8.2634494  14.6587910  81.0909441  18.0947202  17.3662215
  80.9394947  17.8657754  16.4492299  81.0814120  19.0517804  17.3793560
  77.8594777  15.6679115  12.3508482  78.7886837  15.8190275  12.1777449
  77.4385807  15.7563136  11.4957128  76.6583109  19.6929780  10.1207019
  76.5194195  19.3248564  10.9932958  75.8697705  20.2077419   9.9490977
  77.2531261  24.7938876   1.4632556  77.4283017  24.3226919   2.2778179
  76.5664049  25.4204642   1.6913817  78.2088324  19.0711382   7.5095857
  77.8738157  19.0312152   8.4053507  77.7092270  18.4056098   7.0366267
  72.1832568  14.4779012  13.0348438  72.0452366  13.7459251  13.6359977
  73.0937492  14.3887912  12.7532626  74.8114869  14.1898972  12.5232118
  75.5214488  13.5492164  12.4818736  74.7684177  14.4411866  13.4458299
  82.8001648  21.1266325  15.4438697  82.7414194  20.4425545  14.7769280
  83.2021166  21.8685315  14.9919323  73.5243803  11.1764190  14.3427757
  72.9881160  10.7254928  14.9949354  72.9360511  11.3110098  13.5998222
  71.8192346  27.9428239   8.2372416  72.0588945  28.5746763   8.9151435
  70.9761543  27.5916279   8.5237775  82.8019055  19.0905909  13.6752677
  81.9145834  18.7531831  13.7979076  83.3717606  18.3588940  13.9121442
  76.3320208  23.7507361  10.6413920  76.2590380  24.5562333  11.1533225
  75.8897601  23.9499327   9.8161941  76.1209988  22.9879131   4.1516742
  75.3377510  23.5300811   4.2454966  76.8202733  23.5053111   4.5510983
  78.7918892  23.6494195  12.7972079  79.5046864  24.2841660  12.7247980
  78.3008920  23.7458061  11.9812081  73.8430805  21.3988639  13.6177650
  74.5440265  22.0325122  13.7707044  73.3725920  21.7403370  12.8573289
  81.6432091  13.9533246  11.4430200  80.9903542  14.2009154  10.7882653
  82.0212471  13.1397384  11.1092677  78.6039265  23.9892939   5.5458370
  78.7861660  23.1714595   6.0086123  79.4272251  24.2060632   5.1083260
  78.9381431  22.9161125   2.8073419  79.4669197  22.4053579   2.1943581
  79.2009650  22.6003655   3.6718952  77.6919664  14.6953057  17.9296237
  77.0160301  14.5947187  18.5998612  78.5147298  14.5392271  18.3932234
  69.4398523  20.9324994  10.5508752  70.0251960  20.1868682  10.6836656
  69.2423362  21.2428951  11.4345416  72.2937179  23.9676241   5.5671195
  71.6247554  24.4522369   5.0835235  72.1550048  24.2145462   6.4814573
  76.4342447  26.0019985  12.1653853  76.9860755  26.1651606  12.9302938
  76.7748641  26.5924423  11.4933878  70.8859213  10.4218267  16.4148772
  71.5131252  10.0395344  17.0286296  70.0287132  10.2032469  16.7804464
  81.2853322  20.8281242  18.0202507  81.8293226  21.4411200  17.5257462
  80.7040166  21.3860821  18.5369520  79.5710835  23.9501960   9.1517535
  79.4461974  23.1491700   8.6428481  80.2289926  24.4448154   8.6631505
  81.6345743  21.7510980  10.7797085  80.6876078  21.6316332  10.7075412
  81.9828516  20.8633478  10.8623347  73.9945316   7.6405119  14.6035327
  74.5179718   7.8867416  15.3661636  73.7757650   8.4725154  14.1838464
  78.6392176  21.5463697   6.9801437  78.4917139  20.6180404   7.1609008
  79.4645670  21.5683787   6.4958513  82.2426298  22.3692255   8.0666310
  83.1672846  22.1635117   7.9290761  82.0741601  22.1208656   8.9755652
  75.1997861   8.5818814  12.2884998  74.8594682   7.7826627  12.6905678
  74.4936868   8.8820525  11.7161831  77.0875426   9.7827136  10.6438316
  76.8293203  10.7044206  10.6422647  76.5560466   9.3857570  11.3338780
  82.0321614  22.8877923   3.4228402  82.2058492  22.3224345   2.6702254
  82.5250506  23.6878818   3.2407892  67.8498574  14.8992592  11.4891960
  67.3052042  15.6752400  11.6212235  68.7277924  15.2463396  11.3311082
  68.6364596  14.0262488  14.3822117  67.8946332  14.1745123  14.9686748
  68.3157340  14.2870754  13.5188867  76.6028871  25.7216376   6.4107884
  76.1633861  25.2292755   7.1040741  77.3536988  25.1789344   6.1699959
  69.0821210  21.9127917   6.4132512  69.9079230  21.6131689   6.0331156
  68.7315262  21.1435539   6.8622301  74.0502743  21.2654385   8.4830186
  73.4282752  20.6025090   8.1832413  74.7207610  21.2915517   7.8003833
  74.1227270   9.7436173  18.0762692  74.1715426  10.6198296  17.6940461
  74.6649784   9.2013566  17.5034335  84.6082116  20.2877296  17.3563829
  83.8177660  20.2701435  16.8168328  84.3715471  20.8265590  18.1112865
  84.7279991  17.1369763  14.6696557  84.7777996  16.9719770  15.6112080
  84.6193914  16.2697022  14.2794438  82.0183753  13.1200691  15.9855864
  82.9193616  12.9807156  15.6939862  82.0931728  13.2855146  16.9254041
  76.3526559  10.4967545  14.8309050  75.4829868  10.7901112  14.5591639
  76.5886039  11.0807990  15.5516314  86.2298188  19.5566704  14.9138579
  85.9382996  19.9196685  15.7502040  85.6170319  18.8433712  14.7351911
  84.4785376  14.6799319  13.3818637  84.9539498  14.8726965  12.5737488
  83.5550941  14.7358505  13.1362020  79.0565593   6.7147162  12.3474471
  79.5747536   7.4508189  12.0220959  78.7020725   7.0211156  13.1821230
  83.1787045  11.5565079  11.6146942  84.1304468  11.6563177  11.6359166
  83.0090495  10.7643347  12.1245027  81.2001425   8.6420662  11.8006343
  80.6051357   8.9225675  11.1052832  80.9151121   9.1314563  12.5723084
  85.6575123  14.7771199  10.7289242  85.6251443  13.8387199  10.9148926
  86.2675747  14.8555235   9.9955067  77.3797146  17.6984998  18.2317103
  78.3000156  17.8763597  18.4257150  77.3446729  16.7541043  18.0796802
  70.3759219  15.6086032  10.8739884  70.5945229  16.5403140  10.8927918
  70.7884993  15.2494007  11.6594688  75.2487084  11.1819238  20.2642633
  75.1483811  12.1313595  20.1954724  75.0308626  10.8537477  19.3918703
  75.1118354  14.6116377  19.0807695  74.6285436  15.4116737  19.2871584
  75.1979293  14.6224322  18.1275139  71.0391692  18.5020912  11.1176129
  71.9934945  18.4704854  11.0506060  70.8404215  18.0411535  11.9326354
  71.6291074  17.0722028  13.6846926  72.4483963  17.5666106  13.7081764
  71.9027881  16.1553996  13.6564494  69.3941920  24.0440531   8.1346326
  69.2596388  23.2840932   7.5684324  68.9773983  24.7681431   7.6675115
  72.5511046  24.9409848   8.3464769  72.4343430  25.8855281   8.2443459
  71.7303493  24.6383410   8.7350568  66.8825988  11.4060162  14.3839123
  67.5284852  10.8959116  14.8726348  66.6743139  12.1428843  14.9582549
  79.4079380  18.4741009  19.8831264  80.2770540  18.6481661  19.5217899
  78.9286132  19.2935426  19.7606993  73.5765560  25.5938110  11.5620698
  74.4792807  25.6261720  11.8787192  73.3502931  24.6638561  11.5767033
  75.3319162  24.3469097   8.2230776  74.3814793  24.3470958   8.1095148
  75.6351649  23.6001831   7.7066811  71.2223479   8.5527779  18.4814138
  72.0854941   8.1964583  18.6917462  70.6488890   8.2141673  19.1689542
  91.0671856  30.1829635   9.2876539  91.7050266  30.0636382   8.5839879
  90.9492699  31.1310479   9.3464491  87.8761562  30.1357063   9.2238063
  87.5380074  30.0198128   8.3358598  88.7451330  29.7348228   9.2039069
  83.7348378  31.9892540   5.2134954  83.1713243  31.8982476   4.4451242
  83.6200773  31.1692444   5.6937447  88.3581345  31.2891915  15.1824269
  88.3469986  30.8944713  14.3104772  88.5201985  30.5557987  15.7758040
  81.2812810  33.4843731   8.0519175  82.0734102  33.1434556   7.6365474
  81.5209460  33.5938706   8.9721328  89.3147937  35.6563507   0.5249419
  88.6635916  36.2417588   0.1383433  90.1092299  36.1869702   0.5844457
  83.2403564  32.7452644   0.9236553  84.0134440  32.1981631   0.7849429
  83.5928963  33.6096894   1.1351015  85.0788606  34.0729027  14.1303453
  84.7878472  34.9774657  14.0150119  85.7145591  34.1145554  14.8447522
  86.0044813  31.4505875  10.7204812  86.6008385  31.2261898  10.0061775
  86.0619785  30.7090621  11.3230260  85.2966130  30.8073416   0.7579378
  85.1802388  30.1318320   1.4260463  85.4068390  30.3205790  -0.0588469
  87.6397671  30.2683564   4.4626068  87.2755879  29.7414185   5.1738989
  88.4964787  29.8782033   4.2892553  93.5446972  21.5577896  11.7257334
  93.2130297  22.4273307  11.5018549  92.9492585  21.2414180  12.4051364
  90.0378491  33.7590442  11.1253246  89.7379215  34.6615481  11.0169054
  89.6929551  33.4922625  11.9774399  83.4890973  30.2104239   7.1589951
  82.5641469  30.0780453   7.3667643  83.7375386  30.9898458   7.6559893
  93.4375635  26.2772982   8.8050684  92.5292513  26.2088391   8.5109445
  93.3863231  26.7544927   9.6332509  80.8499784  29.8537513   7.9933740
  80.9792165  30.1071991   8.9073152  80.1697235  30.4465221   7.6738395
  85.0199271  40.5234762   4.0924214  84.9423301  41.4742588   4.1712695
  84.4160915  40.1780635   4.7499140  85.7662873  30.5048081  16.3103548
  86.5077558  31.0433125  16.0338372  85.0599859  31.1314370  16.4675100
  87.5949283  27.5849829  12.2809266  88.4410478  28.0089242  12.4243915
  87.5347921  26.9283453  12.9747830  91.5647028  33.2078412   8.6627998
  90.9355890  33.3724126   7.9604066  91.1772690  33.6220022   9.4338962
  95.4436260  34.1432850   6.0172362  94.7587298  34.5231752   5.4669395
  95.5280109  34.7528177   6.7504310  90.7448728  25.2454197  13.9390440
  90.5009660  25.9996257  13.4024716  91.0208659  25.6239544  14.7737687
  92.6987191  31.7892809  12.6167706  92.9104086  32.4324569  11.9402087
  92.6516939  30.9555126  12.1489636  90.3013420  24.4010630   9.5204278
  89.4397899  24.6991883   9.8121015  90.3275855  24.6181029   8.5885310
  87.1174989  32.9452820   5.9278083  87.5813335  33.2240523   5.1382706
  86.8531788  32.0436265   5.7451174  84.0099071  32.4924302   8.8657847
  84.5800428  32.9211570   8.2275331  84.6007182  32.2106887   9.5642032
  86.0543876  29.0675973   2.7367649  86.7567919  29.5197016   3.2041575
  85.7224504  28.4259792   3.3647542  84.5024237  27.6587729  17.1118858
  83.8722898  28.3404010  17.3454255  84.3960325  27.5470811  16.1671996
  79.7969209  27.3259525   8.0384782  79.0068263  27.5817054   7.5624893
  80.2880457  28.1407863   8.1436823  93.8133019  34.6664765  10.7890063
  94.6350463  34.2644952  10.5072745  93.8095422  34.5632999  11.7406179
  81.7483955  27.6904105   4.9968259  80.9515118  27.8022799   5.5151755
  81.5209547  28.0290757   4.1309149  87.5789623  34.2148808  12.9450774
  87.6434055  34.6769215  13.7808945  86.8700546  33.5846173  13.0733083
  78.0806912  27.5790016  10.4699773  78.3314951  28.4637026  10.7357349
  78.6166461  27.3994617   9.6974865  87.2937640  35.8816915   2.8129754
  87.1583315  36.7268451   3.2414602  87.8347453  36.0836193   2.0495688
  83.7804980  21.9608495  19.4744109  83.3871925  21.4074694  20.1491753
  84.5971120  22.2719074  19.8650627  80.7467038  33.3992353   3.3857679
  81.2591558  34.1935604   3.5363244  81.3989750  32.7018644   3.3191280
  82.5561922  36.5158110   5.4680432  82.7328551  37.4376074   5.2801416
  83.3518756  36.2016529   5.8974812  86.6972941  23.3766374  17.0664366
  87.4382654  23.9773528  16.9868828  86.9290864  22.6344012  16.5082408
  81.8414279  28.5622742  15.3442595  81.7267794  27.6607999  15.6449694
  80.9858797  28.8086438  14.9927412  88.9206117  36.5040482  16.9430096
  88.4769971  35.7176861  16.6251000  89.5823330  36.6919632  16.2773987
  83.6793238  38.0336284  11.4690774  84.2300663  37.9053347  10.6967768
  82.8404714  38.3331173  11.1185667  91.0187355  36.7843282  14.9711497
  91.0005830  37.6052163  14.4791766  91.9407275  36.6597357  15.1961638
  78.7115954  31.7281008   4.1617249  79.5491176  32.1378016   3.9450957
  78.8894222  30.7880450   4.1317443  89.7226644  21.7752132   9.3077881
  89.2191440  21.7382268   8.4945686  90.0157251  22.6844875   9.3674537
  85.9669530  21.8590862   8.3144062  86.8322527  21.6633671   7.9549952
  86.0347039  21.6301214   9.2413419  88.8413121  33.4273404   3.3253818
  88.3134483  32.6926163   3.0127055  88.3400624  34.2048080   3.0793786
  93.8205967  31.6222424   8.4420864  93.1629642  32.3121686   8.5300993
  94.6246367  32.0118856   8.7854850  83.5731849  24.0893070   5.6860429
  84.1475601  23.8668252   4.9533622  84.1602832  24.1581765   6.4389030
  89.8933801  39.9551121  -0.7514523  89.2195499  40.2582818  -0.1429565
  90.2799622  40.7580202  -1.1009066  89.1092257  27.4516253   8.7383146
  88.1914819  27.6731200   8.5804834  89.5252401  27.5262563   7.8794853
  93.3973223  34.9572798   4.6203948  92.9435550  34.1163708   4.6769139
  92.7667189  35.5934197   4.9578728  91.8406162  36.7949295   5.5553766
  92.1329136  37.3554352   4.8366132  92.3504782  37.0877856   6.3106926
  78.7342125  29.0671723   4.8327983  78.5366525  28.4741084   4.1079049
  78.1788789  28.7623933   5.5503922  86.7138849  28.9594830   6.9522576
  86.7687459  28.0068666   6.8765053  85.9030051  29.1154269   7.4363874
  84.6531209  27.5771889   4.7112955  83.8399075  27.8766060   5.1178147
  85.1490203  27.1827578   5.4287437  86.8039787  37.5729646   6.6447220
  86.7615966  37.7990493   5.7155752  87.7202486  37.3393021   6.7933021
  84.1445284  25.1490245  10.3274190  84.7844663  25.0079004   9.6297153
  83.3122814  24.8624758   9.9512792  96.0072537  33.2308677   9.2588449
  96.4409044  33.1383966  10.1071503  96.7204118  33.2066177   8.6208465
  84.9205588  34.4492675   6.4409182  85.7146186  33.9542995   6.2391757
  84.2097280  33.9210538   6.0776888  89.7400432  36.8310771  10.7921550
  89.7937454  37.4001707  11.5599266  88.8715214  37.0012656  10.4275587
  81.2288351  28.5935757   2.5168935  80.2985939  28.5320212   2.7338897
  81.3245823  28.0711710   1.7205576  81.1473900  25.1190570   5.1047177
  81.4080718  26.0335903   4.9956337  81.9691073  24.6515012   5.2543789
  82.6198826  26.5328327  12.2746001  83.2921879  26.3245689  11.6258650
  81.7928612  26.3350413  11.8351233  96.8688087  33.2732377  11.7921335
  97.0623977  34.1778188  12.0380610  96.7688705  32.8139796  12.6259920
  91.9303196  33.4239120  17.3662215  91.7788702  33.1949672  16.4492299
  91.9207875  34.3809722  17.3793560  88.6988532  30.9971033  12.3508482
  89.6280592  31.1482192  12.1777449  88.2779562  31.0855054  11.4957128
  87.4976864  35.0221697  10.1207019  87.3587949  34.6540482  10.9932958
  86.7091460  35.5369337   9.9490977  88.0925016  40.1230794   1.4632556
  88.2676771  39.6518837   2.2778179  87.4057804  40.7496560   1.6913817
  89.0482079  34.4003300   7.5095857  88.7131911  34.3604070   8.4053507
  88.5486025  33.7348016   7.0366267  83.0226323  29.8070930  13.0348438
  82.8846121  29.0751169  13.6359977  83.9331246  29.7179830  12.7532626
  93.6395402  36.4558243  15.4438697  93.5807948  35.7717463  14.7769280
  94.0414921  37.1977233  14.9919323  84.3637557  26.5056107  14.3427757
  83.8274914  26.0546846  14.9949354  83.7754266  26.6402016  13.5998222
  82.6586101  43.2720156   8.2372416  82.8982699  43.9038681   8.9151435
  81.8155297  42.9208197   8.5237775  93.6412809  34.4197827  13.6752677
  92.7539588  34.0823748  13.7979076  94.2111360  33.6880858  13.9121442
  75.2941957  30.7521918   6.9995728  75.9812996  30.4383648   6.4116744
  75.1390085  31.6563283   6.7262980  80.0976679  25.6412115  11.4280752
  80.0134867  25.0337784  10.6931162  79.2759385  26.1321133  11.4290248
  87.1713963  39.0799279  10.6413920  87.0984134  39.8854250  11.1533225
  86.7291356  39.2791245   9.8161941  86.9603742  38.3171049   4.1516742
  86.1771264  38.8592729   4.2454966  87.6596488  38.8345029   4.5510983
  89.6312646  38.9786113  12.7972079  90.3440619  39.6133578  12.7247980
  89.1402675  39.0749979  11.9812081  91.3530173  32.8837366   4.3689370
  90.4186452  33.0038828   4.1994075  91.5306842  31.9809832   4.1049380
  86.8535361  26.2683061   6.5222632  86.4833149  25.7154102   7.2103537
  87.3494454  25.6641195   5.9697632  84.6824560  36.7280556  13.6177650
  85.3834019  37.3617039  13.7707044  84.2119675  37.0695288  12.8573289
  92.4825846  29.2825164  11.4430200  91.8297296  29.5301071  10.7882653
  92.8606226  28.4689302  11.1092677  89.4433020  39.3184857   5.5458370
  89.6255414  38.5006513   6.0086123  90.2666006  39.5352549   5.1083260
  89.7775185  38.2453042   2.8073419  90.3062952  37.7345497   2.1943581
  90.0403405  37.9295572   3.6718952  88.5313419  30.0244975  17.9296237
  87.8554056  29.9239104  18.5998612  89.3541053  29.8684189  18.3932234
  80.2792278  36.2616911  10.5508752  80.8645715  35.5160599  10.6836656
  80.0817116  36.5720868  11.4345416  83.1330933  39.2968159   5.5671195
  82.4641308  39.7814286   5.0835235  82.9943803  39.5437379   6.4814573
  74.8709933  28.8322512   9.2713195  74.9094032  28.2986102  10.0650314
  74.3650225  28.3057717   8.6524173  87.2736202  41.3311902  12.1653853
  87.8254510  41.4943524  12.9302938  87.6142395  41.9216340  11.4933878
  82.2500695  23.6787052  12.7675738  82.3142021  24.5401883  12.3553135
  82.1867815  23.0661054  12.0348096  81.7252967  25.7510185  16.4148772
  82.3525006  25.3687262  17.0286296  80.8680886  25.5324387  16.7804464
  92.1247076  36.1573160  18.0202507  92.6686980  36.7703118  17.5257462
  91.5433921  36.7152738  18.5369520  78.5018510  27.5586614   2.3467127
  78.7971951  26.6497292   2.2934180  77.6006546  27.5374353   2.0248129
  90.4104589  39.2793878   9.1517535  90.2855728  38.4783618   8.6428481
  91.0683680  39.7740071   8.6631505  82.0312757  25.6342610   8.3294675
  81.3099343  26.2478578   8.1902149  82.8206013  26.1700375   8.2511321
  92.4739497  37.0802898  10.7797085  91.5269833  36.9608249  10.7075412
  92.8222271  36.1925396  10.8623347  84.8339071  22.9697037  14.6035327
  85.3573473  23.2159333  15.3661636  84.6151404  23.8017072  14.1838464
  80.2306352  25.2400711   2.4706452  79.9019058  24.3598090   2.2881558
  80.5845723  25.1848380   3.3582841  89.4785931  36.8755614   6.9801437
  89.3310893  35.9472322   7.1609008  90.3039424  36.8975705   6.4958513
  83.3448175  25.5273681   2.8381930  83.6844248  26.0559603   2.1160538
  83.7920295  25.8654087   3.6140496  93.0820053  37.6984173   8.0666310
  94.0066600  37.4927034   7.9290761  92.9135356  37.4500574   8.9755652
  86.0391616  23.9110732  12.2884998  85.6988436  23.1118545  12.6905678
  85.3330622  24.2112443  11.7161831  86.6908088  20.9960044  10.7412321
  87.5134157  20.5220523  10.6191211  86.9346151  21.7750528  11.2411007
  84.2146666  27.6879165   8.5504299  84.0691247  28.0019468   9.4428581
  83.7371870  28.3064065   7.9975198  86.0743049  24.6781713   8.5985189
  86.0604618  23.7822806   8.2617487  86.7915477  24.6852377   9.2323475
  87.9269180  25.1119053  10.6438316  87.6686958  26.0336124  10.6422647
  87.3954220  24.7149488  11.3338780  92.8715369  38.2169840   3.4228402
  93.0452246  37.6516263   2.6702254  93.3644260  39.0170735   3.2407892
  78.6892329  30.2284509  11.4891960  78.1445797  31.0044317  11.6212235
  79.5671678  30.5755314  11.3311082  87.4202013  38.8970384  14.1802507
  87.7289140  38.6519531  15.0525207  88.2177495  39.1017022  13.6921378
  87.4422625  41.0508294   6.4107884  87.0027615  40.5584672   7.1040741
  88.1930742  40.5081261   6.1699959  79.9214964  37.2419834   6.4132512
  80.7472984  36.9423606   6.0331156  79.5709016  36.4727457   6.8622301
  84.8896497  36.5946303   8.4830186  84.2676507  35.9317008   8.1832413
  85.5601364  36.6207435   7.8003833  78.1223569  35.1606161   7.3721446
  77.2855477  34.7328335   7.1905447  78.0947215  35.3538604   8.3092237
  84.9621025  25.0728091  18.0762692  85.0109180  25.9490214  17.6940461
  85.5043539  24.5305484  17.5034335  95.4475870  35.6169214  17.3563829
  94.6571414  35.5993353  16.8168328  95.2109225  36.1557508  18.1112865
  95.5673745  32.4661680  14.6696557  95.6171750  32.3011688  15.6112080
  95.4587669  31.5988939  14.2794438  84.4510004  35.1450226   1.9588646
  84.5998125  35.8285690   1.3055319  85.2576448  35.1255316   2.4738102
  92.8577508  28.4492608  15.9855864  93.7587371  28.3099073  15.6939862
  92.9325482  28.6147063  16.9254041  87.1920313  25.8259463  14.8309050
  86.3223623  26.1193029  14.5591639  87.4279794  26.4099908  15.5516314
  97.0691942  34.8858622  14.9138579  96.7776751  35.2488602  15.7502040
  96.4564074  34.1725630  14.7351911  95.3179131  30.0091236  13.3818637
  95.7933252  30.2018883  12.5737488  94.3944696  30.0650422  13.1362020
  82.2062637  31.1715404   2.9649715  81.9608679  30.2677734   3.1629925
  82.3758552  31.1732554   2.0229193  89.8959347  22.0439080  12.3474471
  90.4141291  22.7800107  12.0220959  89.5414480  22.3503073  13.1821230
  81.4758285  26.9043761   0.4635877  80.7827530  26.9788116  -0.1924088
  81.2310037  26.1404105   0.9857393  87.9505410  37.6398356  -0.5699606
  87.3779377  38.2588544  -1.0229135  88.5238203  38.1897718  -0.0359684
  94.0180800  26.8856997  11.6146942  94.9698222  26.9855094  11.6359166
  93.8484250  26.0935265  12.1245027  92.0395179  23.9712580  11.8006343
  91.4445111  24.2517593  11.1052832  91.7544876  24.4606481  12.5723084
  96.4968877  30.1063116  10.7289242  96.4645197  29.1679117  10.9148926
  97.1069501  30.1847153   9.9955067  88.2190901  33.0276915  18.2317103
  89.1393910  33.2055514  18.4257150  88.1840484  32.0832961  18.0796802
  77.4373066  28.2215509   7.1570378  77.1175850  27.3680817   6.8644752
  76.8906494  28.4364087   7.9128345  81.2152973  30.9377950  10.8739884
  81.4338983  31.8695058  10.8927918  81.6278747  30.5785924  11.6594688
  86.0880839  26.5111156  20.2642633  85.9877565  27.4605513  20.1954724
  85.8702381  26.1829395  19.3918703  77.3061326  31.8418421   9.1263499
  76.6124797  31.4272373   8.6133454  78.0534317  31.8838957   8.5296918
  85.9512109  29.9408295  19.0807695  85.4679190  30.7408655  19.2871584
  86.0373048  29.9516239  18.1275139  79.2198068  31.7736674   7.0029514
  79.1968756  31.8724362   6.0511397  79.5298705  32.6201825   7.3246680
  81.8785446  33.8312829  11.1176129  82.8328700  33.7996772  11.0506060
  81.6797970  33.3703453  11.9326354  80.2335675  39.3732449   8.1346326
  80.0990143  38.6132850   7.5684324  79.8167737  40.0973349   7.6675115
  83.3904801  40.2701766   8.3464769  83.2737185  41.2147198   8.2443459
  82.5697247  39.9675327   8.7350568  77.7219743  26.7352079  14.3839123
  78.3678606  26.2251033  14.8726348  77.5136894  27.4720761  14.9582549
  90.2473135  33.8032927  19.8831264  91.1164294  33.9773579  19.5217899
  89.7679886  34.6227344  19.7606993  84.4159315  40.9230028  11.5620698
  85.3186562  40.9553638  11.8787192  84.1896685  39.9930479  11.5767033
  86.1712917  39.6761014   8.2230776  85.2208548  39.6762876   8.1095148
  86.4745403  38.9293749   7.7066811  82.0617234  23.8819696  18.4814138
  82.9248695  23.5256501  18.6917462  81.4882644  23.5433591  19.1689542
 101.9065610  45.5121553   9.2876539 102.5444020  45.3928300   8.5839879
 101.7886453  46.4602397   9.3464491  98.7155317  45.4648981   9.2238063
  98.3773828  45.3490045   8.3358598  99.5845085  45.0640146   9.2039069
  94.5742132  47.3184457   5.2134954  94.0106998  47.2274394   4.4451242
  94.4594527  46.4984362   5.6937447  99.1975100  46.6183832  15.1824269
  99.1863740  46.2236631  14.3104772  99.3595739  45.8849905  15.7758040
  92.1206564  48.8135649   8.0519175  92.9127856  48.4726473   7.6365474
  92.3603215  48.9230624   8.9721328 100.1541691  50.9855425   0.5249419
  99.5029671  51.5709505   0.1383433 100.9486054  51.5161620   0.5844457
  94.0797318  48.0744562   0.9236553  94.8528194  47.5273549   0.7849429
  94.4322717  48.9388811   1.1351015  95.9182361  49.4020944  14.1303453
  95.6272227  50.3066575  14.0150119  96.5539345  49.4437472  14.8447522
  96.8438568  46.7797793  10.7204812  97.4402140  46.5553815  10.0061775
  96.9013539  46.0382538  11.3230260  96.1359885  46.1365334   0.7579378
  96.0196143  45.4610237   1.4260463  96.2462145  45.6497708  -0.0588469
  98.4791426  45.5975481   4.4626068  98.1149633  45.0706102   5.1738989
  99.3358542  45.2073950   4.2892553 104.3840726  36.8869814  11.7257334
 104.0524051  37.7565225  11.5018549 103.7886340  36.5706098  12.4051364
 100.8772246  49.0882360  11.1253246 100.5772969  49.9907399  11.0169054
 100.5323305  48.8214543  11.9774399  94.3284727  45.5396157   7.1589951
  93.4035224  45.4072371   7.3667643  94.5769141  46.3190376   7.6559893
 104.2769390  41.6064900   8.8050684 103.3686267  41.5380308   8.5109445
 104.2256986  42.0836845   9.6332509  91.6893538  45.1829430   7.9933740
  91.8185920  45.4363909   8.9073152  91.0090990  45.7757138   7.6738395
  95.8593026  55.8526680   4.0924214  95.7817055  56.8034505   4.1712695
  95.2554669  55.5072553   4.7499140  98.3510256  43.0254546  16.7485581
  97.5743590  43.5848466  16.7388446  98.9900819  43.5111329  17.2700451
  96.6056628  45.8339999  16.3103548  97.3471312  46.3725043  16.0338372
  95.8993613  46.4606288  16.4675100 102.0811967  47.9769139  14.9075710
 102.4895323  47.5351550  14.1630342 101.3589229  47.4021767  15.1609902
  98.4343037  42.9141746  12.2809266  99.2804233  43.3381160  12.4243915
  98.3741675  42.2575371  12.9747830 102.4040782  48.5370330   8.6627998
 101.7749645  48.7016044   7.9604066 102.0166444  48.9511940   9.4338962
 106.2830014  49.4724768   6.0172362 105.5981052  49.8523669   5.4669395
 106.3673863  50.0820095   6.7504310 101.5842483  40.5746115  13.9390440
 101.3403415  41.3288175  13.4024716 101.8602413  40.9531462  14.7737687
 103.5380946  47.1184727  12.6167706 103.7497841  47.7616487  11.9402087
 103.4910694  46.2847043  12.1489636 101.1407175  39.7302548   9.5204278
 100.2791654  40.0283801   9.8121015 101.1669609  39.9472946   8.5885310
  97.9568744  48.2744738   5.9278083  98.4207090  48.5532441   5.1382706
  97.6925542  47.3728183   5.7451174  94.8492825  47.8216220   8.8657847
  95.4194182  48.2503488   8.2275331  95.4400937  47.5398804   9.5642032
  96.8937630  44.3967891   2.7367649  97.5961673  44.8488934   3.2041575
  96.5618259  43.7551709   3.3647542  95.3417992  42.9879647  17.1118858
  94.7116652  43.6695928  17.3454255  95.2354079  42.8762729  16.1671996
  90.6362964  42.6551443   8.0384782  89.8462018  42.9108972   7.5624893
  91.1274211  43.4699781   8.1436823 104.6526774  49.9956682  10.7890063
 105.4744217  49.5936870  10.5072745 104.6489176  49.8924917  11.7406179
  92.5877709  43.0196022   4.9968259  91.7908873  43.1314717   5.5151755
  92.3603302  43.3582675   4.1309149  98.4183377  49.5440726  12.9450774
  98.4827810  50.0061133  13.7808945  97.7094301  48.9138091  13.0733083
  88.9200667  42.9081934  10.4699773  89.1708705  43.7928944  10.7357349
  89.4560215  42.7286535   9.6974865  98.1331395  51.2108833   2.8129754
  97.9977069  52.0560369   3.2414602  98.6741207  51.4128111   2.0495688
  94.6198734  37.2900413  19.4744109  94.2265680  36.7366612  20.1491753
  95.4364875  37.6010991  19.8650627  91.5860792  48.7284271   3.3857679
  92.0985313  49.5227521   3.5363244  92.2383505  48.0310562   3.3191280
  93.3955677  51.8450027   5.4680432  93.5722305  52.7667992   5.2801416
  94.1912510  51.5308447   5.8974812  97.5366695  38.7058292  17.0664366
  98.2776409  39.3065445  16.9868828  97.7684618  37.9635930  16.5082408
  92.6808033  43.8914659  15.3442595  92.5661548  42.9899917  15.6449694
  91.8252551  44.1378356  14.9927412  99.7599871  51.8332400  16.9430096
  99.3163725  51.0468778  16.6251000 100.4217085  52.0211550  16.2773987
  94.5186992  53.3628201  11.4690774  95.0694417  53.2345265  10.6967768
  93.6798468  53.6623090  11.1185667 101.8581109  52.1135200  14.9711497
 101.8399584  52.9344081  14.4791766 102.7801029  51.9889275  15.1961638
  98.3154163  49.6279329  15.8135006  98.8482500  48.8667617  15.5834314
  97.7868244  49.3352981  16.5559160  89.5509709  47.0572925   4.1617249
  90.3884931  47.4669934   3.9450957  89.7287977  46.1172368   4.1317443
 100.5620399  37.1044050   9.3077881 100.0585194  37.0674185   8.4945686
 100.8551005  38.0136793   9.3674537  96.8063284  37.1882780   8.3144062
  97.6716281  36.9925589   7.9549952  96.8740793  36.9593132   9.2413419
  99.6806876  48.7565322   3.3253818  99.1528238  48.0218081   3.0127055
  99.1794379  49.5339998   3.0793786 104.6599722  46.9514342   8.4420864
 104.0023396  47.6413603   8.5300993 105.4640121  47.3410774   8.7854850
  94.4125604  39.4184988   5.6860429  94.9869355  39.1960169   4.9533622
  94.9996586  39.4873682   6.4389030  99.9486012  42.7808170   8.7383146
  99.0308573  43.0023117   8.5804834 100.3646155  42.8554481   7.8794853
 104.2366977  50.2864716   4.6203948 103.7829304  49.4455626   4.6769139
 103.6060944  50.9226115   4.9578728 102.6799916  52.1241213   5.5553766
 102.9722891  52.6846270   4.8366132 103.1898537  52.4169774   6.3106926
  89.5735880  44.3963641   4.8327983  89.3760280  43.8033001   4.1079049
  89.0182544  44.0915851   5.5503922  97.5532604  44.2886747   6.9522576
  97.6081213  43.3360584   6.8765053  96.7423806  44.4446186   7.4363874
  95.4924964  42.9063807   4.7112955  94.6792829  43.2057978   5.1178147
  95.9883958  42.5119496   5.4287437  97.6433541  52.9021564   6.6447220
  97.6009720  53.1282410   5.7155752  98.5596240  52.6684939   6.7933021
 101.0899175  43.3705631  13.5427849 101.4448563  43.5977105  14.4022315
 101.7371306  43.7024008  12.9205104  94.9839038  40.4782163  10.3274190
  95.6238418  40.3370922   9.6297153  94.1516569  40.1916676   9.9512792
 106.8466292  48.5600594   9.2588449 107.2802798  48.4675883  10.1071503
 107.5597872  48.5358095   8.6208465  95.7599342  49.7784593   6.4409182
  96.5539941  49.2834913   6.2391757  95.0491035  49.2502456   6.0776888
 100.5794187  52.1602688  10.7921550 100.6331209  52.7293625  11.5599266
  99.7108968  52.3304574  10.4275587  92.0682106  43.9227675   2.5168935
  91.1379694  43.8612130   2.7338897  92.1639578  43.4003627   1.7205576
  91.9867655  40.4482488   5.1047177  92.2474472  41.3627821   4.9956337
  92.8084827  39.9806930   5.2543789  93.4592580  41.8620245  12.2746001
  94.1315633  41.6537607  11.6258650  92.6322367  41.6642331  11.8351233
 107.7081841  48.6024295  11.7921335 107.9017731  49.5070106  12.0380610
 107.6082459  48.1431714  12.6259920  99.3618152  38.4882186  14.2911662
  98.7146067  39.1872135  14.1976138 100.1319167  38.9218330  14.6587910
 102.7696950  48.7531038  17.3662215 102.6182456  48.5241589  16.4492299
 102.7601629  49.7101639  17.3793560  99.5382286  46.3262951  12.3508482
 100.4674346  46.4774110  12.1777449  99.1173316  46.4146971  11.4957128
  98.3370618  50.3513615  10.1207019  98.1981704  49.9832399  10.9932958
  97.5485214  50.8661254   9.9490977  98.9318770  55.4522711   1.4632556
  99.1070526  54.9810755   2.2778179  98.2451558  56.0788478   1.6913817
  99.8875833  49.7295218   7.5095857  99.5525666  49.6895988   8.4053507
  99.3879779  49.0639934   7.0366267  93.8620077  45.1362848  13.0348438
  93.7239875  44.4043086  13.6359977  94.7725001  45.0471748  12.7532626
  96.4902378  44.8482807  12.5232118  97.2001996  44.2075999  12.4818736
  96.4471686  45.0995702  13.4458299 104.4789157  51.7850160  15.4438697
 104.4201703  51.1009380  14.7769280 104.8808675  52.5269150  14.9919323
  95.2031312  41.8348025  14.3427757  94.6668669  41.3838763  14.9949354
  94.6148020  41.9693934  13.5998222  93.4979855  58.6012074   8.2372416
  93.7376454  59.2330598   8.9151435  92.6549052  58.2500114   8.5237775
 104.4806564  49.7489744  13.6752677 103.5933343  49.4115666  13.7979076
 105.0505115  49.0172775  13.9121442  86.1335711  46.0813836   6.9995728
  86.8206751  45.7675566   6.4116744  85.9783840  46.9855201   6.7262980
  90.9370433  40.9704033  11.4280752  90.8528622  40.3629702  10.6931162
  90.1153140  41.4613051  11.4290248  98.0107717  54.4091197  10.6413920
  97.9377889  55.2146168  11.1533225  97.5685110  54.6083162   9.8161941
  97.7997497  53.6462967   4.1516742  97.0165019  54.1884647   4.2454966
  98.4990242  54.1636946   4.5510983 100.4706401  54.3078031  12.7972079
 101.1834373  54.9425495  12.7247980  99.9796429  54.4041897  11.9812081
 102.1923928  48.2129283   4.3689370 101.2580206  48.3330746   4.1994075
 102.3700596  47.3101750   4.1049380  97.6929116  41.5974979   6.5222632
  97.3226903  41.0446019   7.2103537  98.1888208  40.9933113   5.9697632
  95.5218314  52.0572474  13.6177650  96.2227774  52.6908957  13.7707044
  95.0513429  52.3987206  12.8573289 103.3219600  44.6117082  11.4430200
 102.6691051  44.8592989  10.7882653 103.6999980  43.7981220  11.1092677
 100.2826774  54.6476775   5.5458370 100.4649169  53.8298431   6.0086123
 101.1059760  54.8644467   5.1083260 100.6168940  53.5744960   2.8073419
 101.1456706  53.0637414   2.1943581 100.8797159  53.2587490   3.6718952
  99.3707173  45.3536893  17.9296237  98.6947810  45.2531022  18.5998612
 100.1934807  45.1976106  18.3932234  91.1186032  51.5908829  10.5508752
  91.7039469  50.8452517  10.6836656  90.9210871  51.9012786  11.4345416
  93.9724688  54.6260077   5.5671195  93.3035063  55.1106204   5.0835235
  93.8337557  54.8729297   6.4814573  85.7103687  44.1614429   9.2713195
  85.7487787  43.6278020  10.0650314  85.2043980  43.6349635   8.6524173
  98.1129956  56.6603820  12.1653853  98.6648264  56.8235442  12.9302938
  98.4536150  57.2508258  11.4933878  93.0894449  39.0078970  12.7675738
  93.1535776  39.8693801  12.3553135  93.0261570  38.3952972  12.0348096
  92.5646722  41.0802102  16.4148772  93.1918761  40.6979180  17.0286296
  91.7074641  40.8616304  16.7804464 102.9640831  51.4865078  18.0202507
 103.5080735  52.0995036  17.5257462 102.3827675  52.0444656  18.5369520
  89.3412265  42.8878532   2.3467127  89.6365706  41.9789210   2.2934180
  88.4400301  42.8666271   2.0248129 101.2498344  54.6085796   9.1517535
 101.1249483  53.8075535   8.6428481 101.9077435  55.1031989   8.6631505
  92.8706512  40.9634528   8.3294675  92.1493098  41.5770496   8.1902149
  93.6599768  41.4992293   8.2511321 103.3133252  52.4094816  10.7797085
 102.3663587  52.2900167  10.7075412 103.6616025  51.5217314  10.8623347
  95.6732825  38.2988955  14.6035327  96.1967227  38.5451251  15.3661636
  95.4545159  39.1308989  14.1838464  91.0700106  40.5692629   2.4706452
  90.7412812  39.6890008   2.2881558  91.4239477  40.5140298   3.3582841
 100.3179685  52.2047532   6.9801437 100.1704648  51.2764239   7.1609008
 101.1433179  52.2267623   6.4958513  94.1841929  40.8565599   2.8381930
  94.5238002  41.3851520   2.1160538  94.6314050  41.1946005   3.6140496
 103.9213807  53.0276091   8.0666310 104.8460355  52.8218952   7.9290761
 103.7529110  52.7792492   8.9755652  96.8785370  39.2402650  12.2884998
  96.5382191  38.4410463  12.6905678  96.1724377  39.5404361  11.7161831
  97.5301842  36.3251962  10.7412321  98.3527911  35.8512440  10.6191211
  97.7739906  37.1042446  11.2411007  95.0540421  43.0171083   8.5504299
  94.9085002  43.3311386   9.4428581  94.5765625  43.6355983   7.9975198
  96.9136804  40.0073631   8.5985189  96.8998373  39.1114724   8.2617487
  97.6309232  40.0144294   9.2323475  98.7662934  40.4410971  10.6438316
  98.5080712  41.3628042  10.6422647  98.2347975  40.0441405  11.3338780
 103.7109123  53.5461758   3.4228402 103.8846001  52.9808181   2.6702254
 104.2038014  54.3462653   3.2407892  89.5286083  45.5576427  11.4891960
  88.9839551  46.3336235  11.6212235  90.4065433  45.9047232  11.3311082
  90.3152105  44.6846323  14.3822117  89.5733841  44.8328959  14.9686748
  89.9944849  44.9454589  13.5188867  98.2595768  54.2262302  14.1802507
  98.5682894  53.9811448  15.0525207  99.0571250  54.4308940  13.6921378
  98.2816380  56.3800211   6.4107884  97.8421370  55.8876590   7.1040741
  99.0324497  55.8373179   6.1699959  90.7608719  52.5711752   6.4132512
  91.5866739  52.2715524   6.0331156  90.4102771  51.8019375   6.8622301
  95.7290252  51.9238220   8.4830186  95.1070261  51.2608925   8.1832413
  96.3995119  51.9499352   7.8003833  88.9617324  50.4898079   7.3721446
  88.1249232  50.0620253   7.1905447  88.9340969  50.6830522   8.3092237
  95.8014779  40.4020008  18.0762692  95.8502935  41.2782131  17.6940461
  96.3437293  39.8597401  17.5034335 106.2869625  50.9461132  17.3563829
 105.4965169  50.9285270  16.8168328 106.0502979  51.4849425  18.1112865
 106.4067500  47.7953598  14.6696557 106.4565505  47.6303605  15.6112080
 106.2981423  46.9280857  14.2794438  95.2903759  50.4742144   1.9588646
  95.4391879  51.1577608   1.3055319  96.0970202  50.4547234   2.4738102
 103.6971262  43.7784526  15.9855864 104.5981125  43.6390991  15.6939862
 103.7719237  43.9438981  16.9254041  98.0314068  41.1551381  14.8309050
  97.1617377  41.4484947  14.5591639  98.2673548  41.7391826  15.5516314
 107.9085697  50.2150540  14.9138579 107.6170505  50.5780520  15.7502040
 107.2957828  49.5017548  14.7351911 106.1572885  45.3383154  13.3818637
 106.6327007  45.5310800  12.5737488 105.2338450  45.3942340  13.1362020
  93.0456392  46.5007321   2.9649715  92.8002434  45.5969651   3.1629925
  93.2152306  46.5024472   2.0229193 100.7353102  37.3730998  12.3474471
 101.2535045  38.1092025  12.0220959 100.3808234  37.6794991  13.1821230
  92.3152039  42.2335679   0.4635877  91.6221284  42.3080034  -0.1924088
  92.0703791  41.4696023   0.9857393  98.7899164  52.9690274  -0.5699606
  98.2173131  53.5880461  -1.0229135  99.3631958  53.5189636  -0.0359684
 104.8574554  42.2148914  11.6146942 105.8091977  42.3147012  11.6359166
 104.6878004  41.4227183  12.1245027 102.8788934  39.3004497  11.8006343
 102.2838866  39.5809510  11.1052832 102.5938630  39.7898398  12.5723084
 107.3362632  45.4355034  10.7289242 107.3038952  44.4971035  10.9148926
 107.9463255  45.5139071   9.9955067  99.0584655  48.3568833  18.2317103
  99.9787665  48.5347432  18.4257150  99.0234238  47.4124878  18.0796802
  88.2766820  43.5507427   7.1570378  87.9569605  42.6972735   6.8644752
  87.7300248  43.7656005   7.9128345  92.0546728  46.2669868  10.8739884
  92.2732738  47.1986976  10.8927918  92.4672502  45.9077842  11.6594688
  96.9274593  41.8403073  20.2642633  96.8271320  42.7897430  20.1954724
  96.7096135  41.5121312  19.3918703  88.1455080  47.1710338   9.1263499
  87.4518552  46.7564291   8.6133454  88.8928071  47.2130875   8.5296918
  96.7905863  45.2700212  19.0807695  96.3072945  46.0700572  19.2871584
  96.8766802  45.2808157  18.1275139  90.0591823  47.1028592   7.0029514
  90.0362511  47.2016279   6.0511397  90.3692459  47.9493743   7.3246680
  92.7179201  49.1604747  11.1176129  93.6722454  49.1288689  11.0506060
  92.5191724  48.6995371  11.9326354  93.3078583  47.7305863  13.6846926
  94.1271472  48.2249942  13.7081764  93.5815390  46.8137831  13.6564494
  91.0729429  54.7024367   8.1346326  90.9383897  53.9424767   7.5684324
  90.6561492  55.4265266   7.6675115  94.2298555  55.5993684   8.3464769
  94.1130939  56.5439116   8.2443459  93.4091002  55.2967245   8.7350568
  88.5613497  42.0643997  14.3839123  89.2072361  41.5542951  14.8726348
  88.3530648  42.8012679  14.9582549 101.0866889  49.1324844  19.8831264
 101.9558049  49.3065497  19.5217899 100.6073641  49.9519261  19.7606993
  95.2553069  56.2521945  11.5620698  96.1580316  56.2845556  11.8787192
  95.0290439  55.3222396  11.5767033  97.0106671  55.0052932   8.2230776
  96.0602302  55.0054794   8.1095148  97.3139158  54.2585667   7.7066811
  92.9010988  39.2111614  18.4814138  93.7642450  38.8548419  18.6917462
  92.3276399  38.8725509  19.1689542 112.7459365  60.8413470   9.2876539
 113.3837775  60.7220218   8.5839879 112.6280208  61.7894314   9.3464491
 109.5549071  60.7940898   9.2238063 109.2167583  60.6781963   8.3358598
 110.4238839  60.3932064   9.2039069 110.0368854  61.9475750  15.1824269
 110.0257495  61.5528548  14.3104772 110.1989494  61.2141823  15.7758040
 102.9600319  64.1427566   8.0519175 103.7521611  63.8018391   7.6365474
 103.1996969  64.2522542   8.9721328 106.7576115  64.7312862  14.1303453
 106.4665981  65.6358493  14.0150119 107.3933100  64.7729390  14.8447522
 107.6832322  62.1089711  10.7204812 108.2795894  61.8845733  10.0061775
 107.7407294  61.3674456  11.3230260 115.2234481  52.2161732  11.7257334
 114.8917806  53.0857142  11.5018549 114.6280094  51.8998016  12.4051364
 111.7166000  64.4174277  11.1253246 111.4166724  65.3199316  11.0169054
 111.3717060  64.1506461  11.9774399 105.1678482  60.8688074   7.1589951
 104.2428978  60.7364288   7.3667643 105.4162895  61.6482294   7.6559893
 115.1163144  56.9356818   8.8050684 114.2080022  56.8672226   8.5109445
 115.0650740  57.4128763   9.6332509 102.5287293  60.5121348   7.9933740
 102.6579674  60.7655827   8.9073152 101.8484744  61.1049056   7.6738395
 109.1904010  58.3546463  16.7485581 108.4137344  58.9140383  16.7388446
 109.8294573  58.8403246  17.2700451 107.4450382  61.1631917  16.3103548
 108.1865067  61.7016961  16.0338372 106.7387368  61.7898205  16.4675100
 112.9205722  63.3061057  14.9075710 113.3289078  62.8643468  14.1630342
 112.1982983  62.7313685  15.1609902 109.2736792  58.2433664  12.2809266
 110.1197987  58.6673077  12.4243915 109.2135430  57.5867288  12.9747830
 112.4236237  55.9038032  13.9390440 112.1797169  56.6580093  13.4024716
 112.6996168  56.2823380  14.7737687 114.3774700  62.4476645  12.6167706
 114.5891595  63.0908404  11.9402087 114.3304448  61.6138961  12.1489636
 111.9800929  55.0594465   9.5204278 111.1185408  55.3575719   9.8121015
 112.0063364  55.2764864   8.5885310 105.6886580  63.1508137   8.8657847
 106.2587937  63.5795406   8.2275331 106.2794691  62.8690722   9.5642032
 106.1811746  58.3171565  17.1118858 105.5510407  58.9987846  17.3454255
 106.0747834  58.2054646  16.1671996 101.4756718  57.9843361   8.0384782
 100.6855772  58.2400889   7.5624893 101.9667966  58.7991699   8.1436823
 103.4271464  58.3487940   4.9968259 102.6302627  58.4606634   5.5151755
 103.1997056  58.6874592   4.1309149 109.2577131  64.8732643  12.9450774
 109.3221564  65.3353051  13.7808945 108.5488055  64.2430008  13.0733083
  99.7594421  58.2373851  10.4699773 100.0102460  59.1220861  10.7357349
 100.2953970  58.0578453   9.6974865 105.4592489  52.6192331  19.4744109
 105.0659434  52.0658529  20.1491753 106.2758629  52.9302909  19.8650627
 108.3760450  54.0350210  17.0664366 109.1170163  54.6357363  16.9868828
 108.6078373  53.2927848  16.5082408 103.5201788  59.2206577  15.3442595
 103.4055303  58.3191834  15.6449694 102.6646306  59.4670274  14.9927412
 110.5993626  67.1624317  16.9430096 110.1557480  66.3760696  16.6251000
 111.2610839  67.3503468  16.2773987 105.3580747  68.6920119  11.4690774
 105.9088172  68.5637182  10.6967768 104.5192223  68.9915008  11.1185667
 112.6974864  67.4427117  14.9711497 112.6793339  68.2635998  14.4791766
 113.6194784  67.3181192  15.1961638 109.1547918  64.9571247  15.8135006
 109.6876255  64.1959535  15.5834314 108.6261999  64.6644899  16.5559160
 111.4014153  52.4335968   9.3077881 110.8978949  52.3966103   8.4945686
 111.6944760  53.3428711   9.3674537 107.6457039  52.5174698   8.3144062
 108.5110036  52.3217506   7.9549952 107.7134548  52.2885049   9.2413419
 105.2519358  54.7476905   5.6860429 105.8263110  54.5252087   4.9533622
 105.8390340  54.8165600   6.4389030 110.7879766  58.1100088   8.7383146
 109.8702328  58.3315035   8.5804834 111.2039910  58.1846398   7.8794853
 100.4129634  59.7255558   4.8327983 100.2154034  59.1324919   4.1079049
  99.8576298  59.4207769   5.5503922 108.3926358  59.6178665   6.9522576
 108.4474968  58.6652501   6.8765053 107.5817560  59.7738104   7.4363874
 106.3318718  58.2355725   4.7112955 105.5186584  58.5349895   5.1178147
 106.8277712  57.8411413   5.4287437 111.9292930  58.6997549  13.5427849
 112.2842317  58.9269022  14.4022315 112.5765061  59.0315926  12.9205104
 105.8232793  55.8074080  10.3274190 106.4632172  55.6662839   9.6297153
 104.9910323  55.5208594   9.9512792 102.8261409  55.7774405   5.1047177
 103.0868227  56.6919738   4.9956337 103.6478582  55.3098848   5.2543789
 104.2986335  57.1912162  12.2746001 104.9709388  56.9829524  11.6258650
 103.4716121  56.9934248  11.8351233 110.2011907  53.8174103  14.2911662
 109.5539822  54.5164053  14.1976138 110.9712922  54.2510247  14.6587910
 113.6090704  64.0822955  17.3662215 113.4576211  63.8533507  16.4492299
 113.5995384  65.0393557  17.3793560 110.3776041  61.6554868  12.3508482
 111.3068101  61.8066028  12.1777449 109.9567071  61.7438889  11.4957128
 109.1764373  65.6805533  10.1207019 109.0375458  65.3124317  10.9932958
 108.3878969  66.1953172   9.9490977 104.7013832  60.4654765  13.0348438
 104.5633630  59.7335004  13.6359977 105.6118755  60.3763665  12.7532626
 107.3296132  60.1774725  12.5232118 108.0395751  59.5367917  12.4818736
 107.2865441  60.4287620  13.4458299 115.3182911  67.1142078  15.4438697
 115.2595457  66.4301298  14.7769280 115.7202430  67.8561068  14.9919323
 106.0425066  57.1639943  14.3427757 105.5062423  56.7130681  14.9949354
 105.4541775  57.2985851  13.5998222 115.3200318  65.0781662  13.6752677
 114.4327097  64.7407584  13.7979076 115.8898869  64.3464693  13.9121442
  96.9729466  61.4105754   6.9995728  97.6600505  61.0967484   6.4116744
  96.8177594  62.3147118   6.7262980 101.7764188  56.2995950  11.4280752
 101.6922376  55.6921620  10.6931162 100.9546894  56.7904969  11.4290248
 108.5322870  56.9266897   6.5222632 108.1620658  56.3737937   7.2103537
 109.0281963  56.3225030   5.9697632 106.3612069  67.3864392  13.6177650
 107.0621528  68.0200875  13.7707044 105.8907184  67.7279123  12.8573289
 114.1613355  59.9408999  11.4430200 113.5084805  60.1884907  10.7882653
 114.5393735  59.1273137  11.1092677 110.2100928  60.6828810  17.9296237
 109.5341565  60.5822940  18.5998612 111.0328562  60.5268024  18.3932234
 101.9579787  66.9200747  10.5508752 102.5433224  66.1744435  10.6836656
 101.7604625  67.2304704  11.4345416  96.5497442  59.4906347   9.2713195
  96.5881541  58.9569938  10.0650314  96.0437734  58.9641553   8.6524173
 103.9288204  54.3370888  12.7675738 103.9929530  55.1985718  12.3553135
 103.8655324  53.7244889  12.0348096 103.4040476  56.4094020  16.4148772
 104.0312515  56.0271097  17.0286296 102.5468395  56.1908222  16.7804464
 113.8034585  66.8156995  18.0202507 114.3474489  67.4286954  17.5257462
 113.2221430  67.3736574  18.5369520 100.1806019  58.2170449   2.3467127
 100.4759460  57.3081128   2.2934180  99.2794055  58.1958189   2.0248129
 103.7100266  56.2926446   8.3294675 102.9886852  56.9062413   8.1902149
 104.4993522  56.8284211   8.2511321 106.5126580  53.6280872  14.6035327
 107.0360982  53.8743169  15.3661636 106.2938913  54.4600907  14.1838464
 101.9093861  55.8984547   2.4706452 101.5806567  55.0181926   2.2881558
 102.2633232  55.8432216   3.3582841 107.7179125  54.5694567  12.2884998
 107.3775945  53.7702380  12.6905678 107.0118131  54.8696278  11.7161831
 108.3695597  51.6543880  10.7412321 109.1921666  51.1804358  10.6191211
 108.6133660  52.4334364  11.2411007 105.8934175  58.3463000   8.5504299
 105.7478756  58.6603304   9.4428581 105.4159379  58.9647901   7.9975198
 107.7530558  55.3365548   8.5985189 107.7392127  54.4406642   8.2617487
 108.4702986  55.3436212   9.2323475 109.6056689  55.7702889  10.6438316
 109.3474467  56.6919959  10.6422647 109.0741729  55.3733323  11.3338780
 100.3679838  60.8868345  11.4891960  99.8233306  61.6628153  11.6212235
 101.2459187  61.2339149  11.3311082 101.1545859  60.0138241  14.3822117
 100.4127595  60.1620876  14.9686748 100.8338604  60.2746507  13.5188867
 109.0989522  69.5554219  14.1802507 109.4076648  69.3103366  15.0525207
 109.8965004  69.7600858  13.6921378  99.8011078  65.8189996   7.3721446
  98.9642986  65.3912171   7.1905447  99.7734724  66.0122440   8.3092237
 106.6408534  55.7311926  18.0762692 106.6896689  56.6074049  17.6940461
 107.1831048  55.1889319  17.5034335 117.1263379  66.2753049  17.3563829
 116.3358923  66.2577188  16.8168328 116.8896734  66.8141343  18.1112865
 117.2461254  63.1245516  14.6696557 117.2959259  62.9595523  15.6112080
 117.1375178  62.2572775  14.2794438 114.5365017  59.1076444  15.9855864
 115.4374880  58.9682909  15.6939862 114.6112991  59.2730899  16.9254041
 108.8707822  56.4843298  14.8309050 108.0011132  56.7776865  14.5591639
 109.1067303  57.0683743  15.5516314 118.7479451  65.5442457  14.9138579
 118.4564260  65.9072438  15.7502040 118.1351583  64.8309465  14.7351911
 116.9966640  60.6675072  13.3818637 117.4720761  60.8602718  12.5737488
 116.0732205  60.7234258  13.1362020 111.5746856  52.7022915  12.3474471
 112.0928800  53.4383942  12.0220959 111.2201989  53.0086909  13.1821230
 115.6968309  57.5440832  11.6146942 116.6485731  57.6438930  11.6359166
 115.5271759  56.7519100  12.1245027 113.7182688  54.6296415  11.8006343
 113.1232620  54.9101428  11.1052832 113.4332385  55.1190316  12.5723084
 109.8978410  63.6860751  18.2317103 110.8181419  63.8639350  18.4257150
 109.8627993  62.7416796  18.0796802  99.1160575  58.8799344   7.1570378
  98.7963359  58.0264653   6.8644752  98.5694003  59.0947923   7.9128345
 102.8940482  61.5961785  10.8739884 103.1126492  62.5278893  10.8927918
 103.3066256  61.2369760  11.6594688 107.7668348  57.1694991  20.2642633
 107.6665074  58.1189348  20.1954724 107.5489890  56.8413230  19.3918703
  98.9848835  62.5002256   9.1263499  98.2912306  62.0856209   8.6133454
  99.7321826  62.5422792   8.5296918 107.6299618  60.5992130  19.0807695
 107.1466699  61.3992490  19.2871584 107.7160557  60.6100075  18.1275139
 100.8985577  62.4320510   7.0029514 100.8756265  62.5308197   6.0511397
 101.2086214  63.2785660   7.3246680 103.5572955  64.4896665  11.1176129
 104.5116209  64.4580607  11.0506060 103.3585479  64.0287288  11.9326354
 104.1472337  63.0597781  13.6846926 104.9665226  63.5541859  13.7081764
 104.4209145  62.1429749  13.6564494  99.4007251  57.3935915  14.3839123
 100.0466115  56.8834869  14.8726348  99.1924403  58.1304596  14.9582549
 111.9260644  64.4616762  19.8831264 112.7951803  64.6357414  19.5217899
 111.4467395  65.2811179  19.7606993 106.0946824  71.5813863  11.5620698
 106.9974071  71.6137473  11.8787192 105.8684194  70.6514314  11.5767033
 103.7404742  54.5403532  18.4814138 104.6036204  54.1840337  18.6917462
 103.1670153  54.2017426  19.1689542 116.2986243  67.9484248  19.4744109
 115.9053189  67.3950447  20.1491753 117.1152384  68.2594827  19.8650627
 119.2154204  69.3642127  17.0664366 119.9563918  69.9649281  16.9868828
 119.4472127  68.6219765  16.5082408 114.2434231  71.7385938  16.4148772
 114.8706270  71.3563015  17.0286296 113.3862150  71.5200140  16.7804464
 117.4802288  71.0603844  18.0762692 117.5290444  71.9365967  17.6940461
 118.0224802  70.5181237  17.5034335 118.6062102  72.4986909  20.2642633
 118.5058829  73.4481266  20.1954724 118.3883644  72.1705148  19.3918703
 110.2401006  72.7227832  14.3839123 110.8859870  72.2126786  14.8726348
 110.0318157  73.4596514  14.9582549 114.5798497  69.8695449  18.4814138
 115.4429959  69.5132254  18.6917462 114.0063908  69.5309344  19.1689542
   4.3495214  76.9979272  86.7903192   3.5958923  76.4286670  86.6347196
   4.4842755  76.9641936  87.7373826   0.7143827  78.4387260  87.0869306
   1.5490718  78.8777064  87.2506866   0.8502955  77.9625913  86.2677552
   4.7601629  77.1554881  89.5223436   5.4905018  76.8940170  90.0831139
   4.1508575  76.4183603  89.5625504   2.8416926  75.2962744  90.1197887
   2.1150090  75.1618709  89.5114379   2.4264213  75.6039573  90.9254605
   0.4594721  71.5174596  87.4731319   1.0539212  71.2770332  86.7624627
   0.5321305  70.7981727  88.1004855   2.7665794  74.8240797  86.2474740
   2.2065352  74.8933986  87.0206302   2.1609297  74.6481782  85.5274236
   4.3521812  91.4997311  88.9404696   4.9900222  91.3804058  88.2368036
   4.2342655  92.4478155  88.9992648   1.1611519  91.4524739  88.8766220
   0.8230030  91.3365804  87.9886755   2.0301287  91.0515904  88.8567226
   2.5997893  96.9731183  80.1777576   1.9485873  97.5585264  79.7911590
   3.3942256  97.5037378  80.2372614   3.9063081  89.2248765  86.0157904
   4.6926170  88.8068188  85.6648321   4.1701785  90.1294857  86.1839552
   4.0773158  94.6621615  80.7146560   3.4418991  94.7356242  81.4267465
   3.7470565  95.2515214  80.0365640   9.3071508  89.1623998  86.9190882
  10.0396680  88.5923215  87.1528712   8.5510864  88.7745599  87.3597388
   0.9247628  91.5851240  84.1154225   0.5605835  91.0581861  84.8267146
   1.7814744  91.1949709  83.9420710   6.8296928  82.8745572  91.3785491
   6.4980253  83.7440983  91.1546706   6.2342542  82.5581856  92.0579521
   3.3228448  95.0758118  90.7781404   3.0229171  95.9783157  90.6697211
   2.9779507  94.8090301  91.6302556   6.7225592  87.5940658  88.4578841
   5.8142469  87.5256067  88.1637602   6.6713188  88.0712603  89.2860666
   8.5887238  85.7957097  90.2356715   7.9461618  86.0889630  89.5896509
   8.0842167  85.6810017  91.0409911   6.2427402  89.5420270  80.9242574
   7.1545258  89.7747657  80.7490272   5.7337049  90.1257314  80.3617653
   0.8799240  88.9017505  91.9337424   1.7260435  89.3256918  92.0772073
   0.8197877  88.2451129  92.6275987   4.8496984  94.5246088  88.3156155
   4.2205847  94.6891803  87.6132223   4.4622646  94.9387698  89.0867120
   8.7286216  95.4600526  85.6700519   8.0437254  95.8399428  85.1197553
   8.8130065  96.0695853  86.4032467   4.0298685  86.5621873  93.5918597
   3.7859617  87.3163933  93.0552873   4.3058615  86.9407221  94.4265844
   5.9837148  93.1060485  92.2695863   6.1954043  93.7492245  91.5930244
   5.9366896  92.2722802  91.8017793   3.5863377  85.7178306  89.1732435
   2.7247856  86.0159559  89.4649172   3.6125811  85.9348705  88.2413468
   7.0982976  95.9832441  90.4418220   7.9200419  95.5812628  90.1600902
   7.0945378  95.8800675  91.3934336  15.1888969  92.3271189  86.7903192
  14.4352677  91.7578587  86.6347196  15.3236510  92.2933854  87.7373826
   0.5787597  97.1984591  82.4657911   0.4433271  98.0436127  82.8942759
   1.1197409  97.4003869  81.7023845   3.9280060  80.7215153  90.9956804
   3.5844330  81.6116795  90.9195915   4.2959023  80.5316811  90.1326389
   3.8930343  90.7123764  79.5029240   3.3776966  91.4828369  79.7417627
   3.6207651  90.0388901  80.1262301   1.4777454  85.5573465  84.5614478
   0.6219050  85.1680316  84.3820117   1.8904406  85.6365426  83.7014263
   3.0076601  83.0919809  88.9606038   2.5041396  83.0549944  88.1473843
   3.3007208  84.0012551  89.0202694   8.8664617  93.4656119  81.4382413
   8.0894060  93.1267279  80.9937575   9.5456098  93.4708742  80.7637378
   3.6816646  88.5850857  81.3289021   3.3766782  88.8997006  82.1799164
   4.6347088  88.6632276  81.3716354   2.1263078  94.7441080  82.9781975
   1.5984440  94.0093839  82.6655212   1.6250581  95.5215756  82.7321943
   7.1055924  92.9390100  88.0949021   6.4479598  93.6289362  88.1829150
   7.9096323  93.3286532  88.4383007   5.9161383  91.2934473  86.1452963
   6.4293265  91.9264465  86.6474672   6.5662607  90.6935669  85.7796323
   3.1783757 101.2718797  78.9013634   2.5045456 101.5750494  79.5098592
   3.5649579 102.0747878  78.5519091   2.3942214  88.7683929  88.3911303
   1.4764775  88.9898876  88.2332991   2.8102357  88.8430239  87.5323011
   3.1777261  90.1675344  83.5213983   3.9249080  90.6796742  83.2121106
   3.4468851  89.8459397  84.3818377   1.4503912  92.6633885  80.5040938
   0.5415131  92.3792918  80.6013408   1.4798995  93.0832964  79.6444245
   6.6823179  96.2740475  84.2732105   6.2285506  95.4331384  84.3297296
   6.0517146  96.9101873  84.6106886   5.6256099  87.2032461  85.5032773
   4.8878855  86.6909847  85.8343015   5.8782872  86.7632842  84.6916050
   5.1256118  98.1116971  85.2081923   5.4179093  98.6722028  84.4894289
   5.6354739  98.4045532  85.9635083   5.7267726  79.9808713  86.0974542
   6.0326603  79.1206076  85.8100457   6.4520331  80.5726333  85.8973536
   1.1479999  94.2042629  77.8429016   0.7099429  93.4878488  77.3834654
   1.8890440  94.4318744  77.2814108   3.5355377  89.3581390  93.1956006
   3.8904765  89.5852863  94.0550472   4.1827508  89.6899767  92.5733261
   9.2653114  92.4799826  83.9005335   9.1271013  92.6701422  82.9726524
   8.9089333  93.2419209  84.3573386   9.2922494  94.5476353  88.9116606
   9.7259000  94.4551642  89.7599660  10.0054075  94.5233853  88.2736622
  10.1538043  94.5900053  91.4449492  10.3473933  95.4945864  91.6908767
  10.0538662  94.1307472  92.2788077   1.8074354  84.4757944  93.9439819
   1.1602269  85.1747894  93.8504296   2.5775370  84.9094088  94.3116067
   1.9838488  92.3138709  92.0036639   2.9130548  92.4649868  91.8305606
   1.5629518  92.4022730  91.1485285   1.3774972 101.4398470  81.1160713
   1.5526728 100.9686513  81.9306336   0.6907760 102.0664236  81.3441974
   2.3332035  95.7170976  87.1624014   1.9981868  95.6771746  88.0581664
   1.8335981  95.0515692  86.6894425   5.2691227  93.0627010  77.4361074
   4.6520398  92.3373838  77.3394127   4.8007715  93.8236371  77.0928148
   6.9262766  95.7365503  93.3280834   6.0389545  95.3991424  93.4507233
   7.4961317  95.0048534  93.5649599   3.5550349  85.4433354  86.4479104
   4.0519049  84.6903317  86.1280174   2.7837331  85.4797671  85.8822313
  11.4080106  91.1473720  88.0897396  11.3969983  92.0298435  87.7191329
  10.5397486  90.7945271  87.8951933   4.6380130  94.2005042  84.0217528
   3.7036409  94.3206504  83.8522232   4.8156798  93.2977508  83.7577537
   8.0252681  90.0422361  84.5567562   8.4913133  90.8750353  84.4827864
   8.4760182  89.5767343  85.2612820   6.0928912  96.3866182  81.5553714
   6.3688756  96.2722777  82.4647588   5.2233411  95.9883667  81.5165887
   5.9969344  82.4102948  88.5958463   5.0832424  82.6407175  88.7640670
   6.4262445  82.4941392  89.4472495   5.7675802  90.5992840  91.0958357
   5.1147253  90.8468747  90.4410810   6.1456182  89.7856978  90.7620834
   2.7282976 100.6352533  85.1986527   2.9105371  99.8174189  85.6614280
   3.5515962 100.8520225  84.7611417   3.0625142  99.5620718  82.4601576
   3.5912908  99.0513173  81.8471738   3.3253361  99.2463248  83.3247109
   3.6954546 100.5961554  88.8045692   3.5705685  99.7951294  88.2956638
   4.3533637 101.0907747  88.3159662   5.7589454  98.3970574  90.4325242
   4.8119789  98.2775925  90.3603569   6.1072227  97.5093072  90.5151504
   2.7635887  98.1923290  86.6329595   2.6160850  97.2639998  86.8137165
   3.5889381  98.2143381  86.1486670   6.3670009  99.0151849  87.7194467
   7.2916557  98.8094710  87.5818918   6.1985312  98.7668250  88.6283809
   2.7597402  86.0461128  81.6261712   2.9761016  86.9285766  81.3250540
   2.2791469  85.6547341  80.8967354   1.2119137  86.4286729  90.2966473
   0.9536914  87.3503800  90.2950804   0.6804177  86.0317164  90.9866938
   6.1565325  99.5337516  83.0756559   6.3302203  98.9683939  82.3230411
   6.6494217 100.3338411  82.8936049   1.6321092  82.5618680  86.6567636
   1.6542789  82.6258013  85.7019615   2.0489151  81.7223188  86.8508142
  12.0104716  92.2973939  84.6946859  12.4535862  91.5481265  84.2965982
  11.1331227  92.2884076  84.3120591   7.1440498  98.8504281  80.1753457
   7.8391402  99.4710974  80.3940772   7.4863648  97.9999632  80.4505835
   9.0431921  96.3003986  81.7040788   9.5683245  96.6391259  80.9790108
   8.9554273  95.3651002  81.5203922   8.8523702  93.7829356  94.3224714
   8.9021707  93.6179364  95.2640237   8.7437625  92.9156615  93.9322595
   6.1427464  89.7660284  95.6384021   7.0437327  89.6266749  95.3468019
   6.2175439  89.9314739  96.5782198  10.3541899  96.2026298  94.5666736
  10.0626707  96.5656278  95.4030197   9.7414030  95.4893306  94.3880068
  11.5537581  93.7679178  87.0869306  12.3884473  94.2068982  87.2506866
  11.6896710  93.2917831  86.2677552   8.6029087  91.3258913  93.0346794
   9.0783209  91.5186559  92.2265645   7.6794652  91.3818098  92.7890178
   3.1809304  83.3606756  92.0002628   3.6991247  84.0967783  91.6749116
   2.8264436  83.6670749  92.8349387   3.4321898  79.7807039  87.5203524
   3.7123652  79.1130228  88.1463951   4.2172505  79.9736134  87.0078188
   1.2355366  98.9566033  79.0828551   0.6629333  99.5756220  78.6299023
   1.8088160  99.5065394  79.6168473   7.3030756  88.2024673  91.2675099
   8.2548179  88.3022770  91.2887323   7.1334207  87.4102941  91.7773184
   5.3245136  85.2880256  91.4534500   4.7295068  85.5685269  90.7580989
   5.0394832  85.7774157  92.2251241   4.4552626  99.2403183  80.2137133
   5.3883299  99.1748744  80.4170008   4.3675839 100.0759450  79.7551666
   7.0840643  98.5569053  77.1741080   7.0054274  98.2228917  78.0676838
   7.9050309  99.0490821  77.1732553   9.7818834  91.4230792  90.3817399
   9.7495154  90.4846793  90.5677083  10.3919458  91.5014829  89.6483224
   1.6202165  90.2926845  76.4244603   2.5661269  90.1633053  76.4933021
   1.2416410  89.5541507  76.9014031   9.9313322  88.2141836  90.4275682
   9.4152371  87.4300292  90.2405611  10.8153271  87.8860552  90.5922202
   7.5924049  81.9582851  86.3871495   7.3948870  81.6497939  87.2714827
   8.2023755  82.6844490  86.5169425  15.5995384  92.4846799  89.5223436
  16.3298772  92.2232087  90.0831139  14.9902329  91.7475521  89.5625504
  13.6810681  90.6254662  90.1197887  12.9543844  90.4910627  89.5114379
  13.2657968  90.9331490  90.9254605   1.4207148  82.7613711  82.5143730
   0.6107876  82.4160796  82.8898976   2.1091565  82.4521255  83.1031341
   3.3497696  81.8391758  84.1368026   3.9028735  82.2587212  84.7958049
   3.5867782  80.9127506  84.1790982   6.7276503  83.9492283  83.6446691
   6.1475172  84.6077087  83.2624743   6.4612436  83.1269628  83.2334108
   5.1780069  83.3497341  85.8468011   5.6779848  83.4613876  85.0382330
   5.8215677  83.0458394  86.4868819   5.5101381  86.1092374  82.7003039
   4.6227236  86.3942024  82.4823234   5.9255370  85.9486137  81.8530316
   8.8615917  86.1338895  86.4157378   9.6376307  86.6235347  86.6881995
   8.1364051  86.5596949  86.8729248  11.2988476  86.8466514  87.4731319
  11.8932967  86.6062250  86.7624627  11.3715059  86.1273644  88.1004855
   4.6544594  95.8737048  76.7951059   5.3580445  96.0787051  77.4108714
   3.9307243  96.4413810  77.0600142   5.4842405  91.6246910  82.9153329
   5.4277606  92.0815461  82.0760961   6.0370747  90.8637594  82.7376172
   9.2947211  87.4136642  83.7403448   9.0384145  87.0133277  84.5711656
   8.6700079  88.1280435  83.6153588  13.6059549  90.1532715  86.2474740
  13.0459106  90.2225904  87.0206302  13.0003052  89.9773699  85.5274236
   6.5631292  96.3119578  78.8449519   7.3976896  95.8800776  78.6626994
   6.4015635  96.1401591  79.7726413   6.2177184  92.8151691  80.2105858
   6.1625988  92.6495962  79.2694302   5.5923239  93.5227724  80.3668048
   3.3425429  78.9102577  84.0437113   2.5757825  78.3561063  84.1893796
   3.7536134  78.9824445  84.9051265  15.1915567 106.8289229  88.9404696
  15.8293977 106.7095976  88.2368036  15.0736410 107.7770073  88.9992648
  12.0005273 106.7816657  88.8766220  11.6623785 106.6657722  87.9886755
  12.8695041 106.3807822  88.8567226   9.7013553 105.5504904  78.2083160
   9.9539073 105.0286425  77.4466623   8.7638112 105.3871050  78.3109844
  14.7456835 104.5540683  86.0157904  15.5319925 104.1360106  85.6648321
  15.0095540 105.4586775  86.1839552  20.1465263 104.4915916  86.9190882
  20.8790435 103.9215133  87.1528712  19.3904618 104.1037516  87.3597388
  11.7641382 106.9143157  84.1154225  11.3999590 106.3873778  84.8267146
  12.6208498 106.5241626  83.9420710  17.6690683  98.2037490  91.3785491
  17.3374008  99.0732901  91.1546706  17.0736296  97.8873774  92.0579521
  11.4046869 101.9433057  79.1115573  11.5721272 102.8113293  79.4786044
  11.2144038 102.1060339  78.1876862  17.5619346 102.9232576  88.4578841
  16.6536224 102.8547984  88.1637602  17.5106942 103.4004521  89.2860666
  11.3836090 104.3990714  80.0962240  11.2635715 104.8447765  80.9347720
  10.6888679 104.7476032  79.5375778  19.4280993 101.1249014  90.2356715
  18.7855373 101.4181548  89.5896509  18.9235921 101.0101935  91.0409911
  17.0821156 104.8712188  80.9242574  17.9939012 105.1039574  80.7490272
  16.5730803 105.4549232  80.3617653  11.7192994 104.2309422  91.9337424
  12.5654189 104.6548836  92.0772073  11.6591632 103.5743047  92.6275987
  14.8692439 101.8913791  93.5918597  14.6253371 102.6455851  93.0552873
  15.1452370 102.2699138  94.4265844  16.8230902 108.4352403  92.2695863
  17.0347797 109.0784163  91.5930244  16.7760650 107.6014720  91.8017793
  14.4257131 101.0470224  89.1732435  13.5641610 101.3451477  89.4649172
  14.4519566 101.2640623  88.2413468  10.1787587 105.7135567  82.3895806
  10.8811630 106.1656610  82.8569732   9.8468215 105.0719385  83.0175699
   3.9212921 103.9719119  87.6912939   3.1311975 104.2276648  87.2153050
   4.4124168 104.7867457  87.7964980   5.8727666 104.3363698  84.6496416
   5.0758829 104.4482393  85.1679912   5.6453258 104.6750351  83.7837306
  26.0282723 107.6563107  86.7903192  25.2746432 107.0870505  86.6347196
  26.1630264 107.6225771  87.7373826  14.7673815  96.0507071  90.9956804
  14.4238084  96.9408713  90.9195915  15.1352777  95.8608729  90.1326389
  14.7324097 106.0415682  79.5029240  14.2170721 106.8120287  79.7417627
  14.4601406 105.3680818  80.1262301  12.3171209 100.8865383  84.5614478
  11.4612805 100.4972233  84.3820117  12.7298160 100.9657344  83.7014263
  13.8470355  98.4211726  88.9606038  13.3435151  98.3841861  88.1473843
  14.1400962  99.3304469  89.0202694  10.0913241  98.5050456  87.9672219
  10.9566238  98.3093265  87.6078109  10.1590750  98.2760808  88.8941576
  19.7058372 108.7948037  81.4382413  18.9287814 108.4559196  80.9937575
  20.3849853 108.8000660  80.7637378  14.5210401 103.9142774  81.3289021
  14.2160536 104.2288923  82.1799164  15.4740843 103.9924194  81.3716354
  17.9449679 108.2682018  88.0949021  17.2873353 108.9581279  88.1829150
  18.7490078 108.6578450  88.4383007   7.6975560 100.7352664  85.3388586
   8.2719312 100.5127845  84.6061779   8.2846543 100.8041358  86.0917187
  16.7555137 106.6226391  86.1452963  17.2687019 107.2556383  86.6474672
  17.4056361 106.0227586  85.7796323   8.0245147 102.7657125  79.3584471
   7.1882459 103.1031811  79.6793746   7.8849917 102.6306105  78.4211608
   9.9998228  97.6093913  84.0663656   9.3462640  97.2942930  83.4420270
   9.9578702  96.9869653  84.7923479  13.2335968 104.0975846  88.3911303
  12.3158530 104.3190793  88.2332991  13.6496112 104.1722157  87.5323011
  14.0171016 105.4967262  83.5213983  14.7642835 106.0088659  83.2121106
  14.2862605 105.1751315  84.3818377  16.4649853 102.5324378  85.5032773
  15.7272610 102.0201764  85.8343015  16.7176627 102.0924760  84.6916050
  16.5661480  95.3100630  86.0974542  16.8720357  94.4497994  85.8100457
  17.2914085  95.9018250  85.8973536  10.8382560 105.6054423  86.6050733
  10.8931170 104.6528260  86.5293210  10.0273762 105.7613862  87.0892032
   8.7774920 104.2231483  84.3641112   7.9642786 104.5225654  84.7706304
   9.2733914 103.8287172  85.0815594  14.3749132 104.6873308  93.1956006
  14.7298519 104.9144781  94.0550472  15.0221263 105.0191684  92.5733261
  20.1046869 107.8091743  83.9005335  19.9664767 107.9993339  82.9726524
  19.7483088 108.5711126  84.3573386   8.2688995 101.7949839  89.9802347
   8.9088374 101.6538598  89.2825310   7.4366525 101.5084352  89.6040949
  20.1316248 109.8768270  88.9116606  20.5652755 109.7843560  89.7599660
  20.8447829 109.8525771  88.2736622   5.3532062 105.2395351  82.1697092
   4.4229650 105.1779806  82.3867054   5.4489534 104.7171303  81.3733733
   5.2717611 101.7650164  84.7575334   5.5324429 102.6795497  84.6484494
   6.0934784 101.2974606  84.9071947  20.9931798 109.9191971  91.4449492
  21.1867688 110.8237782  91.6908767  20.8932416 109.4599390  92.2788077
  12.6468109  99.8049862  93.9439819  11.9996024 100.5039811  93.8504296
  13.4169124 100.2386006  94.3116067  12.8232243 107.6430627  92.0036639
  13.7524303 107.7941786  91.8305606  12.4023273 107.7314647  91.1485285
  16.1084982 108.3918928  77.4361074  15.4914152 107.6665756  77.3394127
  15.6401470 109.1528288  77.0928148   7.8983527 102.6104352  76.5582378
   7.0212994 102.4893153  76.1944625   8.3741281 101.8190431  76.3061267
  14.3944104 100.7725272  86.4479104  14.8912803 100.0195234  86.1280174
  13.6231085 100.8089589  85.8822313  22.2473861 106.4765638  88.0897396
  22.2363737 107.3590353  87.7191329  21.3791240 106.1237188  87.8951933
  10.9779072 102.9142655  86.1750789  10.6076860 102.3613696  86.8631694
  11.4738165 102.3100789  85.6225789  18.8646436 105.3714279  84.5567562
  19.3306888 106.2042270  84.4827864  19.3153936 104.9059260  85.2612820
  16.8363098  97.7394866  88.5958463  15.9226178  97.9699092  88.7640670
  17.2656200  97.8233310  89.4472495  16.6069557 105.9284758  91.0958357
  15.9541007 106.1760665  90.4410810  16.9849937 105.1148896  90.7620834
   6.3744406 100.3246646  92.4203895   6.4385732 101.1861477  92.0081293
   6.3111526  99.7120648  91.6876253   2.6262221 104.2046208  81.9995284
   2.9215662 103.2956886  81.9462338   1.7250257 104.1833947  81.6776286
   6.1556468 102.2802204  87.9822832   5.4343054 102.8938172  87.8430306
   6.9449724 102.8159969  87.9039478   8.9582782  99.6156631  94.2563484
   9.4817184  99.8618927  95.0189794   8.7395115 100.4476665  93.8366622
   4.3550063 101.8860305  82.1234609   4.0262769 101.0057684  81.9409715
   4.7089434 101.8307974  83.0110998   7.4691886 102.1733275  82.4910087
   7.8087959 102.7019196  81.7688695   7.9164006 102.5113681  83.2668653
  10.1635327 100.5570326  91.9413155   9.8232147  99.7578139  92.3433835
   9.4574333 100.8572037  91.3689988  10.8151799  97.6419638  90.3940478
  11.6377868  97.1680116  90.2719368  11.0589862  98.4210122  90.8939164
   9.4560033 100.6707897  80.6903379  10.1768396 101.0489149  80.1867096
   8.8325337 101.3896773  80.7938357  13.5991156 101.3753046  81.6261712
  13.8154770 102.2577683  81.3250540  13.1185223 100.9839259  80.8967354
   8.3390377 104.3338759  88.2032456   8.1934958 104.6479062  89.0956738
   7.8615581 104.9523659  87.6503355  10.1986760 101.3241307  88.2513346
  10.1848329 100.4282400  87.9145644  10.9159188 101.3311971  88.8851632
  12.0512891 101.7578647  90.2966473  11.7930669 102.6795718  90.2950804
  11.5197931 101.3609082  90.9866938   9.6023656 100.2055687  83.5200916
   9.7239567  99.2772333  83.7191804   9.3125699 100.2194373  82.6079232
  12.4714847  97.8910598  86.6567636  12.4936543  97.9549931  85.7019615
  12.8882906  97.0515106  86.8508142  22.8498471 107.6265857  84.6946859
  23.2929617 106.8773182  84.2965982  21.9724981 107.6175993  84.3120591
  19.6917457 109.1121274  94.3224714  19.7415461 108.9471282  95.2640237
  19.5831380 108.2448533  93.9322595  16.9821219 105.0952202  95.6384021
  17.8831082 104.9558667  95.3468019  17.0569193 105.2606657  96.5782198
  11.3164024 102.4719057  94.4837207  10.4467334 102.7652623  94.2119796
  11.5523505 103.0559502  95.2044471  22.3931336 109.0971095  87.0869306
  23.2278227 109.5360899  87.2506866  22.5290464 108.6209749  86.2677552
  19.4422842 106.6550830  93.0346794  19.9176963 106.8478477  92.2265645
  18.5188407 106.7110016  92.7890178  14.0203058  98.6898674  92.0002628
  14.5385002  99.4259701  91.6749116  13.6658191  98.9962667  92.8349387
   5.6001996 103.5503355  80.1164034   4.9071241 103.6247710  79.4604070
   5.3553748 102.7863699  80.6385551  14.2715652  95.1098956  87.5203524
  14.5517406  94.4422145  88.1463951  15.0566259  95.3028052  87.0078188
  18.1424511 103.5316590  91.2675099  19.0941933 103.6314688  91.2887323
  17.9727961 102.7394859  91.7773184  16.1638890 100.6172174  91.4534500
  15.5688822 100.8977186  90.7580989  15.8788587 101.1066074  92.2251241
  20.6212588 106.7522710  90.3817399  20.5888908 105.8138711  90.5677083
  21.2313212 106.8306747  89.6483224  12.4595919 105.6218763  76.4244603
  13.4055024 105.4924971  76.4933021  12.0810164 104.8833425  76.9014031
  20.7707077 103.5433753  90.4275682  20.2546125 102.7592210  90.2405611
  21.6547025 103.2152470  90.5922202  18.4317804  97.2874769  86.3871495
  18.2342625  96.9789857  87.2714827  19.0417509  98.0136408  86.5169425
  26.4389138 107.8138717  89.5223436  27.1692527 107.5524005  90.0831139
  25.8296084 107.0767439  89.5625504  24.5204435 105.9546579  90.1197887
  23.7937599 105.8202544  89.5114379  24.1051722 106.2623408  90.9254605
  10.6438836 103.5468739  76.3599488   9.7370292 103.2501852  76.4362202
  10.9214817 103.2498557  75.4933775  12.2600902  98.0905629  82.5143730
  11.4501630  97.7452714  82.8898976  12.9485319  97.7813173  83.1031341
  14.1891450  97.1683676  84.1368026  14.7422489  97.5879129  84.7958049
  14.4261537  96.2419424  84.1790982   9.4137621 100.4055675  76.5011468
  10.2756785 100.7310573  76.7607285   9.5987965  99.6187170  75.9884533
  17.5670257  99.2784201  83.6446691  16.9868927  99.9369005  83.2624743
  17.3006190  98.4561546  83.2334108  16.0173824  98.6789259  85.8468011
  16.5173602  98.7905793  85.0382330  16.6609432  98.3750312  86.4868819
  16.3495135 101.4384291  82.7003039  15.4620991 101.7233942  82.4823234
  16.7649125 101.2778055  81.8530316  19.7009672 101.4630812  86.4157378
  20.4770062 101.9527265  86.6881995  18.9757806 101.8888867  86.8729248
  22.1382230 102.1758432  87.4731319  22.7326721 101.9354168  86.7624627
  22.2108814 101.4565562  88.1004855  16.3236159 106.9538827  82.9153329
  16.2671361 107.4107379  82.0760961  16.8764502 106.1929512  82.7376172
  20.1340965 102.7428559  83.7403448  19.8777899 102.3425195  84.5711656
  19.5093833 103.4572353  83.6153588  24.4453303 105.4824632  86.2474740
  23.8852861 105.5517822  87.0206302  23.8396806 105.3065617  85.5274236
  17.0570939 108.1443609  80.2105858  17.0019742 107.9787880  79.2694302
  16.4316994 108.8519641  80.3668048  10.3667064  97.6451718  79.7891177
  10.3545734  98.5893558  79.9459447  11.2590486  97.4621863  79.4950638
  14.1819183  94.2394494  84.0437113  13.4151579  93.6852981  84.1893796
  14.5929888  94.3116363  84.9051265  25.6067569 111.3798989  90.9956804
  25.2631839 112.2700630  90.9195915  25.9746532 111.1900646  90.1326389
  27.4055235 110.6392548  86.0974542  27.7114112 109.7789911  85.8100457
  28.1307840 111.2310168  85.8973536  25.1109407 110.4390874  87.5203524
  25.3911160 109.7714063  88.1463951  25.8960014 110.6319970  87.0078188
  29.2711558 112.6166687  86.3871495  29.0736379 112.3081775  87.2714827
  29.8811264 113.3428326  86.5169425  25.0212938 109.5686412  84.0437113
  24.2545334 109.0144899  84.1893796  25.4323643 109.6408281  84.9051265
   4.3495215  54.0041394  73.5148498   3.5958924  53.4348792  73.3592503
   4.4842757  53.9704059  74.4619133   0.7143828  55.4449383  73.8114613
   1.5490719  55.8839187  73.9752173   0.8502957  54.9688036  72.9922858
   4.7601630  54.1617004  76.2468743   5.4905019  53.9002292  76.8076446
   4.1508576  53.4245726  76.2870811   2.8416928  52.3024867  76.8443194
   2.1150091  52.1680832  76.2359685   2.4264214  52.6101695  77.6499912
   0.4594723  48.5236719  74.1976625   1.0539213  48.2832455  73.4869934
   0.5321306  47.8043849  74.8250162   2.7665795  51.8302920  72.9720047
   2.2065353  51.8996109  73.7451609   2.1609299  51.6543904  72.2519543
   4.3521814  68.5059434  75.6650002   4.9900224  68.3866181  74.9613342
   4.2342657  69.4540278  75.7237954   1.1611520  68.4586862  75.6011527
   0.8230032  68.3427926  74.7132062   2.0301288  68.0578027  75.5812533
   1.6431303  69.6121713  81.5597732   1.6319944  69.2174512  80.6878236
   1.8051942  68.8787786  82.1531504   2.5997894  73.9793306  66.9022883
   1.9485874  74.5647386  66.5156897   3.3942257  74.5099501  66.9617920
   3.9063082  66.2310887  72.7403210   4.6926171  65.8130311  72.3893627
   4.1701787  67.1356980  72.9084859   4.0773160  71.6683738  67.4391867
   3.4418993  71.7418364  68.1512772   3.7470566  72.2577337  66.7610946
   9.3071509  66.1686121  73.6436189  10.0396681  65.5985337  73.8774018
   8.5510865  65.7807721  74.0842694   0.9247629  68.5913362  70.8399531
   0.5605836  68.0643983  71.5512453   1.7814745  68.2011831  70.6666017
   6.8296930  59.8807695  78.1030797   6.4980254  60.7503106  77.8792012
   6.2342543  59.5643979  78.7824828   3.3228449  72.0820241  77.5026710
   3.0229172  72.9845280  77.3942517   2.9779509  71.8152424  78.3547863
   6.7225593  64.6002781  75.1824147   5.8142470  64.5318189  74.8882908
   6.6713189  65.0774726  76.0105973   8.5887239  62.8019219  76.9602021
   7.9461620  63.0951753  76.3141816   8.0842168  62.6872140  77.7655218
   6.2427403  66.5482393  67.6487881   7.1545259  66.7809779  67.4735578
   5.7337050  67.1319437  67.0862959   4.5268171  70.9707020  81.2849173
   4.9351527  70.5289431  80.5403806   3.8045432  70.3959648  81.5383366
   0.8799241  65.9079627  78.6582730   1.7260436  66.3319041  78.8017379
   0.8197878  65.2513251  79.3521293   4.8496985  71.5308211  75.0401462
   4.2205848  71.6953925  74.3377530   4.4622647  71.9449821  75.8112426
   8.7286217  72.4662649  72.3945826   8.0437255  72.8461550  71.8442859
   8.8130067  73.0757976  73.1277774   4.0298686  63.5683996  80.3163904
   3.7859618  64.3226056  79.7798179   4.3058617  63.9469343  81.1511151
   5.9837149  70.1122608  78.9941169   6.1954044  70.7554368  78.3175550
   5.9366897  69.2784924  78.5263099   3.5863378  62.7240429  75.8977742
   2.7247857  63.0221682  76.1894479   3.6125813  62.9410827  74.9658774
   7.0982977  72.9894563  77.1663527   7.9200421  72.5874751  76.8846208
   7.0945380  72.8862797  78.1179643  15.1888970  69.3333312  73.5148498
  14.4352678  68.7640710  73.3592503  15.3236511  69.2995976  74.4619133
   0.5787598  74.2046714  69.1903218   0.4433273  75.0498250  69.6188065
   1.1197410  74.4065992  68.4269151   2.2056074  74.8270281  83.3203560
   1.7619929  74.0406659  83.0024464   2.8673288  75.0149431  82.6547450
   4.3037312  75.1073081  81.3484961   4.2855788  75.9281962  80.8565230
   5.2257232  74.9827156  81.5735102   3.9280062  57.7277276  77.7202111
   3.5844331  58.6178918  77.6441222   4.2959024  57.5378934  76.8571696
   3.8930344  67.7185887  66.2274546   3.3776968  68.4890492  66.4662934
   3.6207653  67.0451023  66.8507608   1.4777455  62.5635588  71.2859785
   0.6219052  62.1742438  71.1065423   1.8904407  62.6427549  70.4259570
   3.0076602  60.0981931  75.6851344   2.5041397  60.0612066  74.8719150
   3.3007209  61.0074674  75.7448001   8.8664618  70.4718242  68.1627720
   8.0894061  70.1329401  67.7182882   9.5456099  70.4770865  67.4882685
   3.6816647  65.5912979  68.0534327   3.3766783  65.9059128  68.9044471
   4.6347090  65.6694399  68.0961660   2.1263079  71.7503202  69.7027281
   1.5984441  71.0155962  69.3900519   1.6250582  72.5277879  69.4567250
   7.1055925  69.9452223  74.8194328   6.4479600  70.6351484  74.9074456
   7.9096324  70.3348655  75.1628314   5.9161384  68.2996596  72.8698269
   6.4293266  68.9326587  73.3719979   6.5662608  67.6997791  72.5041629
   3.1783758  78.2780920  65.6258940   2.5045457  78.5812617  66.2343898
   3.5649580  79.0810000  65.2764398   2.3942215  65.7746051  75.1156610
   1.4764776  65.9960998  74.9578298   2.8102359  65.8492362  74.2568317
   3.1777263  67.1737467  70.2459290   3.9249082  67.6858864  69.9366412
   3.4468852  66.8521520  71.1063684   1.4503913  69.6696008  67.2286244
   0.5415132  69.3855040  67.3258714   1.4798997  70.0895086  66.3689551
   6.6823180  73.2802597  70.9977412   6.2285507  72.4393507  71.0542602
   6.0517147  73.9163995  71.3352192   5.6256100  64.2094583  72.2278079
   4.8878857  63.6971969  72.5588322   5.8782873  63.7694965  71.4161356
   5.1256120  75.1179094  71.9327230   5.4179094  75.6784151  71.2139596
   5.6354740  75.4107655  72.6880389   5.7267727  56.9870835  72.8219849
   6.0326604  56.1268199  72.5345764   6.4520332  57.5788455  72.6218843
   1.1480001  71.2104751  64.5674323   0.7099431  70.4940610  64.1079960
   1.8890442  71.4380866  64.0059414   3.5355379  66.3643512  79.9201313
   3.8904766  66.5914986  80.7795778   4.1827510  66.6961889  79.2978568
   9.2653115  69.4861948  70.6250642   9.1271014  69.6763544  69.6971831
   8.9089334  70.2481331  71.0818693   9.2922495  71.5538475  75.6361913
   9.7259002  71.4613764  76.4844967  10.0054076  71.5295976  74.9981929
   3.0250390  75.1540569  77.1695014   3.0787412  75.7231506  77.9372730
   2.1565171  75.3242454  76.8049051  10.1538045  71.5962176  78.1694798
  10.3473935  72.5007986  78.4154073  10.0538663  71.1369595  79.0033383
   1.8074355  61.4820067  80.6685126   1.1602270  62.1810016  80.5749602
   2.5775371  61.9156210  81.0361374   5.2153153  71.7468919  83.7435679
   5.0638660  71.5179470  82.8265763   5.2057833  72.7039520  83.7567024
   1.9838490  69.3200831  78.7281946   2.9130550  69.4711991  78.5550913
   1.5629520  69.4084852  77.8730592   1.3774973  78.4460592  67.8406020
   1.5526729  77.9748636  68.6551642   0.6907761  79.0726359  68.0687280
   2.3332037  72.7233099  73.8869321   1.9981869  72.6833869  74.7826971
   1.8335982  72.0577815  73.4139731   5.2691228  70.0689133  64.1606381
   4.6520399  69.3435961  64.0639433   4.8007717  70.8298493  63.8173455
   6.9245360  74.7788041  81.8212161   6.8657906  74.0947261  81.1542744
   7.3264878  75.5207031  81.3692787   6.9262767  72.7427625  80.0526141
   6.0389546  72.4053547  80.1752539   7.4961318  72.0110656  80.2894906
   3.5550350  62.4495477  73.1724411   4.0519050  61.6965439  72.8525481
   2.7837332  62.4859794  72.6067620  11.4080108  68.1535843  74.8142702
  11.3969984  69.0360558  74.4436635  10.5397487  67.8007393  74.6197239
   2.9162604  77.3015912  79.1745542   3.6290576  77.9363376  79.1021444
   2.4252633  77.3979778  78.3585544   4.6380131  71.2067164  70.7462834
   3.7036410  71.3268627  70.5767538   4.8156800  70.3039631  70.4822844
   8.0252682  67.0484484  71.2812868   8.4913135  67.8812475  71.2073171
   8.4760183  66.5829465  71.9858127   6.0928914  73.3928305  68.2799020
   6.3688757  73.2784899  69.1892894   5.2233412  72.9945790  68.2411193
   5.9969345  59.4165071  75.3203770   5.0832425  59.6469297  75.4885977
   6.4262447  59.5003515  76.1717802   5.7675804  67.6054963  77.8203664
   5.1147254  67.8530870  77.1656116   6.1456184  66.7919101  77.4866141
   2.7282978  77.6414656  71.9231834   2.9105372  76.8236312  72.3859586
   3.5515964  77.8582348  71.4856724   3.0625143  76.5682841  69.1846882
   3.5912909  76.0575295  68.5717045   3.3253363  76.2525371  70.0492415
   1.8163377  68.3474774  84.3069701   1.1404014  68.2468903  84.9772076
   2.6391011  68.1913987  84.7705698   0.5586160  79.6541701  78.5427317
   1.1104468  79.8173323  79.3076402   0.8992353  80.2446139  77.8707342
   5.4097034  74.4802959  84.3975971   5.9536938  75.0932917  83.9030926
   4.8283879  75.0382537  84.9142984   3.6954547  77.6023677  75.5290999
   3.5705686  76.8013416  75.0201944   4.3533638  78.0969870  75.0404969
   5.7589455  75.4032697  77.1570549   4.8119791  75.2838048  77.0848876
   6.1072228  74.5155195  77.2396810   2.7635889  75.1985413  73.3574901
   2.6160851  74.2702120  73.5382471   3.5889382  75.2205504  72.8731976
   6.3670010  76.0213972  74.4439774   7.2916558  75.8156833  74.3064225
   6.1985314  75.7730373  75.3529115   2.7597403  63.0523250  68.3507018
   2.9761017  63.9347888  68.0495847   2.2791470  62.6609464  67.6212660
   1.2119138  63.4348852  77.0211780   0.9536916  64.3565923  77.0196110
   0.6804178  63.0379286  77.7112244   6.1565327  76.5399639  69.8001865
   6.3302204  75.9746062  69.0475718   6.6494218  77.3400534  69.6181355
   1.6321093  59.5680802  73.3812943   1.6542790  59.6320136  72.4264922
   2.0489152  58.7285311  73.5753449  12.0104718  69.3036062  71.4192165
  12.4535864  68.5543387  71.0211288  11.1331228  69.2946198  71.0365897
   7.1440499  75.8566403  66.8998764   7.8391404  76.4773096  67.1186078
   7.4863649  75.0061755  67.1751142   9.0431922  73.3066109  68.4286094
   9.5683246  73.6453382  67.7035414   8.9554275  72.3713124  68.2449229
   0.7051971  77.2200183  80.5575971   1.0139097  76.9749329  81.4298671
   1.5027453  77.4246821  80.0694841   8.7325828  73.9399013  83.7337292
   7.9421372  73.9223151  83.1941792   8.4959183  74.4787306  84.4886329
   8.8523703  70.7891479  81.0470021   8.9021708  70.6241486  81.9885544
   8.7437627  69.9218738  80.6567902   6.1427466  66.7722407  82.3629328
   7.0437328  66.6328872  82.0713325   6.2175440  66.9376862  83.3027505
  10.3541900  73.2088420  81.2912042  10.0626708  73.5718401  82.1275503
   9.7414031  72.4955429  81.1125375  11.5537582  70.7741300  73.8114613
  12.3884474  71.2131104  73.9752173  11.6896711  70.2979953  72.9922858
   8.6029088  68.3321035  79.7592100   9.0783210  68.5248681  78.9510952
   7.6794654  68.3880221  79.5135484   3.1809305  60.3668879  78.7247934
   3.6991249  61.1029906  78.3994423   2.8264438  60.6732872  79.5594693
   3.4321899  56.7869161  74.2448831   3.7123653  56.1192350  74.8709258
   4.2172506  56.9798257  73.7323495   1.2355367  75.9628155  65.8073857
   0.6629335  76.5818342  65.3544329   1.8088161  76.5127517  66.3413779
   7.3030757  65.2086795  77.9920406   8.2548180  65.3084893  78.0132630
   7.1334208  64.4165064  78.5018490   5.3245137  62.2942378  78.1779807
   4.7295069  62.5747391  77.4826296   5.0394834  62.7836279  78.9496548
   4.4552627  76.2465305  66.9382440   5.3883300  76.1810867  67.1415315
   4.3675840  77.0821572  66.4796972   7.0840644  75.5631176  63.8986387
   7.0054275  75.2291039  64.7922145   7.9050311  76.0552944  63.8977859
   9.7818835  68.4292915  77.1062706   9.7495155  67.4908916  77.2922390
  10.3919459  68.5076952  76.3728531   1.6202166  67.2988968  63.1489910
   2.5661271  67.1695176  63.2178328   1.2416411  66.5603630  63.6259338
   9.9313324  65.2203958  77.1520989   9.4152372  64.4362415  76.9650918
  10.8153272  64.8922675  77.3167508   7.5924051  58.9644974  73.1116802
   7.3948872  58.6560062  73.9960134   8.2023756  59.6906613  73.2414731
  15.5995385  69.4908922  76.2468743  16.3298773  69.2294210  76.8076446
  14.9902330  68.7537644  76.2870811  13.6810682  67.6316784  76.8443194
  12.9543846  67.4972749  76.2359685  13.2657969  67.9393613  77.6499912
   1.5040859  71.3506714  84.6090567   2.4243868  71.5285313  84.8030613
   1.4690442  70.4062759  84.4570266   1.4207149  59.7675834  69.2389036
   0.6107877  59.4222919  69.6144282   2.1091566  59.4583378  69.8276648
   3.3497697  58.8453881  70.8613333   3.9028736  59.2649334  71.5203356
   3.5867784  57.9189629  70.9036289   6.7276504  60.9554406  70.3691997
   6.1475173  61.6139210  69.9870050   6.4612437  60.1331751  69.9579415
   5.1780071  60.3559464  72.5713318   5.6779849  60.4675998  71.7627636
   5.8215679  60.0520516  73.2114126   5.5101382  63.1154496  69.4248345
   4.6227237  63.4004147  69.2068540   5.9255371  62.9548260  68.5775622
   8.8615918  63.1401017  73.1402685   9.6376309  63.6297470  73.4127302
   8.1364053  63.5659071  73.5974554  11.2988477  63.8528637  74.1976625
  11.8932968  63.6124372  73.4869934  11.3715061  63.1335767  74.8250162
   4.6544596  72.8799171  63.5196365   5.3580446  73.0849173  64.1354021
   3.9307244  73.4475933  63.7845449   5.4842406  68.6309032  69.6398636
   5.4277607  69.0877584  68.8006268   6.0370748  67.8699717  69.4621478
   9.2947212  64.4198764  70.4648755   9.0384146  64.0195400  71.2956963
   8.6700080  65.1342558  70.3398894  13.6059550  67.1594837  72.9720047
  13.0459108  67.2288027  73.7451609  13.0003053  66.9835822  72.2519543
   6.5631293  73.3181700  65.5694825   7.3976897  72.8862899  65.3872300
   6.4015636  73.1463714  66.4971720   6.2177185  69.8213814  66.9351165
   6.1625989  69.6558085  65.9939609   5.5923241  70.5289846  67.0913355
   3.5323092  72.1262725  86.2604728   4.4014252  72.3003378  85.8991362
   3.0529844  72.9457142  86.1380457   3.3425430  55.9164699  70.7682420
   2.5757826  55.3623186  70.9139102   3.7536135  55.9886568  71.6296572
  15.1915568  83.8351351  75.6650002  15.8293978  83.7158099  74.9613342
  15.0736411  84.7832195  75.7237954  12.0005275  83.7878779  75.6011527
  11.6623786  83.6719844  74.7132062  12.8695043  83.3869945  75.5812533
   7.8592090  85.6414256  71.5908418   7.2956955  85.5504193  70.8224706
   7.7444485  84.8214160  72.0710910  12.4825058  84.9413631  81.5597732
  12.4713698  84.5466429  80.6878236  12.6445697  84.2079704  82.1531504
   5.4056522  87.1365447  74.4292638   6.1977814  86.7956272  74.0138938
   5.6453172  87.2460422  75.3494792  13.4391649  89.3085224  66.9022883
  12.7879629  89.8939304  66.5156897  14.2336012  89.8391418  66.9617920
   7.3647276  86.3974361  67.3010017   8.1378152  85.8503348  67.1622893
   7.7172675  87.2618610  67.5124479   9.2032319  87.7250743  80.5076916
   8.9122185  88.6296374  80.3923583   9.8389303  87.7667271  81.2220986
  10.1288525  85.1027591  77.0978276  10.7252098  84.8783614  76.3835239
  10.1863497  84.3612337  77.7003724   9.7013554  82.5567027  64.9328467
   9.9539075  82.0348548  64.1711930   8.7638113  82.3933172  65.0355151
  14.7456837  81.5602805  72.7403210  15.5319926  81.1422228  72.3893627
  15.0095541  82.4648897  72.9084859  14.9166914  86.9975655  67.4391867
  14.2812747  87.0710282  68.1512772  14.5864320  87.5869254  66.7610946
  20.1465264  81.4978038  73.6436189  20.8790436  80.9277255  73.8774018
  19.3904620  81.1099639  74.0842694   9.4209843  84.4595133  67.1352842
   9.3046101  83.7840036  67.8033926   9.5312103  83.9727507  66.3184995
  11.7641384  83.9205280  70.8399531  11.3999591  83.3935901  71.5512453
  12.6208499  83.5303749  70.6666017  17.6690684  75.2099612  78.1030797
  17.3374009  76.0795023  77.8792012  17.0736298  74.8935896  78.7824828
  11.4046871  78.9495180  65.8360880  11.5721273  79.8175416  66.2031351
  11.2144040  79.1122461  64.9122169  14.1622204  87.4112158  77.5026710
  13.8622927  88.3137197  77.3942517  13.8173263  87.1444342  78.3547863
   7.6134685  83.8625955  73.5363415   6.6885182  83.7302169  73.7441106
   7.8619098  84.6420175  74.0333357  17.5619348  79.9294699  75.1824147
  16.6536225  79.8610107  74.8882908  17.5106943  80.4066644  76.0105973
  11.3836091  81.4052837  66.8207547  11.2635717  81.8509888  67.6593027
  10.6888680  81.7538155  66.2621085   4.9743496  83.5059229  74.3707204
   5.1035877  83.7593708  75.2846615   4.2940948  84.0986937  74.0511859
   9.1442984  94.1756479  70.4697678   9.0667013  95.1264304  70.5486158
   8.5404627  93.8302351  71.1272604  11.6360213  81.3484344  83.1259045
  10.8593547  81.9078264  83.1161909  12.2750776  81.8341127  83.6473915
  19.4280994  78.1311137  76.9602021  18.7855374  78.4243670  76.3141816
  18.9235922  78.0164057  77.7655218  17.0821158  81.8774310  67.6487881
  17.9939014  82.1101697  67.4735578  16.5730805  82.4611354  67.0862959
   9.8906586  84.1569798  82.6877012  10.6321270  84.6954842  82.4111835
   9.1843571  84.7836086  82.8448564  15.3661925  86.2998938  81.2849173
  15.7745281  85.8581349  80.5403806  14.6439187  85.7251566  81.5383366
  11.7192995  81.2371545  78.6582730  12.5654190  81.6610958  78.8017379
  11.6591633  80.5805169  79.3521293  15.6890740  86.8600129  75.0401462
  15.0599602  87.0245843  74.3377530  15.3016402  87.2741738  75.8112426
  19.5679972  87.7954567  72.3945826  18.8831010  88.1753468  71.8442859
  19.6523821  88.4049893  73.1277774  14.8692441  78.8975913  80.3163904
  14.6253373  79.6517974  79.7798179  15.1452371  79.2761261  81.1511151
  16.8230903  85.4414526  78.9941169  17.0347799  86.0846285  78.3175550
  16.7760652  84.6076842  78.5263099  14.4257132  78.0532346  75.8977742
  13.5641611  78.3513600  76.1894479  14.4519567  78.2702745  74.9658774
  11.2418702  86.5974537  72.3051547  11.7057047  86.8762240  71.5156170
  10.9775500  85.6957981  72.1224638   8.1342783  86.1446018  75.2431310
   8.7044140  86.5733287  74.6048795   8.7250895  85.8628603  75.9415496
  10.1787588  82.7197689  69.1141112  10.8811631  83.1718733  69.5815039
   9.8468216  82.0781508  69.7421005   8.6267949  81.3109446  83.4892322
   7.9966610  81.9925727  83.7227719   8.5204037  81.1992527  82.5445460
   3.9212922  80.9781242  74.4158246   3.1311976  81.2338770  73.9398357
   4.4124169  81.7929580  74.5210286  17.9376731  88.3186481  77.1663527
  18.7594175  87.9166668  76.8846208  17.9339134  88.2154715  78.1179643
   5.8727667  81.3425821  71.3741723   5.0758830  81.4544515  71.8925218
   5.6453259  81.6812473  70.5082613  11.7033335  87.8670524  79.3224237
  11.7677767  88.3290932  80.1582409  10.9944259  87.2367889  79.4506547
   2.2050625  81.2311732  76.8473237   2.4558663  82.1158742  77.1130813
   2.7410173  81.0516334  76.0748329  26.0282724  84.6625229  73.5148498
  25.2746433  84.0932628  73.3592503  26.1630266  84.6287894  74.4619133
  11.4181352  89.5338632  69.1903218  11.2827027  90.3790167  69.6188065
  11.9591165  89.7357909  68.4269151   7.9048692  75.6130212  85.8517573
   7.5115638  75.0596410  86.5265217   8.7214832  75.9240790  86.2424090
   4.8710750  87.0514070  69.7631143   5.3835270  87.8457320  69.9136707
   5.5233463  86.3540360  69.6964744   6.6805635  90.1679826  71.8453896
   6.8572263  91.0897791  71.6574880   7.4762468  89.8538245  72.2748276
  10.8216653  77.0288091  83.4437829  11.5626366  77.6295244  83.3642292
  11.0534576  76.2865728  82.8855872   5.9657991  82.2144458  81.7216059
   5.8511506  81.3129715  82.0223158   5.1102509  82.4608155  81.3700876
  13.0449829  90.1562198  83.3203560  12.6013683  89.3698577  83.0024464
  13.7067042  90.3441349  82.6547450   7.8036950  91.6858000  77.8464238
   8.3544375  91.5575063  77.0741232   6.9648426  91.9852889  77.4959131
  15.1431067  90.4364998  81.3484961  15.1249542  91.2573879  80.8565230
  16.0650987  90.3119073  81.5735102  11.6004121  87.9509128  82.1908469
  12.1332458  87.1897416  81.9607777  11.0718202  87.6582779  82.9332624
  14.7673816  73.0569194  77.7202111  14.4238085  73.9470835  77.6441222
  15.1352779  72.8670851  76.8571696   2.8359667  85.3802724  70.5390713
   3.6734889  85.7899732  70.3224421   3.0137934  84.4402166  70.5090907
  14.7324099  83.0477805  66.2274546  14.2170722  83.8182409  66.4662934
  14.4601407  82.3742941  66.8507608  12.3171210  77.8927506  71.2859785
  11.4612806  77.5034356  71.1065423  12.7298162  77.9719466  70.4259570
  13.8470356  75.4273849  75.6851344  13.3435152  75.3903984  74.8719150
  14.1400963  76.3366592  75.7448001  10.0913242  75.5112579  74.6917526
  10.9566239  75.3155387  74.3323415  10.1590751  75.2822930  75.6186883
  19.7058373  85.8010159  68.1627720  18.9287816  85.4621319  67.7182882
  20.3849854  85.8062783  67.4882685  14.5210402  80.9204897  68.0534327
  14.2160537  81.2351046  68.9044471  15.4740844  80.9986317  68.0961660
  12.9656834  87.0795120  69.7027281  12.4378195  86.3447880  69.3900519
  12.4644336  87.8569797  69.4567250  17.9449680  85.2744141  74.8194328
  17.2873354  85.9643402  74.9074456  18.7490079  85.6640573  75.1628314
   7.6975561  77.7414786  72.0633893   8.2719313  77.5189968  71.3307086
   8.2846544  77.8103481  72.8162494  16.7555139  83.6288513  72.8698269
  17.2687020  84.2618505  73.3719979  17.4056362  83.0289709  72.5041629
   8.0245148  79.7719247  66.0829778   7.1882461  80.1093934  66.4039053
   7.8849918  79.6368227  65.1456915   9.9998229  74.6156035  70.7908962
   9.3462641  74.3005053  70.1665577   9.9578703  73.9931776  71.5168785
  11.1109434  84.8975330  62.7062254  10.2036496  84.6664584  62.9053403
  11.6080466  84.1012950  62.8936236  14.0177513  93.6072838  65.6258940
  13.3439212  93.9104534  66.2343898  14.4043335  94.4101918  65.2764398
  13.2335969  81.1037969  75.1156610  12.3158531  81.3252916  74.9578298
  13.6496113  81.1784279  74.2568317  14.0171017  82.5029385  70.2459290
  14.7642836  83.0150782  69.9366412  14.2862607  82.1813437  71.1063684
  12.2897667  84.9987925  67.2286244  11.3808887  84.7146958  67.3258714
  12.3192751  85.4187004  66.3689551  17.5216935  88.6094515  70.9977412
  17.0679262  87.7685425  71.0542602  16.8910901  89.2455913  71.3352192
  16.4649854  79.5386501  72.2278079  15.7272611  79.0263887  72.5588322
  16.7176628  79.0986882  71.4161356  15.9649874  90.4471011  71.9327230
  16.2572848  91.0076069  71.2139596  16.4748495  90.7399572  72.6880389
  16.5661482  72.3162753  72.8219849  16.8720358  71.4560116  72.5345764
  17.2914086  72.9080373  72.6218843   2.8585838  82.7193439  71.2101447
   2.6610238  82.1262800  70.4852513   2.3032502  82.4145650  71.9277385
  10.8382561  82.6116546  73.3296040  10.8931171  81.6590382  73.2538516
  10.0273763  82.7675985  73.8137338  11.9873755  86.5396669  64.5674323
  11.5493185  85.8232528  64.1079960  12.7284196  86.7672784  64.0059414
   8.7774921  81.2293606  71.0886419   7.9642787  81.5287776  71.4951611
   9.2733916  80.8349294  71.8060901  10.9283499  91.2251363  73.0220683
  10.8859678  91.4512209  72.0929215  11.8446198  90.9914737  73.1706484
  14.3749133  81.6935430  79.9201313  14.7298521  81.9206903  80.7795778
  15.0221264  82.0253807  79.2978568  20.1046870  84.8153866  70.6250642
  19.9664769  85.0055462  69.6971831  19.7483089  85.5773249  71.0818693
   8.2688996  78.8011961  76.7047654   8.9088375  78.6600720  76.0070617
   7.4366527  78.5146475  76.3286256  20.1316250  86.8830393  75.6361913
  20.5652756  86.7905682  76.4844967  20.8447830  86.8587893  74.9981929
   9.0449300  88.1014392  72.8182646   9.8389898  87.6064712  72.6165221
   8.3340992  87.5732255  72.4550352  13.8644144  90.4832487  77.1695014
  13.9181167  91.0523423  77.9372730  12.9958926  90.6534372  76.8049051
   5.3532063  82.2457473  68.8942399   4.4229652  82.1841929  69.1112361
   5.4489535  81.7233426  68.0979040   5.2717613  78.7712286  71.4820640
   5.5324430  79.6857619  71.3729801   6.0934785  78.3036729  71.6317253
   6.7442538  80.1850043  78.6519465   7.4165591  79.9767405  78.0032114
   5.9172324  79.9872129  78.2124697  20.9931799  86.9254094  78.1694798
  21.1867689  87.8299904  78.4154073  20.8932417  86.4661513  79.0033383
  12.6468110  76.8111984  80.6685126  11.9996025  77.5101934  80.5749602
  13.4169125  77.2448128  81.0361374  16.0546908  87.0760836  83.7435679
  15.9032414  86.8471388  82.8265763  16.0451587  88.0331438  83.7567024
  12.8232244  84.6492749  78.7281946  13.7524304  84.8003909  78.5550913
  12.4023274  84.7376770  77.8730592  11.6220576  88.6743414  76.4980483
  11.4831662  88.3062198  77.3706421  10.8335172  89.1891053  76.3264441
  12.2168728  93.7752510  67.8406020  12.3920484  93.3040553  68.6551642
  11.5301516  94.4018276  68.0687280  13.1725791  88.0525016  73.8869321
  12.8375624  88.0125786  74.7826971  12.6729737  87.3869732  73.4139731
   7.1470035  83.4592646  79.4121902   7.0089833  82.7272885  80.0133441
   8.0574959  83.3701546  79.1306090  16.1084983  85.3981051  64.1606381
  15.4914153  84.6727879  64.0639433  15.6401471  86.1590411  63.8173455
   9.7752336  83.1712606  78.9005582  10.4851954  82.5305798  78.8592200
   9.7321644  83.4225500  79.8231763  17.7639114  90.1079959  81.8212161
  17.7051661  89.4239179  81.1542744  18.1658633  90.8498949  81.3692787
   8.4881270  80.1577824  80.7201221   7.9518627  79.7068562  81.3722818
   7.8997978  80.2923732  79.9771686   6.7829813  96.9241873  74.6145880
   7.0226411  97.5560397  75.2924898   5.9399010  96.5729913  74.9011239
   7.8983529  79.6166475  63.2827685   7.0212995  79.4955276  62.9189932
   8.3741282  78.8252553  63.0306574  17.7656522  88.0719543  80.0526141
  16.8783300  87.7345465  80.1752539  18.3355073  87.3402574  80.2894906
   4.2220391  79.2933831  77.8054216   4.1378580  78.6859501  77.0704626
   3.4003097  79.7842850  77.8063712  11.2957675  92.7320995  77.0187384
  11.2227847  93.5375967  77.5306688  10.8535068  92.9312961  76.1935405
  11.0847455  91.9692765  70.5290205  10.3014977  92.5114445  70.6228430
  11.7840200  92.4866745  70.9284447  14.3944105  77.7787395  73.1724411
  14.8912804  77.0257357  72.8525481  13.6231086  77.8151711  72.6067620
  22.2473862  83.4827760  74.8142702  22.2363738  84.3652476  74.4436635
  21.3791242  83.1299311  74.6197239  13.7556359  92.6307829  79.1745542
  14.4684331  93.2655294  79.1021444  13.2646387  92.7271695  78.3585544
  15.4773886  86.5359082  70.7462834  14.5430164  86.6560544  70.5767538
  15.6550554  85.6331549  70.4822844  10.9779074  79.9204778  72.8996095
  10.6076861  79.3675818  73.5877001  11.4738166  79.3162911  72.3471095
  18.8646437  82.3776401  71.2812868  19.3306889  83.2104393  71.2073171
  19.3153937  81.9121383  71.9858127   8.8068272  90.3802273  79.9951113
   9.5077732  91.0138756  80.1480508   8.3363387  90.7217004  79.2346753
  16.9322668  88.7220223  68.2799020  17.2082512  88.6076817  69.1892894
  16.0627167  88.3237707  68.2411193  16.8363100  74.7456988  75.3203770
  15.9226179  74.9761215  75.4885977  17.2656201  74.8295432  76.1717802
  16.6069558  82.9346880  77.8203664  15.9541008  83.1822788  77.1656116
  16.9849938  82.1211018  77.4866141  13.5676732  92.9706573  71.9231834
  13.7499127  92.1528229  72.3859586  14.3909718  93.1874266  71.4856724
  13.9018898  91.8974758  69.1846882  14.4306664  91.3867213  68.5717045
  14.1647117  91.5817289  70.0492415  12.6557131  83.6766691  84.3069701
  11.9797768  83.5760821  84.9772076  13.4784765  83.5205905  84.7705698
   4.4035990  89.9138628  76.9282216   4.9889427  89.1682316  77.0610120
   4.2060829  90.2242584  77.8118880   7.2574645  92.9489875  71.9444658
   6.5885021  93.4336003  71.4608698   7.1187515  93.1959096  72.8588037
  11.3979914  94.9833619  78.5427317  11.9498222  95.1465240  79.3076402
  11.7386107  95.5738057  77.8707342   6.3744407  77.3308769  79.1449201
   6.4385734  78.1923599  78.7326599   6.3111528  76.7182770  78.4121560
   5.8496680  79.4031901  82.7922236   6.4768719  79.0208978  83.4059760
   4.9924599  79.1846103  83.1577928  16.2490788  89.8094876  84.3975971
  16.7930692  90.4224834  83.9030926  15.6677633  90.3674455  84.9142984
   2.6262223  81.2108330  68.7240591   2.9215664  80.3019009  68.6707644
   1.7250258  81.1896070  68.4021593  14.5348301  92.9315594  75.5290999
  14.4099441  92.1305334  75.0201944  15.1927392  93.4261788  75.0404969
   6.1556470  79.2864327  74.7068139   5.4343055  79.9000294  74.5675612
   6.9449725  79.8222092  74.6284785  16.5983210  90.7324614  77.1570549
  15.6513545  90.6129965  77.0848876  16.9465983  89.8447112  77.2396810
   8.9582783  76.6218753  80.9808791   9.4817185  76.8681050  81.7435100
   8.7395116  77.4538788  80.5611928   4.3550064  78.8922428  68.8479916
   4.0262770  78.0119807  68.6655022   4.7089435  78.8370097  69.7356305
  13.6029643  90.5277331  73.3574901  13.4554605  89.5994038  73.5382471
  14.4283136  90.5497421  72.8731976   7.4691887  79.1795398  69.2155393
   7.8087960  79.7081319  68.4934002   7.9164008  79.5175804  69.9913960
  17.2063765  91.3505889  74.4439774  18.1310312  91.1448751  74.3064225
  17.0379068  91.1022290  75.3529115  10.1635328  77.5632448  78.6658461
   9.8232148  76.7640261  79.0679141   9.4574334  77.8634159  78.0935295
  10.8151800  74.6481761  77.1185784  11.6377869  74.1742239  76.9964675
  11.0589863  75.4272245  77.6184471   9.4560034  77.6770019  67.4148686
  10.1768397  78.0551272  66.9112403   8.8325339  78.3958896  67.5183664
  13.5991157  78.3815168  68.3507018  13.8154772  79.2639806  68.0495847
  13.1185224  77.9901382  67.6212660   8.3390379  81.3400881  74.9277763
   8.1934959  81.6541184  75.8202045   7.8615582  81.9585782  74.3748662
  10.1986762  78.3303429  74.9758653  10.1848330  77.4344523  74.6390951
  10.9159190  78.3374093  75.6096939  12.0512892  78.7640770  77.0211780
  11.7930670  79.6857840  77.0196110  11.5197933  78.3671204  77.7112244
  16.9959081  91.8691557  69.8001865  17.1695959  91.3037979  69.0475718
  17.4887972  92.6692452  69.6181355   2.8136041  83.8806226  77.8665424
   2.2689509  84.6566034  77.9985699   3.6915391  84.2277030  77.7084546
   9.6023657  77.2117810  70.2446223   9.7239569  76.2834456  70.4437110
   9.3125700  77.2256496  69.3324538  12.4714848  74.8972720  73.3812943
  12.4936545  74.9612053  72.4264922  12.8882907  74.0577229  73.5753449
  22.8498472  84.6327980  71.4192165  23.2929618  83.8835305  71.0211288
  21.9724983  84.6238116  71.0365897  17.9834254  91.1858321  66.8998764
  18.6785158  91.8065014  67.1186078  18.3257404  90.3353672  67.1751142
   3.6002063  83.0076122  80.7595581   2.8583799  83.1558757  81.3460212
   3.2794807  83.2684388  79.8962330  19.8825677  88.6358027  68.4286094
  20.4077001  88.9745299  67.7035414  19.7948029  87.7005042  68.2449229
  11.5445725  92.5492100  80.5575971  11.8532852  92.3041247  81.4298671
  12.3421207  92.7538739  80.0694841  11.5666337  94.7030010  72.7881348
  11.1271328  94.2106389  73.4814204  12.3174454  94.1602978  72.5473423
   4.0458676  90.8941551  72.7905976   4.8716696  90.5945323  72.4104619
   3.6952728  90.1249173  73.2395764   9.0140210  90.2468019  74.8603649
   8.3920219  89.5838724  74.5605877   9.6845076  90.2729151  74.1777297
   2.2467281  88.8127877  73.7494909   1.4099190  88.3850052  73.5678911
   2.2190927  89.0060321  74.6865701   9.0864737  78.7249807  84.4536155
   9.1352893  79.6011930  84.0713925   9.6287251  78.1827200  83.8807799
  19.5719583  89.2690930  83.7337292  18.7815126  89.2515069  83.1941792
  19.3352937  89.8079224  84.4886329  19.6917458  86.1183397  81.0470021
  19.7415463  85.9533404  81.9885544  19.5831381  85.2510656  80.6567902
   8.5753716  88.7971942  68.3362110   8.7241837  89.4807407  67.6828783
   9.3820160  88.7777032  68.8511566  16.9821220  82.1014325  82.3629328
  17.8831083  81.9620790  82.0713325  17.0569195  82.2668780  83.3027505
  11.3164025  79.4781179  81.2082514  10.4467335  79.7714745  80.9365103
  11.5523506  80.0621624  81.9289778  21.1935655  88.5380338  81.2912042
  20.9020463  88.9010319  82.1275503  20.5807786  87.8247346  81.1125375
  22.3931337  86.1033218  73.8114613  23.2278228  86.5423022  73.9752173
  22.5290466  85.6271871  72.9922858  19.4422843  83.6612953  79.7592100
  19.9176964  83.8540599  78.9510952  18.5188408  83.7172139  79.5135484
   6.3306349  84.8237120  69.3423179   6.0852391  83.9199450  69.5403389
   6.5002264  84.8254270  68.4002657  14.0203059  75.6960796  78.7247934
  14.5385003  76.4321823  78.3994423  13.6658192  76.0024790  79.5594693
   5.6001997  80.5565478  66.8409340   4.9071242  80.6309833  66.1849376
   5.3553749  79.7925821  67.3630857  14.2715653  72.1161079  74.2448831
  14.5517407  71.4484268  74.8709258  15.0566260  72.3090175  73.7323495
  12.0749122  91.2920073  65.8073857  11.5023089  91.9110260  65.3544329
  12.6481916  91.8419434  66.3413779  18.1424512  80.5378713  77.9920406
  19.0941935  80.6376811  78.0132630  17.9727962  79.7456981  78.5018490
  16.1638891  77.6234296  78.1779807  15.5688823  77.9039309  77.4826296
  15.8788588  78.1128197  78.9496548  15.2946382  91.5757223  66.9382440
  16.2277055  91.5102785  67.1415315  15.2069595  92.4113490  66.4796972
  17.9234398  90.8923093  63.8986387  17.8448030  90.5582957  64.7922145
  18.7444065  91.3844861  63.8977859  20.6212590  83.7584833  77.1062706
  20.5888910  82.8200833  77.2922390  21.2313213  83.8368869  76.3728531
  12.4595920  82.6280886  63.1489910  13.4055025  82.4987094  63.2178328
  12.0810165  81.8895547  63.6259338  20.7707078  80.5495876  77.1520989
  20.2546127  79.7654333  76.9650918  21.6547027  80.2214593  77.3167508
  18.4317805  74.2936892  73.1116802  18.2342626  73.9851980  73.9960134
  19.0417511  75.0198530  73.2414731  26.4389139  84.8200839  76.2468743
  27.1692528  84.5586128  76.8076446  25.8296085  84.0829561  76.2870811
  24.5204437  82.9608702  76.8443194  23.7937600  82.8264667  76.2359685
  24.1051723  83.2685531  77.6499912  12.3434613  86.6798632  84.6090567
  13.2637622  86.8577231  84.8030613  12.3084196  85.7354677  84.4570266
  10.6438838  80.5530862  63.0844795   9.7370293  80.2563975  63.1607509
  10.9214819  80.2560680  62.2179081   1.5616778  81.8737225  73.5343841
   1.2419562  81.0202534  73.2418215   1.0150206  82.0885803  74.2901809
   5.3396686  84.5899666  77.2513348   5.5582695  85.5216774  77.2701382
   5.7522459  84.2307641  78.0368152  12.2600903  75.0967752  69.2389036
  11.4501632  74.7514837  69.6144282  12.9485320  74.7875295  69.8276648
  14.1891452  74.1745798  70.8613333  14.7422490  74.5941252  71.5203356
  14.4261538  73.2481547  70.9036289  10.2124551  80.1632872  86.6416097
  10.1121278  81.1127229  86.5728188   9.9946093  79.8351111  85.7692167
   9.4137622  77.4117797  63.2256774  10.2756786  77.7372695  63.4852592
   9.5987966  76.6249293  62.7129840   1.4305038  85.4940137  75.5036963
   0.7368509  85.0794090  74.9906917   2.1778029  85.5360673  74.9070382
  17.5670259  76.2846324  70.3691997  16.9868928  76.9431128  69.9870050
  17.3006191  75.4623668  69.9579415  16.0173825  75.6851381  72.5713318
  16.5173603  75.7967916  71.7627636  16.6609433  75.3812434  73.2114126
  10.0755821  83.5930011  85.4581158   9.5922903  84.3930371  85.6645048
  10.1616760  83.6037956  84.5048602   3.3441781  85.4258391  73.3802978
   3.3212469  85.5246078  72.4284861   3.6542417  86.2723541  73.7020144
   6.0029158  87.4834546  77.4949592   6.9572412  87.4518488  77.4279524
   5.8041682  87.0225169  78.3099818   6.5928541  86.0535662  80.0620390
   7.4121430  86.5479740  80.0855227   6.8665348  85.1367630  80.0337957
  16.3495137  78.4446414  69.4248345  15.4620992  78.7296065  69.2068540
  16.7649126  78.2840177  68.5775622  19.7009673  78.4692935  73.1402685
  20.4770063  78.9589387  73.4127302  18.9757807  78.8950989  73.5974554
  22.1382232  79.1820554  74.1976625  22.7326722  78.9416290  73.4869934
  22.2108815  78.4627685  74.8250162   4.3579387  93.0254165  74.5119790
   4.2233855  92.2654566  73.9457788   3.9411449  93.7495065  74.0448579
  15.4938350  88.2091089  63.5196365  16.1974200  88.4141091  64.1354021
  14.7700999  88.7767851  63.7845449  16.3236160  83.9600950  69.6398636
  16.2671362  84.4169501  68.8006268  16.8764503  83.1991635  69.4621478
  20.1340966  79.7490682  70.4648755  19.8777901  79.3487317  71.2956963
  19.5093834  80.4634476  70.3398894  24.4453304  82.4886755  72.9720047
  23.8852862  82.5579944  73.7451609  23.8396808  82.3127740  72.2519543
   7.5148513  93.9223482  74.7238233   7.3980897  94.8668915  74.6216923
   6.6940959  93.6197044  75.1124032  17.4025048  88.6473618  65.5694825
  18.2370652  88.2154816  65.3872300  17.2409391  88.4755632  66.4971720
  17.0570940  85.1505731  66.9351165  17.0019744  84.9850003  65.9939609
  16.4316995  85.8581764  67.0913355   1.8463455  80.3873796  80.7612587
   2.4922318  79.8772750  81.2499812   1.6380606  81.1242477  81.3356012
  14.3716847  87.4554643  86.2604728  15.2408007  87.6295295  85.8991362
  13.8923598  88.2749060  86.1380457  10.3667065  74.6513840  66.5136483
  10.3545735  75.5955680  66.6704754  11.2590487  74.4683986  66.2195944
   8.5403027  94.5751744  77.9394161   9.4430274  94.6075354  78.2560656
   8.3140397  93.6452195  77.9540497  10.2956629  93.3282731  74.6004240
   9.3452260  93.3284592  74.4868612  10.5989115  92.5815465  74.0840274
  14.1819185  71.2456617  70.7682420  13.4151581  70.6915104  70.9139102
  14.5929890  71.3178486  71.6296572   6.1860946  77.5341413  84.8587601
   7.0492407  77.1778217  85.0690926   5.6126356  77.1955307  85.5463006
  26.0309323  99.1643269  75.6650002  26.6687733  99.0450016  74.9613342
  25.9130166 100.1124113  75.7237954  22.8399029  99.1170697  75.6011527
  22.5017541  99.0011762  74.7132062  23.7088797  98.7161862  75.5812533
  18.6985845 100.9706174  71.5908418  18.1350710 100.8796110  70.8224706
  18.5838240 100.1506078  72.0710910  23.3218812 100.2705549  81.5597732
  23.3107453  99.8758347  80.6878236  23.4839451  99.5371621  82.1531504
  16.2450277 102.4657365  74.4292638  17.0371569 102.1248190  74.0138938
  16.4846927 102.5752340  75.3494792  24.2785403 104.6377141  66.9022883
  23.6273383 105.2231222  66.5156897  25.0729766 105.1683336  66.9617920
  18.2041031 101.7266278  67.3010017  18.9771907 101.1795265  67.1622893
  18.5566429 102.5910528  67.5124479  20.0426073 103.0542661  80.5076916
  19.7515939 103.9588291  80.3923583  20.6783057 103.0959188  81.2220986
  20.9682280 100.4319509  77.0978276  21.5645852 100.2075532  76.3835239
  21.0257252  99.6904255  77.7003724  20.5407308  97.8858944  64.9328467
  20.7932829  97.3640466  64.1711930  19.6031867  97.7225090  65.0355151
  25.5850591  96.8894723  72.7403210  26.3713680  96.4714146  72.3893627
  25.8489296  97.7940815  72.9084859  25.7560669 102.3267573  67.4391867
  25.1206502 102.4002200  68.1512772  25.4258075 102.9161172  66.7610946
  30.9859018  96.8269956  73.6436189  31.7184190  96.2569173  73.8774018
  30.2298374  96.4391556  74.0842694  20.2603597  99.7887050  67.1352842
  20.1439855  99.1131954  67.8033926  20.3705857  99.3019424  66.3184995
  22.6035138  99.2497198  70.8399531  22.2393345  98.7227819  71.5512453
  23.4602254  98.8595667  70.6666017  28.5084439  90.5391530  78.1030797
  28.1767763  91.4086941  77.8792012  27.9130052  90.2227814  78.7824828
  22.2440625  94.2787097  65.8360880  22.4115027  95.1467334  66.2031351
  22.0537794  94.4414379  64.9122169  25.0015958 102.7404076  77.5026710
  24.7016681 103.6429115  77.3942517  24.6567018 102.4736259  78.3547863
  18.4528440  99.1917873  73.5363415  17.5278936  99.0594087  73.7441106
  18.7012853  99.9712092  74.0333357  28.4013102  95.2586616  75.1824147
  27.4929979  95.1902025  74.8882908  28.3500698  95.7358561  76.0105973
  22.2229846  96.7344755  66.8207547  22.1029471  97.1801805  67.6593027
  21.5282434  97.0830072  66.2621085  15.8137251  98.8351147  74.3707204
  15.9429632  99.0885625  75.2846615  15.1334702  99.4278855  74.0511859
  19.9836738 109.5048396  70.4697678  19.9060768 110.4556222  70.5486158
  19.3798382 109.1594269  71.1272604  22.4753968  96.6776262  83.1259045
  21.6987302  97.2370182  83.1161909  23.1144531  97.1633045  83.6473915
  30.2674748  93.4603055  76.9602021  29.6249129  93.7535588  76.3141816
  29.7629677  93.3455975  77.7655218  27.9214912  97.2066228  67.6487881
  28.8332768  97.4393615  67.4735578  27.4124559  97.7903272  67.0862959
  20.7300340  99.4861715  82.6877012  21.4715024 100.0246759  82.4111835
  20.0237326 100.1128004  82.8448564  26.2055680 101.6290856  81.2849173
  26.6139036 101.1873266  80.5403806  25.4832941 101.0543483  81.5383366
  22.5586750  96.5663462  78.6582730  23.4047945  96.9902876  78.8017379
  22.4985387  95.9097087  79.3521293  26.5284494 102.1892046  75.0401462
  25.8993357 102.3537760  74.3377530  26.1410156 102.6033656  75.8112426
  30.4073726 103.1246484  72.3945826  29.7224764 103.5045386  71.8442859
  30.4917576 103.7341811  73.1277774  25.7086195  94.2267831  80.3163904
  25.4647127  94.9809891  79.7798179  25.9846126  94.6053178  81.1511151
  27.6624658 100.7706443  78.9941169  27.8741553 101.4138203  78.3175550
  27.6154406  99.9368760  78.5263099  25.2650887  93.3824264  75.8977742
  24.4035366  93.6805517  76.1894479  25.2913321  93.5994663  74.9658774
  22.0812456 101.9266454  72.3051547  22.5450802 102.2054157  71.5156170
  21.8169254 101.0249899  72.1224638  18.9736537 101.4737936  75.2431310
  19.5437894 101.9025204  74.6048795  19.5644649 101.1920521  75.9415496
  21.0181342  98.0489607  69.1141112  21.7205386  98.5010650  69.5815039
  20.6861971  97.4073426  69.7421005  19.4661704  96.6401363  83.4892322
  18.8360364  97.3217644  83.7227719  19.3597792  96.5284445  82.5445460
  14.7606676  96.3073159  74.4158246  13.9705730  96.5630688  73.9398357
  15.2517924  97.1221497  74.5210286  28.7770486 103.6478399  77.1663527
  29.5987930 103.2458586  76.8846208  28.7732889 103.5446633  78.1179643
  16.7121422  96.6717739  71.3741723  15.9152585  96.7836433  71.8925218
  16.4847014  97.0104391  70.5082613  22.5427089 103.1962442  79.3224237
  22.6071522 103.6582849  80.1582409  21.8338013 102.5659807  79.4506547
  13.0444379  96.5603650  76.8473237  13.2952418  97.4450660  77.1130813
  13.5803928  96.3808251  76.0748329  36.8676479  99.9917147  73.5148498
  36.1140187  99.4224545  73.3592503  37.0024020  99.9579812  74.4619133
  22.2575107 104.8630549  69.1903218  22.1220782 105.7082085  69.6188065
  22.7984919 105.0649827  68.4269151  18.7442447  90.9422129  85.8517573
  18.3509392  90.3888328  86.5265217  19.5608587  91.2532708  86.2424090
  15.7104504 102.3805987  69.7631143  16.2229025 103.1749238  69.9136707
  16.3627217 101.6832278  69.6964744  17.5199389 105.4971744  71.8453896
  17.6966017 106.4189708  71.6574880  18.3156223 105.1830163  72.2748276
  21.6610408  92.3580008  83.4437829  22.4020121  92.9587162  83.3642292
  21.8928330  91.6157646  82.8855872  16.8051746  97.5436376  81.7216059
  16.6905261  96.6421633  82.0223158  15.9496263  97.7900072  81.3700876
  23.8843583 105.4854116  83.3203560  23.4407437 104.6990495  83.0024464
  24.5460797 105.6733266  82.6547450  18.6430704 107.0149918  77.8464238
  19.1938130 106.8866981  77.0741232  17.8042180 107.3144807  77.4959131
  25.9824821 105.7656916  81.3484961  25.9643297 106.5865797  80.8565230
  26.9044741 105.6410991  81.5735102  22.4397876 103.2801045  82.1908469
  22.9726212 102.5189334  81.9607777  21.9111957 102.9874697  82.9332624
  25.6067571  88.3861111  77.7202111  25.2631840  89.2762753  77.6441222
  25.9746533  88.1962769  76.8571696  13.6753421 100.7094642  70.5390713
  14.5128643 101.1191650  70.3224421  13.8531689  99.7694084  70.5090907
  25.5717853  98.3769722  66.2274546  25.0564477  99.1474327  66.4662934
  25.2995162  97.7034859  66.8507608  23.1564964  93.2219423  71.2859785
  22.3006561  92.8326274  71.1065423  23.5691916  93.3011384  70.4259570
  24.6864111  90.7565766  75.6851344  24.1828906  90.7195902  74.8719150
  24.9794718  91.6658509  75.7448001  20.9306997  90.8404496  74.6917526
  21.7959994  90.6447305  74.3323415  20.9984506  90.6114848  75.6186883
  30.5452127 101.1302077  68.1627720  29.7681570 100.7913237  67.7182882
  31.2243608 101.1354700  67.4882685  25.3604156  96.2496815  68.0534327
  25.0554292  96.5642964  68.9044471  26.3134599  96.3278234  68.0961660
  23.8050588 102.4087038  69.7027281  23.2771950 101.6739797  69.3900519
  23.3038091 103.1861714  69.4567250  28.7843434 100.6036058  74.8194328
  28.1267109 101.2935320  74.9074456  29.5883833 100.9932490  75.1628314
  18.5369316  93.0706704  72.0633893  19.1113068  92.8481886  71.3307086
  19.1240298  93.1395399  72.8162494  27.5948893  98.9580431  72.8698269
  28.1080775  99.5910423  73.3719979  28.2450117  98.3581627  72.5041629
  18.8638903  95.1011165  66.0829778  18.0276215  95.4385852  66.4039053
  18.7243673  94.9660145  65.1456915  20.8391984  89.9447953  70.7908962
  20.1856396  89.6296970  70.1665577  20.7972458  89.3223693  71.5168785
  21.9503188 100.2267248  62.7062254  21.0430250  99.9956502  62.9053403
  22.4474220  99.4304867  62.8936236  24.8571267 108.9364755  65.6258940
  24.1832966 109.2396452  66.2343898  25.2437089 109.7393836  65.2764398
  24.0729724  96.4329887  75.1156610  23.1552285  96.6544834  74.9578298
  24.4889868  96.5076197  74.2568317  24.8564772  97.8321302  70.2459290
  25.6036591  98.3442699  69.9366412  25.1256361  97.5105355  71.1063684
  23.1291422 100.3279843  67.2286244  22.2202641 100.0438876  67.3258714
  23.1586506 100.7478922  66.3689551  28.3610689 103.9386432  70.9977412
  27.9073016 103.0977342  71.0542602  27.7304656 104.5747831  71.3352192
  27.3043609  94.8678419  72.2278079  26.5666366  94.3555805  72.5588322
  27.5570382  94.4278800  71.4161356  26.8043629 105.7762929  71.9327230
  27.0966603 106.3367986  71.2139596  27.3142249 106.0691490  72.6880389
  27.4055236  87.6454671  72.8219849  27.7114113  86.7852034  72.5345764
  28.1307841  88.2372291  72.6218843  13.6979592  98.0485357  71.2101447
  13.5003992  97.4554718  70.4852513  13.1426256  97.7437567  71.9277385
  21.6776316  97.9408464  73.3296040  21.7324926  96.9882300  73.2538516
  20.8667518  98.0967903  73.8137338  22.8267510 101.8688587  64.5674323
  22.3886940 101.1524446  64.1079960  23.5677951 102.0964701  64.0059414
  19.6168676  96.5585523  71.0886419  18.8036541  96.8579694  71.4951611
  20.1127670  96.1641212  71.8060901  21.7677254 106.5543280  73.0220683
  21.7253433 106.7804127  72.0929215  22.6839953 106.3206655  73.1706484
  25.2142888  97.0227348  79.9201313  25.5692275  97.2498821  80.7795778
  25.8615019  97.3545725  79.2978568  30.9440624 100.1445784  70.6250642
  30.8058523 100.3347380  69.6971831  30.5876843 100.9065166  71.0818693
  19.1082751  94.1303879  76.7047654  19.7482130  93.9892638  76.0070617
  18.2760281  93.8438392  76.3286256  30.9710004 102.2122311  75.6361913
  31.4046511 102.1197600  76.4844967  31.6841585 102.1879811  74.9981929
  19.8843054 103.4306309  72.8182646  20.6783653 102.9356629  72.6165221
  19.1734747 102.9024172  72.4550352  24.7037899 105.8124405  77.1695014
  24.7574921 106.3815341  77.9372730  23.8352680 105.9826290  76.8049051
  16.1925818  97.5749391  68.8942399  15.2623406  97.5133846  69.1112361
  16.2883290  97.0525344  68.0979040  16.1111367  94.1004204  71.4820640
  16.3718184  95.0149537  71.3729801  16.9328539  93.6328646  71.6317253
  17.5836292  95.5141961  78.6519465  18.2559346  95.3059323  78.0032114
  16.7566079  95.3164047  78.2124697  31.8325554 102.2546011  78.1694798
  32.0261444 103.1591822  78.4154073  31.7326172 101.7953430  79.0033383
  23.4861864  92.1403902  80.6685126  22.8389779  92.8393852  80.5749602
  24.2562880  92.5740046  81.0361374  26.8940662 102.4052754  83.7435679
  26.7426169 102.1763306  82.8265763  26.8845342 103.3623356  83.7567024
  23.6625999  99.9784667  78.7281946  24.5918059 100.1295826  78.5550913
  23.2417029 100.0668688  77.8730592  22.4614330 104.0035331  76.4980483
  22.3225416 103.6354116  77.3706421  21.6728927 104.5182971  76.3264441
  23.0562482 109.1044428  67.8406020  23.2314238 108.6332471  68.6551642
  22.3695270 109.7310194  68.0687280  24.0119546 103.3816934  73.8869321
  23.6769378 103.3417704  74.7826971  23.5123491 102.7161650  73.4139731
  17.9863790  98.7884564  79.4121902  17.8483588  98.0564803  80.0133441
  18.8968713  98.6993464  79.1306090  26.9478737 100.7272968  64.1606381
  26.3307908 100.0019796  64.0639433  26.4795226 101.4882329  63.8173455
  20.6146090  98.5004523  78.9005582  21.3245709  97.8597715  78.8592200
  20.5715398  98.7517418  79.8231763  28.6032869 105.4371877  81.8212161
  28.5445415 104.7531097  81.1542744  29.0052387 106.1790867  81.3692787
  19.3275024  95.4869741  80.7201221  18.7912381  95.0360480  81.3722818
  18.7391733  95.6215650  79.9771686  18.7377283  94.9458393  63.2827685
  17.8606750  94.8247193  62.9189932  19.2135036  94.1544471  63.0306574
  28.6050276 103.4011461  80.0526141  27.7177055 103.0637382  80.1752539
  29.1748827 102.6694492  80.2894906  10.2579423  99.7335552  73.3769192
  10.9450463  99.4197282  72.7890207  10.1027552 100.6376917  73.1036443
  15.0614145  94.6225749  77.8054216  14.9772334  94.0151418  77.0704626
  14.2396852  95.1134767  77.8063712  22.1351430 108.0612913  77.0187384
  22.0621601 108.8667884  77.5306688  21.6928823 108.2604879  76.1935405
  21.9241209 107.2984683  70.5290205  21.1408731 107.8406363  70.6228430
  22.6233954 107.8158663  70.9284447  25.2337859  93.1079312  73.1724411
  25.7306559  92.3549275  72.8525481  24.4624841  93.1443629  72.6067620
  33.0867617  98.8119678  74.8142702  33.0757493  99.6944393  74.4436635
  32.2184996  98.4591229  74.6197239  24.5950113 107.9599747  79.1745542
  25.3078085 108.5947212  79.1021444  24.1040142 108.0563613  78.3585544
  26.3167640 101.8651000  70.7462834  25.3823919 101.9852462  70.5767538
  26.4944308 100.9623466  70.4822844  21.8172828  95.2496695  72.8996095
  21.4470616  94.6967736  73.5877001  22.3131921  94.6454829  72.3471095
  29.7040191  97.7068319  71.2812868  30.1700644  98.5396311  71.2073171
  30.1547692  97.2413300  71.9858127  19.6462027 105.7094190  79.9951113
  20.3471486 106.3430673  80.1480508  19.1757142 106.0508922  79.2346753
  27.7716422 104.0512140  68.2799020  28.0476266 103.9368735  69.1892894
  26.9020921 103.6529625  68.2411193  27.6756854  90.0748906  75.3203770
  26.7619934  90.3053133  75.4885977  28.1049956  90.1587350  76.1717802
  27.4463313  98.2638798  77.8203664  26.7934763  98.5114705  77.1656116
  27.8243693  97.4502936  77.4866141  24.4070486 108.2998491  71.9231834
  24.5892881 107.4820147  72.3859586  25.2303473 108.5166183  71.4856724
  24.7412652 107.2266676  69.1846882  25.2700418 106.7159131  68.5717045
  25.0040872 106.9109206  70.0492415  23.4950886  99.0058609  84.3069701
  22.8191523  98.9052738  84.9772076  24.3178520  98.8497823  84.7705698
  15.2429745 105.2430545  76.9282216  15.8283182 104.4974233  77.0610120
  15.0454583 105.5534502  77.8118880  18.0968400 108.2781793  71.9444658
  17.4278775 108.7627920  71.4608698  17.9581270 108.5251013  72.8588037
   9.8347399  97.8136146  75.6486659   9.8731499  97.2799736  76.4423777
   9.3287692  97.2871351  75.0297636  22.2373669 110.3125536  78.5427317
  22.7891977 110.4757158  79.3076402  22.5779862 110.9029974  77.8707342
  17.2138162  92.6600686  79.1449201  17.2779488  93.5215517  78.7326599
  17.1505282  92.0474688  78.4121560  16.6890434  94.7323819  82.7922236
  17.3162473  94.3500896  83.4059760  15.8318353  94.5138021  83.1577928
  27.0884543 105.1386794  84.3975971  27.6324447 105.7516752  83.9030926
  26.5071388 105.6966372  84.9142984  13.4655977  96.5400248  68.7240591
  13.7609418  95.6310926  68.6707644  12.5644013  96.5187987  68.4021593
  25.3742056 108.2607512  75.5290999  25.2493195 107.4597252  75.0201944
  26.0321147 108.7553705  75.0404969  16.9950224  94.6156244  74.7068139
  16.2736810  95.2292212  74.5675612  17.7843480  95.1514009  74.6284785
  27.4376964 106.0616532  77.1570549  26.4907300 105.9421883  77.0848876
  27.7859737 105.1739030  77.2396810  19.7976538  91.9510671  80.9808791
  20.3210939  92.1972967  81.7435100  19.5788871  92.7830706  80.5611928
  15.1943819  94.2214345  68.8479916  14.8656525  93.3411724  68.6655022
  15.5483189  94.1662014  69.7356305  24.4423397 105.8569248  73.3574901
  24.2948360 104.9285956  73.5382471  25.2676891 105.8789339  72.8731976
  18.3085642  94.5087315  69.2155393  18.6481714  95.0373237  68.4934002
  18.7557762  94.8467721  69.9913960  28.0457519 106.6797807  74.4439774
  28.9704067 106.4740668  74.3064225  27.8772823 106.4314208  75.3529115
  21.0029083  92.8924366  78.6658461  20.6625903  92.0932179  79.0679141
  20.2968089  93.1926077  78.0935295  21.6545554  89.9773678  77.1185784
  22.4771624  89.5034157  76.9964675  21.8983618  90.7564162  77.6184471
  20.2953789  93.0061937  67.4148686  21.0162151  93.3843190  66.9112403
  19.6719093  93.7250814  67.5183664  24.4384912  93.7107086  68.3507018
  24.6548526  94.5931724  68.0495847  23.9578979  93.3193299  67.6212660
  19.1784133  96.6692799  74.9277763  19.0328714  96.9833102  75.8202045
  18.7009337  97.2877699  74.3748662  21.0380516  93.6595347  74.9758653
  21.0242085  92.7636440  74.6390951  21.7552944  93.6666011  75.6096939
  22.8906647  94.0932687  77.0211780  22.6324425  95.0149758  77.0196110
  22.3591687  93.6963122  77.7112244  27.8352836 107.1983474  69.8001865
  28.0089713 106.6329897  69.0475718  28.3281727 107.9984369  69.6181355
  13.6529795  99.2098143  77.8665424  13.1083263  99.9857951  77.9985699
  14.5309145  99.5568948  77.7084546  20.4417412  92.5409727  70.2446223
  20.5633323  91.6126374  70.4437110  20.1519454  92.5548413  69.3324538
  23.3108602  90.2264638  73.3812943  23.3330299  90.2903971  72.4264922
  23.7276661  89.3869146  73.5753449  33.6892227  99.9619897  71.4192165
  34.1323373  99.2127223  71.0211288  32.8118737  99.9530034  71.0365897
  28.8228008 106.5150239  66.8998764  29.5178913 107.1356931  67.1186078
  29.1651158 105.6645590  67.1751142  14.4395817  98.3368040  80.7595581
  13.6977553  98.4850675  81.3460212  14.1188561  98.5976305  79.8962330
  30.7219431 103.9649944  68.4286094  31.2470755 104.3037217  67.7035414
  30.6341784 103.0296960  68.2449229  22.3839480 107.8784018  80.5575971
  22.6926606 107.6333165  81.4298671  23.1814962 108.0830656  80.0694841
  22.4060092 110.0321928  72.7881348  21.9665082 109.5398306  73.4814204
  23.1568209 109.4894895  72.5473423  14.8852431 106.2233468  72.7905976
  15.7110451 105.9237240  72.4104619  14.5346483 105.4541091  73.2395764
  19.8533964 105.5759937  74.8603649  19.2313973 104.9130642  74.5605877
  20.5238831 105.6021069  74.1777297  13.0861036 104.1419795  73.7494909
  12.2492944 103.7141969  73.5678911  13.0584681 104.3352238  74.6865701
  19.9258492  94.0541725  84.4536155  19.9746647  94.9303848  84.0713925
  20.4681006  93.5119118  83.8807799  30.4113337 104.5982848  83.7337292
  29.6208881 104.5806987  83.1941792  30.1746692 105.1371142  84.4886329
  30.5311212 101.4475314  81.0470021  30.5809217 101.2825322  81.9885544
  30.4225136 100.5802573  80.6567902  19.4147471 104.1263860  68.3362110
  19.5635591 104.8099324  67.6828783  20.2213914 104.1068950  68.8511566
  27.8214975  97.4306242  82.3629328  28.7224837  97.2912707  82.0713325
  27.8962949  97.5960697  83.3027505  22.1557780  94.8073097  81.2082514
  21.2861089  95.1006663  80.9365103  22.3917260  95.3913542  81.9289778
  32.0329409 103.8672256  81.2912042  31.7414217 104.2302236  82.1275503
  31.4201540 103.1539264  81.1125375  33.2325091 101.4325136  73.8114613
  34.0671983 101.8714940  73.9752173  33.3684220 100.9563789  72.9922858
  30.2816597  98.9904870  79.7592100  30.7570719  99.1832517  78.9510952
  29.3582163  99.0464056  79.5135484  17.1700104 100.1529038  69.3423179
  16.9246146  99.2491368  69.5403389  17.3396018 100.1546188  68.4002657
  24.8596814  91.0252714  78.7247934  25.3778758  91.7613741  78.3994423
  24.5051947  91.3316707  79.5594693  16.4395751  95.8857395  66.8409340
  15.7464996  95.9601750  66.1849376  16.1947503  95.1217739  67.3630857
  25.1109408  87.4452997  74.2448831  25.3911162  86.7776186  74.8709258
  25.8960015  87.6382092  73.7323495  22.9142876 106.6211990  65.8073857
  22.3416844 107.2402178  65.3544329  23.4875670 107.1711352  66.3413779
  28.9818266  95.8670631  77.9920406  29.9335689  95.9668728  78.0132630
  28.8121717  95.0748899  78.5018490  27.0032646  92.9526214  78.1779807
  26.4082578  93.2331226  77.4826296  26.7182342  93.4420115  78.9496548
  26.1340136 106.9049141  66.9382440  27.0670809 106.8394702  67.1415315
  26.0463349 107.7405407  66.4796972  28.7628153 106.2215011  63.8986387
  28.6841784 105.8874875  64.7922145  29.5837820 106.7136779  63.8977859
  31.4606344  99.0876750  77.1062706  31.4282664  98.1492751  77.2922390
  32.0706968  99.1660787  76.3728531  23.2989675  97.9572803  63.1489910
  24.2448780  97.8279011  63.2178328  22.9203920  97.2187465  63.6259338
  31.6100833  95.8787794  77.1520989  31.0939881  95.0946250  76.9650918
  32.4940781  95.5506510  77.3167508  29.2711560  89.6228809  73.1116802
  29.0736381  89.3143897  73.9960134  29.8811265  90.3490448  73.2414731
  37.2782894 100.1492757  76.2468743  38.0086282  99.8878045  76.8076446
  36.6689839  99.4121479  76.2870811  35.3598191  98.2900620  76.8443194
  34.6331355  98.1556585  76.2359685  34.9445478  98.5977448  77.6499912
  23.1828368 102.0090549  84.6090567  24.1031377 102.1869148  84.8030613
  23.1477951 101.0646595  84.4570266  21.4832592  95.8822780  63.0844795
  20.5764048  95.5855892  63.1607509  21.7608573  95.5852598  62.2179081
  12.4010533  97.2029143  73.5343841  12.0813317  96.3494451  73.2418215
  11.8543961  97.4177721  74.2901809  16.1790440  99.9191584  77.2513348
  16.3976450 100.8508692  77.2701382  16.5916214  99.5599558  78.0368152
  23.0994658  90.4259669  69.2389036  22.2895386  90.0806754  69.6144282
  23.7879075  90.1167213  69.8276648  25.0285206  89.5037716  70.8613333
  25.5816245  89.9233170  71.5203356  25.2655292  88.5773464  70.9036289
  21.0518305  95.4924790  86.6416097  20.9515032  96.4419147  86.5728188
  20.8339847  95.1643029  85.7692167  20.2531377  92.7409715  63.2256774
  21.1150541  93.0664613  63.4852592  20.4381721  91.9541211  62.7129840
  12.2698793 100.8232055  75.5036963  11.5762264 100.4086007  74.9906917
  13.0171784 100.8652591  74.9070382  28.4064013  91.6138241  70.3691997
  27.8262682  92.2723045  69.9870050  28.1399946  90.7915586  69.9579415
  26.8567580  91.0143299  72.5713318  27.3567358  91.1259834  71.7627636
  27.5003188  90.7104352  73.2114126  20.9149575  98.9221929  85.4581158
  20.4316657  99.7222289  85.6645048  21.0010514  98.9329873  84.5048602
  14.1835535 100.7550308  73.3802978  14.1606223 100.8537996  72.4284861
  14.4936172 101.6015459  73.7020144  16.8422913 102.8126463  77.4949592
  17.7966166 102.7810406  77.4279524  16.6435436 102.3517087  78.3099818
  17.4322295 101.3827579  80.0620390  18.2515184 101.8771658  80.0855227
  17.7059103 100.4659548  80.0337957  27.1888891  93.7738332  69.4248345
  26.3014746  94.0587982  69.2068540  27.6042880  93.6132095  68.5775622
  30.5403427  93.7984853  73.1402685  31.3163817  94.2881305  73.4127302
  29.8151562  94.2242907  73.5974554  32.9775986  94.5112472  74.1976625
  33.5720477  94.2708208  73.4869934  33.0502570  93.7919602  74.8250162
  26.3332105 103.5383006  63.5196365  27.0367955 103.7433009  64.1354021
  25.6094753 104.1059768  63.7845449  27.1629915  99.2892868  69.6398636
  27.1065116  99.7461419  68.8006268  27.7158257  98.5283552  69.4621478
  30.9734721  95.0782599  70.4648755  30.7171655  94.6779235  71.2956963
  30.3487589  95.7926393  70.3398894  35.2847059  97.8178673  72.9720047
  34.7246617  97.8871862  73.7451609  34.6790562  97.6419657  72.2519543
  28.2418802 103.9765536  65.5694825  29.0764406 103.5446734  65.3872300
  28.0803145 103.8047549  66.4971720  27.8964694 100.4797649  66.9351165
  27.8413498 100.3141920  65.9939609  27.2710750 101.1873682  67.0913355
  12.6857209  95.7165713  80.7612587  13.3316073  95.2064667  81.2499812
  12.4774360  96.4534395  81.3356012  25.2110601 102.7846561  86.2604728
  26.0801761 102.9587213  85.8991362  24.7317353 103.6040978  86.1380457
  21.2060820  89.9805758  66.5136483  21.1939490  90.9247598  66.6704754
  22.0984242  89.7975903  66.2195944  19.3796782 109.9043662  77.9394161
  20.2824028 109.9367272  78.2560656  19.1534152 108.9744113  77.9540497
  21.1350384 108.6574648  74.6004240  20.1846015 108.6576510  74.4868612
  21.4382870 107.9107383  74.0840274  25.0212939  86.5748534  70.7682420
  24.2545335  86.0207021  70.9139102  25.4323644  86.6470403  71.6296572
  17.0254700  92.8633330  84.8587601  17.8886162  92.5070135  85.0690926
  16.4520111  92.5247225  85.5463006  36.8703077 114.4935187  75.6650002
  37.5081487 114.3741934  74.9613342  36.7523920 115.4416031  75.7237954
  33.6792783 114.4462615  75.6011527  33.3411295 114.3303679  74.7132062
  34.5482552 114.0453780  75.5812533  34.1612566 115.5997466  81.5597732
  34.1501207 115.2050265  80.6878236  34.3233206 114.8663539  82.1531504
  31.3801063 113.2150862  64.9328467  31.6326584 112.6932383  64.1711930
  30.4425622 113.0517008  65.0355151  36.4244346 112.2186641  72.7403210
  37.2107435 111.8006064  72.3893627  36.6883050 113.1232733  72.9084859
  41.8252773 112.1561874  73.6436189  42.5577945 111.5861091  73.8774018
  41.0692129 111.7683474  74.0842694  33.4428893 114.5789115  70.8399531
  33.0787100 114.0519736  71.5512453  34.2996008 114.1887584  70.6666017
  39.3478193 105.8683448  78.1030797  39.0161518 106.7378859  77.8792012
  38.7523807 105.5519732  78.7824828  33.0834380 109.6079015  65.8360880
  33.2508782 110.4759251  66.2031351  32.8931549 109.7706297  64.9122169
  39.2406857 110.5878534  75.1824147  38.3323734 110.5193942  74.8882908
  39.1894452 111.0650479  76.0105973  33.0623600 112.0636672  66.8207547
  32.9423226 112.5093723  67.6593027  32.3676189 112.4121990  66.2621085
  33.3147722 112.0068180  83.1259045  32.5381056 112.5662100  83.1161909
  33.9538285 112.4924963  83.6473915  41.1068503 108.7894972  76.9602021
  40.4642883 109.0827506  76.3141816  40.6023431 108.6747893  77.7655218
  38.7608667 112.5358146  67.6487881  39.6726523 112.7685532  67.4735578
  38.2518314 113.1195190  67.0862959  33.3980504 111.8955380  78.6582730
  34.2441699 112.3194794  78.8017379  33.3379142 111.2389004  79.3521293
  36.5479950 109.5559749  80.3163904  36.3040881 110.3101809  79.7798179
  36.8239880 109.9345096  81.1511151  38.5018412 116.0998361  78.9941169
  38.7135308 116.7430121  78.3175550  38.4548161 115.2660677  78.5263099
  36.1044641 108.7116182  75.8977742  35.2429120 109.0097435  76.1894479
  36.1307076 108.9286580  74.9658774  31.8575097 113.3781524  69.1141112
  32.5599140 113.8302568  69.5815039  31.5255725 112.7365343  69.7421005
  30.3055458 111.9693281  83.4892322  29.6754119 112.6509562  83.7227719
  30.1991546 111.8576363  82.5445460  25.6000431 111.6365077  74.4158246
  24.8099485 111.8922606  73.9398357  26.0911678 112.4513415  74.5210286
  27.5515176 112.0009656  71.3741723  26.7546339 112.1128351  71.8925218
  27.3240768 112.3396309  70.5082613  47.7070233 115.3209065  73.5148498
  46.9533942 114.7516463  73.3592503  47.8417775 115.2871729  74.4619133
  29.5836201 106.2714047  85.8517573  29.1903147 105.7180246  86.5265217
  30.4002341 106.5824625  86.2424090  32.5004162 107.6871926  83.4437829
  33.2413875 108.2879079  83.3642292  32.7322085 106.9449564  82.8855872
  36.4461325 103.7153029  77.7202111  36.1025594 104.6054671  77.6441222
  36.8140288 103.5254687  76.8571696  36.4111608 113.7061640  66.2274546
  35.8958231 114.4766245  66.4662934  36.1388916 113.0326776  66.8507608
  33.9958719 108.5511341  71.2859785  33.1400315 108.1618191  71.1065423
  34.4085671 108.6303302  70.4259570  35.5257865 106.0857684  75.6851344
  35.0222661 106.0487819  74.8719150  35.8188472 106.9950427  75.7448001
  31.7700751 106.1696414  74.6917526  32.6353748 105.9739223  74.3323415
  31.8378260 105.9406766  75.6186883  41.3845882 116.4593995  68.1627720
  40.6075325 116.1205154  67.7182882  42.0637363 116.4646618  67.4882685
  36.1997911 111.5788732  68.0534327  35.8948046 111.8934881  68.9044471
  37.1528353 111.6570152  68.0961660  39.6237189 115.9327976  74.8194328
  38.9660863 116.6227237  74.9074456  40.4277588 116.3224408  75.1628314
  29.3763070 108.3998622  72.0633893  29.9506822 108.1773803  71.3307086
  29.9634053 108.4687316  72.8162494  38.4342648 114.2872349  72.8698269
  38.9474529 114.9202341  73.3719979  39.0843871 113.6873544  72.5041629
  29.7032657 110.4303083  66.0829778  28.8669970 110.7677769  66.4039053
  29.5637427 110.2952063  65.1456915  31.6785738 105.2739871  70.7908962
  31.0250150 104.9588888  70.1665577  31.6366212 104.6515611  71.5168785
  34.9123478 111.7621804  75.1156610  33.9946040 111.9836751  74.9578298
  35.3283622 111.8368115  74.2568317  35.6958526 113.1613220  70.2459290
  36.4430345 113.6734617  69.9366412  35.9650116 112.8397273  71.1063684
  38.1437363 110.1970336  72.2278079  37.4060120 109.6847722  72.5588322
  38.3964137 109.7570718  71.4161356  38.2448991 102.9746588  72.8219849
  38.5507867 102.1143952  72.5345764  38.9701595 103.5664208  72.6218843
  32.5170070 113.2700381  73.3296040  32.5718680 112.3174218  73.2538516
  31.7061272 113.4259820  73.8137338  30.4562430 111.8877441  71.0886419
  29.6430296 112.1871612  71.4951611  30.9521424 111.4933130  71.8060901
  36.0536642 112.3519265  79.9201313  36.4086030 112.5790739  80.7795778
  36.7008773 112.6837642  79.2978568  41.7834379 115.4737701  70.6250642
  41.6452278 115.6639297  69.6971831  41.4270598 116.2357084  71.0818693
  29.9476505 109.4595797  76.7047654  30.5875884 109.3184556  76.0070617
  29.1154036 109.1730310  76.3286256  41.8103759 117.5414228  75.6361913
  42.2440265 117.4489517  76.4844967  42.5235339 117.5171729  74.9981929
  27.0319572 112.9041309  68.8942399  26.1017161 112.8425764  69.1112361
  27.1277044 112.3817261  68.0979040  26.9505121 109.4296122  71.4820640
  27.2111939 110.3441455  71.3729801  27.7722294 108.9620564  71.6317253
  28.4230047 110.8433879  78.6519465  29.0953100 110.6351241  78.0032114
  27.5959833 110.6455965  78.2124697  42.6719308 117.5837929  78.1694798
  42.8655198 118.4883740  78.4154073  42.5719926 117.1245348  79.0033383
  34.3255619 107.4695820  80.6685126  33.6783534 108.1685769  80.5749602
  35.0956634 107.9031964  81.0361374  34.5019753 115.3076585  78.7281946
  35.4311813 115.4587744  78.5550913  34.0810783 115.3960605  77.8730592
  37.7872492 116.0564886  64.1606381  37.1701662 115.3311714  64.0639433
  37.3188980 116.8174246  63.8173455  31.4539845 113.8296441  78.9005582
  32.1639463 113.1889633  78.8592200  31.4109153 114.0809336  79.8231763
  30.1668779 110.8161659  80.7201221  29.6306136 110.3652397  81.3722818
  29.5785487 110.9507568  79.9771686  29.5771038 110.2750310  63.2827685
  28.7000504 110.1539111  62.9189932  30.0528791 109.4836389  63.0306574
  25.9007900 109.9517667  77.8054216  25.8166089 109.3443336  77.0704626
  25.0790606 110.4426685  77.8063712  36.0731614 108.4371230  73.1724411
  36.5700313 107.6841192  72.8525481  35.3018595 108.4735547  72.6067620
  43.9261371 114.1411596  74.8142702  43.9151247 115.0236311  74.4436635
  43.0578751 113.7883146  74.6197239  32.6566583 110.5788613  72.8996095
  32.2864370 110.0259653  73.5877001  33.1525675 109.9746747  72.3471095
  40.5433946 113.0360237  71.2812868  41.0094398 113.8688228  71.2073171
  40.9941446 112.5705218  71.9858127  38.5150609 105.4040824  75.3203770
  37.6013688 105.6345050  75.4885977  38.9443710 105.4879268  76.1717802
  38.2857067 113.5930716  77.8203664  37.6328517 113.8406623  77.1656116
  38.6637447 112.7794854  77.4866141  34.3344640 114.3350527  84.3069701
  33.6585277 114.2344656  84.9772076  35.1572274 114.1789740  84.7705698
  28.0531916 107.9892604  79.1449201  28.1173243 108.8507435  78.7326599
  27.9899036 107.3766606  78.4121560  27.5284189 110.0615736  82.7922236
  28.1556228 109.6792814  83.4059760  26.6712108 109.8429938  83.1577928
  24.3049732 111.8692166  68.7240591  24.6003173 110.9602844  68.6707644
  23.4037767 111.8479905  68.4021593  27.8343979 109.9448162  74.7068139
  27.1130564 110.5584130  74.5675612  28.6237234 110.4805927  74.6284785
  30.6370292 107.2802589  80.9808791  31.1604694 107.5264885  81.7435100
  30.4182625 108.1122623  80.5611928  26.0337573 109.5506263  68.8479916
  25.7050279 108.6703642  68.6655022  26.3876944 109.4953932  69.7356305
  29.1479396 109.8379233  69.2155393  29.4875469 110.3665154  68.4934002
  29.5951517 110.1759639  69.9913960  31.8422837 108.2216284  78.6658461
  31.5019657 107.4224097  79.0679141  31.1361843 108.5217995  78.0935295
  32.4939309 105.3065596  77.1185784  33.3165378 104.8326074  76.9964675
  32.7377372 106.0856080  77.6184471  31.1347543 108.3353855  67.4148686
  31.8555906 108.7135107  66.9112403  30.5112848 109.0542731  67.5183664
  35.2778666 109.0399004  68.3507018  35.4942281 109.9223641  68.0495847
  34.7972733 108.6485217  67.6212660  30.0177888 111.9984717  74.9277763
  29.8722468 112.3125020  75.8202045  29.5403091 112.6169617  74.3748662
  31.8774271 108.9887265  74.9758653  31.8635839 108.0928358  74.6390951
  32.5946699 108.9957928  75.6096939  33.7300401 109.4224605  77.0211780
  33.4718179 110.3441676  77.0196110  33.1985442 109.0255039  77.7112244
  31.2811166 107.8701645  70.2446223  31.4027078 106.9418291  70.4437110
  30.9913209 107.8840331  69.3324538  34.1502357 105.5556555  73.3812943
  34.1724054 105.6195889  72.4264922  34.5670416 104.7161064  73.5753449
  44.5285981 115.2911815  71.4192165  44.9717127 114.5419140  71.0211288
  43.6512491 115.2821951  71.0365897  30.7652246 109.3833642  84.4536155
  30.8140401 110.2595765  84.0713925  31.3074760 108.8411035  83.8807799
  41.3704967 116.7767232  81.0470021  41.4202972 116.6117239  81.9885544
  41.2618890 115.9094491  80.6567902  38.6608729 112.7598160  82.3629328
  39.5618592 112.6204625  82.0713325  38.7356704 112.9252615  83.3027505
  32.9951534 110.1365015  81.2082514  32.1254844 110.4298581  80.9365103
  33.2311015 110.7205460  81.9289778  44.0718846 116.7617053  73.8114613
  44.9065737 117.2006857  73.9752173  44.2077975 116.2855707  72.9922858
  41.1210352 114.3196788  79.7592100  41.5964473 114.5124434  78.9510952
  40.1975917 114.3755974  79.5135484  35.6990568 106.3544632  78.7247934
  36.2172512 107.0905659  78.3994423  35.3445701 106.6608625  79.5594693
  27.2789506 111.2149313  66.8409340  26.5858751 111.2893668  66.1849376
  27.0341258 110.4509657  67.3630857  35.9503162 102.7744914  74.2448831
  36.2304916 102.1068103  74.8709258  36.7353769 102.9674010  73.7323495
  39.8212021 111.1962548  77.9920406  40.7729444 111.2960646  78.0132630
  39.6515471 110.4040817  78.5018490  37.8426400 108.2818131  78.1779807
  37.2476332 108.5623144  77.4826296  37.5576097 108.7712032  78.9496548
  42.3000099 114.4168668  77.1062706  42.2676419 113.4784669  77.2922390
  42.9100722 114.4952705  76.3728531  34.1383429 113.2864721  63.1489910
  35.0842534 113.1570929  63.2178328  33.7597674 112.5479383  63.6259338
  42.4494587 111.2079711  77.1520989  41.9333636 110.4238168  76.9650918
  43.3334536 110.8798428  77.3167508  40.1105314 104.9520727  73.1116802
  39.9130135 104.6435815  73.9960134  40.7205020 105.6782366  73.2414731
  48.1176648 115.4784675  76.2468743  48.8480037 115.2169963  76.8076446
  47.5083594 114.7413397  76.2870811  46.1991946 113.6192537  76.8443194
  45.4725109 113.4848502  76.2359685  45.7839232 113.9269366  77.6499912
  32.3226347 111.2114697  63.0844795  31.4157802 110.9147810  63.1607509
  32.6002328 110.9144515  62.2179081  33.9388412 105.7551587  69.2389036
  33.1289141 105.4098672  69.6144282  34.6272829 105.4459131  69.8276648
  35.8678961 104.8329634  70.8613333  36.4209999 105.2525087  71.5203356
  36.1049047 103.9065382  70.9036289  31.8912060 110.8216707  86.6416097
  31.7908787 111.7711064  86.5728188  31.6733602 110.4934946  85.7692167
  31.0925131 108.0701633  63.2256774  31.9544295 108.3956531  63.4852592
  31.2775475 107.2833128  62.7129840  39.2457768 106.9430159  70.3691997
  38.6656437 107.6014963  69.9870050  38.9793700 106.1207504  69.9579415
  37.6961334 106.3435217  72.5713318  38.1961112 106.4551751  71.7627636
  38.3396942 106.0396270  73.2114126  38.0282646 109.1030249  69.4248345
  37.1408501 109.3879900  69.2068540  38.4436635 108.9424013  68.5775622
  41.3797182 109.1276770  73.1402685  42.1557572 109.6173223  73.4127302
  40.6545316 109.5534825  73.5974554  43.8169740 109.8404390  74.1976625
  44.4114231 109.6000126  73.4869934  43.8896324 109.1211520  74.8250162
  38.0023669 114.6184785  69.6398636  37.9458871 115.0753337  68.8006268
  38.5552012 113.8575470  69.4621478  41.8128475 110.4074517  70.4648755
  41.5565410 110.0071153  71.2956963  41.1881343 111.1218311  70.3398894
  46.1240813 113.1470590  72.9720047  45.5640371 113.2163780  73.7451609
  45.5184317 112.9711575  72.2519543  38.7358449 115.8089567  66.9351165
  38.6807253 115.6433838  65.9939609  38.1104504 116.5165599  67.0913355
  23.5250964 111.0457631  80.7612587  24.1709827 110.5356585  81.2499812
  23.3168115 111.7826313  81.3356012  32.0454574 105.3097676  66.5136483
  32.0333244 106.2539515  66.6704754  32.9377996 105.1267821  66.2195944
  35.8606694 101.9040452  70.7682420  35.0939090 101.3498939  70.9139102
  36.2717399 101.9762321  71.6296572  27.8648455 108.1925248  84.8587601
  28.7279916 107.8362053  85.0690926  27.2913865 107.8539143  85.5463006
  47.2855079 119.0444947  77.7202111  46.9419349 119.9346588  77.6441222
  47.6534042 118.8546604  76.8571696  49.0842745 118.3038506  72.8219849
  49.3901622 117.4435869  72.5345764  49.8095350 118.8956126  72.6218843
  46.7896917 118.1036832  74.2448831  47.0698671 117.4360021  74.8709258
  47.5747524 118.2965928  73.7323495  50.9499068 120.2812645  73.1116802
  50.7523890 119.9727733  73.9960134  51.5598774 121.0074284  73.2414731
  46.7000448 117.2332370  70.7682420  45.9332844 116.6790857  70.9139102
  47.1111153 117.3054239  71.6296572   4.3495217  31.0103517  60.2393805
   3.5958925  30.4410915  60.0837809   4.4842758  30.9766181  61.1864440
   0.7143829  32.4511505  60.5359919   1.5490721  32.8901309  60.6997480
   0.8502958  31.9750158  59.7168165   4.7601632  31.1679127  62.9714049
   5.4905020  30.9064415  63.5321753   4.1508577  30.4307849  63.0116117
   2.8416929  29.3086989  63.5688500   2.1150092  29.1742954  62.9604992
   2.4264216  29.6163818  64.3745218   0.4594724  25.5298841  60.9221932
   1.0539215  25.2894577  60.2115240   0.5321307  24.8105972  61.5495468
   2.7665797  28.8365042  59.6965353   2.2065355  28.9058232  60.4696915
   2.1609300  28.6606027  58.9764849   4.3521815  45.5121556  62.3895309
   4.9900225  45.3928304  61.6858649   4.2342658  46.4602400  62.4483261
   1.1611521  45.4648984  62.3256834   0.8230033  45.3490049  61.4377368
   2.0301289  45.0640149  62.3057840   1.6431304  46.6183836  68.2843039
   1.6319945  46.2236634  67.4123543   1.8051944  45.8849909  68.8776811
   2.5997896  50.9855428  53.6268189   1.9485875  51.5709509  53.2402203
   3.3942258  51.5161623  53.6863227   3.9063083  43.2373010  59.4648517
   4.6926173  42.8192433  59.1138934   4.1701788  44.1419102  59.6330165
   4.0773161  48.6745860  54.1637174   3.4418994  48.7480487  54.8758078
   3.7470567  49.2639459  53.4856253   9.3071511  43.1748243  60.3681495
  10.0396683  42.6047460  60.6019325   8.5510866  42.7869844  60.8088001
   0.9247630  45.5975485  57.5644838   0.5605838  45.0706106  58.2757759
   1.7814746  45.2073954  57.3911323   6.8296931  36.8869817  64.8276104
   6.4980256  37.7565228  64.6037319   6.2342544  36.5706101  65.5070134
   3.3228450  49.0882363  64.2272017   3.0229174  49.9907402  64.1187824
   2.9779510  48.8214547  65.0793170   6.7225594  41.6064904  61.9069454
   5.8142472  41.5380312  61.6128215   6.6713190  42.0836848  62.7351280
   8.5887241  39.8081342  63.6847328   7.9461621  40.1013875  63.0387123
   8.0842169  39.6934262  64.4900525   6.2427404  43.5544515  54.3733187
   7.1545260  43.7871902  54.1980885   5.7337051  44.1381559  53.8108266
   4.5268172  47.9769143  68.0094480   4.9351528  47.5351553  67.2649112
   3.8045434  47.4021770  68.2628673   0.8799242  42.9141750  65.3828037
   1.7260437  43.3381163  65.5262686   0.8197880  42.2575374  66.0766600
   4.8496987  48.5370334  61.7646769   4.2205849  48.7016048  61.0622837
   4.4622649  48.9511943  62.5357733   8.7286219  49.4724771  59.1191133
   8.0437257  49.8523673  58.5688166   8.8130068  50.0820098  59.8523080
   4.0298687  40.5746118  67.0409210   3.7859619  41.3288179  66.5043486
   4.3058618  40.9531466  67.8756458   5.9837150  47.1184730  65.7186476
   6.1954045  47.7616490  65.0420857   5.9366898  46.2847047  65.2508406
   3.5863379  39.7302551  62.6223048   2.7247858  40.0283805  62.9139786
   3.6125814  39.9472950  61.6904081   7.0982978  49.9956686  63.8908833
   7.9200422  49.5936873  63.6091515   7.0945381  49.8924920  64.8424949
  15.1888971  46.3395434  60.2393805  14.4352680  45.7702832  60.0837809
  15.3236512  46.3058099  61.1864440   0.5787599  51.2108837  55.9148524
   0.4433274  52.0560372  56.3433372   1.1197412  51.4128114  55.1514458
   2.2056076  51.8332403  70.0448866   1.7619930  51.0468782  69.7269771
   2.8673289  52.0211554  69.3792757   4.3037314  52.1135203  68.0730268
   4.2855789  52.9344084  67.5810537   5.2257234  51.9889278  68.2980409
   3.9280063  34.7339399  64.4447418   3.5844332  35.6241040  64.3686528
   4.2959025  34.5441056  63.5817003   3.8930345  44.7248010  52.9519853
   3.3776969  45.4952614  53.1908240   3.6207654  44.0513146  53.5752914
   1.4777457  39.5697710  58.0105091   0.6219053  39.1804561  57.8310730
   1.8904408  39.6489671  57.1504877   3.0076603  37.1044054  62.4096651
   2.5041399  37.0674189  61.5964456   3.3007210  38.0136796  62.4693308
   8.8664620  47.4780364  54.8873026   8.0894062  47.1391524  54.4428188
   9.5456101  47.4832987  54.2127991   3.6816649  42.5975102  54.7779634
   3.3766784  42.9121251  55.6289777   4.6347091  42.6756522  54.8206967
   2.1263081  48.7565325  56.4272588   1.5984442  48.0218085  56.1145825
   1.6250583  49.5340001  56.1812556   7.1055927  46.9514346  61.5439634
   6.4479601  47.6413607  61.6319763   7.9096326  47.3410778  61.8873621
   5.9161385  45.3058718  59.5943576   6.4293267  45.9388710  60.0965286
   6.5662609  44.7059914  59.2286936   3.1783760  55.2843043  52.3504247
   2.5045458  55.5874739  52.9589205   3.5649582  56.0872123  52.0009704
   2.3942216  42.7808174  61.8401917   1.4764778  43.0023121  61.6823605
   2.8102360  42.8554484  60.9813624   3.1777264  44.1799589  56.9704597
   3.9249083  44.6920987  56.6611719   3.4468854  43.8583642  57.8308990
   1.4503914  46.6758130  53.9531551   0.5415133  46.3917163  54.0504021
   1.4798998  47.0957209  53.0934858   6.6823182  50.2864720  57.7222719
   6.2285509  49.4455630  57.7787909   6.0517148  50.9226118  58.0597499
   5.6256101  41.2156706  58.9523386   4.8878858  40.7034092  59.2833629
   5.8782875  40.7757087  58.1406663   5.1256121  52.1241216  58.6572537
   5.4179095  52.6846274  57.9384902   5.6354741  52.4169777  59.4125696
   5.7267728  33.9932958  59.5465155   6.0326605  33.1330321  59.2591070
   6.4520333  34.5850578  59.3464149   1.1480002  48.2166874  51.2919630
   0.7099432  47.5002733  50.8325267   1.8890443  48.4442989  50.7304721
   3.5355380  43.3705635  66.6446619   3.8904767  43.5977108  67.5041085
   4.1827511  43.7024012  66.0223874   9.2653117  46.4924071  57.3495948
   9.1271015  46.6825667  56.4217137   8.9089336  47.2543454  57.8063999
   9.2922496  48.5600598  62.3607220   9.7259003  48.4675887  63.2090274
  10.0054077  48.5358098  61.7227236   3.0250391  52.1602692  63.8940320
   3.0787414  52.7293628  64.6618036   2.1565173  52.3304577  63.5294357
  10.1538046  48.6024299  64.8940105  10.3473936  49.5070109  65.1399380
  10.0538664  48.1431718  65.7278690   1.8074357  38.4882189  67.3930432
   1.1602272  39.1872139  67.2994909   2.5775372  38.9218333  67.7606681
   5.2153155  48.7531041  70.4680986   5.0638661  48.5241593  69.5511069
   5.2057834  49.7101643  70.4812331   1.9838491  46.3262954  65.4527252
   2.9130551  46.4774114  65.2796219   1.5629521  46.4146975  64.5975899
   1.3774975  55.4522715  54.5651326   1.5526730  54.9810758  55.3796949
   0.6907763  56.0788481  54.7932587   2.3332038  49.7295221  60.6114628
   1.9981871  49.6895991  61.5072277   1.8335984  49.0639937  60.1385038
   5.2691230  47.0751256  50.8851687   4.6520400  46.3498084  50.7884740
   4.8007718  47.8360616  50.5418761   6.9245361  51.7850164  68.5457468
   6.8657907  51.1009384  67.8788051   7.3264880  52.5269154  68.0938094
   6.9262768  49.7489748  66.7771447   6.0389547  49.4115670  66.8997846
   7.4961320  49.0172779  67.0140213   3.5550352  39.4557600  59.8969717
   4.0519051  38.7027562  59.5770788   2.7837333  39.4921916  59.3312927
  11.4080109  45.1597965  61.5388009  11.3969985  46.0422681  61.1681942
  10.5397488  44.8069516  61.3442546   2.9162605  54.3078034  65.8990849
   3.6290578  54.9425499  65.8266751   2.4252634  54.4041900  65.0830851
   4.6380132  48.2129287  57.4708141   3.7036411  48.3330749  57.3012845
   4.8156801  47.3101754  57.2068151   8.0252684  44.0546606  58.0058175
   8.4913136  44.8874598  57.9318478   8.4760184  43.5891588  58.7103433
   6.0928915  50.3990427  55.0044327   6.3688759  50.2847022  55.9138201
   5.2233413  50.0007912  54.9656500   5.9969346  36.4227193  62.0449076
   5.0832426  36.6531420  62.2131283   6.4262448  36.5065637  62.8963109
   5.7675805  44.6117085  64.5448970   5.1147255  44.8592993  63.8901423
   6.1456185  43.7981223  64.2111448   2.7282979  54.6476778  58.6477141
   2.9105373  53.8298434  59.1104893   3.5515965  54.8644471  58.2102031
   3.0625144  53.5744963  55.9092189   3.5912911  53.0637418  55.2962351
   3.3253364  53.2587494  56.7737722   1.8163378  45.3536896  71.0315007
   1.1404015  45.2531025  71.7017383   2.6391012  45.1976110  71.4951005
   0.5586161  56.6603824  65.2672623   1.1104469  56.8235445  66.0321709
   0.8992354  57.2508261  64.5952648   5.4097035  51.4865081  71.1221278
   5.9536939  52.0995039  70.6276233   4.8283880  52.0444660  71.6388291
   3.6954548  54.6085799  62.2536306   3.5705688  53.8075539  61.7447251
   4.3533639  55.1031993  61.7650276   5.7589456  52.4094819  63.8815856
   4.8119792  52.2900170  63.8094182   6.1072230  51.5217317  63.9642117
   2.7635890  52.2047535  60.0820208   2.6160852  51.2764243  60.2627778
   3.5889383  52.2267626  59.5977283   6.3670012  53.0276094  61.1685081
   7.2916559  52.8218956  61.0309532   6.1985315  52.7792495  62.0774422
   2.7597404  40.0585373  55.0752325   2.9761018  40.9410011  54.7741153
   2.2791471  39.6671586  54.3457967   1.2119139  40.4410975  63.7457087
   0.9536917  41.3628045  63.7441417   0.6804179  40.0441409  64.4357551
   6.1565328  53.5461762  56.5247172   6.3302205  52.9808184  55.7721025
   6.6494219  54.3462657  56.3426662   1.6321095  36.5742925  60.1058249
   1.6542791  36.6382258  59.1510229   2.0489154  35.7347434  60.2998755
  12.0104719  46.3098185  58.1437472  12.4535865  45.5605510  57.7456595
  11.1331229  46.3008321  57.7611204   7.1440500  52.8628526  53.6244070
   7.8391405  53.4835219  53.8431385   7.4863650  52.0123877  53.8996448
   9.0431923  50.3128232  55.1531401   9.5683248  50.6515504  54.4280721
   8.9554276  49.3775247  54.9694536   0.7051972  54.2262305  67.2821278
   1.0139099  53.9811452  68.1543977   1.5027454  54.4308944  66.7940148
   8.7325829  50.9461135  70.4582599   7.9421373  50.9285274  69.9187098
   8.4959184  51.4849429  71.2131636   8.8523705  47.7953602  67.7715328
   8.9021709  47.6303609  68.7130850   8.7437628  46.9280861  67.3813208
   6.1427467  43.7784530  69.0874634   7.0437330  43.6390994  68.7958632
   6.2175441  43.9438984  70.0272812  10.3541901  50.2150543  68.0157349
  10.0626710  50.5780524  68.8520810   9.7414033  49.5017551  67.8370681
  11.5537584  47.7803423  60.5359919  12.3884475  48.2193227  60.6997480
  11.6896712  47.3042076  59.7168165   8.6029090  45.3383158  66.4837407
   9.0783211  45.5310804  65.6756259   7.6794655  45.3942344  66.2380791
   3.1809306  37.3731001  65.4493241   3.6991250  38.1092028  65.1239730
   2.8264439  37.6794995  66.2840000   3.4321900  33.7931284  60.9694138
   3.7123654  33.1254473  61.5954564   4.2172507  33.9860379  60.4568801
   1.2355369  52.9690278  52.5319164   0.6629336  53.5880465  52.0789636
   1.8088162  53.5189639  53.0659086   7.3030759  42.2148918  64.7165713
   8.2548181  42.3147015  64.7377937   7.1334209  41.4227186  65.2263797
   5.3245138  39.3004501  64.9025114   4.7295070  39.5809514  64.2071602
   5.0394835  39.7898402  65.6741855   4.4552629  53.2527428  53.6627746
   5.3883302  53.1872990  53.8660622   4.3675841  54.0883695  53.2042279
   7.0840645  52.5693298  50.6231694   7.0054277  52.2353162  51.5167452
   7.9050312  53.0615066  50.6223166   9.7818836  45.4355038  63.8308012
   9.7495156  44.4971038  64.0167696  10.3919460  45.5139074  63.0973837
   1.6202167  44.3051090  49.8735216   2.5661272  44.1757299  49.9423634
   1.2416412  43.5665752  50.3504645   9.9313325  42.2266081  63.8766296
   9.4152374  41.4424538  63.6896224  10.8153273  41.8984798  64.0412815
   7.5924052  35.9707097  59.8362108   7.3948873  35.6622185  60.7205440
   8.2023757  36.6968735  59.9660038  15.5995386  46.4971044  62.9714049
  16.3298775  46.2356332  63.5321753  14.9902332  45.7599766  63.0116117
  13.6810683  44.6378907  63.5688500  12.9543847  44.5034872  62.9604992
  13.2657970  44.9455736  64.3745218   1.5040860  48.3568837  71.3335873
   2.4243869  48.5347436  71.5275920   1.4690443  47.4124882  71.1815573
   1.4207150  36.7737957  55.9634343   0.6107878  36.4285042  56.3389589
   2.1091567  36.4645500  56.5521955   3.3497698  35.8516003  57.5858640
   3.9028737  36.2711457  58.2448663   3.5867785  34.9251751  57.6281596
   6.7276505  37.9616529  57.0937304   6.1475175  38.6201333  56.7115356
   6.4612438  37.1393873  56.6824721   5.1780072  37.3621586  59.2958624
   5.6779850  37.4738121  58.4872943   5.8215680  37.0582639  59.9359433
   5.5101384  40.1216619  56.1493652   4.6227239  40.4066270  55.9313847
   5.9255373  39.9610382  55.3020929   8.8615920  40.1463140  59.8647991
   9.6376310  40.6359592  60.1372608   8.1364054  40.5721194  60.3219861
  11.2988478  40.8590759  60.9221932  11.8932969  40.6186495  60.2115240
  11.3715062  40.1397890  61.5495468   4.6544597  49.8861294  50.2441672
   5.3580447  50.0911296  50.8599328   3.9307246  50.4538055  50.5090756
   5.4842407  45.6371155  56.3643942   5.4277609  46.0939706  55.5251575
   6.0370750  44.8761839  56.1866785   9.2947213  41.4260887  57.1894062
   9.0384147  41.0257522  58.0202269   8.6700081  42.1404681  57.0644201
  13.6059551  44.1656960  59.6965353  13.0459109  44.2350149  60.4696915
  13.0003054  43.9897945  58.9764849   6.5631294  50.3243823  52.2940132
   7.3976898  49.8925021  52.1117607   6.4015637  50.1525836  53.2217027
   6.2177187  46.8275936  53.6596471   6.1625990  46.6620208  52.7184916
   5.5923242  47.5351969  53.8158661   3.5323094  49.1324848  72.9850034
   4.4014253  49.3065500  72.6236669   3.0529845  49.9519265  72.8625764
   3.3425431  32.9226822  57.4927727   2.5757827  32.3685308  57.6384409
   3.7536136  32.9948691  58.3541878  15.1915569  60.8413474  62.3895309
  15.8293979  60.7220221  61.6858649  15.0736412  61.7894318  62.4483261
  12.0005276  60.7940902  62.3256834  11.6623787  60.6781967  61.4377368
  12.8695044  60.3932067  62.3057840   7.8592091  62.6476378  58.3153725
   7.2956957  62.5566315  57.5470012   7.7444487  61.8276283  58.7956217
  12.4825059  61.9475754  68.2843039  12.4713700  61.5528552  67.4123543
  12.6445698  61.2141826  68.8776811   5.4056523  64.1427570  61.1537945
   6.1977815  63.8018395  60.7384244   5.6453174  64.2522545  62.0740098
  13.4391650  66.3147346  53.6268189  12.7879630  66.9001427  53.2402203
  14.2336013  66.8453541  53.6863227   7.3647277  63.4036483  54.0255324
   8.1378153  62.8565470  53.8868200   7.7172676  64.2680733  54.2369785
   9.2032320  64.7312866  67.2322223   8.9122186  65.6358496  67.1168889
   9.8389304  64.7729393  67.9466293  10.1288527  62.1089714  63.8223583
  10.7252099  61.8845736  63.1080546  10.1863498  61.3674460  64.4249031
   9.7013555  59.5629149  51.6573774   9.9539076  59.0410671  50.8957237
   8.7638114  59.3995295  51.7600457  14.7456838  58.5664928  59.4648517
  15.5319927  58.1484351  59.1138934  15.0095542  59.4711020  59.6330165
  14.9166915  64.0037778  54.1637174  14.2812748  64.0772405  54.8758078
  14.5864322  64.5931377  53.4856253  20.1465265  58.5040161  60.3681495
  20.8790437  57.9339378  60.6019325  19.3904621  58.1161761  60.8088001
   9.4209844  61.4657255  53.8598149   9.3046102  60.7902159  54.5279233
   9.5312104  60.9789629  53.0430302  11.7641385  60.9267402  57.5644838
  11.3999592  60.3998023  58.2757759  12.6208501  60.5365872  57.3911323
  17.6690685  52.2161735  64.8276104  17.3374010  53.0857146  64.6037319
  17.0736299  51.8998019  65.5070134  11.4046872  55.9557302  52.5606186
  11.5721274  56.8237539  52.9276657  11.2144041  56.1184584  51.6367476
  14.1622205  64.4174281  64.2272017  13.8622928  65.3199320  64.1187824
  13.8173264  64.1506464  65.0793170   7.6134686  60.8688078  60.2608721
   6.6885183  60.7364292  60.4686413   7.8619100  61.6482297  60.7578664
  17.5619349  56.9356821  61.9069454  16.6536226  56.8672230  61.6128215
  17.5106945  57.4128766  62.7351280  11.3836093  58.4114960  53.5452853
  11.2635718  58.8572010  54.3838334  10.6888681  58.7600277  52.9866391
   4.9743497  60.5121351  61.0952510   5.1035879  60.7655830  62.0091922
   4.2940949  61.1049059  60.7757165   9.1442985  71.1818601  57.1942984
   9.0667014  72.1326426  57.2731465   8.5404628  70.8364474  57.8517911
  11.6360215  58.3546467  69.8504351  10.8593549  58.9140387  69.8407216
  12.2750778  58.8403250  70.3719221  19.4280995  55.1373260  63.6847328
  18.7855375  55.4305793  63.0387123  18.9235924  55.0226180  64.4900525
  17.0821159  58.8836433  54.3733187  17.9939015  59.1163820  54.1980885
  16.5730806  59.4673477  53.8108266   9.8906587  61.1631920  69.4122318
  10.6321271  61.7016964  69.1357142   9.1843572  61.7898209  69.5693870
  15.3661926  63.3061061  68.0094480  15.7745283  62.8643471  67.2649112
  14.6439188  62.7313688  68.2628673  11.7192997  58.2433667  65.3828037
  12.5654192  58.6673081  65.5262686  11.6591634  57.5867292  66.0766600
  15.6890741  63.8662251  61.7646769  15.0599604  64.0307965  61.0622837
  15.3016403  64.2803861  62.5357733  19.5679973  64.8016689  59.1191133
  18.8831011  65.1815590  58.5688166  19.6523822  65.4112016  59.8523080
  14.8692442  55.9038036  67.0409210  14.6253374  56.6580096  66.5043486
  15.1452372  56.2823383  67.8756458  16.8230905  62.4476648  65.7186476
  17.0347800  63.0908408  65.0420857  16.7760653  61.6138965  65.2508406
  14.4257134  55.0594469  62.6223048  13.5641613  55.3575722  62.9139786
  14.4519568  55.2764868  61.6904081  11.2418703  63.6036659  59.0296854
  11.7057049  63.8824362  58.2401476  10.9775501  62.7020104  58.8469945
   8.1342784  63.1508141  61.9676617   8.7044141  63.5795409  61.3294102
   8.7250896  62.8690726  62.6660803  10.1787589  59.7259812  55.8386419
  10.8811632  60.1780855  56.3060345   9.8468218  59.0843631  56.4666312
   8.6267951  58.3171568  70.2137628   7.9966611  58.9987849  70.4473025
   8.5204038  58.2054650  69.2690767   3.9212923  57.9843364  61.1403553
   3.1311977  58.2400893  60.6643663   4.4124170  58.7991702  61.2455593
  17.9376733  65.3248604  63.8908833  18.7594176  64.9228791  63.6091515
  17.9339135  65.2216838  64.8424949   5.8727668  58.3487944  58.0987029
   5.0758832  58.4606638  58.6170525   5.6453261  58.6874596  57.2327920
  11.7033336  64.8732647  66.0469544  11.7677769  65.3353054  66.8827716
  10.9944260  64.2430012  66.1751854   2.2050626  58.2373855  63.5718543
   2.4558664  59.1220865  63.8376119   2.7410174  58.0578456  62.7993635
  26.0282726  61.6687352  60.2393805  25.2746434  61.0994750  60.0837809
  26.1630267  61.6350017  61.1864440  11.4181354  66.5400754  55.9148524
  11.2827028  67.3852290  56.3433372  11.9591166  66.7420032  55.1514458
   7.9048693  52.6192334  72.5762879   7.5115639  52.0658533  73.2510524
   8.7214834  52.9302913  72.9669397   4.8710751  64.0576192  56.4876449
   5.3835272  64.8519443  56.6382014   5.5233464  63.3602483  56.4210051
   6.6805636  67.1741949  58.5699202   6.8572264  68.0959913  58.3820186
   7.4762469  66.8600368  58.9993582  10.8216654  54.0350213  70.1683136
  11.5626368  54.6357366  70.0887598  11.0534577  53.2927851  69.6101179
   5.9657992  59.2206581  68.4461366   5.8511507  58.3191838  68.7468465
   5.1102510  59.4670277  68.0946182  13.0449830  67.1624321  70.0448866
  12.6013684  66.3760699  69.7269771  13.7067044  67.3503471  69.3792757
   7.8036951  68.6920122  64.5709545   8.3544376  68.5637186  63.7986539
   6.9648427  68.9915011  64.2204438  15.1431068  67.4427121  68.0730268
  15.1249543  68.2636002  67.5810537  16.0650988  67.3181196  68.2980409
  11.6004122  64.9571250  68.9153776  12.1332459  64.1959538  68.6853084
  11.0718203  64.6644902  69.6577930  14.7673817  50.0631316  64.4447418
  14.4238087  50.9532958  64.3686528  15.1352780  49.8732974  63.5817003
   2.8359668  62.3864847  57.2636020   3.6734890  62.7961855  57.0469728
   3.0137936  61.4464289  57.2336214  14.7324100  60.0539927  52.9519853
  14.2170723  60.8244532  53.1908240  14.4601408  59.3805064  53.5752914
  12.3171211  54.8989628  58.0105091  11.4612807  54.5096479  57.8310730
  12.7298163  54.9781589  57.1504877  13.8470358  52.4335971  62.4096651
  13.3435153  52.3966107  61.5964456  14.1400965  53.3428714  62.4693308
  10.0913244  52.5174701  61.4162833  10.9566240  52.3217510  61.0568722
  10.1590752  52.2885053  62.3432189  19.7058374  62.8072282  54.8873026
  18.9287817  62.4683441  54.4428188  20.3849855  62.8124905  54.2127991
  14.5210403  57.9267019  54.7779634  14.2160539  58.2413169  55.6289777
  15.4740845  58.0048439  54.8206967  12.9656835  64.0857243  56.4272588
  12.4378197  63.3510002  56.1145825  12.4644338  64.8631919  56.1812556
  17.9449681  62.2806263  61.5439634  17.2873355  62.9705525  61.6319763
  18.7490080  62.6702695  61.8873621   7.6975563  54.7476909  58.7879199
   8.2719315  54.5252091  58.0552392   8.2846545  54.8165604  59.5407801
  16.7555140  60.6350636  59.5943576  17.2687022  61.2680628  60.0965286
  17.4056364  60.0351831  59.2286936   8.0245150  56.7781370  52.8075085
   7.1882462  57.1156057  53.1284359   7.8849919  56.6430350  51.8702222
   9.9998230  51.6218158  57.5154269   9.3462643  51.3067175  56.8910884
   9.9578704  50.9993898  58.2414092  11.1109435  61.9037453  49.4307561
  10.2036497  61.6726706  49.6298710  11.6080467  61.1075072  49.6181543
  14.0177514  70.6134960  52.3504247  13.3439213  70.9166657  52.9589205
  14.4043336  71.4164041  52.0009704  13.2335971  58.1100091  61.8401917
  12.3158532  58.3315038  61.6823605  13.6496114  58.1846402  60.9813624
  14.0171018  59.5091507  56.9704597  14.7642837  60.0212904  56.6611719
  14.2862608  59.1875560  57.8308990  12.2897669  62.0050048  53.9531551
  11.3808888  61.7209081  54.0504021  12.3192752  62.4249126  53.0934858
  17.5216936  65.6156637  57.7222719  17.0679263  64.7747547  57.7787909
  16.8910903  66.2518036  58.0597499  16.4649856  56.5448623  58.9523386
  15.7272612  56.0326010  59.2833629  16.7176629  56.1049005  58.1406663
  15.9649875  67.4533134  58.6572537  16.2572850  68.0138191  57.9384902
  16.4748496  67.7461695  59.4125696  16.5661483  49.3224875  59.5465155
  16.8720360  48.4622239  59.2591070  17.2914088  49.9142496  59.3464149
   2.8585839  59.7255562  57.9346753   2.6610239  59.1324923  57.2097820
   2.3032503  59.4207772  58.6522692  10.8382563  59.6178668  60.0541346
  10.8931172  58.6652505  59.9783823  10.0273765  59.7738108  60.5382645
  11.9873756  63.5458792  51.2919630  11.5493186  62.8294650  50.8325267
  12.7284197  63.7734906  50.7304721   8.7774923  58.2355728  57.8131725
   7.9642788  58.5349899  58.2196917   9.2733917  57.8411417  58.5306208
  10.9283500  68.2313485  59.7465990  10.8859679  68.4574331  58.8174522
  11.8446199  67.9976860  59.8951791  14.3749134  58.6997553  66.6446619
  14.7298522  58.9269026  67.5041085  15.0221265  59.0315929  66.0223874
  20.1046871  61.8215989  57.3495948  19.9664770  62.0117585  56.4217137
  19.7483090  62.5835371  57.8063999   8.2688997  55.8074084  63.4292960
   8.9088377  55.6662843  62.7315924   7.4366528  55.5208597  63.0531562
  20.1316251  63.8892516  62.3607220  20.5652757  63.7967805  63.2090274
  20.8447832  63.8650016  61.7227236   9.0449301  65.1076514  59.5427953
   9.8389900  64.6126834  59.3410528   8.3340994  64.5794377  59.1795658
  13.8644146  67.4894610  63.8940320  13.9181168  68.0585546  64.6618036
  12.9958927  67.6596495  63.5294357   5.3532065  59.2519596  55.6187705
   4.4229653  59.1904051  55.8357668   5.4489537  58.7295549  54.8224347
   5.2717614  55.7774409  58.2065947   5.5324431  56.6919742  58.0975108
   6.0934786  55.3098851  58.3562560   6.7442539  57.1912166  65.3764772
   7.4165593  56.9829528  64.7277420   5.9172326  56.9934252  64.9370004
  20.9931800  63.9316216  64.8940105  21.1867690  64.8362027  65.1399380
  20.8932419  63.4723635  65.7278690  12.6468111  53.8174107  67.3930432
  11.9996026  54.5164056  67.2994909  13.4169127  54.2510251  67.7606681
  16.0546909  64.0822959  70.4680986  15.9032415  63.8533511  69.5511069
  16.0451589  65.0393560  70.4812331  12.8232245  61.6554872  65.4527252
  13.7524305  61.8066031  65.2796219  12.4023275  61.7438893  64.5975899
  11.6220577  65.6805536  63.2225790  11.4831663  65.3124321  64.0951728
  10.8335173  66.1953176  63.0509748  12.2168729  70.7814633  54.5651326
  12.3920485  70.3102676  55.3796949  11.5301517  71.4080399  54.7932587
  13.1725792  65.0587139  60.6114628  12.8375625  65.0187909  61.5072277
  12.6729738  64.3931855  60.1385038   7.1470036  60.4654769  66.1367209
   7.0089834  59.7335008  66.7378748   8.0574960  60.3763669  65.8551396
  16.1084984  62.4043173  50.8851687  15.4914155  61.6790001  50.7884740
  15.6401472  63.1652533  50.5418761   9.7752337  60.1774728  65.6250888
  10.4851956  59.5367920  65.5837507   9.7321645  60.4287623  66.5477069
  17.7639116  67.1142082  68.5457468  17.7051662  66.4301302  67.8788051
  18.1658634  67.8561072  68.0938094   8.4881271  57.1639946  67.4446528
   7.9518628  56.7130685  68.0968124   7.8997979  57.2985855  66.7016992
   6.7829814  73.9303995  61.3391186   7.0226413  74.5622520  62.0170205
   5.9399011  73.5792035  61.6256546   7.8983530  56.6228598  50.0072992
   7.0212996  56.5017398  49.6435238   8.3741283  55.8314676  49.7551880
  17.7656523  65.0781665  66.7771447  16.8783302  64.7407587  66.8997846
  18.3355074  64.3464697  67.0140213   4.2220392  56.2995954  64.5299522
   4.1378581  55.6921623  63.7949932   3.4003099  56.7904972  64.5309019
  11.2957676  69.7383118  63.7432690  11.2227848  70.5438089  64.2551995
  10.8535069  69.9375084  62.9180712  11.0847456  68.9754888  57.2535512
  10.3014978  69.5176568  57.3473737  11.7840201  69.4928868  57.6529753
  14.3944106  54.7849517  59.8969717  14.8912806  54.0319480  59.5770788
  13.6231088  54.8213834  59.3312927  22.2473864  60.4889883  61.5388009
  22.2363740  61.3714598  61.1681942  21.3791243  60.1361434  61.3442546
  13.7556360  69.6369952  65.8990849  14.4684332  70.2717417  65.8266751
  13.2646389  69.7333818  65.0830851  15.4773887  63.5421205  57.4708141
  14.5430166  63.6622667  57.3012845  15.6550555  62.6393671  57.2068151
  10.9779075  56.9266900  59.6241402  10.6076862  56.3737941  60.3122308
  11.4738167  56.3225034  59.0716402  18.8646438  59.3838524  58.0058175
  19.3306890  60.2166515  57.9318478  19.3153939  58.9183505  58.7103433
   8.8068273  67.3864395  66.7196420   9.5077733  68.0200878  66.8725814
   8.3363388  67.7279127  65.9592059  16.9322669  65.7282345  55.0044327
  17.2082513  65.6138940  55.9138201  16.0627168  65.3299830  54.9656500
  16.8363101  51.7519111  62.0449076  15.9226181  51.9823338  62.2131283
  17.2656202  51.8357555  62.8963109  16.6069559  59.9409003  64.5448970
  15.9541010  60.1884910  63.8901423  16.9849939  59.1273141  64.2111448
  13.5676733  69.9768696  58.6477141  13.7499128  69.1590352  59.1104893
  14.3909719  70.1936388  58.2102031  13.9018899  68.9036881  55.9092189
  14.4306665  68.3929336  55.2962351  14.1647118  68.5879411  56.7737722
  12.6557132  60.6828814  71.0315007  11.9797769  60.5822943  71.7017383
  13.4784766  60.5268028  71.4951005   4.4035991  66.9200750  63.6527523
   4.9889428  66.1744438  63.7855427   4.2060830  67.2304707  64.5364187
   7.2574647  69.9551998  58.6689965   6.5885022  70.4398125  58.1854005
   7.1187516  70.2021218  59.5833344  11.3979915  71.9895741  65.2672623
  11.9498223  72.1527363  66.0321709  11.7386109  72.5800179  64.5952648
   6.3744409  54.3370891  65.8694508   6.4385735  55.1985722  65.4571906
   6.3111529  53.7244893  65.1366867   5.8496681  56.4094024  69.5167542
   6.4768720  56.0271101  70.1305067   4.9924600  56.1908226  69.8823235
  16.2490790  66.8156999  71.1221278  16.7930694  67.4286957  70.6276233
  15.6677634  67.3736577  71.6388291   2.6262224  58.2170453  55.4485897
   2.9215665  57.3081131  55.3952951   1.7250260  58.1958192  55.1266900
  14.5348303  69.9377717  62.2536306  14.4099442  69.1367457  61.7447251
  15.1927394  70.4323910  61.7650276   6.1556471  56.2926449  61.4313446
   5.4343057  56.9062417  61.2920919   6.9449727  56.8284214  61.3530092
  16.5983211  67.7386737  63.8815856  15.6513546  67.6192088  63.8094182
  16.9465984  66.8509235  63.9642117   8.9582784  53.6280876  67.7054098
   9.4817186  53.8743172  68.4680407   8.7395118  54.4600911  67.2857235
   4.3550065  55.8984550  55.5725222   4.0262772  55.0181929  55.3900328
   4.7089436  55.8432219  56.4601612  13.6029644  67.5339453  60.0820208
  13.4554607  66.6056161  60.2627778  14.4283138  67.5559544  59.5977283
   7.4691889  56.1857520  55.9400700   7.8087961  56.7143441  55.2179308
   7.9164009  56.5237926  56.7159267  17.2063766  68.3568012  61.1685081
  18.1310314  68.1510873  61.0309532  17.0379069  68.1084413  62.0774422
  10.1635329  54.5694571  65.3903768   9.8232150  53.7702384  65.7924448
   9.4574336  54.8696282  64.8180601  10.8151801  51.6543883  63.8431091
  11.6377871  51.1804362  63.7209981  11.0589865  52.4334367  64.3429777
   9.4560036  54.6832142  54.1393993  10.1768398  55.0613395  53.6357710
   8.8325340  55.4021019  54.2428971  13.5991159  55.3877291  55.0752325
  13.8154773  56.2701929  54.7741153  13.1185226  54.9963504  54.3457967
   8.3390380  58.3463004  61.6523070   8.1934961  58.6603307  62.5447351
   7.8615584  58.9647904  61.0993968  10.1986763  55.3365552  61.7003959
  10.1848332  54.4406645  61.3636257  10.9159191  55.3436216  62.3342245
  12.0512894  55.7702892  63.7457087  11.7930671  56.6919963  63.7441417
  11.5197934  55.3733327  64.4357551  16.9959082  68.8753679  56.5247172
  17.1695960  68.3100102  55.7721025  17.4887974  69.6754574  56.3426662
   2.8136042  60.8868348  64.5910731   2.2689510  61.6628156  64.7231005
   3.6915392  61.2339153  64.4329852   9.6023659  54.2179932  56.9691529
   9.7239570  53.2896578  57.1682417   9.3125701  54.2318618  56.0569845
  12.4714849  51.9034843  60.1058249  12.4936546  51.9674176  59.1510229
  12.8882908  51.0639351  60.2998755  22.8498473  61.6390102  58.1437472
  23.2929620  60.8897427  57.7456595  21.9724984  61.6300239  57.7611204
  17.9834255  68.1920444  53.6244070  18.6785159  68.8127136  53.8431385
  18.3257405  67.3415795  53.8996448   3.6002064  60.0138245  67.4840888
   2.8583800  60.1620880  68.0705518   3.2794808  60.2746510  66.6207637
  19.8825678  65.6420149  55.1531401  20.4077002  65.9807422  54.4280721
  19.7948030  64.7067165  54.9694536  11.5445727  69.5554223  67.2821278
  11.8532853  69.3103370  68.1543977  12.3421209  69.7600861  66.7940148
  11.5666339  71.7092133  59.5126654  11.1271329  71.2168511  60.2059511
  12.3174456  71.1665100  59.2718730   4.0458678  67.9003673  59.5151282
   4.8716698  67.6007445  59.1349926   3.6952730  67.1311296  59.9641071
   9.0140211  67.2530142  61.5848956   8.3920220  66.5900847  61.2851184
   9.6845078  67.2791273  60.9022604   2.2467283  65.8190000  60.4740216
   1.4099191  65.3912174  60.2924217   2.2190928  66.0122443  61.4111007
   9.0864738  55.7311930  71.1781462   9.1352894  56.6074052  70.7959232
   9.6287253  55.1889323  70.6053105  19.5719584  66.2753053  70.4582599
  18.7815128  66.2577192  69.9187098  19.3352939  66.8141347  71.2131636
  19.6917459  63.1245519  67.7715328  19.7415464  62.9595527  68.7130850
  19.5831382  62.2572778  67.3813208   8.5753718  65.8034065  55.0607417
   8.7241838  66.4869529  54.4074089   9.3820161  65.7839155  55.5756872
  16.9821221  59.1076447  69.0874634  17.8831084  58.9682912  68.7958632
  17.0569196  59.2730902  70.0272812  11.3164027  56.4843302  67.9327821
  10.4467336  56.7776868  67.6610409  11.5523507  57.0683747  68.6535084
  21.1935656  65.5442461  68.0157349  20.9020464  65.9072441  68.8520810
  20.5807787  64.8309469  67.8370681  22.3931338  63.1095341  60.5359919
  23.2278230  63.5485145  60.6997480  22.5290467  62.6333994  59.7168165
  19.4422844  60.6675075  66.4837407  19.9176966  60.8602722  65.6756259
  18.5188409  60.7234261  66.2380791   6.3306351  61.8299243  56.0668485
   6.0852393  60.9261573  56.2648696   6.5002265  61.8316393  55.1247963
  14.0203061  52.7022919  65.4493241  14.5385004  53.4383946  65.1239730
  13.6658193  53.0086912  66.2840000   5.6001998  57.5627600  53.5654647
   4.9071243  57.6371955  52.9094683   5.3553750  56.7987944  54.0876164
  14.2715655  49.1223201  60.9694138  14.5517409  48.4546391  61.5954564
  15.0566262  49.3152297  60.4568801  12.0749123  68.2982195  52.5319164
  11.5023090  68.9172383  52.0789636  12.6481917  68.8481557  53.0659086
  18.1424513  57.5440835  64.7165713  19.0941936  57.6438933  64.7377937
  17.9727964  56.7519104  65.2263797  16.1638893  54.6296419  64.9025114
  15.5688825  54.9101431  64.2071602  15.8788589  55.1190320  65.6741855
  15.2946383  68.5819346  53.6627746  16.2277056  68.5164907  53.8660622
  15.2069596  69.4175612  53.2042279  17.9234400  67.8985216  50.6231694
  17.8448031  67.5645079  51.5167452  18.7444066  68.3906984  50.6223166
  20.6212591  60.7646955  63.8308012  20.5888911  59.8262956  64.0167696
  21.2313215  60.8430992  63.0973837  12.4595922  59.6343008  49.8735216
  13.4055026  59.5049216  49.9423634  12.0810167  58.8957670  50.3504645
  20.7707079  57.5557999  63.8766296  20.2546128  56.7716455  63.6896224
  21.6547028  57.2276715  64.0412815  18.4317806  51.2999014  59.8362108
  18.2342627  50.9914102  60.7205440  19.0417512  52.0260653  59.9660038
  26.4389141  61.8262962  62.9714049  27.1692529  61.5648250  63.5321753
  25.8296086  61.0891684  63.0116117  24.5204438  59.9670825  63.5688500
  23.7937601  59.8326790  62.9604992  24.1051725  60.2747653  64.3745218
  12.3434614  63.6860754  71.3335873  13.2637624  63.8639353  71.5275920
  12.3084197  62.7416800  71.1815573  10.6438839  57.5592985  49.8090102
   9.7370294  57.2626097  49.8852815  10.9214820  57.2622803  48.9424388
   1.5616779  58.8799348  60.2589148   1.2419564  58.0264656  59.9663522
   1.0150207  59.0947926  61.0147115   5.3396687  61.5961789  63.9758655
   5.5582697  62.5278897  63.9946688   5.7522461  61.2369763  64.7613458
  12.2600905  52.1029874  55.9634343  11.4501633  51.7576959  56.3389589
  12.9485322  51.7937418  56.5521955  14.1891453  51.1807921  57.5858640
  14.7422492  51.6003374  58.2448663  14.4261539  50.2543669  57.6281596
  10.2124552  57.1694995  73.3661403  10.1121279  58.1189352  73.2973495
   9.9946094  56.8413234  72.4937474   9.4137624  54.4179920  49.9502081
  10.2756788  54.7434818  50.2097898   9.5987968  53.6311416  49.4375147
   1.4305039  62.5002259  62.2282270   0.7368511  62.0856212  61.7152224
   2.1778030  62.5422796  61.6315689  17.5670260  53.2908446  57.0937304
  16.9868929  53.9493250  56.7115356  17.3006193  52.4685791  56.6824721
  16.0173826  52.6913504  59.2958624  16.5173605  52.8030038  58.4872943
  16.6609434  52.3874557  59.9359433  10.0755822  60.5992134  72.1826465
   9.5922904  61.3992494  72.3890354  10.1616761  60.6100078  71.2293909
   3.3441782  62.4320513  60.1048285   3.3212470  62.5308200  59.1530168
   3.6542418  63.2785664  60.4265451   6.0029160  64.4896668  64.2194899
   6.9572413  64.4580611  64.1524830   5.8041683  64.0287292  65.0345125
   6.5928542  63.0597784  66.7865697   7.4121431  63.5541863  66.8100534
   6.8665350  62.1429752  66.7583264  16.3495138  55.4508537  56.1493652
  15.4620993  55.7358187  55.9313847  16.7649127  55.2902300  55.3020929
  19.7009674  55.4755058  59.8647991  20.4770064  55.9651510  60.1372608
  18.9757808  55.9013112  60.3219861  22.1382233  56.1882677  60.9221932
  22.7326724  55.9478413  60.2115240  22.2108816  55.4689807  61.5495468
   4.3579388  70.0316288  61.2365097   4.2233856  69.2716689  60.6703095
   3.9411451  70.7557188  60.7693886  15.4938351  65.2153211  50.2441672
  16.1974202  65.4203214  50.8599328  14.7701000  65.7829973  50.5090756
  16.3236162  60.9663073  56.3643942  16.2671363  61.4231624  55.5251575
  16.8764504  60.2053757  56.1866785  20.1340968  56.7552804  57.1894062
  19.8777902  56.3549440  58.0202269  19.5093836  57.4696598  57.0644201
  24.4453306  59.4948878  59.6965353  23.8852864  59.5642067  60.4696915
  23.8396809  59.3189862  58.9764849   7.5148514  70.9285605  61.4483539
   7.3980898  71.8731037  61.3462230   6.6940961  70.6259166  61.8369339
  17.4025049  65.6535740  52.2940132  18.2370653  65.2216939  52.1117607
  17.2409392  65.4817754  53.2217027  17.0570941  62.1567854  53.6596471
  17.0019745  61.9912125  52.7184916  16.4316996  62.8643887  53.8158661
   1.8463456  57.3935918  67.4857894   2.4922320  56.8834872  67.9745119
   1.6380607  58.1304600  68.0601319  14.3716848  64.4616766  72.9850034
  15.2408008  64.6357418  72.6236669  13.8923600  65.2811182  72.8625764
  10.3667067  51.6575963  53.2381790  10.3545736  52.6017803  53.3950061
  11.2590488  51.4746108  52.9441251   8.5403028  71.5813867  64.6639468
   9.4430275  71.6137477  64.9805963   8.3140399  70.6514318  64.6785804
  10.2956630  70.3344853  61.3249547   9.3452261  70.3346715  61.2113919
  10.5989117  69.5877588  60.8085581  14.1819186  48.2518739  57.4927727
  13.4151582  47.6977226  57.6384409  14.5929891  48.3240608  58.3541878
   6.1860947  54.5403535  71.5832908   7.0492409  54.1840340  71.7936232
   5.6126358  54.2017430  72.2708312  18.6985846  77.9768296  58.3153725
  18.1350711  77.8858233  57.5470012  18.5838241  77.1568201  58.7956217
  16.2450278  79.4719488  61.1537945  17.0371570  79.1310312  60.7384244
  16.4846928  79.5814463  62.0740098  24.2785405  81.6439264  53.6268189
  23.6273384  82.2293344  53.2402203  25.0729767  82.1745459  53.6863227
  18.2041032  78.7328401  54.0255324  18.9771908  78.1857388  53.8868200
  18.5566431  79.5972650  54.2369785  20.0426074  80.0604783  67.2322223
  19.7515940  80.9650414  67.1168889  20.6783059  80.1021311  67.9466293
  20.9682281  77.4381632  63.8223583  21.5645853  77.2137654  63.1080546
  21.0257253  76.6966377  64.4249031  20.5407310  74.8921067  51.6573774
  20.7932830  74.3702588  50.8957237  19.6031869  74.7287213  51.7600457
  25.7560670  79.3329696  54.1637174  25.1206503  79.4064322  54.8758078
  25.4258076  79.9223295  53.4856253  20.2603598  76.7949173  53.8598149
  20.1439856  76.1194076  54.5279233  20.3705858  76.3081547  53.0430302
  22.6035139  76.2559320  57.5644838  22.2393347  75.7289941  58.2757759
  23.4602255  75.8657789  57.3911323  22.2440626  71.2849220  52.5606186
  22.4115029  72.1529456  52.9276657  22.0537795  71.4476502  51.6367476
  25.0015959  79.7466199  64.2272017  24.7016683  80.6491238  64.1187824
  24.6567019  79.4798382  65.0793170  18.4528441  76.1979996  60.2608721
  17.5278937  76.0656210  60.4686413  18.7012854  76.9774215  60.7578664
  22.2229847  73.7406877  53.5452853  22.1029472  74.1863928  54.3838334
  21.5282436  74.0892195  52.9866391  15.8137252  75.8413269  61.0952510
  15.9429633  76.0947748  62.0091922  15.1334703  76.4340977  60.7757165
  19.9836739  86.5110519  57.1942984  19.9060769  87.4618344  57.2731465
  19.3798383  86.1656392  57.8517911  27.9214913  74.2128351  54.3733187
  28.8332769  74.4455737  54.1980885  27.4124560  74.7965395  53.8108266
  20.7300341  76.4923838  69.4122318  21.4715026  77.0308882  69.1357142
  20.0237327  77.1190127  69.5693870  26.5284496  79.1954169  61.7646769
  25.8993358  79.3599883  61.0622837  26.1410158  79.6095779  62.5357733
  30.4073728  80.1308607  59.1191133  29.7224766  80.5107508  58.5688166
  30.4917577  80.7403933  59.8523080  22.0812458  78.9328577  59.0296854
  22.5450803  79.2116280  58.2401476  21.8169256  78.0312022  58.8469945
  18.9736539  78.4800059  61.9676617  19.5437896  78.9087327  61.3294102
  19.5644650  78.1982643  62.6660803  21.0181344  75.0551729  55.8386419
  21.7205387  75.5072773  56.3060345  20.6861972  74.4135548  56.4666312
  19.4661705  73.6463486  70.2137628  18.8360366  74.3279767  70.4473025
  19.3597793  73.5346568  69.2690767  14.7606678  73.3135282  61.1403553
  13.9705732  73.5692811  60.6643663  15.2517925  74.1283620  61.2455593
  28.7770487  80.6540521  63.8908833  29.5987931  80.2520709  63.6091515
  28.7732890  80.5508755  64.8424949  16.7121423  73.6779861  58.0987029
  15.9152586  73.7898556  58.6170525  16.4847015  74.0166514  57.2327920
  22.5427091  80.2024565  66.0469544  22.6071523  80.6644972  66.8827716
  21.8338014  79.5721929  66.1751854  13.0444381  73.5665773  63.5718543
  13.2952419  74.4512782  63.8376119  13.5803929  73.3870374  62.7993635
  22.2575108  81.8692672  55.9148524  22.1220783  82.7144208  56.3433372
  22.7984921  82.0711950  55.1514458  18.7442448  67.9484252  72.5762879
  18.3509393  67.3950450  73.2510524  19.5608588  68.2594830  72.9669397
  15.7104506  79.3868110  56.4876449  16.2229026  80.1811360  56.6382014
  16.3627218  78.6894401  56.4210051  17.5199390  82.5033866  58.5699202
  17.6966019  83.4251831  58.3820186  18.3156224  82.1892286  58.9993582
  21.6610409  69.3642131  70.1683136  22.4020122  69.9649284  70.0887598
  21.8928332  68.6219769  69.6101179  16.8051747  74.5498498  68.4461366
  16.6905262  73.6483755  68.7468465  15.9496265  74.7962195  68.0946182
  23.8843585  82.4916239  70.0448866  23.4407439  81.7052617  69.7269771
  24.5460798  82.6795389  69.3792757  18.6430706  84.0212040  64.5709545
  19.1938131  83.8929103  63.7986539  17.8042182  84.3206929  64.2204438
  25.9824823  82.7719038  68.0730268  25.9643298  83.5927920  67.5810537
  26.9044743  82.6473114  68.2980409  22.4397877  80.2863168  68.9153776
  22.9726214  79.5251456  68.6853084  21.9111958  79.9936820  69.6577930
  13.6753422  77.7156764  57.2636020  14.5128644  78.1253773  57.0469728
  13.8531690  76.7756207  57.2336214  25.5717854  75.3831845  52.9519853
  25.0564478  76.1536450  53.1908240  25.2995163  74.7096981  53.5752914
  23.1564966  70.2281546  58.0105091  22.3006562  69.8388396  57.8310730
  23.5691917  70.3073507  57.1504877  20.9306998  67.8466619  61.4162833
  21.7959995  67.6509427  61.0568722  20.9984507  67.6176971  62.3432189
  30.5452129  78.1364200  54.8873026  29.7681571  77.7975359  54.4428188
  31.2243610  78.1416823  54.2127991  25.3604158  73.2558937  54.7779634
  25.0554293  73.5705086  55.6289777  26.3134600  73.3340357  54.8206967
  23.8050589  79.4149160  56.4272588  23.2771951  78.6801920  56.1145825
  23.3038092  80.1923837  56.1812556  18.5369317  70.0768827  58.7879199
  19.1113069  69.8544008  58.0552392  19.1240300  70.1457521  59.5407801
  18.8638904  72.1073288  52.8075085  18.0276216  72.4447974  53.1284359
  18.7243674  71.9722268  51.8702222  20.8391985  66.9510076  57.5154269
  20.1856397  66.6359093  56.8910884  20.7972459  66.3285816  58.2414092
  21.9503190  77.2329371  49.4307561  21.0430251  77.0018624  49.6298710
  22.4474222  76.4366990  49.6181543  24.8571269  85.9426878  52.3504247
  24.1832967  86.2458575  52.9589205  25.2437091  86.7455958  52.0009704
  23.1291423  77.3341966  53.9531551  22.2202642  77.0500998  54.0504021
  23.1586507  77.7541044  53.0934858  28.3610691  80.9448555  57.7222719
  27.9073018  80.1039465  57.7787909  27.7304657  81.5809953  58.0597499
  26.8043630  82.7825052  58.6572537  27.0966604  83.3430109  57.9384902
  27.3142250  83.0753613  59.4125696  27.4055237  64.6516793  59.5465155
  27.7114114  63.7914157  59.2591070  28.1307842  65.2434413  59.3464149
  13.6979593  75.0547480  57.9346753  13.5003993  74.4616840  57.2097820
  13.1426257  74.7499690  58.6522692  22.8267511  78.8750709  51.2919630
  22.3886941  78.1586568  50.8325267  23.5677952  79.1026824  50.7304721
  19.6168677  73.5647646  57.8131725  18.8036543  73.8641816  58.2196917
  20.1127671  73.1703335  58.5306208  21.7677255  83.5605403  59.7465990
  21.7253434  83.7866249  58.8174522  22.6839954  83.3268777  59.8951791
  30.9440626  77.1507906  57.3495948  30.8058524  77.3409502  56.4217137
  30.5876845  77.9127289  57.8063999  19.1082752  71.1366001  63.4292960
  19.7482131  70.9954761  62.7315924  18.2760282  70.8500515  63.0531562
  19.8843056  80.4368432  59.5427953  20.6783654  79.9418752  59.3410528
  19.1734748  79.9086295  59.1795658  24.7037900  82.8186527  63.8940320
  24.7574922  83.3877464  64.6618036  23.8352682  82.9888412  63.5294357
  16.1925819  74.5811514  55.6187705  15.2623407  74.5195969  55.8357668
  16.2883291  74.0587466  54.8224347  16.1111368  71.1066326  58.2065947
  16.3718186  72.0211660  58.0975108  16.9328541  70.6390769  58.3562560
  17.5836294  72.5204084  65.3764772  18.2559347  72.3121446  64.7277420
  16.7566080  72.3226170  64.9370004  22.4614332  81.0097454  63.2225790
  22.3225417  80.6416238  64.0951728  21.6728928  81.5245093  63.0509748
  23.0562484  86.1106550  54.5651326  23.2314239  85.6394594  55.3796949
  22.3695272  86.7372317  54.7932587  24.0119547  80.3879057  60.6114628
  23.6769379  80.3479827  61.5072277  23.5123493  79.7223772  60.1385038
  17.9863791  75.7946687  66.1367209  17.8483589  75.0626925  66.7378748
  18.8968714  75.7055587  65.8551396  26.9478739  77.7335091  50.8851687
  26.3307909  77.0081919  50.7884740  26.4795227  78.4944451  50.5418761
  28.6032870  82.4433999  68.5457468  28.5445416  81.7593219  67.8788051
  29.0052389  83.1852989  68.0938094  17.6223569  89.2595913  61.3391186
  17.8620167  89.8914437  62.0170205  16.7792765  88.9083953  61.6256546
  18.7377284  71.9520515  50.0072992  17.8606751  71.8309316  49.6435238
  19.2135038  71.1606593  49.7551880  28.6050277  80.4073583  66.7771447
  27.7177056  80.0699505  66.8997846  29.1748829  79.6756614  67.0140213
  10.2579425  76.7397675  60.1014499  10.9450464  76.4259405  59.5135514
  10.1027553  77.6439040  59.8281750  15.0614147  71.6287871  64.5299522
  14.9772335  71.0213541  63.7949932  14.2396853  72.1196890  64.5309019
  22.1351431  85.0675036  63.7432690  22.0621602  85.8730007  64.2551995
  21.6928824  85.2667001  62.9180712  21.9241210  84.3046806  57.2535512
  21.1408732  84.8468486  57.3473737  22.6233956  84.8220785  57.6529753
  24.5950114  84.9661870  65.8990849  25.3078087  85.6009334  65.8266751
  24.1040143  85.0625736  65.0830851  26.3167641  78.8713122  57.4708141
  25.3823920  78.9914585  57.3012845  26.4944310  77.9685589  57.2068151
  19.6462028  82.7156313  66.7196420  20.3471487  83.3492796  66.8725814
  19.1757143  83.0571045  65.9592059  27.7716424  81.0574263  55.0044327
  28.0476268  80.9430857  55.9138201  26.9020922  80.6591748  54.9656500
  24.4070488  85.3060614  58.6477141  24.5892882  84.4882270  59.1104893
  25.2303474  85.5228306  58.2102031  24.7412653  84.2328799  55.9092189
  25.2700420  83.7221253  55.2962351  25.0040873  83.9171329  56.7737722
  15.2429746  82.2492668  63.6527523  15.8283183  81.5036356  63.7855427
  15.0454584  82.5596625  64.5364187  18.0968401  85.2843915  58.6689965
  17.4278776  85.7690043  58.1854005  17.9581271  85.5313136  59.5833344
   9.8347401  74.8198268  62.3731966   9.8731500  74.2861859  63.1669084
   9.3287694  74.2933474  61.7542943  22.2373670  87.3187659  65.2672623
  22.7891978  87.4819280  66.0321709  22.5779863  87.9092097  64.5952648
  17.2138163  69.6662809  65.8694508  17.2779489  70.5277640  65.4571906
  17.1505283  69.0536810  65.1366867  16.6890436  71.7385941  69.5167542
  17.3162474  71.3563019  70.1305067  15.8318354  71.5200143  69.8823235
  27.0884544  82.1448916  71.1221278  27.6324448  82.7578875  70.6276233
  26.5071389  82.7028495  71.6388291  13.4655978  73.5462370  55.4485897
  13.7609419  72.6373049  55.3952951  12.5644014  73.5250110  55.1266900
  25.3742057  85.2669634  62.2536306  25.2493197  84.4659374  61.7447251
  26.0321148  85.7615828  61.7650276  16.9950225  71.6218367  61.4313446
  16.2736811  72.2354335  61.2920919  17.7843481  72.1576132  61.3530092
  27.4376965  83.0678655  63.8815856  26.4907301  82.9484006  63.8094182
  27.7859739  82.1801153  63.9642117  19.7976539  68.9572793  67.7054098
  20.3210941  69.2035090  68.4680407  19.5788872  69.7892828  67.2857235
  15.1943820  71.2276468  55.5725222  14.8656526  70.3473847  55.3900328
  15.5483191  71.1724137  56.4601612  24.4423399  82.8631371  60.0820208
  24.2948361  81.9348078  60.2627778  25.2676892  82.8851462  59.5977283
  18.3085643  71.5149438  55.9400700  18.6481716  72.0435359  55.2179308
  18.7557763  71.8529844  56.7159267  28.0457521  83.6859930  61.1685081
  28.9704068  83.4802791  61.0309532  27.8772824  83.4376331  62.0774422
  21.6545556  66.9835801  63.8431091  22.4771625  66.5096279  63.7209981
  21.8983619  67.7626285  64.3429777  20.2953790  70.0124059  54.1393993
  21.0162153  70.3905312  53.6357710  19.6719094  70.7312936  54.2428971
  24.4384913  70.7169208  55.0752325  24.6548527  71.5993846  54.7741153
  23.9578980  70.3255422  54.3457967  19.1784134  73.6754922  61.6523070
  19.0328715  73.9895225  62.5447351  18.7009338  74.2939822  61.0993968
  21.0380517  70.6657470  61.7003959  21.0242086  69.7698563  61.3636257
  21.7552945  70.6728133  62.3342245  27.8352837  84.2045597  56.5247172
  28.0089714  83.6392019  55.7721025  28.3281728  85.0046492  56.3426662
  13.6529797  76.2160266  64.5910731  13.1083265  76.9920074  64.7231005
  14.5309146  76.5631071  64.4329852  20.4417413  69.5471850  56.9691529
  20.5633324  68.6188496  57.1682417  20.1519456  69.5610536  56.0569845
  23.3108604  67.2326760  60.1058249  23.3330300  67.2966093  59.1510229
  23.7276663  66.3931269  60.2998755  33.6892228  76.9682020  58.1437472
  34.1323374  76.2189345  57.7456595  32.8118738  76.9592156  57.7611204
  28.8228009  83.5212361  53.6244070  29.5178914  84.1419054  53.8431385
  29.1651159  82.6707713  53.8996448  14.4395818  75.3430162  67.4840888
  13.6977554  75.4912798  68.0705518  14.1188563  75.6038428  66.6207637
  30.7219432  80.9712067  55.1531401  31.2470756  81.3099340  54.4280721
  30.6341785  80.0359082  54.9694536  22.3839481  84.8846141  67.2821278
  22.6926608  84.6395287  68.1543977  23.1814963  85.0892779  66.7940148
  22.4060093  87.0384050  59.5126654  21.9665083  86.5460429  60.2059511
  23.1568210  86.4957018  59.2718730  14.8852432  83.2295591  59.5151282
  15.7110452  82.9299363  59.1349926  14.5346484  82.4603213  59.9641071
  19.8533965  82.5822059  61.5848956  19.2313975  81.9192764  61.2851184
  20.5238832  82.6083191  60.9022604  13.0861037  81.1481918  60.4740216
  12.2492945  80.7204092  60.2924217  13.0584683  81.3414361  61.4111007
  19.9258493  71.0603847  71.1781462  19.9746648  71.9365970  70.7959232
  20.4681007  70.5181240  70.6053105  30.4113338  81.6044971  70.4582599
  29.6208882  81.5869109  69.9187098  30.1746693  82.1433264  71.2131636
  19.4147472  81.1325983  55.0607417  19.5635593  81.8161447  54.4074089
  20.2213916  81.1131073  55.5756872  32.0329410  80.8734378  68.0157349
  31.7414219  81.2364359  68.8520810  31.4201542  80.1601387  67.8370681
  33.2325093  78.4387258  60.5359919  34.0671984  78.8777062  60.6997480
  33.3684221  77.9625911  59.7168165  17.1700105  77.1591160  56.0668485
  16.9246147  76.2553490  56.2648696  17.3396020  77.1608311  55.1247963
  16.4395753  72.8919518  53.5654647  15.7464998  72.9663873  52.9094683
  16.1947505  72.1279861  54.0876164  25.1109409  64.4515119  60.9694138
  25.3911163  63.7838308  61.5954564  25.8960016  64.6444215  60.4568801
  22.9142878  83.6274113  52.5319164  22.3416845  84.2464300  52.0789636
  23.4875671  84.1773475  53.0659086  26.1340138  83.9111263  53.6627746
  27.0670811  83.8456825  53.8660622  26.0463350  84.7467530  53.2042279
  28.7628154  83.2277134  50.6231694  28.6841786  82.8936997  51.5167452
  29.5837821  83.7198901  50.6223166  23.2989676  74.9634926  49.8735216
  24.2448781  74.8341134  49.9423634  22.9203921  74.2249588  50.3504645
  29.2711561  66.6290932  59.8362108  29.0736382  66.3206020  60.7205440
  29.8811266  67.3552571  59.9660038  23.1828369  79.0152672  71.3335873
  24.1031378  79.1931271  71.5275920  23.1477952  78.0708717  71.1815573
  21.4832593  72.8884902  49.8090102  20.5764049  72.5918015  49.8852815
  21.7608574  72.5914720  48.9424388  12.4010534  74.2091266  60.2589148
  12.0813318  73.3556574  59.9663522  11.8543962  74.4239844  61.0147115
  16.1790441  76.9253707  63.9758655  16.3976451  77.8570814  63.9946688
  16.5916215  76.5661681  64.7613458  23.0994659  67.4321792  55.9634343
  22.2895387  67.0868877  56.3389589  23.7879076  67.1229336  56.5521955
  25.0285207  66.5099839  57.5858640  25.5816246  66.9295292  58.2448663
  25.2655294  65.5835587  57.6281596  21.0518307  72.4986912  73.3661403
  20.9515034  73.4481269  73.2973495  20.8339849  72.1705151  72.4937474
  20.2531378  69.7471837  49.9502081  21.1150542  70.0726736  50.2097898
  20.4381722  68.9603333  49.4375147  12.2698794  77.8294177  62.2282270
  11.5762265  77.4148130  61.7152224  13.0171785  77.8714714  61.6315689
  26.8567581  68.0205422  59.2958624  27.3567359  68.1321956  58.4872943
  27.5003189  67.7166474  59.9359433  20.9149577  75.9284051  72.1826465
  20.4316658  76.7284411  72.3890354  21.0010516  75.9391996  71.2293909
  14.1835536  77.7612431  60.1048285  14.1606224  77.8600118  59.1530168
  14.4936173  78.6077582  60.4265451  16.8422914  79.8188586  64.2194899
  17.7966168  79.7872528  64.1524830  16.6435438  79.3579210  65.0345125
  17.4322296  78.3889702  66.7865697  18.2515185  78.8833781  66.8100534
  17.7059104  77.4721670  66.7583264  27.1888893  70.7800454  56.1493652
  26.3014748  71.0650105  55.9313847  27.6042882  70.6194218  55.3020929
  15.1973143  85.3608205  61.2365097  15.0627611  84.6008606  60.6703095
  14.7805205  86.0849105  60.7693886  26.3332106  80.5445129  50.2441672
  27.0367956  80.7495131  50.8599328  25.6094755  81.1121891  50.5090756
  27.1629916  76.2954990  56.3643942  27.1065118  76.7523542  55.5251575
  27.7158259  75.5345675  56.1866785  35.2847060  74.8240795  59.6965353
  34.7246618  74.8933985  60.4696915  34.6790563  74.6481780  58.9764849
  18.3542269  86.2577522  61.4483539  18.2374653  87.2022955  61.3462230
  17.5334715  85.9551084  61.8369339  28.2418803  80.9827658  52.2940132
  29.0764407  80.5508857  52.1117607  28.0803146  80.8109672  53.2217027
  27.8964696  77.4859771  53.6596471  27.8413499  77.3204043  52.7184916
  27.2710751  78.1935804  53.8158661  12.6857211  72.7227836  67.4857894
  13.3316074  72.2126790  67.9745119  12.4774362  73.4596517  68.0601319
  25.2110603  79.7908683  72.9850034  26.0801762  79.9649336  72.6236669
  24.7317354  80.6103100  72.8625764  21.2060821  66.9867880  53.2381790
  21.1939491  67.9309720  53.3950061  22.0984243  66.8038026  52.9441251
  19.3796783  86.9105784  64.6639468  20.2824030  86.9429395  64.9805963
  19.1534153  85.9806235  64.6785804  21.1350385  85.6636771  61.3249547
  20.1846016  85.6638632  61.2113919  21.4382871  84.9169505  60.8085581
  25.0212940  63.5810657  57.4927727  24.2545336  63.0269144  57.6384409
  25.4323645  63.6532526  58.3541878  17.0254702  69.8695453  71.5832908
  17.8886163  69.5132258  71.7936232  16.4520112  69.5309348  72.2708312
  36.8703078  91.4997309  62.3895309  37.5081488  91.3804057  61.6858649
  36.7523921  92.4478153  62.4483261  33.6792785  91.4524737  62.3256834
  33.3411296  91.3365802  61.4377368  34.5482553  91.0515902  62.3057840
  29.5379600  93.3060214  58.3153725  28.9744466  93.2150151  57.5470012
  29.4231995  92.4860118  58.7956217  34.1612568  92.6059589  68.2843039
  34.1501209  92.2112387  67.4123543  34.3233207  91.8725662  68.8776811
  27.0844032  94.8011405  61.1537945  27.8765324  94.4602230  60.7384244
  27.3240683  94.9106380  62.0740098  35.1179159  96.9731181  53.6268189
  34.4667139  97.5585262  53.2402203  35.9123522  97.5037376  53.6863227
  29.0434786  94.0620319  54.0255324  29.8165662  93.5149306  53.8868200
  29.3960185  94.9264568  54.2369785  30.8819829  95.3896701  67.2322223
  30.5909695  96.2942332  67.1168889  31.5176813  95.4313229  67.9466293
  31.8076036  92.7673549  63.8223583  32.4039608  92.5429572  63.1080546
  31.8651007  92.0258295  64.4249031  31.3801064  90.2212985  51.6573774
  31.6326585  89.6994506  50.8957237  30.4425623  90.0579130  51.7600457
  36.4244347  89.2248763  59.4648517  37.2107436  88.8068186  59.1138934
  36.6883051  90.1294855  59.6330165  36.5954424  94.6621613  54.1637174
  35.9600257  94.7356240  54.8758078  36.2651831  95.2515212  53.4856253
  41.8252774  89.1623996  60.3681495  42.5577946  88.5923213  60.6019325
  41.0692130  88.7745597  60.8088001  31.0997353  92.1241091  53.8598149
  30.9833611  91.4485994  54.5279233  31.2099613  91.6373465  53.0430302
  33.4428894  91.5851238  57.5644838  33.0787101  91.0581859  58.2757759
  34.2996010  91.1949707  57.3911323  33.0834381  86.6141137  52.5606186
  33.2508783  87.4821374  52.9276657  32.8931550  86.7768419  51.6367476
  35.8409714  95.0758116  64.2272017  35.5410437  95.9783155  64.1187824
  35.4960773  94.8090300  65.0793170  29.2922195  91.5271913  60.2608721
  28.3672692  91.3948127  60.4686413  29.5406609  92.3066132  60.7578664
  39.2406858  87.5940657  61.9069454  38.3323735  87.5256065  61.6128215
  39.1894454  88.0712602  62.7351280  33.0623602  89.0698795  53.5452853
  32.9423227  89.5155846  54.3838334  32.3676190  89.4184113  52.9866391
  26.6531006  91.1705187  61.0952510  26.7823388  91.4239666  62.0091922
  25.9728458  91.7632895  60.7757165  30.8230494 101.8402437  57.1942984
  30.7454523 102.7910262  57.2731465  30.2192137 101.4948309  57.8517911
  33.3147724  89.0130302  69.8504351  32.5381058  89.5724222  69.8407216
  33.9538287  89.4987085  70.3719221  41.1068504  85.7957095  63.6847328
  40.4642884  86.0889628  63.0387123  40.6023433  85.6810015  64.4900525
  38.7608668  89.5420268  54.3733187  39.6726524  89.7747655  54.1980885
  38.2518315  90.1257312  53.8108266  31.5694096  91.8215756  69.4122318
  32.3108780  92.3600800  69.1357142  30.8631081  92.4482044  69.5693870
  37.0449435  93.9644896  68.0094480  37.4532792  93.5227307  67.2649112
  36.3226697  93.3897524  68.2628673  33.3980506  88.9017503  65.3828037
  34.2441701  89.3256916  65.5262686  33.3379143  88.2451127  66.0766600
  37.3678250  94.5246087  61.7646769  36.7387113  94.6891801  61.0622837
  36.9803912  94.9387696  62.5357733  41.2467482  95.4600524  59.1191133
  40.5618520  95.8399426  58.5688166  41.3311331  96.0695851  59.8523080
  36.5479951  86.5621871  67.0409210  36.3040883  87.3163932  66.5043486
  36.8239881  86.9407219  67.8756458  38.5018414  93.1060484  65.7186476
  38.7135309  93.7492243  65.0420857  38.4548162  92.2722800  65.2508406
  36.1044643  85.7178304  62.6223048  35.2429122  86.0159558  62.9139786
  36.1307077  85.9348703  61.6904081  32.9206212  94.2620495  59.0296854
  33.3844558  94.5408198  58.2401476  32.6563010  93.3603939  58.8469945
  29.8130293  93.8091976  61.9676617  30.3831650  94.2379245  61.3294102
  30.4038405  93.5274561  62.6660803  31.8575098  90.3843647  55.8386419
  32.5599141  90.8364691  56.3060345  31.5255727  89.7427466  56.4666312
  30.3055460  88.9755404  70.2137628  29.6754120  89.6571685  70.4473025
  30.1991547  88.8638485  69.2690767  25.6000432  88.6427200  61.1403553
  24.8099486  88.8984728  60.6643663  26.0911679  89.4575538  61.2455593
  39.6164242  95.9832439  63.8908833  40.4381685  95.5812626  63.6091515
  39.6126644  95.8800673  64.8424949  27.5515177  89.0071779  58.0987029
  26.7546341  89.1190473  58.6170525  27.3240770  89.3458431  57.2327920
  33.3820845  95.5316482  66.0469544  33.4465278  95.9936889  66.8827716
  32.6731769  94.9013847  66.1751854  23.8838135  88.8957690  63.5718543
  24.1346173  89.7804700  63.8376119  24.4197683  88.7162292  62.7993635
  47.7070235  92.3271187  60.2393805  46.9533943  91.7578585  60.0837809
  47.8417776  92.2933852  61.1864440  33.0968863  97.1984590  55.9148524
  32.9614537  98.0436125  56.3433372  33.6378675  97.4003867  55.1514458
  29.5836202  83.2776170  72.5762879  29.1903148  82.7242368  73.2510524
  30.4002343  83.5886748  72.9669397  26.5498260  94.7160028  56.4876449
  27.0622781  95.5103278  56.6382014  27.2020973  94.0186318  56.4210051
  28.3593145  97.8325784  58.5699202  28.5359773  98.7543749  58.3820186
  29.1549978  97.5184203  58.9993582  32.5004163  84.6934049  70.1683136
  33.2413877  85.2941202  70.0887598  32.7322086  83.9511686  69.6101179
  27.6445501  89.8790416  68.4461366  27.5299016  88.9775673  68.7468465
  26.7890019  90.1254113  68.0946182  34.7237339  97.8208156  70.0448866
  34.2801193  97.0344535  69.7269771  35.3854553  98.0087307  69.3792757
  29.4824460  99.3503958  64.5709545  30.0331885  99.2221021  63.7986539
  28.6435936  99.6498847  64.2204438  36.8218577  98.1010956  68.0730268
  36.8037052  98.9219837  67.5810537  37.7438497  97.9765031  68.2980409
  33.2791631  95.6155086  68.9153776  33.8119968  94.8543374  68.6853084
  32.7505712  95.3228737  69.6577930  24.5147177  93.0448682  57.2636020
  25.3522399  93.4545690  57.0469728  24.6925445  92.1048124  57.2336214
  36.4111609  90.7123763  52.9519853  35.8958232  91.4828367  53.1908240
  36.1388917  90.0388899  53.5752914  33.9958720  85.5573463  58.0105091
  33.1400316  85.1680314  57.8310730  34.4085672  85.6365424  57.1504877
  35.5257867  83.0919807  62.4096651  35.0222662  83.0549942  61.5964456
  35.8188474  84.0012549  62.4693308  31.7700753  83.1758536  61.4162833
  32.6353749  82.9801345  61.0568722  31.8378261  82.9468888  62.3432189
  41.3845883  93.4656117  54.8873026  40.6075326  93.1267277  54.4428188
  42.0637364  93.4708741  54.2127991  36.1997912  88.5850855  54.7779634
  35.8948048  88.8997004  55.6289777  37.1528354  88.6632275  54.8206967
  34.6444344  94.7441078  56.4272588  34.1165706  94.0093838  56.1145825
  34.1431847  95.5215754  56.1812556  39.6237190  92.9390099  61.5439634
  38.9660864  93.6289360  61.6319763  40.4277589  93.3286531  61.8873621
  29.3763072  85.4060744  58.7879199  29.9506823  85.1835926  58.0552392
  29.9634054  85.4749439  59.5407801  38.4342649  91.2934471  59.5943576
  38.9474531  91.9264463  60.0965286  39.0843873  90.6935667  59.2286936
  29.7032659  87.4365205  52.8075085  28.8669971  87.7739892  53.1284359
  29.5637428  87.3014185  51.8702222  31.6785739  82.2801993  57.5154269
  31.0250152  81.9651010  56.8910884  31.6366213  81.6577734  58.2414092
  32.7896944  92.5621288  49.4307561  31.8824006  92.3310542  49.6298710
  33.2867976  91.7658908  49.6181543  35.6965023 101.2718796  52.3504247
  35.0226722 101.5750492  52.9589205  36.0830845 102.0747876  52.0009704
  34.9123480  88.7683927  61.8401917  33.9946041  88.9898874  61.6823605
  35.3283623  88.8430237  60.9813624  35.6958527  90.1675343  56.9704597
  36.4430346  90.6796740  56.6611719  35.9650117  89.8459395  57.8308990
  33.9685178  92.6633883  53.9531551  33.0596397  92.3792916  54.0504021
  33.9980261  93.0832962  53.0934858  39.2004445  96.2740473  57.7222719
  38.7466772  95.4331383  57.7787909  38.5698412  96.9101871  58.0597499
  38.1437365  87.2032459  58.9523386  37.4060121  86.6909845  59.2833629
  38.3964138  86.7632840  58.1406663  37.6437384  98.1116969  58.6572537
  37.9360359  98.6722027  57.9384902  38.1536005  98.4045530  59.4125696
  38.2448992  79.9808711  59.5465155  38.5507869  79.1206074  59.2591070
  38.9701597  80.5726331  59.3464149  24.5373348  90.3839397  57.9346753
  24.3397748  89.7908758  57.2097820  23.9820012  90.0791608  58.6522692
  32.5170072  90.2762504  60.0541346  32.5718681  89.3236340  59.9783823
  31.7061274  90.4321943  60.5382645  33.6661265  94.2042627  51.2919630
  33.2280695  93.4878486  50.8325267  34.4071706  94.4318742  50.7304721
  30.4562432  88.8939564  57.8131725  29.6430297  89.1933734  58.2196917
  30.9521426  88.4995252  58.5306208  32.6071009  98.8897321  59.7465990
  32.5647188  99.1158167  58.8174522  33.5233708  98.6560695  59.8951791
  36.0536643  89.3581388  66.6446619  36.4086031  89.5852861  67.5041085
  36.7008774  89.6899765  66.0223874  41.7834380  92.4799824  57.3495948
  41.6452279  92.6701420  56.4217137  41.4270599  93.2419207  57.8063999
  29.9476506  86.4657919  63.4292960  30.5875886  86.3246678  62.7315924
  29.1154037  86.1792432  63.0531562  41.8103760  94.5476351  62.3607220
  42.2440266  94.4551640  63.2090274  42.5235340  94.5233851  61.7227236
  30.7236810  95.7660350  59.5427953  31.5177409  95.2710670  59.3410528
  30.0128503  95.2378213  59.1795658  35.5431655  98.1478445  63.8940320
  35.5968677  98.7169381  64.6618036  34.6746436  98.3180330  63.5294357
  27.0319574  89.9103431  55.6187705  26.1017162  89.8487887  55.8357668
  27.1277046  89.3879384  54.8224347  26.9505123  86.4358244  58.2065947
  27.2111940  87.3503577  58.0975108  27.7722295  85.9682687  58.3562560
  28.4230048  87.8496001  65.3764772  29.0953102  87.6413363  64.7277420
  27.5959835  87.6518087  64.9370004  42.6719309  94.5900052  64.8940105
  42.8655199  95.4945862  65.1399380  42.5719928  94.1307471  65.7278690
  34.3255620  84.4757942  67.3930432  33.6783535  85.1747892  67.2994909
  35.0956635  84.9094086  67.7606681  37.7334418  94.7406794  70.4680986
  37.5819924  94.5117346  69.5511069  37.7239098  95.6977396  70.4812331
  34.5019754  92.3138707  65.4527252  35.4311814  92.4649867  65.2796219
  34.0810784  92.4022728  64.5975899  33.3008086  96.3389372  63.2225790
  33.1619172  95.9708156  64.0951728  32.5122682  96.8537011  63.0509748
  33.8956238 101.4398468  54.5651326  34.0707994 100.9686511  55.3796949
  33.2089026 102.0664234  54.7932587  34.8513301  95.7170974  60.6114628
  34.5163134  95.6771744  61.5072277  34.3517247  95.0515690  60.1385038
  28.8257545  91.1238604  66.1367209  28.6877343  90.3918843  66.7378748
  29.7362469  91.0347504  65.8551396  37.7872493  93.0627009  50.8851687
  37.1701664  92.3373837  50.7884740  37.3188981  93.8236369  50.5418761
  31.4539846  90.8358564  65.6250888  32.1639465  90.1951756  65.5837507
  31.4109154  91.0871458  66.5477069  39.4426625  97.7725917  68.5457468
  39.3839171  97.0885137  67.8788051  39.8446143  98.5144907  68.0938094
  30.1668780  87.8223781  67.4446528  29.6306137  87.3714520  68.0968124
  29.5785488  87.9569690  66.7016992  28.4617323 104.5887831  61.3391186
  28.7013922 105.2206355  62.0170205  27.6186520 104.2375871  61.6256546
  29.5771039  87.2812433  50.0072992  28.7000505  87.1601234  49.6435238
  30.0528792  86.4898511  49.7551880  39.4444032  95.7365501  66.7771447
  38.5570811  95.3991423  66.8997846  40.0142583  95.0048532  67.0140213
  21.0973179  92.0689593  60.1014499  21.7844219  91.7551323  59.5135514
  20.9421308  92.9730957  59.8281750  25.9007901  86.9579789  64.5299522
  25.8166090  86.3505459  63.7949932  25.0790608  87.4488807  64.5309019
  32.9745185 100.3966953  63.7432690  32.9015357 101.2021925  64.2551995
  32.5322578 100.5958919  62.9180712  32.7634965  99.6338723  57.2535512
  31.9802487 100.1760403  57.3473737  33.4627710 100.1512703  57.6529753
  36.0731615  85.4433353  59.8969717  36.5700315  84.6903315  59.5770788
  35.3018597  85.4797669  59.3312927  43.9261372  91.1473718  61.5388009
  43.9151249  92.0298434  61.1681942  43.0578752  90.7945269  61.3442546
  35.4343869 100.2953787  65.8990849  36.1471841 100.9301252  65.8266751
  34.9433898 100.3917653  65.0830851  37.1561396  94.2005040  57.4708141
  36.2217675  94.3206502  57.3012845  37.3338064  93.2977507  57.2068151
  32.6566584  87.5850736  59.6241402  32.2864371  87.0321776  60.3122308
  33.1525676  86.9808869  59.0716402  40.5433947  90.0422359  58.0058175
  41.0094399  90.8750351  57.9318478  40.9941448  89.5767341  58.7103433
  30.4855782  98.0448231  66.7196420  31.1865242  98.6784714  66.8725814
  30.0150897  98.3862962  65.9592059  38.6110178  96.3866180  55.0044327
  38.8870022  96.2722775  55.9138201  37.7414677  95.9883665  54.9656500
  38.2857068  90.5992838  64.5448970  37.6328519  90.8468746  63.8901423
  38.6637448  89.7856976  64.2111448  35.2464242 100.6352531  58.6477141
  35.4286637  99.8174187  59.1104893  36.0697228 100.8520224  58.2102031
  35.5806408  99.5620716  55.9092189  36.1094174  99.0513171  55.2962351
  35.8434627  99.2463247  56.7737722  34.3344641  91.3412649  71.0315007
  33.6585278  91.2406779  71.7017383  35.1572275  91.1851863  71.4951005
  26.0823500  97.5784586  63.6527523  26.6676937  96.8328274  63.7855427
  25.8848339  97.8888542  64.5364187  28.9362156 100.6135833  58.6689965
  28.2672531 101.0981961  58.1854005  28.7975025 100.8605054  59.5833344
  20.6741155  90.1490186  62.3731966  20.7125255  89.6153777  63.1669084
  20.1681448  89.6225391  61.7542943  33.0767424 102.6479577  65.2672623
  33.6285732 102.8111198  66.0321709  33.4173618 103.2384014  64.5952648
  28.0531917  84.9954726  65.8694508  28.1173244  85.8569557  65.4571906
  27.9899038  84.3828728  65.1366867  27.5284190  87.0677859  69.5167542
  28.1556229  86.6854936  70.1305067  26.6712109  86.8492061  69.8823235
  37.9278299  97.4740834  71.1221278  38.4718203  98.0870792  70.6276233
  37.3465143  98.0320413  71.6388291  24.3049733  88.8754288  55.4485897
  24.6003174  87.9664967  55.3952951  23.4037769  88.8542028  55.1266900
  36.2135812 100.5961552  62.2536306  36.0886951  99.7951292  61.7447251
  36.8714903 101.0907746  61.7650276  27.8343980  86.9510285  61.4313446
  27.1130566  87.5646252  61.2920919  28.6237236  87.4868049  61.3530092
  38.2770720  98.3970572  63.8815856  37.3301055  98.2775923  63.8094182
  38.6253493  97.5093070  63.9642117  30.6370293  84.2864711  67.7054098
  31.1604695  84.5327008  68.4680407  30.4182627  85.1184746  67.2857235
  26.0337574  86.5568386  55.5725222  25.7050281  85.6765765  55.3900328
  26.3876945  86.5016054  56.4601612  35.2817153  98.1923288  60.0820208
  35.1342116  97.2639996  60.2627778  36.1070647  98.2143379  59.5977283
  29.1479398  86.8441356  55.9400700  29.4875470  87.3727277  55.2179308
  29.5951518  87.1821762  56.7159267  38.8851275  99.0151847  61.1685081
  39.8097823  98.8094709  61.0309532  38.7166578  98.7668248  62.0774422
  31.8422838  85.2278406  65.3903768  31.5019659  84.4286219  65.7924448
  31.1361845  85.5280117  64.8180601  32.4939310  82.3127719  63.8431091
  33.3165379  81.8388197  63.7209981  32.7377374  83.0918202  64.3429777
  31.1347545  85.3415977  54.1393993  31.8555907  85.7197230  53.6357710
  30.5112849  86.0604854  54.2428971  35.2778668  86.0461126  55.0752325
  35.4942282  86.9285764  54.7741153  34.7972735  85.6547340  54.3457967
  30.0177889  89.0046839  61.6523070  29.8722470  89.3187142  62.5447351
  29.5403093  89.6231740  61.0993968  31.8774272  85.9949387  61.7003959
  31.8635841  85.0990481  61.3636257  32.5946700  86.0020051  62.3342245
  33.7300403  86.4286728  63.7457087  33.4718180  87.3503798  63.7441417
  33.1985443  86.0317162  64.4357551  38.6746591  99.5337515  56.5247172
  38.8483469  98.9683937  55.7721025  39.1675483 100.3338410  56.3426662
  24.4923551  91.5452184  64.5910731  23.9477019  92.3211992  64.7231005
  25.3702901  91.8922988  64.4329852  31.2811168  84.8763768  56.9691529
  31.4027079  83.9480414  57.1682417  30.9913210  84.8902454  56.0569845
  34.1502358  82.5618678  60.1058249  34.1724055  82.6258011  59.1510229
  34.5670417  81.7223187  60.2998755  44.5285982  92.2973938  58.1437472
  44.9717128  91.5481263  57.7456595  43.6512493  92.2884074  57.7611204
  39.6621764  98.8504279  53.6244070  40.3572668  99.4710972  53.8431385
  40.0044914  97.9999630  53.8996448  25.2789573  90.6722080  67.4840888
  24.5371309  90.8204715  68.0705518  24.9582317  90.9330346  66.6207637
  41.5613187  96.3003985  55.1531401  42.0864511  96.6391257  54.4280721
  41.4735539  95.3651000  54.9694536  33.2233236 100.2138058  67.2821278
  33.5320362  99.9687205  68.1543977  34.0208718 100.4184697  66.7940148
  33.2453848 102.3675968  59.5126654  32.8058838 101.8752347  60.2059511
  33.9961965 101.8248936  59.2718730  25.7246187  98.5587509  59.5151282
  26.5504207  98.2591281  59.1349926  25.3740239  97.7895131  59.9641071
  30.6927720  97.9113977  61.5848956  30.0707729  97.2484682  61.2851184
  31.3632587  97.9375109  60.9022604  23.9254792  96.4773835  60.4740216
  23.0886700  96.0496010  60.2924217  23.8978437  96.6706279  61.4111007
  30.7652247  86.3895765  71.1781462  30.8140403  87.2657888  70.7959232
  31.3074761  85.8473158  70.6053105  41.2507093  96.9336888  70.4582599
  40.4602637  96.9161027  69.9187098  41.0140448  97.4725182  71.2131636
  41.3704968  93.7829355  67.7715328  41.4202973  93.6179362  68.7130850
  41.2618891  92.9156614  67.3813208  30.2541227  96.4617900  55.0607417
  30.4029347  97.1453365  54.4074089  31.0607670  96.4422990  55.5756872
  38.6608730  89.7660283  69.0874634  39.5618593  89.6266747  68.7958632
  38.7356705  89.9314737  70.0272812  32.9951536  87.1427137  67.9327821
  32.1254845  87.4360703  67.6610409  33.2311016  87.7267582  68.6535084
  42.8723165  96.2026296  68.0157349  42.5807973  96.5656277  68.8520810
  42.2595296  95.4893304  67.8370681  44.0718847  93.7679176  60.5359919
  44.9065739  94.2068980  60.6997480  44.2077976  93.2917829  59.7168165
  41.1210353  91.3258911  66.4837407  41.5964475  91.5186557  65.6756259
  40.1975918  91.3818097  66.2380791  28.0093860  92.4883078  56.0668485
  27.7639902  91.5845408  56.2648696  28.1789774  92.4900228  55.1247963
  27.2789507  88.2211436  53.5654647  26.5858752  88.2955790  52.9094683
  27.0341259  87.4571779  54.0876164  33.7536632  98.9566031  52.5319164
  33.1810599  99.5756218  52.0789636  34.3269426  99.5065392  53.0659086
  39.8212022  88.2024671  64.7165713  40.7729445  88.3022769  64.7377937
  39.6515472  87.4102939  65.2263797  37.8426402  85.2880254  64.9025114
  37.2476334  85.5685267  64.2071602  37.5576098  85.7774155  65.6741855
  36.9733892  99.2403181  53.6627746  37.9064565  99.1748743  53.8660622
  36.8857105 100.0759448  53.2042279  39.6021909  98.5569051  50.6231694
  39.5235540  98.2228915  51.5167452  40.4231575  99.0490819  50.6223166
  42.3000100  91.4230791  63.8308012  42.2676420  90.4846791  64.0167696
  42.9100724  91.5014827  63.0973837  34.1383431  90.2926844  49.8735216
  35.0842535  90.1633052  49.9423634  33.7597676  89.5541505  50.3504645
  42.4494588  88.2141834  63.8766296  41.9333637  87.4300291  63.6896224
  43.3334537  87.8860551  64.0412815  40.1105315  81.9582850  59.8362108
  39.9130136  81.6497938  60.7205440  40.7205021  82.6844488  59.9660038
  48.1176650  92.4846797  62.9714049  48.8480038  92.2232085  63.5321753
  47.5083595  91.7475519  63.0116117  46.1991947  90.6254660  63.5688500
  45.4725110  90.4910625  62.9604992  45.7839234  90.9331489  64.3745218
  34.0222123  94.3444590  71.3335873  34.9425133  94.5223189  71.5275920
  33.9871706  93.4000635  71.1815573  32.3226348  88.2176820  49.8090102
  31.4157803  87.9209933  49.8852815  32.6002329  87.9206638  48.9424388
  23.2404288  89.5383183  60.2589148  22.9207073  88.6848491  59.9663522
  22.6937716  89.7531761  61.0147115  27.0184196  92.2545624  63.9758655
  27.2370206  93.1862732  63.9946688  27.4309970  91.8953599  64.7613458
  33.9388414  82.7613710  55.9634343  33.1289142  82.4160795  56.3389589
  34.6272831  82.4521253  56.5521955  35.8678962  81.8391756  57.5858640
  36.4210000  82.2587210  58.2448663  36.1049048  80.9127505  57.6281596
  31.8912061  87.8278830  73.3661403  31.7908788  88.7773187  73.2973495
  31.6733603  87.4997069  72.4937474  31.0925133  85.0763755  49.9502081
  31.9544296  85.4018653  50.2097898  31.2775477  84.2895251  49.4375147
  23.1092548  93.1586095  62.2282270  22.4156020  92.7440048  61.7152224
  23.8565539  93.2006631  61.6315689  39.2457769  83.9492282  57.0937304
  38.6656438  84.6077086  56.7115356  38.9793702  83.1269626  56.6824721
  37.6961335  83.3497339  59.2958624  38.1961114  83.4613874  58.4872943
  38.3396943  83.0458392  59.9359433  31.7543331  91.2575969  72.1826465
  31.2710413  92.0576329  72.3890354  31.8404270  91.2683914  71.2293909
  25.0229291  93.0904349  60.1048285  24.9999979  93.1892036  59.1530168
  25.3329927  93.9369499  60.4265451  27.6816669  95.1480504  64.2194899
  28.6359922  95.1164446  64.1524830  27.4829192  94.6871127  65.0345125
  28.2716051  93.7181620  66.7865697  29.0908940  94.2125698  66.8100534
  28.5452858  92.8013588  66.7583264  38.0282647  86.1092372  56.1493652
  37.1408502  86.3942023  55.9313847  38.4436636  85.9486135  55.3020929
  41.3797183  86.1338893  59.8647991  42.1557573  86.6235345  60.1372608
  40.6545317  86.5596947  60.3219861  43.8169742  86.8466512  60.9221932
  44.4114233  86.6062248  60.2115240  43.8896325  86.1273643  61.5495468
  26.0366897 100.6900123  61.2365097  25.9021365  99.9300524  60.6703095
  25.6198960 101.4141023  60.7693886  37.1725860  95.8737047  50.2441672
  37.8761711  96.0787049  50.8599328  36.4488509  96.4413809  50.5090756
  38.0023671  91.6246908  56.3643942  37.9458872  92.0815459  55.5251575
  38.5552013  90.8637592  56.1866785  41.8128477  87.4136640  57.1894062
  41.5565411  87.0133275  58.0202269  41.1881345  88.1280434  57.0644201
  46.1240815  90.1532713  59.6965353  45.5640372  90.2225902  60.4696915
  45.5184318  89.9773698  58.9764849  29.1936023 101.5869440  61.4483539
  29.0768407 102.5314873  61.3462230  28.3728470 101.2843002  61.8369339
  39.0812558  96.3119576  52.2940132  39.9158162  95.8800774  52.1117607
  38.9196901  96.1401590  53.2217027  38.7358450  92.8151689  53.6596471
  38.6807254  92.6495961  52.7184916  38.1104505  93.5227722  53.8158661
  23.5250965  88.0519754  67.4857894  24.1709829  87.5418707  67.9745119
  23.3168116  88.7888435  68.0601319  36.0504357  95.1200601  72.9850034
  36.9195517  95.2941253  72.6236669  35.5711109  95.9395018  72.8625764
  32.0454576  82.3159798  53.2381790  32.0333245  83.2601638  53.3950061
  32.9377997  82.1329944  52.9441251  30.2190537 102.2397702  64.6639468
  31.1217784 102.2721312  64.9805963  29.9927908 101.3098153  64.6785804
  31.9744139 100.9928689  61.3249547  31.0239770 100.9930550  61.2113919
  32.2776626 100.2461423  60.8085581  35.8606695  78.9102575  57.4927727
  35.0939091  78.3561061  57.6384409  36.2717400  78.9824444  58.3541878
  27.8648456  85.1987371  71.5832908  28.7279918  84.8424175  71.7936232
  27.2913867  84.8601265  72.2708312  47.7096833 106.8289227  62.3895309
  48.3475243 106.7095974  61.6858649  47.5917676 107.7770071  62.4483261
  44.5186539 106.7816655  62.3256834  44.1805051 106.6657720  61.4377368
  45.3876307 106.3807820  62.3057840  40.3773355 108.6352131  58.3153725
  39.8138220 108.5442068  57.5470012  40.2625750 107.8152036  58.7956217
  45.0006322 107.9351507  68.2843039  44.9894963 107.5404305  67.4123543
  45.1626962 107.2017579  68.8776811  37.9237787 110.1303323  61.1537945
  38.7159079 109.7894148  60.7384244  38.1634437 110.2398298  62.0740098
  45.9572914 112.3023099  53.6268189  45.3060893 112.8877180  53.2402203
  46.7517276 112.8329294  53.6863227  39.8828541 109.3912236  54.0255324
  40.6559417 108.8441223  53.8868200  40.2353940 110.2556486  54.2369785
  41.7213583 110.7188619  67.2322223  41.4303449 111.6234249  67.1168889
  42.3570568 110.7605146  67.9466293  42.6469790 108.0965467  63.8223583
  43.2433362 107.8721489  63.1080546  42.7044762 107.3550213  64.4249031
  42.2194819 105.5504902  51.6573774  42.4720339 105.0286424  50.8957237
  41.2819378 105.3871048  51.7600457  47.2638101 104.5540681  59.4648517
  48.0501191 104.1360104  59.1138934  47.5276806 105.4586773  59.6330165
  47.4348179 109.9913531  54.1637174  46.7994012 110.0648158  54.8758078
  47.1045585 110.5807130  53.4856253  52.6646529 104.4915914  60.3681495
  53.3971701 103.9215131  60.6019325  51.9085884 104.1037514  60.8088001
  41.9391107 107.4533008  53.8598149  41.8227365 106.7777912  54.5279233
  42.0493367 106.9665382  53.0430302  44.2822648 106.9143155  57.5644838
  43.9180856 106.3873776  58.2757759  45.1389764 106.5241625  57.3911323
  50.1871949  98.2037488  64.8276104  49.8555274  99.0732899  64.6037319
  49.5917562  97.8873772  65.5070134  43.9228135 101.9433055  52.5606186
  44.0902538 102.8113292  52.9276657  43.7325304 102.1060337  51.6367476
  46.6803468 110.4050034  64.2272017  46.3804192 111.3075073  64.1187824
  46.3354528 110.1382217  65.0793170  40.1315950 106.8563831  60.2608721
  39.2066446 106.7240045  60.4686413  40.3800363 107.6358050  60.7578664
  50.0800612 102.9232574  61.9069454  49.1717490 102.8547983  61.6128215
  50.0288208 103.4004519  62.7351280  43.9017356 104.3990713  53.5452853
  43.7816981 104.8447763  54.3838334  43.2069945 104.7476030  52.9866391
  37.4924761 106.4997104  61.0952510  37.6217142 106.7531583  62.0091922
  36.8122212 107.0924812  60.7757165  41.6624248 117.1694354  57.1942984
  41.5848278 118.1202180  57.2731465  41.0585892 116.8240227  57.8517911
  44.1541478 104.3422220  69.8504351  43.3774812 104.9016140  69.8407216
  44.7932041 104.8279003  70.3719221  51.9462259 101.1249013  63.6847328
  51.3036639 101.4181546  63.0387123  51.4417187 101.0101933  64.4900525
  49.6002422 104.8712186  54.3733187  50.5120278 105.1039573  54.1980885
  49.0912069 105.4549230  53.8108266  42.4087850 107.1507673  69.4122318
  43.1502535 107.6892717  69.1357142  41.7024836 107.7773962  69.5693870
  47.8843190 109.2936814  68.0094480  48.2926546 108.8519224  67.2649112
  47.1620451 108.7189441  68.2628673  44.2374260 104.2309420  65.3828037
  45.0835455 104.6548834  65.5262686  44.1772898 103.5743045  66.0766600
  48.2072005 109.8538004  61.7646769  47.5780867 110.0183718  61.0622837
  47.8197667 110.2679614  62.5357733  52.0861237 110.7892442  59.1191133
  51.4012275 111.1691344  58.5688166  52.1705086 111.3987769  59.8523080
  47.3873705 101.8913789  67.0409210  47.1434637 102.6455849  66.5043486
  47.6633636 102.2699136  67.8756458  49.3412168 108.4352401  65.7186476
  49.5529063 109.0784161  65.0420857  49.2941916 107.6014718  65.2508406
  46.9438397 101.0470222  62.6223048  46.0822876 101.3451475  62.9139786
  46.9700832 101.2640621  61.6904081  43.7599966 109.5912412  59.0296854
  44.2238312 109.8700115  58.2401476  43.4956765 108.6895857  58.8469945
  40.6524048 109.1383894  61.9676617  41.2225405 109.5671162  61.3294102
  41.2432159 108.8566479  62.6660803  42.6968853 105.7135565  55.8386419
  43.3992896 106.1656608  56.3060345  42.3649481 105.0719384  56.4666312
  41.1449214 104.3047321  70.2137628  40.5147875 104.9863602  70.4473025
  41.0385302 104.1930403  69.2690767  36.4394187 103.9719117  61.1403553
  35.6493240 104.2276646  60.6643663  36.9305434 104.7867455  61.2455593
  50.4557996 111.3124357  63.8908833  51.2775440 110.9104544  63.6091515
  50.4520399 111.2092591  64.8424949  38.3908932 104.3363697  58.0987029
  37.5940095 104.4482391  58.6170525  38.1634524 104.6750349  57.2327920
  44.2214600 110.8608400  66.0469544  44.2859032 111.3228807  66.8827716
  43.5125523 110.2305765  66.1751854  34.7231889 104.2249608  63.5718543
  34.9739928 105.1096618  63.8376119  35.2591438 104.0454209  62.7993635
  58.5463989 107.6563105  60.2393805  57.7927698 107.0870503  60.0837809
  58.6811530 107.6225770  61.1864440  43.9362617 112.5276507  55.9148524
  43.8008292 113.3728043  56.3433372  44.4772430 112.7295785  55.1514458
  40.4229957  98.6068087  72.5762879  40.0296902  98.0534286  73.2510524
  41.2396097  98.9178666  72.9669397  37.3892015 110.0451945  56.4876449
  37.9016535 110.8395196  56.6382014  38.0414727 109.3478236  56.4210051
  39.1986899 113.1617702  58.5699202  39.3753528 114.0835666  58.3820186
  39.9943733 112.8476121  58.9993582  43.3397918 100.0225966  70.1683136
  44.0807631 100.6233119  70.0887598  43.5715841  99.2803604  69.6101179
  38.4839256 105.2082334  68.4461366  38.3692771 104.3067591  68.7468465
  37.6283774 105.4546030  68.0946182  45.5631094 113.1500074  70.0448866
  45.1194948 112.3636452  69.7269771  46.2248307 113.3379224  69.3792757
  40.3218215 114.6795875  64.5709545  40.8725640 114.5512939  63.7986539
  39.4829691 114.9790765  64.2204438  47.6612332 113.4302874  68.0730268
  47.6430807 114.2511755  67.5810537  48.5832252 113.3056949  68.2980409
  44.1185386 110.9447003  68.9153776  44.6513723 110.1835291  68.6853084
  43.5899467 110.6520655  69.6577930  47.2855081  96.0507069  64.4447418
  46.9419350  96.9408711  64.3686528  47.6534043  95.8608727  63.5817003
  35.3540931 108.3740600  57.2636020  36.1916153 108.7837608  57.0469728
  35.5319199 107.4340042  57.2336214  47.2505363 106.0415680  52.9519853
  46.7351987 106.8120285  53.1908240  46.9782672 105.3680817  53.5752914
  44.8352474 100.8865381  58.0105091  43.9794071 100.4972232  57.8310730
  45.2479426 100.9657342  57.1504877  46.3651621  98.4211724  62.4096651
  45.8616417  98.3841860  61.5964456  46.6582228  99.3304467  62.4693308
  42.6094507  98.5050454  61.4162833  43.4747504  98.3093263  61.0568722
  42.6772016  98.2760806  62.3432189  52.2239638 108.7948035  54.8873026
  51.4469080 108.4559195  54.4428188  52.9031119 108.8000658  54.2127991
  47.0391667 103.9142772  54.7779634  46.7341802 104.2288922  55.6289777
  47.9922109 103.9924192  54.8206967  45.4838098 110.0732996  56.4272588
  44.9559460 109.3385755  56.1145825  44.9825601 110.8507672  56.1812556
  50.4630944 108.2682016  61.5439634  49.8054619 108.9581278  61.6319763
  51.2671344 108.6578448  61.8873621  40.2156826 100.7352662  58.7879199
  40.7900578 100.5127844  58.0552392  40.8027809 100.8041357  59.5407801
  49.2736403 106.6226389  59.5943576  49.7868285 107.2556381  60.0965286
  49.9237627 106.0227584  59.2286936  40.5426413 102.7657123  52.8075085
  39.7063725 103.1031810  53.1284359  40.4031183 102.6306103  51.8702222
  42.5179494  97.6093911  57.5154269  41.8643906  97.2942928  56.8910884
  42.4759968  96.9869651  58.2414092  43.6290699 107.8913206  49.4307561
  42.7217760 107.6602460  49.6298710  44.1261731 107.0950825  49.6181543
  46.5358778 116.6010713  52.3504247  45.8620476 116.9042410  52.9589205
  46.9224600 117.4039794  52.0009704  45.7517234 104.0975845  61.8401917
  44.8339796 104.3190792  61.6823605  46.1677378 104.1722155  60.9813624
  46.5352282 105.4967260  56.9704597  47.2824101 106.0088657  56.6611719
  46.8043871 105.1751313  57.8308990  44.8078932 107.9925801  53.9531551
  43.8990151 107.7084834  54.0504021  44.8374016 108.4124879  53.0934858
  50.0398200 111.6032390  57.7222719  49.5860527 110.7623300  57.7787909
  49.4092166 112.2393789  58.0597499  48.9831119 102.5324376  58.9523386
  48.2453876 102.0201763  59.2833629  49.2357893 102.0924758  58.1406663
  48.4831139 113.4408887  58.6572537  48.7754113 114.0013944  57.9384902
  48.9929759 113.7337448  59.4125696  49.0842746  95.3100628  59.5465155
  49.3901623  94.4497992  59.2591070  49.8095351  95.9018249  59.3464149
  35.3767102 105.7131315  57.9346753  35.1791502 105.1200676  57.2097820
  34.8213766 105.4083525  58.6522692  43.3563826 105.6054422  60.0541346
  43.4112436 104.6528258  59.9783823  42.5455028 105.7613861  60.5382645
  44.5055020 109.5334545  51.2919630  44.0674450 108.8170404  50.8325267
  45.2465461 109.7610659  50.7304721  41.2956186 104.2231481  57.8131725
  40.4824052 104.5225652  58.2196917  41.7915180 103.8287170  58.5306208
  43.4464764 114.2189238  59.7465990  43.4040943 114.4450085  58.8174522
  44.3627463 113.9852613  59.8951791  46.8930398 104.6873306  66.6446619
  47.2479785 104.9144779  67.5041085  47.5402529 105.0191683  66.0223874
  52.6228135 107.8091742  57.3495948  52.4846033 107.9993338  56.4217137
  52.2664353 108.5711124  57.8063999  40.7870261 101.7949837  63.4292960
  41.4269640 101.6538596  62.7315924  39.9547791 101.5084350  63.0531562
  52.6497514 109.8768269  62.3607220  53.0834021 109.7843558  63.2090274
  53.3629095 109.8525769  61.7227236  41.5630565 111.0952267  59.5427953
  42.3571163 110.6002587  59.3410528  40.8522257 110.5670130  59.1795658
  46.3825409 113.4770363  63.8940320  46.4362431 114.0461299  64.6618036
  45.5140191 113.6472248  63.5294357  37.8713328 105.2395349  55.6187705
  36.9410916 105.1779804  55.8357668  37.9670800 104.7171302  54.8224347
  37.7898877 101.7650162  58.2065947  38.0505695 102.6795495  58.0975108
  38.6116050 101.2974604  58.3562560  39.2623803 103.1787919  65.3764772
  39.9346856 102.9705281  64.7277420  38.4353589 102.9810005  64.9370004
  53.5113064 109.9191969  64.8940105  53.7048954 110.8237780  65.1399380
  53.4113682 109.4599388  65.7278690  45.1649375  99.8049860  67.3930432
  44.5177290 100.5039810  67.2994909  45.9350390 100.2386004  67.7606681
  48.5728173 110.0698712  70.4680986  48.4213679 109.8409264  69.5511069
  48.5632852 111.0269313  70.4812331  45.3413509 107.6430625  65.4527252
  46.2705569 107.7941784  65.2796219  44.9204539 107.7314646  64.5975899
  44.1401841 111.6681289  63.2225790  44.0012926 111.3000074  64.0951728
  43.3516437 112.1828929  63.0509748  44.7349993 116.7690386  54.5651326
  44.9101748 116.2978429  55.3796949  44.0482781 117.3956152  54.7932587
  45.6907056 111.0462892  60.6114628  45.3556888 111.0063662  61.5072277
  45.1911002 110.3807608  60.1385038  39.6651300 106.4530522  66.1367209
  39.5271098 105.7210761  66.7378748  40.5756223 106.3639422  65.8551396
  48.6266248 108.3918926  50.8851687  48.0095418 107.6665754  50.7884740
  48.1582736 109.1528287  50.5418761  42.2933600 106.1650481  65.6250888
  43.0033219 105.5243673  65.5837507  42.2502909 106.4163376  66.5477069
  50.2820379 113.1017835  68.5457468  50.2232925 112.4177055  67.8788051
  50.6839898 113.8436825  68.0938094  41.0062534 103.1515699  67.4446528
  40.4699891 102.7006438  68.0968124  40.4179243 103.2861608  66.7016992
  40.4164793 102.6104351  50.0072992  39.5394260 102.4893151  49.6435238
  40.8922546 101.8190429  49.7551880  50.2837786 111.0657419  66.7771447
  49.3964565 110.7283340  66.8997846  50.8536337 110.3340450  67.0140213
  31.9366934 107.3981510  60.1014499  32.6237973 107.0843240  59.5135514
  31.7815062 108.3022875  59.8281750  36.7401656 102.2871707  64.5299522
  36.6559844 101.6797376  63.7949932  35.9184362 102.7780725  64.5309019
  43.8138940 115.7258871  63.7432690  43.7409111 116.5313842  64.2551995
  43.3716333 115.9250837  62.9180712  43.6028719 114.9630641  57.2535512
  42.8196241 115.5052321  57.3473737  44.3021465 115.4804621  57.6529753
  46.9125370 100.7725270  59.8969717  47.4094069 100.0195233  59.5770788
  46.1412351 100.8089587  59.3312927  54.7655127 106.4765636  61.5388009
  54.7545003 107.3590351  61.1681942  53.8972506 106.1237187  61.3442546
  46.2737623 115.6245705  65.8990849  46.9865596 116.2593170  65.8266751
  45.7827652 115.7209571  65.0830851  47.9955150 109.5296958  57.4708141
  47.0611429 109.6498420  57.3012845  48.1731819 108.6269424  57.2068151
  43.4960338 102.9142653  59.6241402  43.1258126 102.3613694  60.3122308
  43.9919431 102.3100787  59.0716402  51.3827702 105.3714277  58.0058175
  51.8488154 106.2042268  57.9318478  51.8335202 104.9059258  58.7103433
  41.3249537 113.3740148  66.7196420  42.0258996 114.0076631  66.8725814
  40.8544652 113.7154880  65.9592059  49.4503933 111.7158098  55.0044327
  49.7263777 111.6014693  55.9138201  48.5808431 111.3175583  54.9656500
  49.3544364  97.7394864  62.0449076  48.4407444  97.9699091  62.2131283
  49.7837466  97.8233308  62.8963109  49.1250823 105.9284756  64.5448970
  48.4722273 106.1760663  63.8901423  49.5031203 105.1148894  64.2111448
  46.0857997 115.9644449  58.6477141  46.2680391 115.1466105  59.1104893
  46.9090983 116.1812141  58.2102031  46.4200162 114.8912634  55.9092189
  46.9487929 114.3805089  55.2962351  46.6828382 114.5755164  56.7737722
  45.1738396 106.6704567  71.0315007  44.4979033 106.5698696  71.7017383
  45.9966030 106.5143781  71.4951005  36.9217255 112.9076503  63.6527523
  37.5070692 112.1620191  63.7855427  36.7242093 113.2180460  64.5364187
  39.7755910 115.9427751  58.6689965  39.1066285 116.4273878  58.1854005
  39.6368780 116.1896971  59.5833344  31.5134910 105.4782104  62.3731966
  31.5519009 104.9445694  63.1669084  31.0075203 104.9517309  61.7542943
  43.9161179 117.9771494  65.2672623  44.4679487 118.1403116  66.0321709
  44.2567372 118.5675932  64.5952648  38.8925672 100.3246644  65.8694508
  38.9566998 101.1861475  65.4571906  38.8292792  99.7120646  65.1366867
  38.3677945 102.3969777  69.5167542  38.9949983 102.0146854  70.1305067
  37.5105863 102.1783979  69.8823235  48.7672053 112.8032752  71.1221278
  49.3111957 113.4162710  70.6276233  48.1858898 113.3612330  71.6388291
  35.1443487 104.2046206  55.4485897  35.4396928 103.2956884  55.3952951
  34.2431523 104.1833945  55.1266900  47.0529566 115.9253470  62.2536306
  46.9280705 115.1243210  61.7447251  47.7108657 116.4199663  61.7650276
  38.6737734 102.2802202  61.4313446  37.9524320 102.8938170  61.2920919
  39.4630990 102.8159967  61.3530092  49.1164474 113.7262490  63.8815856
  48.1694810 113.6067841  63.8094182  49.4647248 112.8384988  63.9642117
  41.4764048  99.6156629  67.7054098  41.9998450  99.8618925  68.4680407
  41.2576381 100.4476664  67.2857235  36.8731329 101.8860303  55.5725222
  36.5444035 101.0057682  55.3900328  37.2270700 101.8307972  56.4601612
  46.1210908 113.5215206  60.0820208  45.9735870 112.5931914  60.2627778
  46.9464401 113.5435297  59.5977283  39.9873152 102.1733273  55.9400700
  40.3269225 102.7019194  55.2179308  40.4345272 102.5113679  56.7159267
  49.7245030 114.3443765  61.1685081  50.6491577 114.1386626  61.0309532
  49.5560333 114.0960166  62.0774422  42.6816593 100.5570324  65.3903768
  42.3413413  99.7578137  65.7924448  41.9755599 100.8572035  64.8180601
  43.3333065  97.6419636  63.8431091  44.1559134  97.1680115  63.7209981
  43.5771128  98.4210120  64.3429777  41.9741299 100.6707895  54.1393993
  42.6949662 101.0489148  53.6357710  41.3506603 101.3896772  54.2428971
  46.1172422 101.3753044  55.0752325  46.3336036 102.2577682  54.7741153
  45.6366489 100.9839257  54.3457967  40.8571643 104.3338757  61.6523070
  40.7116224 104.6479060  62.5447351  40.3796847 104.9523657  61.0993968
  42.7168026 101.3241305  61.7003959  42.7029595 100.4282398  61.3636257
  43.4340454 101.3311969  62.3342245  44.5694157 101.7578645  63.7457087
  44.3111935 102.6795716  63.7441417  44.0379197 101.3609080  64.4357551
  49.5140346 114.8629432  56.5247172  49.6877223 114.2975855  55.7721025
  50.0069237 115.6630327  56.3426662  35.3317306 106.8744101  64.5910731
  34.7870774 107.6503909  64.7231005  36.2096655 107.2214906  64.4329852
  42.1204922 100.2055685  56.9691529  42.2420833  99.2772331  57.1682417
  41.8306965 100.2194371  56.0569845  44.9896113  97.8910596  60.1058249
  45.0117809  97.9549929  59.1510229  45.4064172  97.0515104  60.2998755
  55.3679737 107.6265855  58.1437472  55.8110883 106.8773180  57.7456595
  54.4906247 107.6175992  57.7611204  50.5015518 114.1796197  53.6244070
  51.1966423 114.8002889  53.8431385  50.8438668 113.3291548  53.8996448
  36.1183327 106.0013998  67.4840888  35.3765063 106.1496633  68.0705518
  35.7976072 106.2622263  66.6207637  52.4006941 111.6295902  55.1531401
  52.9258265 111.9683175  54.4280721  52.3129294 110.6942918  54.9694536
  44.0626990 115.5429976  67.2821278  44.3714117 115.2979123  68.1543977
  44.8602472 115.7476614  66.7940148  44.0847602 117.6967886  59.5126654
  43.6452592 117.2044264  60.2059511  44.8355719 117.1540853  59.2718730
  36.5639941 113.8879426  59.5151282  37.3897961 113.5883198  59.1349926
  36.2133993 113.1187049  59.9641071  41.5321474 113.2405895  61.5848956
  40.9101484 112.5776600  61.2851184  42.2026341 113.2667027  60.9022604
  34.7648546 111.8065753  60.4740216  33.9280454 111.3787927  60.2924217
  34.7372192 111.9998196  61.4111007  41.6046002 101.7187683  71.1781462
  41.6534157 102.5949805  70.7959232  42.1468516 101.1765076  70.6053105
  52.0900847 112.2628806  70.4582599  51.2996391 112.2452945  69.9187098
  51.8534202 112.8017100  71.2131636  52.2098722 109.1121272  67.7715328
  52.2596727 108.9471280  68.7130850  52.1012646 108.2448531  67.3813208
  41.0934981 111.7909818  55.0607417  41.2423102 112.4745282  54.4074089
  41.9001425 111.7714908  55.5756872  49.5002485 105.0952200  69.0874634
  50.4012348 104.9558665  68.7958632  49.5750459 105.2606655  70.0272812
  43.8345290 102.4719055  67.9327821  42.9648600 102.7652621  67.6610409
  44.0704771 103.0559500  68.6535084  53.7116919 111.5318214  68.0157349
  53.4201728 111.8948194  68.8520810  53.0989051 110.8185222  67.8370681
  54.9112602 109.0971094  60.5359919  55.7459493 109.5360898  60.6997480
  55.0471730 108.6209747  59.7168165  51.9604108 106.6550828  66.4837407
  52.4358229 106.8478475  65.6756259  51.0369673 106.7110014  66.2380791
  38.8487614 107.8174996  56.0668485  38.6033656 106.9137326  56.2648696
  39.0183529 107.8192146  55.1247963  46.5384324  98.6898672  65.4493241
  47.0566268  99.4259699  65.1239730  46.1839457  98.9962665  66.2840000
  38.1183262 103.5503353  53.5654647  37.4252507 103.6247708  52.9094683
  37.8735014 102.7863697  54.0876164  46.7896918  95.1098955  60.9694138
  47.0698672  94.4422144  61.5954564  47.5747525  95.3028050  60.4568801
  44.5930387 114.2857948  52.5319164  44.0204354 114.9048136  52.0789636
  45.1663180 114.8357310  53.0659086  50.6605777 103.5316589  64.7165713
  51.6123199 103.6314686  64.7377937  50.4909227 102.7394857  65.2263797
  48.6820156 100.6172172  64.9025114  48.0870088 100.8977184  64.2071602
  48.3969853 101.1066073  65.6741855  47.8127646 114.5695099  53.6627746
  48.7458320 114.5040660  53.8660622  47.7250859 115.4051365  53.2042279
  50.4415663 113.8860969  50.6231694  50.3629295 113.5520832  51.5167452
  51.2625330 114.3782737  50.6223166  53.1393854 106.7522708  63.8308012
  53.1070174 105.8138709  64.0167696  53.7494478 106.8306745  63.0973837
  44.9777185 105.6218761  49.8735216  45.9236290 105.4924969  49.9423634
  44.5991430 104.8833423  50.3504645  53.2888343 103.5433752  63.8766296
  52.7727391 102.7592208  63.6896224  54.1728291 103.2152468  64.0412815
  50.9499070  97.2874767  59.8362108  50.7523891  96.9789855  60.7205440
  51.5598775  98.0136406  59.9660038  58.9570404 107.8138715  62.9714049
  59.6873793 107.5524003  63.5321753  58.3477350 107.0767437  63.0116117
  57.0385701 105.9546578  63.5688500  56.3118865 105.8202543  62.9604992
  56.6232988 106.2623406  64.3745218  44.8615878 109.6736507  71.3335873
  45.7818887 109.8515106  71.5275920  44.8265461 108.7292553  71.1815573
  43.1620102 103.5468738  49.8090102  42.2551558 103.2501850  49.8852815
  43.4396083 103.2498556  48.9424388  34.0798043 104.8675101  60.2589148
  33.7600827 104.0140409  59.9663522  33.5331471 105.0823679  61.0147115
  37.8577950 107.5837542  63.9758655  38.0763960 108.5154650  63.9946688
  38.2703724 107.2245516  64.7613458  44.7782168  98.0905627  55.9634343
  43.9682896  97.7452712  56.3389589  45.4666585  97.7813171  56.5521955
  46.7072716  97.1683674  57.5858640  47.2603755  97.5879128  58.2448663
  46.9442803  96.2419422  57.6281596  42.7305816 103.1570748  73.3661403
  42.6302543 104.1065105  73.2973495  42.5127358 102.8288987  72.4937474
  41.9318887 100.4055673  49.9502081  42.7938051 100.7310571  50.2097898
  42.1169231  99.6187169  49.4375147  33.9486303 108.4878012  62.2282270
  33.2549774 108.0731965  61.7152224  34.6959294 108.5298549  61.6315689
  50.0851523  99.2784199  57.0937304  49.5050193  99.9369003  56.7115356
  49.8187456  98.4561544  56.6824721  48.5355090  98.6789257  59.2958624
  49.0354868  98.7905791  58.4872943  49.1790698  98.3750310  59.9359433
  42.5937086 106.5867887  72.1826465  42.1104167 107.3868247  72.3890354
  42.6798025 106.5975831  71.2293909  35.8623045 108.4196266  60.1048285
  35.8393733 108.5183954  59.1530168  36.1723682 109.2661417  60.4265451
  38.5210423 110.4772421  64.2194899  39.4753677 110.4456364  64.1524830
  38.3222947 110.0163045  65.0345125  39.1109805 109.0473537  66.7865697
  39.9302694 109.5417616  66.8100534  39.3846613 108.1305505  66.7583264
  48.8676401 101.4384290  56.1493652  47.9802257 101.7233940  55.9313847
  49.2830391 101.2778053  55.3020929  52.2190938 101.4630811  59.8647991
  52.9951328 101.9527263  60.1372608  51.4939072 101.8888865  60.3219861
  54.6563496 102.1758430  60.9221932  55.2507987 101.9354166  60.2115240
  54.7290080 101.4565560  61.5495468  48.0119615 111.2028964  50.2441672
  48.7155465 111.4078967  50.8599328  47.2882264 111.7705726  50.5090756
  48.8417425 106.9538826  56.3643942  48.7852627 107.4107377  55.5251575
  49.3945768 106.1929510  56.1866785  52.6522231 102.7428557  57.1894062
  52.3959165 102.3425193  58.0202269  52.0275099 103.4572351  57.0644201
  56.9634569 105.4824631  59.6965353  56.4034127 105.5517820  60.4696915
  56.3578072 105.3065615  58.9764849  49.9206312 111.6411493  52.2940132
  50.7551916 111.2092692  52.1117607  49.7590655 111.4693507  53.2217027
  49.5752205 108.1443607  53.6596471  49.5201008 107.9787878  52.7184916
  48.9498260 108.8519640  53.8158661  34.3644720 103.3811671  67.4857894
  35.0103583 102.8710625  67.9745119  34.1561871 104.1180353  68.0601319
  46.8898112 110.4492519  72.9850034  47.7589271 110.6233171  72.6236669
  46.4104863 111.2686935  72.8625764  42.8848330  97.6451716  53.2381790
  42.8727000  98.5893556  53.3950061  43.7771752  97.4621861  52.9441251
  41.0584292 117.5689620  64.6639468  41.9611539 117.6013230  64.9805963
  40.8321662 116.6390071  64.6785804  42.8137894 116.3220606  61.3249547
  41.8633525 116.3222468  61.2113919  43.1170380 115.5753341  60.8085581
  46.7000449  94.2394492  57.4927727  45.9332845  93.6852979  57.6384409
  47.1111154  94.3116361  58.3541878  38.7042211 100.5279288  71.5832908
  39.5673672 100.1716093  71.7936232  38.1307621 100.1893183  72.2708312
  58.5490587 122.1581145  62.3895309  59.1868997 122.0387892  61.6858649
  58.4311430 123.1061989  62.4483261  55.3580294 122.1108573  62.3256834
  55.0198805 121.9949637  61.4377368  56.2270062 121.7099738  62.3057840
  55.8400077 123.2643424  68.2843039  55.8288717 122.8696223  67.4123543
  56.0020716 122.5309497  68.8776811  53.0588573 120.8796820  51.6573774
  53.3114094 120.3578341  50.8957237  52.1213132 120.7162966  51.7600457
  58.1031856 119.8832598  59.4648517  58.8894945 119.4652022  59.1138934
  58.3670560 120.7878691  59.6330165  63.5040283 119.8207832  60.3681495
  64.2365455 119.2507048  60.6019325  62.7479639 119.4329432  60.8088001
  55.1216403 122.2435073  57.5644838  54.7574610 121.7165694  58.2757759
  55.9783519 121.8533542  57.3911323  61.0265703 113.5329406  64.8276104
  60.6949028 114.4024817  64.6037319  60.4311317 113.2165690  65.5070134
  54.7621890 117.2724973  52.5606186  54.9296292 118.1405209  52.9276657
  54.5719059 117.4352255  51.6367476  60.9194367 118.2524492  61.9069454
  60.0111244 118.1839900  61.6128215  60.8681963 118.7296437  62.7351280
  54.7411111 119.7282630  53.5452853  54.6210736 120.1739681  54.3838334
  54.0463699 120.0767948  52.9866391  54.9935233 119.6714138  69.8504351
  54.2168567 120.2308058  69.8407216  55.6325796 120.1570921  70.3719221
  62.7856013 116.4540930  63.6847328  62.1430393 116.7473463  63.0387123
  62.2810942 116.3393851  64.4900525  60.4396177 120.2004104  54.3733187
  61.3514033 120.4331490  54.1980885  59.9305824 120.7841148  53.8108266
  55.0768015 119.5601338  65.3828037  55.9229210 119.9840752  65.5262686
  55.0166652 118.9034962  66.0766600  58.2267460 117.2205706  67.0409210
  57.9828392 117.9747767  66.5043486  58.5027390 117.5991054  67.8756458
  60.1805923 123.7644319  65.7186476  60.3922818 124.4076079  65.0420857
  60.1335671 122.9306635  65.2508406  57.7832152 116.3762139  62.6223048
  56.9216631 116.6743393  62.9139786  57.8094586 116.5932538  61.6904081
  53.5362607 121.0427482  55.8386419  54.2386650 121.4948526  56.3060345
  53.2043236 120.4011301  56.4666312  51.9842969 119.6339239  70.2137628
  51.3541629 120.3155520  70.4473025  51.8779056 119.5222321  69.2690767
  47.2787941 119.3011035  61.1403553  46.4886995 119.5568564  60.6643663
  47.7699188 120.1159373  61.2455593  49.2302686 119.6655614  58.0987029
  48.4333850 119.7774309  58.6170525  49.0028279 120.0042267  57.2327920
  69.3857744 122.9855023  60.2393805  68.6321452 122.4162421  60.0837809
  69.5205285 122.9517687  61.1864440  51.2623711 113.9360005  72.5762879
  50.8690657 113.3826203  73.2510524  52.0789852 114.2470583  72.9669397
  54.1791672 115.3517884  70.1683136  54.9201386 115.9525037  70.0887598
  54.4109595 114.6095522  69.6101179  58.1248835 111.3798987  64.4447418
  57.7813105 112.2700629  64.3686528  58.4927798 111.1900645  63.5817003
  58.0899118 121.3707598  52.9519853  57.5745741 122.1412203  53.1908240
  57.8176426 120.6972734  53.5752914  55.6746229 116.2157299  58.0105091
  54.8187825 115.8264149  57.8310730  56.0873181 116.2949260  57.1504877
  57.2045376 113.7503642  62.4096651  56.7010171 113.7133777  61.5964456
  57.4975982 114.6596385  62.4693308  53.4488261 113.8342372  61.4162833
  54.3141258 113.6385180  61.0568722  53.5165770 113.6052724  62.3432189
  63.0633392 124.1239953  54.8873026  62.2862835 123.7851112  54.4428188
  63.7424873 124.1292576  54.2127991  57.8785421 119.2434690  54.7779634
  57.5735557 119.5580839  55.6289777  58.8315863 119.3216110  54.8206967
  61.3024699 123.5973934  61.5439634  60.6448373 124.2873195  61.6319763
  62.1065098 123.9870366  61.8873621  51.0550581 116.0644580  58.7879199
  51.6294332 115.8419761  58.0552392  51.6421563 116.1333274  59.5407801
  60.1130158 121.9518307  59.5943576  60.6262040 122.5848298  60.0965286
  60.7631382 121.3519502  59.2286936  51.3820168 118.0949041  52.8075085
  50.5457480 118.4323727  53.1284359  51.2424937 117.9598021  51.8702222
  53.3573248 112.9385829  57.5154269  52.7037661 112.6234846  56.8910884
  53.3153722 112.3161569  58.2414092  56.5910989 119.4267762  61.8401917
  55.6733550 119.6482709  61.6823605  57.0071132 119.5014073  60.9813624
  57.3746036 120.8259178  56.9704597  58.1217855 121.3380575  56.6611719
  57.6437626 120.5043231  57.8308990  59.8224874 117.8616294  58.9523386
  59.0847630 117.3493680  59.2833629  60.0751647 117.4216676  58.1406663
  59.9236501 110.6392546  59.5465155  60.2295378 109.7789910  59.2591070
  60.6489106 111.2310166  59.3464149  54.1957581 120.9346339  60.0541346
  54.2506190 119.9820176  59.9783823  53.3848783 121.0905778  60.5382645
  52.1349941 119.5523399  57.8131725  51.3217806 119.8517569  58.2196917
  52.6308935 119.1579088  58.5306208  57.7324152 120.0165223  66.6446619
  58.0873540 120.2436697  67.5041085  58.3796283 120.3483600  66.0223874
  63.4621889 123.1383659  57.3495948  63.3239788 123.3285255  56.4217137
  63.1058108 123.9003042  57.8063999  51.6264015 117.1241754  63.4292960
  52.2663395 116.9830514  62.7315924  50.7941546 116.8376268  63.0531562
  63.4891269 125.2060186  62.3607220  63.9227775 125.1135475  63.2090274
  64.2022849 125.1817687  61.7227236  48.7107083 120.5687267  55.6187705
  47.7804671 120.5071722  55.8357668  48.8064555 120.0463219  54.8224347
  48.6292632 117.0942079  58.2065947  48.8899449 118.0087413  58.0975108
  49.4509804 116.6266522  58.3562560  50.1017557 118.5079837  65.3764772
  50.7740610 118.2997199  64.7277420  49.2747344 118.3101923  64.9370004
  64.3506818 125.2483887  64.8940105  64.5442708 126.1529697  65.1399380
  64.2507436 124.7891306  65.7278690  56.0043129 115.1341778  67.3930432
  55.3571044 115.8331727  67.2994909  56.7744144 115.5677921  67.7606681
  56.1807263 122.9722542  65.4527252  57.1099323 123.1233702  65.2796219
  55.7598293 123.0606563  64.5975899  59.4660002 123.7210844  50.8851687
  58.8489173 122.9957672  50.7884740  58.9976490 124.4820204  50.5418761
  53.1327355 121.4942399  65.6250888  53.8426974 120.8535591  65.5837507
  53.0896663 121.7455294  66.5477069  51.8456289 118.4807617  67.4446528
  51.3093646 118.0298355  68.0968124  51.2572997 118.6153526  66.7016992
  51.2558548 117.9396268  50.0072992  50.3788014 117.8185069  49.6435238
  51.7316301 117.1482347  49.7551880  47.5795410 117.6163625  64.5299522
  47.4953599 117.0089294  63.7949932  46.7578117 118.1072643  64.5309019
  57.7519124 116.1017188  59.8969717  58.2487824 115.3487150  59.5770788
  56.9806106 116.1381505  59.3312927  65.6048881 121.8057554  61.5388009
  65.5938758 122.6882269  61.1681942  64.7366261 121.4529104  61.3442546
  54.3354093 118.2434571  59.6241402  53.9651880 117.6905611  60.3122308
  54.8313185 117.6392705  59.0716402  62.2221456 120.7006195  58.0058175
  62.6881908 121.5334186  57.9318478  62.6728957 120.2351176  58.7103433
  60.1938119 113.0686782  62.0449076  59.2801199 113.2991008  62.2131283
  60.6231220 113.1525226  62.8963109  59.9644577 121.2576673  64.5448970
  59.3116028 121.5052581  63.8901423  60.3424957 120.4440812  64.2111448
  56.0132150 121.9996485  71.0315007  55.3372787 121.8990614  71.7017383
  56.8359784 121.8435698  71.4951005  49.7319426 115.6538562  65.8694508
  49.7960753 116.5153393  65.4571906  49.6686547 115.0412563  65.1366867
  49.2071699 117.7261694  69.5167542  49.8343738 117.3438772  70.1305067
  48.3499618 117.5075896  69.8823235  45.9837242 119.5338123  55.4485897
  46.2790683 118.6248802  55.3952951  45.0825278 119.5125863  55.1266900
  49.5131489 117.6094120  61.4313446  48.7918075 118.2230088  61.2920919
  50.3024745 118.1451885  61.3530092  52.3157802 114.9448547  67.7054098
  52.8392204 115.1910843  68.4680407  52.0970136 115.7768581  67.2857235
  47.7125083 117.2152221  55.5725222  47.3837789 116.3349600  55.3900328
  48.0664454 117.1599890  56.4601612  50.8266906 117.5025191  55.9400700
  51.1662979 118.0311112  55.2179308  51.2739027 117.8405597  56.7159267
  53.5210347 115.8862242  65.3903768  53.1807168 115.0870055  65.7924448
  52.8149354 116.1863952  64.8180601  54.1726819 112.9711554  63.8431091
  54.9952888 112.4972032  63.7209981  54.4164883 113.7502038  64.3429777
  52.8135054 115.9999813  54.1393993  53.5343416 116.3781065  53.6357710
  52.1900358 116.7188689  54.2428971  56.9566177 116.7044961  55.0752325
  57.1729791 117.5869599  54.7741153  56.4760244 116.3131175  54.3457967
  51.6965398 119.6630675  61.6523070  51.5509979 119.9770978  62.5447351
  51.2190602 120.2815575  61.0993968  53.5561781 116.6533223  61.7003959
  53.5423350 115.7574316  61.3636257  54.2734209 116.6603886  62.3342245
  55.4087912 117.0870563  63.7457087  55.1505689 118.0087634  63.7441417
  54.8772952 116.6900997  64.4357551  52.9598677 115.5347603  56.9691529
  53.0814588 114.6064249  57.1682417  52.6700719 115.5486289  56.0569845
  55.8289867 113.2202513  60.1058249  55.8511564 113.2841846  59.1510229
  56.2457926 112.3807022  60.2998755  66.2073491 122.9557773  58.1437472
  66.6504637 122.2065098  57.7456595  65.3300002 122.9467909  57.7611204
  52.4439756 117.0479600  71.1781462  52.4927912 117.9241723  70.7959232
  52.9862270 116.5056993  70.6053105  63.0492477 124.4413190  67.7715328
  63.0990482 124.2763197  68.7130850  62.9406400 123.5740449  67.3813208
  60.3396239 120.4244118  69.0874634  61.2406102 120.2850583  68.7958632
  60.4144214 120.5898573  70.0272812  54.6739045 117.8010973  67.9327821
  53.8042354 118.0944539  67.6610409  54.9098525 118.3851418  68.6535084
  65.7506356 124.4263011  60.5359919  66.5853248 124.8652815  60.6997480
  65.8865485 123.9501664  59.7168165  62.7997862 121.9842746  66.4837407
  63.2751984 122.1770392  65.6756259  61.8763427 122.0401932  66.2380791
  57.3778079 114.0190590  65.4493241  57.8960022 114.7551617  65.1239730
  57.0233211 114.3254583  66.2840000  48.9577016 118.8795271  53.5654647
  48.2646261 118.9539626  52.9094683  48.7128768 118.1155614  54.0876164
  57.6290673 110.4390872  60.9694138  57.9092426 109.7714061  61.5954564
  58.4141280 110.6319968  60.4568801  61.4999531 118.8608506  64.7165713
  62.4516954 118.9606604  64.7377937  61.3302981 118.0686775  65.2263797
  59.5213911 115.9464089  64.9025114  58.9263843 116.2269102  64.2071602
  59.2363607 116.4357990  65.6741855  63.9787609 122.0814626  63.8308012
  63.9463929 121.1430627  64.0167696  64.5888232 122.1598663  63.0973837
  55.8170940 120.9510679  49.8735216  56.7630044 120.8216887  49.9423634
  55.4385185 120.2125341  50.3504645  64.1282097 118.8725669  63.8766296
  63.6121146 118.0884126  63.6896224  65.0122046 118.5444386  64.0412815
  61.7892824 112.6166685  59.8362108  61.5917645 112.3081773  60.7205440
  62.3992530 113.3428324  59.9660038  69.7964159 123.1430633  62.9714049
  70.5267547 122.8815921  63.5321753  69.1871104 122.4059355  63.0116117
  67.8779456 121.2838495  63.5688500  67.1512619 121.1494460  62.9604992
  67.4626743 121.5915324  64.3745218  54.0013857 118.8760655  49.8090102
  53.0945312 118.5793768  49.8852815  54.2789838 118.5790473  48.9424388
  55.6175923 113.4197545  55.9634343  54.8076651 113.0744630  56.3389589
  56.3060340 113.1105089  56.5521955  57.5466471 112.4975592  57.5858640
  58.0997509 112.9171045  58.2448663  57.7836557 111.5711340  57.6281596
  53.5699570 118.4862665  73.3661403  53.4696297 119.4357022  73.2973495
  53.3521112 118.1580904  72.4937474  52.7712641 115.7347590  49.9502081
  53.6331805 116.0602489  50.2097898  52.9562986 114.9479086  49.4375147
  60.9245278 114.6076117  57.0937304  60.3443947 115.2660921  56.7115356
  60.6581211 113.7853462  56.6824721  59.3748844 114.0081175  59.2958624
  59.8748623 114.1197709  58.4872943  60.0184452 113.7042227  59.9359433
  59.7070156 116.7676207  56.1493652  58.8196011 117.0525858  55.9313847
  60.1224145 116.6069971  55.3020929  63.0584692 116.7922728  59.8647991
  63.8345082 117.2819181  60.1372608  62.3332826 117.2180782  60.3219861
  65.4957251 117.5050348  60.9221932  66.0901742 117.2646083  60.2115240
  65.5683834 116.7857478  61.5495468  59.6811180 122.2830743  56.3643942
  59.6246381 122.7399295  55.5251575  60.2339522 121.5221428  56.1866785
  63.4915986 118.0720475  57.1894062  63.2352920 117.6717111  58.0202269
  62.8668854 118.7864269  57.0644201  67.8028323 120.8116548  59.6965353
  67.2427881 120.8809738  60.4696915  67.1971827 120.6357533  58.9764849
  60.4145959 123.4735524  53.6596471  60.3594763 123.3079796  52.7184916
  59.7892014 124.1811557  53.8158661  45.2038474 118.7103589  67.4857894
  45.8497338 118.2002543  67.9745119  44.9955625 119.4472271  68.0601319
  53.7242084 112.9743633  53.2381790  53.7120754 113.9185473  53.3950061
  54.6165506 112.7913779  52.9441251  57.5394204 109.5686410  57.4927727
  56.7726600 109.0144897  57.6384409  57.9504909 109.6408279  58.3541878
  49.5435965 115.8571206  71.5832908  50.4067427 115.5008011  71.7936232
  48.9701376 115.5185101  72.2708312  68.9642590 126.7090905  64.4447418
  68.6206859 127.5992546  64.3686528  69.3321552 126.5192562  63.5817003
  70.7630255 125.9684464  59.5465155  71.0689132 125.1081827  59.2591070
  71.4882860 126.5602084  59.3464149  68.4684427 125.7682790  60.9694138
  68.7486181 125.1005979  61.5954564  69.2535034 125.9611885  60.4568801
  72.6286579 127.9458603  59.8362108  72.4311400 127.6373691  60.7205440
  73.2386284 128.6720241  59.9660038  68.3787958 124.8978328  57.4927727
  67.6120354 124.3436815  57.6384409  68.7898663 124.9700197  58.3541878
   4.3521816  22.5183679  49.1140616   4.9900226  22.3990426  48.4103956
   4.2342659  23.4664523  49.1728568   1.1611523  22.4711107  49.0502140
   0.8230034  22.3552172  48.1622675   2.0301291  22.0702272  49.0303146
   1.6431306  23.6245959  55.0088346   1.6319946  23.2298757  54.1368849
   1.8051945  22.8912031  55.6022117   2.5997897  27.9917551  40.3513496
   1.9485877  28.5771631  39.9647510   3.3942260  28.5223746  40.4108534
   3.9063085  20.2435133  46.1893824   4.6926174  19.8254556  45.8384241
   4.1701789  21.1481225  46.3575472   4.0773162  25.6807983  40.8882480
   3.4418995  25.7542609  41.6003385   3.7470569  26.2701582  40.2101560
   9.3071512  20.1810366  47.0926802  10.0396684  19.6109583  47.3264632
   8.5510868  19.7931966  47.5333308   0.9247632  22.6037607  44.2890145
   0.5605839  22.0768228  45.0003066   1.7814748  22.2136076  44.1156630
   3.3228452  26.0944486  50.9517323   3.0229175  26.9969525  50.8433131
   2.9779511  25.8276669  51.8038476   6.7225596  18.6127026  48.6314761
   5.8142473  18.5442435  48.3373522   6.6713191  19.0898971  49.4596586
   8.5887242  16.8143465  50.4092635   7.9461622  17.1075998  49.7632429
   8.0842170  16.6996385  51.2145831   6.2427406  20.5606638  41.0978494
   7.1545262  20.7934024  40.9226191   5.7337053  21.1443682  40.5353573
   4.5268173  24.9831266  54.7339787   4.9351529  24.5413676  53.9894419
   3.8045435  24.4083893  54.9873979   0.8799243  19.9203872  52.1073343
   1.7260439  20.3443286  52.2507992   0.8197881  19.2637497  52.8011907
   4.8496988  25.5432456  48.4892075   4.2205850  25.7078170  47.7868143
   4.4622650  25.9574066  49.2603039   8.7286220  26.4786894  45.8436439
   8.0437258  26.8585795  45.2933472   8.8130069  27.0882221  46.5768387
   4.0298689  17.5808241  53.7654517   3.7859621  18.3350301  53.2288793
   4.3058619  17.9593588  54.6001764   5.9837151  24.1246853  52.4431783
   6.1954047  24.7678613  51.7666164   5.9366900  23.2909170  51.9753713
   3.5863380  16.7364674  49.3468355   2.7247859  17.0345927  49.6385092
   3.6125815  16.9535073  48.4149387   7.0982979  27.0018808  50.6154140
   7.9200423  26.5998996  50.3336822   7.0945382  26.8987043  51.5670256
  15.1888972  23.3457557  46.9639111  14.4352681  22.7764955  46.8083116
  15.3236514  23.3120221  47.9109746   0.5787600  28.2170959  42.6393831
   0.4433275  29.0622495  43.0678679   1.1197413  28.4190237  41.8759765
   2.2056077  28.8394526  56.7694173   1.7619931  28.0530904  56.4515077
   2.8673290  29.0273676  56.1038064   4.3037315  29.1197326  54.7975574
   4.2855790  29.9406207  54.3055843   5.2257235  28.9951401  55.0225715
   3.8930347  21.7310132  39.6765159   3.3776970  22.5014737  39.9153547
   3.6207655  21.0575268  40.2998221   8.8664621  24.4842487  41.6118333
   8.0894064  24.1453646  41.1673495   9.5456102  24.4895110  40.9373298
   3.6816650  19.6037224  41.5024941   3.3766785  19.9183374  42.3535084
   4.6347092  19.6818644  41.5452274   2.1263082  25.7627448  43.1517895
   1.5984443  25.0280207  42.8391132   1.6250584  26.5402124  42.9057863
   7.1055928  23.9576468  48.2684941   6.4479602  24.6475730  48.3565070
   7.9096327  24.3472900  48.6118927   5.9161387  22.3120841  46.3188883
   6.4293268  22.9450833  46.8210592   6.5662610  21.7122036  45.9532243
   3.1783761  32.2905165  39.0749554   2.5045460  32.5936862  39.6834512
   3.5649583  33.0934245  38.7255011   2.3942217  19.7870296  48.5647223
   1.4764779  20.0085243  48.4068911   2.8102361  19.8616607  47.7058930
   3.1777265  21.1861712  43.6949903   3.9249084  21.6983109  43.3857025
   3.4468855  20.8645765  44.5554297   1.4503915  23.6820253  40.6776858
   0.5415135  23.3979286  40.7749327   1.4798999  24.1019331  39.8180165
   6.6823183  27.2926842  44.4468025   6.2285510  26.4517752  44.5033216
   6.0517150  27.9288241  44.7842805   5.6256102  18.2218828  45.6768693
   4.8878859  17.7096215  46.0078935   5.8782876  17.7819210  44.8651970
   5.1256122  29.1303339  45.3817843   5.4179096  29.6908396  44.6630209
   5.6354743  29.4231900  46.1371003   1.1480003  25.2228996  38.0164936
   0.7099433  24.5064855  37.5570574   1.8890444  25.4505111  37.4550028
   3.5355381  20.3767758  53.3691926   3.8904769  20.6039231  54.2286392
   4.1827512  20.7086134  52.7469181   9.2653118  23.4986194  44.0741255
   9.1271017  23.6887789  43.1462444   8.9089337  24.2605576  44.5309306
   9.2922498  25.5662721  49.0852526   9.7259004  25.4738010  49.9335580
  10.0054078  25.5420221  48.4472542   3.0250392  29.1664815  50.6185627
   3.0787415  29.7355751  51.3863343   2.1565174  29.3366700  50.2539664
  10.1538047  25.6086421  51.6185412  10.3473937  26.5132232  51.8644687
  10.0538665  25.1493840  52.4523997   5.2153156  25.7593164  57.1926292
   5.0638662  25.5303716  56.2756376   5.2057835  26.7163765  57.2057637
   1.9838492  23.3325077  52.1772559   2.9130552  23.4836236  52.0041526
   1.5629522  23.4209097  51.3221205   1.3774976  32.4584838  41.2896633
   1.5526732  31.9872881  42.1042256   0.6907764  33.0850604  41.5177894
   2.3332039  26.7357344  47.3359934   1.9981872  26.6958114  48.2317584
   1.8335985  26.0702060  46.8630344   5.2691231  24.0813378  37.6096994
   4.6520401  23.3560206  37.5130047   4.8007719  24.8422738  37.2664068
   6.9245362  28.7912286  55.2702774   6.8657909  28.1071507  54.6033357
   7.3264881  29.5331276  54.8183400   6.9262770  26.7551870  53.5016754
   6.0389548  26.4177792  53.6243153   7.4961321  26.0234902  53.7385519
   3.5550353  16.4619722  46.6215024   4.0519052  15.7089685  46.3016094
   2.7837334  16.4984039  46.0558233  11.4080110  22.1660088  48.2633316
  11.3969987  23.0484803  47.8927249  10.5397490  21.8131639  48.0687853
   2.9162607  31.3140157  52.6236156   3.6290579  31.9487622  52.5512057
   2.4252635  31.4104023  51.8076158   4.6380134  25.2191409  44.1953447
   3.7036412  25.3392872  44.0258152   4.8156802  24.3163876  43.9313457
   8.0252685  21.0608729  44.7303482   8.4913137  21.8936720  44.6563784
   8.4760185  20.5953710  45.4348740   6.0928916  27.4052550  41.7289634
   6.3688760  27.2909145  42.6383508   5.2233415  27.0070035  41.6901807
   5.7675806  21.6179208  51.2694277   5.1147256  21.8655115  50.6146730
   6.1456186  20.8043346  50.9356754   2.7282980  31.6538901  45.3722447
   2.9105375  30.8360557  45.8350200   3.5515966  31.8706593  44.9347337
   3.0625146  30.5807086  42.6337496   3.5912912  30.0699541  42.0207658
   3.3253365  30.2649616  43.4983029   1.8163379  22.3599019  57.7560314
   1.1404016  22.2593148  58.4262689   2.6391013  22.2038233  58.2196311
   0.5586162  33.6665946  51.9917930   1.1104470  33.8297568  52.7567015
   0.8992356  34.2570384  51.3197955   5.4097036  28.4927204  57.8466584
   5.9536940  29.1057162  57.3521539   4.8283881  29.0506782  58.3633597
   3.6954549  31.6147922  48.9781612   3.5705689  30.8137662  48.4692558
   4.3533640  32.1094115  48.4895582   5.7589458  29.4156942  50.6061162
   4.8119793  29.2962293  50.5339489   6.1072231  28.5279440  50.6887424
   2.7635891  29.2109658  46.8065514   2.6160853  28.2826365  46.9873085
   3.5889385  29.2329749  46.3222590   6.3670013  30.0338217  47.8930387
   7.2916560  29.8281078  47.7554838   6.1985316  29.7854618  48.8019729
   6.1565329  30.5523884  43.2492479   6.3302207  29.9870307  42.4966331
   6.6494220  31.3524779  43.0671969  12.0104720  23.3160307  44.8682778
  12.4535866  22.5667632  44.4701902  11.1331231  23.3070444  44.4856510
   7.1440502  29.8690649  40.3489377   7.8391406  30.4897341  40.5676692
   7.4863652  29.0186000  40.6241755   9.0431925  27.3190354  41.8776708
   9.5683249  27.6577627  41.1526028   8.9554277  26.3837369  41.6939842
   0.7051973  31.2324428  54.0066584   1.0139100  30.9873575  54.8789284
   1.5027455  31.4371066  53.5185455   8.7325831  27.9523258  57.1827906
   7.9421374  27.9347397  56.6432405   8.4959185  28.4911551  57.9376942
   8.8523706  24.8015724  54.4960634   8.9021711  24.6365732  55.4376157
   8.7437629  23.9342983  54.1058515   6.1427468  20.7846652  55.8119941
   7.0437331  20.6453117  55.5203939   6.2175443  20.9501107  56.7518118
  10.3541903  27.2212666  54.7402656  10.0626711  27.5842646  55.5766117
   9.7414034  26.5079674  54.5615988  11.5537585  24.7865545  47.2605226
  12.3884476  25.2255350  47.4242786  11.6896714  24.3104199  46.4413472
   8.6029091  22.3445280  53.2082714   9.0783212  22.5372927  52.4001565
   7.6794656  22.4004466  52.9626097   1.2355370  29.9752400  39.2564471
   0.6629337  30.5942587  38.8034942   1.8088164  30.5251762  39.7904393
   7.3030760  19.2211040  51.4411019   8.2548183  19.3209138  51.4623243
   7.1334210  18.4289309  51.9509104   5.3245139  16.3066624  51.6270420
   4.7295071  16.5871636  50.9316909   5.0394836  16.7960525  52.3987161
   4.4552630  30.2589550  40.3873053   5.3883303  30.1935112  40.5905928
   4.3675843  31.0945817  39.9287586   7.0840646  29.5755421  37.3477000
   7.0054278  29.2415284  38.2412758   7.9050313  30.0677189  37.3468473
   9.7818838  22.4417160  50.5553319   9.7495158  21.5033161  50.7413003
  10.3919461  22.5201197  49.8219144   1.6202168  21.3113213  36.5980523
   2.5661273  21.1819421  36.6668941   1.2416413  20.5727875  37.0749951
   9.9313326  19.2328204  50.6011602   9.4152375  18.4486660  50.4141531
  10.8153275  18.9046920  50.7658122  15.5995387  23.5033167  49.6959356
  16.3298776  23.2418455  50.2567059  14.9902333  22.7661889  49.7361424
  13.6810685  21.6441030  50.2933807  12.9543848  21.5096994  49.6850299
  13.2657971  21.9517858  51.0990525   1.5040861  25.3630959  58.0581180
   2.4243871  25.5409558  58.2521227   1.4690444  24.4187005  57.9060879
   6.7276507  14.9678651  43.8182610   6.1475176  15.6263455  43.4360663
   6.4612439  14.1455996  43.4070028   5.5101385  17.1278742  42.8738959
   4.6227240  17.4128392  42.6559154   5.9255374  16.9672505  42.0266236
   8.8615921  17.1525262  46.5893298   9.6376311  17.6421715  46.8617915
   8.1364055  17.5783317  47.0465167  11.2988480  17.8652882  47.6467239
  11.8932970  17.6248618  46.9360547  11.3715063  17.1460012  48.2740775
   4.6544598  26.8923416  36.9686979   5.3580448  27.0973419  37.5844634
   3.9307247  27.4600178  37.2336062   5.4842409  22.6433277  43.0889249
   5.4277610  23.1001829  42.2496881   6.0370751  21.8823962  42.9112092
   9.2947214  18.4323009  43.9139368   9.0384149  18.0319645  44.7447576
   8.6700082  19.1466803  43.7889508  13.6059552  21.1719083  46.4210660
  13.0459110  21.2412272  47.1942222  13.0003056  20.9960067  45.7010156
   6.5631296  27.3305945  39.0185439   7.3976900  26.8987144  38.8362914
   6.4015639  27.1587959  39.9462333   6.2177188  23.8338059  40.3841778
   6.1625992  23.6682330  39.4430222   5.5923243  24.5414092  40.5403968
   3.5323095  26.1386971  59.7095341   4.4014255  26.3127623  59.3481976
   3.0529846  26.9581387  59.5871070  15.1915571  37.8475597  49.1140616
  15.8293981  37.7282344  48.4103956  15.0736414  38.7956440  49.1728568
  12.0005277  37.8003025  49.0502140  11.6623789  37.6844089  48.1622675
  12.8695045  37.3994190  49.0303146   7.8592093  39.6538501  45.0399031
   7.2956958  39.5628438  44.2715319   7.7444488  38.8338405  45.5201524
  12.4825060  38.9537876  55.0088346  12.4713701  38.5590675  54.1368849
  12.6445699  38.2203949  55.6022117   5.4056525  41.1489693  47.8783252
   6.1977817  40.8080517  47.4629551   5.6453175  41.2584668  48.7985405
  13.4391651  43.3209469  40.3513496  12.7879631  43.9063549  39.9647510
  14.2336014  43.8515664  40.4108534   7.3647279  40.4098606  40.7500630
   8.1378155  39.8627593  40.6113506   7.7172677  41.2742855  40.9615092
   9.2032321  41.7374988  53.9567530   8.9122187  42.6420619  53.8414196
   9.8389306  41.7791516  54.6711599  10.1288528  39.1151837  50.5468889
  10.7252100  38.8907859  49.8325852  10.1863500  38.3736582  51.1494337
   9.7013556  36.5691272  38.3819080   9.9539077  36.0472793  37.6202543
   8.7638115  36.4057417  38.4845764  14.7456839  35.5727050  46.1893824
  15.5319928  35.1546474  45.8384241  15.0095544  36.4773143  46.3575472
  14.9166917  41.0099901  40.8882480  14.2812750  41.0834527  41.6003385
  14.5864323  41.5993499  40.2101560  20.1465266  35.5102284  47.0926802
  20.8790438  34.9401500  47.3264632  19.3904622  35.1223884  47.5333308
   9.4209845  38.4719378  40.5843455   9.3046103  37.7964281  41.2524540
   9.5312105  37.9851752  39.7675608  11.7641386  37.9329525  44.2890145
  11.3999593  37.4060146  45.0003066  12.6208502  37.5427994  44.1156630
  17.6690687  29.2223858  51.5521411  17.3374011  30.0919269  51.3282626
  17.0736300  28.9060142  52.2315441  11.4046873  32.9619425  39.2851493
  11.5721275  33.8299661  39.6521964  11.2144042  33.1246706  38.3612782
  14.1622206  41.4236404  50.9517323  13.8622929  42.3261442  50.8433131
  13.8173266  41.1568587  51.8038476   7.6134688  37.8750200  46.9854028
   6.6885184  37.7426415  47.1931720   7.8619101  38.6544420  47.4823970
  17.5619350  33.9418944  48.6314761  16.6536227  33.8734352  48.3373522
  17.5106946  34.4190889  49.4596586  11.3836094  35.4177082  40.2698160
  11.2635719  35.8634133  41.1083640  10.6888682  35.7662400  39.7111698
   4.9743499  37.5183474  47.8197817   5.1035880  37.7717953  48.7337229
   4.2940950  38.1111182  47.5002472   9.1442986  48.1880724  43.9188291
   9.0667016  49.1388549  43.9976772   8.5404630  47.8426596  44.5763217
  11.6360216  35.3608589  56.5749658  10.8593550  35.9202510  56.5652523
  12.2750779  35.8465372  57.0964528  19.4280996  32.1435382  50.4092635
  18.7855377  32.4367915  49.7632429  18.9235925  32.0288303  51.2145831
  17.0821160  35.8898555  41.0978494  17.9939016  36.1225942  40.9226191
  16.5730807  36.4735600  40.5353573   9.8906588  38.1694043  56.1367625
  10.6321272  38.7079087  55.8602449   9.1843574  38.7960332  56.2939177
  15.3661928  40.3123183  54.7339787  15.7745284  39.8705594  53.9894419
  14.6439189  39.7375811  54.9873979  11.7192998  35.2495790  52.1073343
  12.5654193  35.6735204  52.2507992  11.6591635  34.5929414  52.8011907
  15.6890742  40.8724374  48.4892075  15.0599605  41.0370088  47.7868143
  15.3016404  41.2865983  49.2603039  19.5679974  41.8078812  45.8436439
  18.8831012  42.1877713  45.2933472  19.6523824  42.4174138  46.5768387
  14.8692443  32.9100158  53.7654517  14.6253375  33.6642219  53.2288793
  15.1452374  33.2885506  54.6001764  16.8230906  39.4538771  52.4431783
  17.0347801  40.0970531  51.7666164  16.7760654  38.6201087  51.9753713
  14.4257135  32.0656591  49.3468355  13.5641614  32.3637845  49.6385092
  14.4519570  32.2826990  48.4149387  11.2418704  40.6098782  45.7542160
  11.7057050  40.8886485  44.9646783  10.9775502  39.7082227  45.5715251
   8.1342785  40.1570264  48.6921924   8.7044142  40.5857532  48.0539408
   8.7250897  39.8752848  49.3906109  10.1787590  36.7321934  42.5631726
  10.8811634  37.1842978  43.0305652   9.8468219  36.0905753  43.1911619
   8.6267952  35.3233691  56.9382935   7.9966612  36.0049972  57.1718332
   8.5204040  35.2116773  55.9936073   3.9212924  34.9905487  47.8648859
   3.1311978  35.2463016  47.3888970   4.4124172  35.8053825  47.9700900
  17.9376734  42.3310726  50.6154140  18.7594178  41.9290913  50.3336822
  17.9339137  42.2278960  51.5670256   5.8727670  35.3550066  44.8232336
   5.0758833  35.4668760  45.3415832   5.6453262  35.6936718  43.9573226
  11.7033337  41.8794769  52.7714851  11.7677770  42.3415177  53.6073022
  10.9944261  41.2492134  52.8997160   2.2050627  35.2435977  50.2963850
   2.4558666  36.1282987  50.5621426   2.7410176  35.0640579  49.5238942
  26.0282727  38.6749475  46.9639111  25.2746435  38.1056873  46.8083116
  26.1630268  38.6412139  47.9109746  11.4181355  43.5462877  42.6393831
  11.2827030  44.3914413  43.0678679  11.9591167  43.7482155  41.8759765
   7.9048695  29.6254457  59.3008186   7.5115640  29.0720655  59.9755830
   8.7214835  29.9365035  59.6914704   4.8710752  41.0638315  43.2121756
   5.3835273  41.8581565  43.3627321   5.5233465  40.3664605  43.1455357
   6.6805637  44.1804071  45.2944509   6.8572265  45.1022036  45.1065493
   7.4762471  43.8662490  45.7238889  10.8216656  31.0412336  56.8928443
  11.5626369  31.6419489  56.8132905  11.0534578  30.2989974  56.3346485
   5.9657994  36.2268703  55.1706672   5.8511509  35.3253960  55.4713771
   5.1102511  36.4732400  54.8191489  13.0449831  44.1686443  56.7694173
  12.6013686  43.3822822  56.4515077  13.7067045  44.3565594  56.1038064
   7.8036953  45.6982245  51.2954851   8.3544378  45.5699308  50.5231845
   6.9648428  45.9977134  50.9449744  15.1431069  44.4489243  54.7975574
  15.1249545  45.2698124  54.3055843  16.0650989  44.3243319  55.0225715
  11.6004124  41.9633373  55.6399083  12.1332460  41.2021661  55.4098391
  11.0718205  41.6707025  56.3823237  14.7673819  27.0693439  51.1692724
  14.4238088  27.9595081  51.0931835  15.1352781  26.8795096  50.3062309
   2.8359669  39.3926969  43.9881326   3.6734891  39.8023978  43.7715034
   3.0137937  38.4526411  43.9581520  14.7324101  37.0602050  39.6765159
  14.2170725  37.8306655  39.9153547  14.4601410  36.3867186  40.2998221
  12.3171212  31.9051751  44.7350398  11.4612809  31.5158601  44.5556036
  12.7298164  31.9843712  43.8750183  13.8470359  29.4398094  49.1341958
  13.3435155  29.4028229  48.3209763  14.1400966  30.3490837  49.1938614
  10.0913245  29.5236824  48.1408139  10.9566242  29.3279632  47.7814029
  10.1590754  29.2947175  49.0677496  19.7058375  39.8134405  41.6118333
  18.9287818  39.4745564  41.1673495  20.3849856  39.8187028  40.9373298
  14.5210404  34.9329142  41.5024941  14.2160540  35.2475291  42.3535084
  15.4740847  35.0110562  41.5452274  12.9656836  41.0919365  43.1517895
  12.4378198  40.3572125  42.8391132  12.4644339  41.8694042  42.9057863
  17.9449682  39.2868386  48.2684941  17.2873357  39.9767647  48.3565070
  18.7490081  39.6764818  48.6118927   7.6975564  31.7539032  45.5124506
   8.2719316  31.5314213  44.7797699   8.2846546  31.8227726  46.2653107
  16.7555141  37.6412759  46.3188883  17.2687023  38.2742750  46.8210592
  17.4056365  37.0413954  45.9532243   8.0245151  33.7843493  39.5320391
   7.1882463  34.1218179  39.8529666   7.8849921  33.6492472  38.5947528
   9.9998232  28.6280281  44.2399576   9.3462644  28.3129298  43.6156190
   9.9578706  28.0056021  44.9659398  11.1109436  38.9099576  36.1552868
  10.2036498  38.6788829  36.3544017  11.6080468  38.1137195  36.3426849
  14.0177515  47.6197083  39.0749554  13.3439214  47.9228780  39.6834512
  14.4043337  48.4226163  38.7255011  13.2335972  35.1162214  48.5647223
  12.3158533  35.3377161  48.4068911  13.6496116  35.1908525  47.7058930
  14.0171020  36.5153630  43.6949903  14.7642839  37.0275027  43.3857025
  14.2862609  36.1937682  44.5554297  12.2897670  39.0112170  40.6776858
  11.3808889  38.7271203  40.7749327  12.3192754  39.4311249  39.8180165
  17.5216937  42.6218760  44.4468025  17.0679264  41.7809670  44.5033216
  16.8910904  43.2580158  44.7842805  16.4649857  33.5510746  45.6768693
  15.7272614  33.0388132  46.0078935  16.7176630  33.1111128  44.8651970
  15.9649877  44.4595257  45.3817843  16.2572851  45.0200314  44.6630209
  16.4748497  44.7523818  46.1371003  16.5661484  26.3286998  46.2710462
  16.8720361  25.4684361  45.9836377  17.2914089  26.9204618  46.0709456
   2.8585840  36.7317685  44.6592060   2.6610240  36.1387045  43.9343126
   2.3032504  36.4269895  45.3767999  10.8382564  36.6240791  46.7786653
  10.8931174  35.6714627  46.7029130  10.0273766  36.7800230  47.2627951
  11.9873758  40.5520914  38.0164936  11.5493188  39.8356773  37.5570574
  12.7284199  40.7797029  37.4550028   8.7774924  35.2417851  44.5377032
   7.9642789  35.5412021  44.9442224   9.2733918  34.8473540  45.2551514
  10.9283502  45.2375608  46.4711297  10.8859681  45.4636454  45.5419829
  11.8446201  45.0038982  46.6197098  14.3749136  35.7059675  53.3691926
  14.7298523  35.9331148  54.2286392  15.0221267  36.0378052  52.7469181
  20.1046872  38.8278111  44.0741255  19.9664771  39.0179707  43.1462444
  19.7483091  39.5897494  44.5309306   8.2688999  32.8136206  50.1538267
   8.9088378  32.6724965  49.4561230   7.4366529  32.5270720  49.7776869
  20.1316252  40.8954638  49.0852526  20.5652759  40.8029927  49.9335580
  20.8447833  40.8712139  48.4472542   9.0449303  42.1138637  46.2673259
   9.8389901  41.6188957  46.0655834   8.3340995  41.5856500  45.9040965
  13.8644147  44.4956732  50.6185627  13.9181169  45.0647669  51.3863343
  12.9958928  44.6658617  50.2539664   5.3532066  36.2581719  42.3433012
   4.4229654  36.1966174  42.5602974   5.4489538  35.7357671  41.5469653
   5.2717615  32.7836531  44.9311254   5.5324432  33.6981865  44.8220414
   6.0934787  32.3160974  45.0807866   6.7442540  34.1974289  52.1010078
   7.4165594  33.9891651  51.4522727   5.9172327  33.9996375  51.6615310
  20.9931802  40.9378339  51.6185412  21.1867692  41.8424149  51.8644687
  20.8932420  40.4785758  52.4523997  12.6468112  30.8236229  54.1175739
  11.9996027  31.5226179  54.0240215  13.4169128  31.2572373  54.4851987
  16.0546910  41.0885082  57.1926292  15.9032417  40.8595633  56.2756376
  16.0451590  42.0455683  57.2057637  12.8232247  38.6616994  52.1772559
  13.7524307  38.8128154  52.0041526  12.4023277  38.7501015  51.3221205
  11.6220578  42.6867659  49.9471096  11.4831664  42.3186443  50.8197035
  10.8335175  43.2015298  49.7755054  12.2168730  47.7876755  41.2896633
  12.3920486  47.3164798  42.1042256  11.5301518  48.4142521  41.5177894
  13.1725794  42.0649261  47.3359934  12.8375626  42.0250031  48.2317584
  12.6729739  41.3993977  46.8630344   7.1470038  37.4716891  52.8612515
   7.0089836  36.7397130  53.4624054   8.0574961  37.3825792  52.5796703
  16.1084985  39.4105296  37.6096994  15.4914156  38.6852124  37.5130047
  15.6401474  40.1714656  37.2664068   9.7752338  37.1836851  52.3496195
  10.4851957  36.5430043  52.3082813   9.7321646  37.4349746  53.2722376
  17.7639117  44.1204204  55.2702774  17.7051663  43.4363424  54.6033357
  18.1658635  44.8623194  54.8183400   8.4881272  34.1702069  54.1691834
   7.9518629  33.7192807  54.8213431   7.8997981  34.3047978  53.4262299
   6.7829816  50.9366118  48.0636493   7.0226414  51.5684642  48.7415512
   5.9399012  50.5854158  48.3501852   7.8983531  33.6290720  36.7318298
   7.0212998  33.5079521  36.3680545   8.3741284  32.8376798  36.4797187
  17.7656524  42.0843788  53.5016754  16.8783303  41.7469710  53.6243153
  18.3355075  41.3526819  53.7385519   4.2220393  33.3058076  51.2544829
   4.1378582  32.6983746  50.5195239   3.4003100  33.7967095  51.2554325
  11.2957678  46.7445240  50.4677997  11.2227849  47.5500212  50.9797302
  10.8535071  46.9437206  49.6426018  11.0847457  45.9817010  43.9780819
  10.3014979  46.5238691  44.0719043  11.7840202  46.4990990  44.3775060
  14.3944107  31.7911640  46.6215024  14.8912807  31.0381602  46.3016094
  13.6231089  31.8275957  46.0558233  22.2473865  37.4952005  48.2633316
  22.2363741  38.3776721  47.8927249  21.3791244  37.1423556  48.0687853
  13.7556361  46.6432074  52.6236156  14.4684333  47.2779539  52.5512057
  13.2646390  46.7395940  51.8076158  15.4773888  40.5483327  44.1953447
  14.5430167  40.6684790  44.0258152  15.6550557  39.6455794  43.9313457
  10.9779076  33.9329023  46.3486709  10.6076864  33.3800063  47.0367614
  11.4738169  33.3287156  45.7961709  18.8646439  36.3900646  44.7303482
  19.3306892  37.2228638  44.6563784  19.3153940  35.9245628  45.4348740
   8.8068275  44.3926518  53.4441727   9.5077734  45.0263001  53.5971121
   8.3363390  44.7341249  52.6837366  16.9322671  42.7344468  41.7289634
  17.2082514  42.6201062  42.6383508  16.0627169  42.3361953  41.6901807
  16.8363102  28.7581233  48.7694383  15.9226182  28.9885460  48.9376590
  17.2656204  28.8419677  49.6208415  16.6069561  36.9471125  51.2694277
  15.9541011  37.1947033  50.6146730  16.9849941  36.1335264  50.9356754
  13.5676735  46.9830819  45.3722447  13.7499129  46.1652474  45.8350200
  14.3909721  47.1998511  44.9347337  13.9018900  45.9099004  42.6337496
  14.4306666  45.3991458  42.0207658  14.1647120  45.5941534  43.4983029
  12.6557134  37.6890936  57.7560314  11.9797771  37.5885066  58.4262689
  13.4784768  37.5330150  58.2196311   4.4035993  43.9262873  50.3772829
   4.9889430  43.1806561  50.5100733   4.2060831  44.2366830  51.2609493
   7.2574648  46.9614120  45.3935272   6.5885023  47.4460248  44.9099312
   7.1187518  47.2083341  46.3078650  11.3979917  48.9957864  51.9917930
  11.9498225  49.1589485  52.7567015  11.7386110  49.5862302  51.3197955
   6.3744410  31.3433014  52.5939815   6.4385736  32.2047845  52.1817212
   6.3111530  30.7307015  51.8612173   5.8496682  33.4156146  56.2412849
   6.4768721  33.0333224  56.8550373   4.9924601  33.1970348  56.6068541
  16.2490791  43.8219121  57.8466584  16.7930695  44.4349080  57.3521539
  15.6677636  44.3798700  58.3633597   2.6262225  35.2232575  42.1731204
   2.9215666  34.3143254  42.1198258   1.7250261  35.2020315  41.8512206
  14.5348304  46.9439839  48.9781612  14.4099443  46.1429579  48.4692558
  15.1927395  47.4386033  48.4895582   6.1556472  33.2988572  48.1558752
   5.4343058  33.9124540  48.0166226   6.9449728  33.8346337  48.0775398
  16.5983212  44.7448860  50.6061162  15.6513548  44.6254211  50.5339489
  16.9465985  43.8571358  50.6887424   8.9582786  30.6342998  54.4299404
   9.4817187  30.8805295  55.1925713   8.7395119  31.4663033  54.0102541
   4.3550067  32.9046673  42.2970529   4.0262773  32.0244052  42.1145635
   4.7089437  32.8494342  43.1846918  13.6029646  44.5401576  46.8065514
  13.4554608  43.6118283  46.9873085  14.4283139  44.5621666  46.3222590
   7.4691890  33.1919643  42.6646007   7.8087962  33.7205564  41.9424615
   7.9164010  33.5300049  43.4404573  17.2063767  45.3630134  47.8930387
  18.1310315  45.1572996  47.7554838  17.0379071  45.1146536  48.8019729
  10.1635331  31.5756694  52.1149075   9.8232151  30.7764507  52.5169755
   9.4574337  31.8758404  51.5425908  10.8151802  28.6606006  50.5676398
  11.6377872  28.1866484  50.4455288  11.0589866  29.4396490  51.0675084
   9.4560037  31.6894264  40.8639299  10.1768399  32.0675517  40.3603016
   8.8325341  32.4083141  40.9674277  13.5991160  32.3939413  41.7997632
  13.8154774  33.2764051  41.4986460  13.1185227  32.0025627  41.0703274
   8.3390381  35.3525127  48.3768376   8.1934962  35.6665430  49.2692658
   7.8615585  35.9710027  47.8239275  10.1986764  32.3427675  48.4249266
  10.1848333  31.4468768  48.0881564  10.9159192  32.3498338  49.0587552
  12.0512895  32.7765015  50.4702393  11.7930673  33.6982085  50.4686724
  11.5197935  32.3795449  51.1602857  16.9959084  45.8815802  43.2492479
  17.1695961  45.3162224  42.4966331  17.4887975  46.6816697  43.0671969
   2.8136043  37.8930471  51.3156038   2.2689511  38.6690279  51.4476312
   3.6915393  38.2401275  51.1575159   9.6023660  31.2242055  43.6936836
   9.7239571  30.2958701  43.8927724   9.3125702  31.2380741  42.7815151
  12.4714850  28.9096965  46.8303556  12.4936547  28.9736298  45.8755535
  12.8882909  28.0701474  47.0244062  22.8498475  38.6452225  44.8682778
  23.2929621  37.8959550  44.4701902  21.9724985  38.6362361  44.4856510
  17.9834256  45.1982566  40.3489377  18.6785161  45.8189259  40.5676692
  18.3257406  44.3477918  40.6241755   3.6002065  37.0200367  54.2086194
   2.8583801  37.1683003  54.7950825   3.2794810  37.2808633  53.3452944
  19.8825679  42.6482272  41.8776708  20.4077003  42.9869545  41.1526028
  19.7948032  41.7129287  41.6939842  11.5445728  46.5616345  54.0066584
  11.8532854  46.3165492  54.8789284  12.3421210  46.7662984  53.5185455
  11.5666340  48.7154255  46.2371961  11.1271330  48.2230634  46.9304818
  12.3174457  48.1727223  45.9964036   4.0458679  44.9065796  46.2396589
   4.8716699  44.6069568  45.8595233   3.6952731  44.1373418  46.6886378
   9.0140212  44.2592264  48.3094263   8.3920221  43.5962969  48.0096490
   9.6845079  44.2853396  47.6267910   2.2467284  42.8252122  47.1985523
   1.4099192  42.3974297  47.0169524   2.2190929  43.0184566  48.1356314
   9.0864740  32.7374052  57.9026769   9.1352895  33.6136175  57.5204538
   9.6287254  32.1951445  57.3298412  19.5719585  43.2815175  57.1827906
  18.7815129  43.2639314  56.6432405  19.3352940  43.8203469  57.9376942
  19.6917460  40.1307642  54.4960634  19.7415465  39.9657649  55.4376157
  19.5831384  39.2634901  54.1058515   8.5753719  42.8096188  41.7852723
   8.7241839  43.4931652  41.1319396   9.3820162  42.7901278  42.3002179
  16.9821223  36.1138570  55.8119941  17.8831085  35.9745035  55.5203939
  17.0569197  36.2793025  56.7518118  11.3164028  33.4905425  54.6573127
  10.4467337  33.7838991  54.3855716  11.5523508  34.0745870  55.3780391
  21.1935657  42.5504583  54.7402656  20.9020465  42.9134564  55.5766117
  20.5807788  41.8371592  54.5615988  22.3931339  40.1157463  47.2605226
  23.2278231  40.5547267  47.4242786  22.5290468  39.6396116  46.4413472
  19.4422845  37.6737198  53.2082714  19.9176967  37.8664844  52.4001565
  18.5188411  37.7296384  52.9626097   6.3306352  38.8361365  42.7913792
   6.0852394  37.9323695  42.9894002   6.5002266  38.8378516  41.8493270
  14.0203062  29.7085042  52.1738548  14.5385006  30.4446068  51.8485036
  13.6658195  30.0149035  53.0085307   5.6001999  34.5689723  40.2899954
   4.9071244  34.6434078  39.6339989   5.3553751  33.8050066  40.8121470
  14.2715656  26.1285324  47.6939444  14.5517410  25.4608513  48.3199871
  15.0566263  26.3214420  47.1814108  12.0749124  45.3044318  39.2564471
  11.5023092  45.9234505  38.8034942  12.6481918  45.8543680  39.7904393
  18.1424514  34.5502958  51.4411019  19.0941937  34.6501056  51.4623243
  17.9727965  33.7581227  51.9509104  16.1638894  31.6358541  51.6270420
  15.5688826  31.9163554  50.9316909  15.8788591  32.1252442  52.3987161
  15.2946384  45.5881468  40.3873053  16.2277057  45.5227030  40.5905928
  15.2069597  46.4237735  39.9287586  17.9234401  44.9047338  37.3477000
  17.8448032  44.5707202  38.2412758  18.7444068  45.3969106  37.3468473
  20.6212592  37.7709078  50.5553319  20.5888912  36.8325078  50.7413003
  21.2313216  37.8493114  49.8219144  12.4595923  36.6405131  36.5980523
  13.4055028  36.5111339  36.6668941  12.0810168  35.9019793  37.0749951
  20.7707081  34.5620121  50.6011602  20.2546129  33.7778578  50.4141531
  21.6547029  34.2338838  50.7658122  18.4317808  28.3061137  46.5607415
  18.2342629  27.9976225  47.4450747  19.0417513  29.0322776  46.6905345
  26.4389142  38.8325085  49.6959356  27.1692530  38.5710373  50.2567059
  25.8296087  38.0953807  49.7361424  24.5204439  36.9732947  50.2933807
  23.7937603  36.8388912  49.6850299  24.1051726  37.2809776  51.0990525
  12.3434616  40.6922877  58.0581180  13.2637625  40.8701476  58.2521227
  12.3084199  39.7478922  57.9060879  10.6438840  34.5655107  36.5335408
   9.7370296  34.2688220  36.6098122  10.9214821  34.2684925  35.6669695
   1.5616781  35.8861471  46.9834455   1.2419565  35.0326779  46.6908829
   1.0150209  36.1010049  47.7392422   5.3396688  38.6023912  50.7003961
   5.5582698  39.5341019  50.7191995   5.7522462  38.2431886  51.4858765
  12.2600906  29.1091997  42.6879650  11.4501634  28.7639082  43.0634896
  12.9485323  28.7999541  43.2767261  14.1891454  28.1870044  44.3103946
  14.7422493  28.6065497  44.9693969  14.4261541  27.2605792  44.3526902
  10.2124553  34.1757117  60.0906710  10.1121280  35.1251474  60.0218801
   9.9946095  33.8475356  59.2182780   9.4137625  31.4242042  36.6747387
  10.2756789  31.7496941  36.9343205   9.5987969  30.6373538  36.1620453
   1.4305041  39.5064382  48.9527576   0.7368512  39.0918335  48.4397531
   2.1778032  39.5484919  48.3560995  17.5670261  30.2970569  43.8182610
  16.9868930  30.9555373  43.4360663  17.3006194  29.4747913  43.4070028
  16.0173828  29.6975627  46.0203931  16.5173606  29.8092161  45.2118250
  16.6609436  29.3936679  46.6604739  10.0755823  37.6054256  58.9071772
   9.5922905  38.4054616  59.1135661  10.1616762  37.6162201  57.9539216
   3.3441783  39.4382636  46.8293591   3.3212471  39.5370323  45.8775474
   3.6542420  40.2847787  47.1510757   6.0029161  41.4958791  50.9440206
   6.9572414  41.4642733  50.8770137   5.8041685  41.0349415  51.7590431
   6.5928543  40.0659907  53.5111003   7.4121432  40.5603986  53.5345841
   6.8665351  39.1491875  53.4828571  16.3495139  32.4570659  42.8738959
  15.4620994  32.7420310  42.6559154  16.7649128  32.2964423  42.0266236
  19.7009675  32.4817180  46.5893298  20.4770066  32.9713633  46.8617915
  18.9757810  32.9075234  47.0465167  22.1382234  33.1944799  47.6467239
  22.7326725  32.9540535  46.9360547  22.2108818  32.4751930  48.2740775
   4.3579390  47.0378410  47.9610403   4.2233858  46.2778811  47.3948401
   3.9411452  47.7619310  47.4939192  15.4938353  42.2215334  36.9686979
  16.1974203  42.4265336  37.5844634  14.7701002  42.7892096  37.2336062
  16.3236163  37.9725195  43.0889249  16.2671364  38.4293747  42.2496881
  16.8764505  37.2115880  42.9112092  20.1340969  33.7614927  43.9139368
  19.8777903  33.3611563  44.7447576  19.5093837  34.4758721  43.7889508
  24.4453307  36.5011000  46.4210660  23.8852865  36.5704190  47.1942222
  23.8396810  36.3251985  45.7010156   7.5148516  47.9347727  48.1728846
   7.3980900  48.8793160  48.0707536   6.6940962  47.6321289  48.5614645
  17.4025050  42.6597863  39.0185439  18.2370654  42.2279062  38.8362914
  17.2409393  42.4879877  39.9462333  17.0570942  39.1629976  40.3841778
  17.0019746  38.9974248  39.4430222  16.4316998  39.8706009  40.5403968
   1.8463457  34.3998041  54.2103200   2.4922321  33.8896995  54.6990425
   1.6380608  35.1366722  54.7846626  14.3716850  41.4678888  59.7095341
  15.2408009  41.6419541  59.3481976  13.8923601  42.2873305  59.5871070
  10.3667068  28.6638085  39.9627096  10.3545738  29.6079925  40.1195367
  11.2590490  28.4808231  39.6686558   8.5403030  48.5875989  51.3884775
   9.4430276  48.6199600  51.7051269   8.3140400  47.6576440  51.4031110
  10.2956632  47.3406976  48.0494853   9.3452263  47.3408837  47.9359225
  10.5989118  46.5939710  47.5330888  14.1819187  25.2580862  44.2173033
  13.4151583  24.7039349  44.3629716  14.5929892  25.3302731  45.0787185
   6.1860948  31.5465658  58.3078215   7.0492410  31.1902463  58.5181539
   5.6126359  31.2079553  58.9953619  26.0309325  53.1767514  49.1140616
  26.6687735  53.0574262  48.4103956  25.9130168  54.1248358  49.1728568
  22.8399032  53.1294942  49.0502140  22.5017543  53.0136007  48.1622675
  23.7088800  52.7286107  49.0303146  18.6985847  54.9830419  45.0399031
  18.1350712  54.8920356  44.2715319  18.5838242  54.1630323  45.5201524
  23.3218815  54.2829794  55.0088346  23.3107455  53.8882592  54.1368849
  23.4839454  53.5495867  55.6022117  16.2450279  56.4781610  47.8783252
  17.0371571  56.1372435  47.4629551  16.4846929  56.5876585  48.7985405
  24.2785406  58.6501386  40.3513496  23.6273386  59.2355467  39.9647510
  25.0729769  59.1807581  40.4108534  18.2041033  55.7390524  40.7500630
  18.9771909  55.1919511  40.6113506  18.5566432  56.6034773  40.9615092
  20.0426076  57.0666906  53.9567530  19.7515942  57.9712537  53.8414196
  20.6783060  57.1083433  54.6711599  20.9682283  54.4443754  50.5468889
  21.5645855  54.2199777  49.8325852  21.0257254  53.7028500  51.1494337
  20.5407311  51.8983190  38.3819080  20.7932832  51.3764711  37.6202543
  19.6031870  51.7349335  38.4845764  25.5850594  50.9018968  46.1893824
  26.3713683  50.4838391  45.8384241  25.8489298  51.8065060  46.3575472
  25.7560671  56.3391818  40.8882480  25.1206504  56.4126445  41.6003385
  25.4258077  56.9285417  40.2101560  30.9859021  50.8394201  47.0926802
  31.7184193  50.2693418  47.3264632  30.2298377  50.4515802  47.5333308
  20.2603600  53.8011296  40.5843455  20.1439858  53.1256199  41.2524540
  20.3705860  53.3143670  39.7675608  22.6035141  53.2621443  44.2890145
  22.2393348  52.7352064  45.0003066  23.4602256  52.8719912  44.1156630
  28.5084441  44.5515775  51.5521411  28.1767766  45.4211186  51.3282626
  27.9130055  44.2352059  52.2315441  22.2440628  48.2911342  39.2851493
  22.4115030  49.1591579  39.6521964  22.0537797  48.4538624  38.3612782
  25.0015961  56.7528321  50.9517323  24.7016684  57.6553360  50.8433131
  24.6567020  56.4860505  51.8038476  18.4528442  53.2042118  46.9854028
  17.5278939  53.0718332  47.1931720  18.7012855  53.9836337  47.4823970
  28.4013105  49.2710862  48.6314761  27.4929982  49.2026270  48.3373522
  28.3500700  49.7482806  49.4596586  22.2229848  50.7469000  40.2698160
  22.1029474  51.1926051  41.1083640  21.5282437  51.0954318  39.7111698
  15.8137253  52.8475392  47.8197817  15.9429634  53.1009871  48.7337229
  15.1334705  53.4403100  47.5002472  19.9836741  63.5172642  43.9188291
  19.9060770  64.4680467  43.9976772  19.3798384  63.1718514  44.5763217
  22.4753970  50.6900507  56.5749658  21.6987304  51.2494427  56.5652523
  23.1144533  51.1757290  57.0964528  30.2674751  47.4727300  50.4092635
  29.6249131  47.7659833  49.7632429  29.7629679  47.3580220  51.2145831
  27.9214915  51.2190473  41.0978494  28.8332771  51.4517860  40.9226191
  27.4124562  51.8027517  40.5353573  20.7300343  53.4985960  56.1367625
  21.4715027  54.0371004  55.8602449  20.0237328  54.1252249  56.2939177
  26.2055682  55.6415101  54.7339787  26.6139038  55.1997511  53.9894419
  25.4832944  55.0667728  54.9873979  22.5586752  50.5787708  52.1073343
  23.4047947  51.0027121  52.2507992  22.4985390  49.9221332  52.8011907
  26.5284497  56.2016292  48.4892075  25.8993359  56.3662006  47.7868143
  26.1410159  56.6157901  49.2603039  25.7086198  48.2392076  53.7654517
  25.4647130  48.9934137  53.2288793  25.9846128  48.6177424  54.6001764
  27.6624660  54.7830688  52.4431783  27.8741556  55.4262448  51.7666164
  27.6154409  53.9493005  51.9753713  25.2650889  47.3948509  49.3468355
  24.4035368  47.6929763  49.6385092  25.2913324  47.6118908  48.4149387
  22.0812459  55.9390700  45.7542160  22.5450804  56.2178403  44.9646783
  21.8169257  55.0374144  45.5715251  18.9736540  55.4862181  48.6921924
  19.5437897  55.9149450  48.0539408  19.5644652  55.2044766  49.3906109
  21.0181345  52.0613852  42.5631726  21.7205388  52.5134896  43.0305652
  20.6861973  51.4197671  43.1911619  19.4661706  50.6525609  56.9382935
  18.8360367  51.3341889  57.1718332  19.3597794  50.5408690  55.9936073
  14.7606679  50.3197405  47.8648859  13.9705733  50.5754933  47.3888970
  15.2517926  51.1345743  47.9700900  28.7770488  57.6602644  50.6154140
  29.5987932  57.2582831  50.3336822  28.7732891  57.5570878  51.5670256
  16.7121424  50.6841984  44.8232336  15.9152587  50.7960678  45.3415832
  16.4847016  51.0228636  43.9573226  22.5427092  57.2086687  52.7714851
  22.6071524  57.6707094  53.6073022  21.8338016  56.5784052  52.8997160
  13.0444382  50.5727895  50.2963850  13.2952420  51.4574905  50.5621426
  13.5803930  50.3932497  49.5238942  22.2575109  58.8754795  42.6393831
  22.1220784  59.7206330  43.0678679  22.7984922  59.0774072  41.8759765
  18.7442449  44.9546374  59.3008186  18.3509395  44.4012573  59.9755830
  19.5608589  45.2656953  59.6914704  15.7104507  56.3930233  43.2121756
  16.2229027  57.1873483  43.3627321  16.3627220  55.6956523  43.1455357
  17.5199392  59.5095989  45.2944509  17.6966020  60.4313954  45.1065493
  18.3156225  59.1954408  45.7238889  21.6610410  46.3704254  56.8928443
  22.4020123  46.9711407  56.8132905  21.8928333  45.6281891  56.3346485
  16.8051748  51.5560621  55.1706672  16.6905263  50.6545878  55.4713771
  15.9496266  51.8024318  54.8191489  23.8843586  59.4978361  56.7694173
  23.4407440  58.7114740  56.4515077  24.5460799  59.6857512  56.1038064
  18.6430707  61.0274163  51.2954851  19.1938132  60.8991226  50.5231845
  17.8042183  61.3269052  50.9449744  25.9824824  59.7781161  54.7975574
  25.9643299  60.5990042  54.3055843  26.9044744  59.6535236  55.0225715
  22.4397878  57.2925291  55.6399083  22.9726215  56.5313579  55.4098391
  21.9111959  56.9998942  56.3823237  25.6067573  42.3985357  51.1692724
  25.2631842  43.2886998  51.0931835  25.9746536  42.2087014  50.3062309
  13.6753424  54.7218887  43.9881326  14.5128646  55.1315895  43.7715034
  13.8531691  53.7818329  43.9581520  25.5717856  52.3893968  39.6765159
  25.0564479  53.1598572  39.9153547  25.2995164  51.7159104  40.2998221
  23.1564967  47.2343668  44.7350398  22.3006563  46.8450519  44.5556036
  23.5691919  47.3135629  43.8750183  24.6864113  44.7690012  49.1341958
  24.1828909  44.7320147  48.3209763  24.9794720  45.6782754  49.1938614
  20.9306999  44.8528741  48.1408139  21.7959996  44.6571550  47.7814029
  20.9984508  44.6239093  49.0677496  30.5452130  55.1426322  41.6118333
  29.7681573  54.8037482  41.1673495  31.2243611  55.1478945  40.9373298
  25.3604159  50.2621060  41.5024941  25.0554294  50.5767209  42.3535084
  26.3134601  50.3402480  41.5452274  23.8050591  56.4211283  43.1517895
  23.2771952  55.6864043  42.8391132  23.3038093  57.1985959  42.9057863
  28.7843437  54.6160304  48.2684941  28.1267111  55.3059565  48.3565070
  29.5883836  55.0056735  48.6118927  18.5369318  47.0830949  45.5124506
  19.1113070  46.8606131  44.7797699  19.1240301  47.1519644  46.2653107
  27.5948896  52.9704676  46.3188883  28.1080777  53.6034668  46.8210592
  28.2450119  52.3705872  45.9532243  18.8638905  49.1135410  39.5320391
  18.0276218  49.4510097  39.8529666  18.7243675  48.9784390  38.5947528
  20.8391986  43.9572198  44.2399576  20.1856398  43.6421215  43.6156190
  20.7972460  43.3347939  44.9659398  21.9503191  54.2391493  36.1552868
  21.0430253  54.0080747  36.3544017  22.4474223  53.4429113  36.3426849
  24.8571270  62.9489000  39.0749554  24.1832969  63.2520697  39.6834512
  25.2437092  63.7518081  38.7255011  24.0729726  50.4454132  48.5647223
  23.1552288  50.6669079  48.4068911  24.4889870  50.5200442  47.7058930
  24.8564774  51.8445547  43.6949903  25.6036593  52.3566945  43.3857025
  25.1256364  51.5229600  44.5554297  23.1291424  54.3404088  40.6776858
  22.2202644  54.0563121  40.7749327  23.1586508  54.7603167  39.8180165
  28.3610692  57.9510678  44.4468025  27.9073019  57.1101588  44.5033216
  27.7304658  58.5872076  44.7842805  27.3043611  48.8802664  45.6768693
  26.5666368  48.3680050  46.0078935  27.5570385  48.4403045  44.8651970
  26.8043631  59.7887174  45.3817843  27.0966605  60.3492231  44.6630209
  27.3142252  60.0815735  46.1371003  27.4055239  41.6578916  46.2710462
  27.7114115  40.7976279  45.9836377  28.1307843  42.2496536  46.0709456
  13.6979595  52.0609602  44.6592060  13.5003995  51.4678963  43.9343126
  13.1426259  51.7561812  45.3767999  21.6776318  51.9532709  46.7786653
  21.7324928  51.0006545  46.7029130  20.8667520  52.1092148  47.2627951
  22.8267512  55.8812832  38.0164936  22.3886942  55.1648691  37.5570574
  23.5677953  56.1088947  37.4550028  19.6168678  50.5709769  44.5377032
  18.8036544  50.8703939  44.9442224  20.1127673  50.1765457  45.2551514
  21.7677256  60.5667525  46.4711297  21.7253435  60.7928372  45.5419829
  22.6839955  60.3330900  46.6197098  25.2142890  51.0351593  53.3691926
  25.5692278  51.2623066  54.2286392  25.8615021  51.3669970  52.7469181
  30.9440627  54.1570029  44.0741255  30.8058526  54.3471625  43.1462444
  30.5876846  54.9189412  44.5309306  19.1082753  48.1428124  50.1538267
  19.7482132  48.0016883  49.4561230  18.2760284  47.8562637  49.7776869
  30.9710007  56.2246556  49.0852526  31.4046513  56.1321845  49.9335580
  31.6841587  56.2004056  48.4472542  19.8843057  57.4430554  46.2673259
  20.6783655  56.9480875  46.0655834  19.1734749  56.9148418  45.9040965
  24.7037901  59.8248650  50.6185627  24.7574924  60.3939586  51.3863343
  23.8352683  59.9950535  50.2539664  16.1925820  51.5873636  42.3433012
  15.2623409  51.5258092  42.5602974  16.2883292  51.0649589  41.5469653
  16.1111370  48.1128449  44.9311254  16.3718187  49.0273782  44.8220414
  16.9328542  47.6452892  45.0807866  17.5836295  49.5266206  52.1010078
  18.2559348  49.3183568  51.4522727  16.7566081  49.3288292  51.6615310
  23.4861867  46.1528147  54.1175739  22.8389782  46.8518097  54.0240215
  24.2562882  46.5864291  54.4851987  26.8940665  56.4176999  57.1926292
  26.7426171  56.1887551  56.2756376  26.8845344  57.3747601  57.2057637
  23.6626001  53.9908912  52.1772559  24.5918061  54.1420072  52.0041526
  23.2417031  54.0792933  51.3221205  22.4614333  58.0159576  49.9471096
  22.3225419  57.6478361  50.8197035  21.6728929  58.5307216  49.7755054
  23.0562485  63.1168673  41.2896633  23.2314241  62.6456716  42.1042256
  22.3695273  63.7434439  41.5177894  24.0119548  57.3941179  47.3359934
  23.6769381  57.3541949  48.2317584  23.5123494  56.7285895  46.8630344
  17.9863792  52.8008809  52.8612515  17.8483590  52.0689048  53.4624054
  18.8968716  52.7117709  52.5796703  26.9478740  54.7397213  37.6096994
  26.3307910  54.0144042  37.5130047  26.4795228  55.5006574  37.2664068
  20.6146093  52.5128768  52.3496195  21.3245711  51.8721961  52.3082813
  20.5715401  52.7641663  53.2722376  28.6032871  59.4496122  55.2702774
  28.5445418  58.7655342  54.6033357  29.0052390  60.1915112  54.8183400
  19.3275027  49.4993986  54.1691834  18.7912384  49.0484725  54.8213431
  18.7391735  49.6339895  53.4262299  17.6223570  66.2658036  48.0636493
  17.8620168  66.8976560  48.7415512  16.7792767  65.9146076  48.3501852
  18.7377286  48.9582638  36.7318298  17.8606752  48.8371439  36.3680545
  19.2135039  48.1668716  36.4797187  28.6050279  57.4135706  53.5016754
  27.7177057  57.0761628  53.6243153  29.1748830  56.6818737  53.7385519
  10.2579426  53.7459798  46.8259805  10.9450466  53.4321528  46.2380821
  10.1027555  54.6501162  46.5527057  15.0614148  48.6349994  51.2544829
  14.9772337  48.0275664  50.5195239  14.2396854  49.1259012  51.2554325
  22.1351432  62.0737158  50.4677997  22.0621604  62.8792130  50.9797302
  21.6928825  62.2729124  49.6426018  21.9241212  61.3108928  43.9780819
  21.1408734  61.8530608  44.0719043  22.6233957  61.8282908  44.3775060
  25.2337862  47.1203558  46.6215024  25.7306561  46.3673520  46.3016094
  24.4624843  47.1567874  46.0558233  33.0867619  52.8243923  48.2633316
  33.0757495  53.7068639  47.8927249  32.2184999  52.4715474  48.0687853
  24.5950116  61.9723992  52.6236156  25.3078088  62.6071457  52.5512057
  24.1040144  62.0687858  51.8076158  26.3167643  55.8775245  44.1953447
  25.3823921  55.9976707  44.0258152  26.4944311  54.9747712  43.9313457
  21.8172831  49.2620941  46.3486709  21.4470618  48.7091981  47.0367614
  22.3131923  48.6579074  45.7961709  29.7040194  51.7192564  44.7303482
  30.1700646  52.5520556  44.6563784  30.1547694  51.2537546  45.4348740
  19.6462029  59.7218436  53.4441727  20.3471489  60.3554919  53.5971121
  19.1757144  60.0633167  52.6837366  27.7716425  58.0636385  41.7289634
  28.0476269  57.9492980  42.6383508  26.9020924  57.6653870  41.6901807
  27.6756857  44.0873151  48.7694383  26.7619936  44.3177378  48.9376590
  28.1049958  44.1711595  49.6208415  27.4463315  52.2763043  51.2694277
  26.7934765  52.5238951  50.6146730  27.8243695  51.4627181  50.9356754
  24.4070489  62.3122736  45.3722447  24.5892884  61.4944392  45.8350200
  25.2303475  62.5290428  44.9347337  24.7412655  61.2390921  42.6337496
  25.2700421  60.7283376  42.0207658  25.0040874  60.9233452  43.4983029
  23.4950888  53.0182854  57.7560314  22.8191525  52.9176983  58.4262689
  24.3178522  52.8622068  58.2196311  15.2429747  59.2554791  50.3772829
  15.8283184  58.5098479  50.5100733  15.0454586  59.5658747  51.2609493
  18.0968402  62.2906038  45.3935272  17.4278778  62.7752166  44.9099312
  17.9581272  62.5375258  46.3078650   9.8347402  51.8260391  49.0977272
   9.8731501  51.2923982  49.8914391   9.3287695  51.2995596  48.4788250
  22.2373671  64.3249782  51.9917930  22.7891979  64.4881403  52.7567015
  22.5779864  64.9154219  51.3197955  17.2138164  46.6724931  52.5939815
  17.2779491  47.5339762  52.1817212  17.1505285  46.0598933  51.8612173
  16.6890437  48.7448064  56.2412849  17.3162476  48.3625141  56.8550373
  15.8318356  48.5262266  56.6068541  27.0884545  59.1511039  57.8466584
  27.6324449  59.7640997  57.3521539  26.5071390  59.7090617  58.3633597
  13.4655980  50.5524493  42.1731204  13.7609421  49.6435171  42.1198258
  12.5644015  50.5312232  41.8512206  25.3742058  62.2731757  48.9781612
  25.2493198  61.4721497  48.4692558  26.0321149  62.7677950  48.4895582
  16.9950227  48.6280490  48.1558752  16.2736812  49.2416457  48.0166226
  17.7843482  49.1638254  48.0775398  27.4376967  60.0740777  50.6061162
  26.4907302  59.9546128  50.5339489  27.7859740  59.1863275  50.6887424
  19.7976540  45.9634916  54.4299404  20.3210942  46.2097213  55.1925713
  19.5788873  46.7954951  54.0102541  15.1943821  48.2338591  42.2970529
  14.8656527  47.3535970  42.1145635  15.5483192  48.1786259  43.1846918
  24.4423400  59.8693493  46.8065514  24.2948362  58.9410201  46.9873085
  25.2676893  59.8913584  46.3222590  18.3085644  48.5211560  42.6646007
  18.6481717  49.0497482  41.9424615  18.7557765  48.8591967  43.4404573
  28.0457522  60.6922052  47.8930387  28.9704069  60.4864913  47.7554838
  27.8772825  60.4438453  48.8019729  21.0029085  46.9048611  52.1149075
  20.6625905  46.1056424  52.5169755  20.2968091  47.2050322  51.5425908
  21.6545557  43.9897924  50.5676398  22.4771626  43.5158402  50.4455288
  21.8983620  44.7688407  51.0675084  20.2953791  47.0186182  40.8639299
  21.0162154  47.3967435  40.3603016  19.6719096  47.7375059  40.9674277
  24.4384914  47.7231331  41.7997632  24.6548529  48.6055969  41.4986460
  23.9578981  47.3317544  41.0703274  19.1784136  50.6817044  48.3768376
  19.0328716  50.9957347  49.2692658  18.7009339  51.3001945  47.8239275
  21.0380519  47.6719592  48.4249266  21.0242087  46.7760686  48.0881564
  21.7552947  47.6790256  49.0587552  22.8906649  48.1056932  50.4702393
  22.6324427  49.0274003  50.4686724  22.3591690  47.7087367  51.1602857
  27.8352838  61.2107720  43.2492479  28.0089716  60.6454142  42.4966331
  28.3281729  62.0108614  43.0671969  13.6529798  53.2222389  51.3156038
  13.1083266  53.9982197  51.4476312  14.5309148  53.5693193  51.1575159
  20.4417415  46.5533973  43.6936836  20.5633326  45.6250619  43.8927724
  20.1519457  46.5672658  42.7815151  23.3108605  44.2388883  46.8303556
  23.3330302  44.3028216  45.8755535  23.7276664  43.3993392  47.0244062
  33.6892229  53.9744143  44.8682778  34.1323375  53.2251468  44.4701902
  32.8118740  53.9654279  44.4856510  28.8228011  60.5274484  40.3489377
  29.5178915  61.1481177  40.5676692  29.1651161  59.6769835  40.6241755
  14.4395820  52.3492285  54.2086194  13.6977556  52.4974920  54.7950825
  14.1188564  52.6100551  53.3452944  30.7219434  57.9774190  41.8776708
  31.2470758  58.3161462  41.1526028  30.6341786  57.0421205  41.6939842
  22.3839482  61.8908263  54.0066584  22.6926609  61.6457410  54.8789284
  23.1814964  62.0954902  53.5185455  22.4060094  64.0446173  46.2371961
  21.9665085  63.5522551  46.9304818  23.1568211  63.5019140  45.9964036
  14.8852433  60.2357714  46.2396589  15.7110453  59.9361486  45.8595233
  14.5346485  59.4665336  46.6886378  19.8533967  59.5884182  48.3094263
  19.2313976  58.9254887  48.0096490  20.5238833  59.6145314  47.6267910
  13.0861038  58.1544040  47.1985523  12.2492947  57.7266214  47.0169524
  13.0584684  58.3476483  48.1356314  19.9258494  48.0665970  57.9026769
  19.9746650  48.9428093  57.5204538  20.4681008  47.5243363  57.3298412
  30.4113340  58.6107093  57.1827906  29.6208883  58.5931232  56.6432405
  30.1746694  59.1495387  57.9376942  30.5311215  55.4599560  54.4960634
  30.5809220  55.2949567  55.4376157  30.4225138  54.5926819  54.1058515
  19.4147473  58.1388105  41.7852723  19.5635594  58.8223570  41.1319396
  20.2213917  58.1193195  42.3002179  27.8214977  51.4430488  55.8119941
  28.7224840  51.3036952  55.5203939  27.8962952  51.6084942  56.7518118
  22.1557782  48.8197342  54.6573127  21.2861092  49.1130908  54.3855716
  22.3917263  49.4037787  55.3780391  33.2325094  55.4449381  47.2605226
  34.0671985  55.8839185  47.4242786  33.3684223  54.9688034  46.4413472
  30.2816600  53.0029116  53.2082714  30.7570721  53.1956762  52.4001565
  29.3582165  53.0588301  52.9626097  17.1700106  54.1653283  42.7913792
  16.9246148  53.2615613  42.9894002  17.3396021  54.1670433  41.8493270
  24.8596816  45.0376959  52.1738548  25.3778760  45.7737986  51.8485036
  24.5051949  45.3440953  53.0085307  16.4395754  49.8981640  40.2899954
  15.7464999  49.9725995  39.6339989  16.1947506  49.1341984  40.8121470
  25.1109410  41.4577242  47.6939444  25.3911164  40.7900431  48.3199871
  25.8960017  41.6506337  47.1814108  22.9142879  60.6336236  39.2564471
  22.3416846  61.2526423  38.8034942  23.4875673  61.1835597  39.7904393
  28.9818269  49.8794876  51.4411019  29.9335692  49.9792973  51.4623243
  28.8121719  49.0873144  51.9509104  27.0032648  46.9650459  51.6270420
  26.4082580  47.2455472  50.9316909  26.7182345  47.4544360  52.3987161
  26.1340139  60.9173386  40.3873053  27.0670812  60.8518947  40.5905928
  26.0463352  61.7529653  39.9287586  28.7628155  60.2339256  37.3477000
  28.6841787  59.8999120  38.2412758  29.5837822  60.7261024  37.3468473
  31.4606347  53.1000995  50.5553319  31.4282667  52.1616996  50.7413003
  32.0706970  53.1785032  49.8219144  23.2989677  51.9697048  36.5980523
  24.2448782  51.8403257  36.6668941  22.9203922  51.2311710  37.0749951
  31.6100835  49.8912039  50.6011602  31.0939884  49.1070496  50.4141531
  32.4940784  49.5630755  50.7658122  29.2711562  43.6353054  46.5607415
  29.0736383  43.3268143  47.4450747  29.8811268  44.3614693  46.6905345
  35.3598194  52.3024865  50.2933807  34.6331357  52.1680830  49.6850299
  34.9445480  52.6101693  51.0990525  23.1828370  56.0214795  58.0581180
  24.1031379  56.1993394  58.2521227  23.1477953  55.0770840  57.9060879
  21.4832595  49.8947025  36.5335408  20.5764050  49.5980138  36.6098122
  21.7608576  49.5976843  35.6669695  12.4010535  51.2153388  46.9834455
  12.0813319  50.3618696  46.6908829  11.8543963  51.4301966  47.7392422
  16.1790443  53.9315829  50.7003961  16.3976452  54.8632937  50.7191995
  16.5916216  53.5723804  51.4858765  23.0994660  44.4383915  42.6879650
  22.2895389  44.0930999  43.0634896  23.7879077  44.1291458  43.2767261
  25.0285209  43.5161961  44.3103946  25.5816247  43.9357415  44.9693969
  25.2655295  42.5897709  44.3526902  21.0518308  49.5049035  60.0906710
  20.9515035  50.4543392  60.0218801  20.8339850  49.1767274  59.2182780
  20.2531379  46.7533960  36.6747387  21.1150543  47.0788858  36.9343205
  20.4381723  45.9665456  36.1620453  12.2698795  54.8356300  48.9527576
  11.5762266  54.4210252  48.4397531  13.0171786  54.8776836  48.3560995
  28.4064016  45.6262486  43.8182610  27.8262685  46.2847291  43.4360663
  28.1399948  44.8039831  43.4070028  26.8567582  45.0267544  46.0203931
  27.3567360  45.1384079  45.2118250  27.5003190  44.7228597  46.6604739
  20.9149578  52.9346174  58.9071772  20.4316660  53.7346534  59.1135661
  21.0010517  52.9454119  57.9539216  14.1835538  54.7674553  46.8293591
  14.1606226  54.8662241  45.8775474  14.4936174  55.6139704  47.1510757
  16.8422915  56.8250709  50.9440206  17.7966169  56.7934651  50.8770137
  16.6435439  56.3641332  51.7590431  17.4322298  55.3951825  53.5111003
  18.2515187  55.8895903  53.5345841  17.7059105  54.4783793  53.4828571
  27.1888894  47.7862577  42.8738959  26.3014749  48.0712227  42.6559154
  27.6042883  47.6256340  42.0266236  30.5403430  47.8109098  46.5893298
  31.3163820  48.3005550  46.8617915  29.8151564  48.2367152  47.0465167
  32.9775989  48.5236717  47.6467239  33.5720479  48.2832453  46.9360547
  33.0502572  47.8043848  48.2740775  15.1973144  62.3670328  47.9610403
  15.0627612  61.6070729  47.3948401  14.7805206  63.0911228  47.4939192
  26.3332107  57.5507252  36.9686979  27.0367957  57.7557254  37.5844634
  25.6094756  58.1184013  37.2336062  27.1629918  53.3017113  43.0889249
  27.1065119  53.7585664  42.2496881  27.7158260  52.5407797  42.9112092
  30.9734723  49.0906845  43.9139368  30.7171658  48.6903480  44.7447576
  30.3487591  49.8050639  43.7889508  35.2847061  51.8302918  46.4210660
  34.7246619  51.8996107  47.1942222  34.6790565  51.6543903  45.7010156
  18.3542270  63.2639645  48.1728846  18.2374654  64.2085078  48.0707536
  17.5334716  62.9613207  48.5614645  28.2418805  57.9889781  39.0185439
  29.0764409  57.5570979  38.8362914  28.0803148  57.8171794  39.9462333
  27.8964697  54.4921894  40.3841778  27.8413501  54.3266165  39.4430222
  27.2710752  55.1997927  40.5403968  12.6857212  49.7289958  54.2103200
  13.3316075  49.2188912  54.6990425  12.4774363  50.4658640  54.7846626
  25.2110604  56.7970806  59.7095341  26.0801764  56.9711458  59.3481976
  24.7317355  57.6165223  59.5871070  21.2060822  43.9930003  39.9627096
  21.1939492  44.9371843  40.1195367  22.0984244  43.8100148  39.6686558
  19.3796784  63.9167907  51.3884775  20.2824031  63.9491517  51.7051269
  19.1534154  62.9868358  51.4031110  21.1350386  62.6698893  48.0494853
  20.1846017  62.6700755  47.9359225  21.4382872  61.9231628  47.5330888
  25.0212942  40.5872780  44.2173033  24.2545338  40.0331266  44.3629716
  25.4323647  40.6594648  45.0787185  17.0254703  46.8757575  58.3078215
  17.8886164  46.5194380  58.5181539  16.4520113  46.5371470  58.9953619
  29.5379602  70.3122336  45.0399031  28.9744467  70.2212273  44.2715319
  29.4231997  69.4922241  45.5201524  27.0844034  71.8073528  47.8783252
  27.8765326  71.4664353  47.4629551  27.3240684  71.9168503  48.7985405
  35.1179160  73.9793304  40.3513496  34.4667140  74.5647384  39.9647510
  35.9123523  74.5099499  40.4108534  29.0434788  71.0682441  40.7500630
  29.8165664  70.5211428  40.6113506  29.3960186  71.9326691  40.9615092
  31.3801065  67.2275107  38.3819080  31.6326586  66.7056629  37.6202543
  30.4425624  67.0641253  38.4845764  36.5954426  71.6683736  40.8882480
  35.9600259  71.7418363  41.6003385  36.2651832  72.2577335  40.2101560
  31.0997354  69.1303213  40.5843455  30.9833612  68.4548117  41.2524540
  31.2099614  68.6435587  39.7675608  33.0834382  63.6203260  39.2851493
  33.2508784  64.4883497  39.6521964  32.8931551  63.7830542  38.3612782
  29.2922197  68.5334036  46.9854028  28.3672693  68.4010250  47.1931720
  29.5406610  69.3128255  47.4823970  33.0623603  66.0760918  40.2698160
  32.9423228  66.5217968  41.1083640  32.3676191  66.4246235  39.7111698
  26.6531008  68.1767309  47.8197817  26.7823389  68.4301788  48.7337229
  25.9728459  68.7695017  47.5002472  30.8230495  78.8464559  43.9188291
  30.7454525  79.7972384  43.9976772  30.2192139  78.5010432  44.5763217
  32.9206213  71.2682617  45.7542160  33.3844559  71.5470320  44.9646783
  32.6563011  70.3666062  45.5715251  29.8130294  70.8154099  48.6921924
  30.3831651  71.2441367  48.0539408  30.4038406  70.5336684  49.3906109
  31.8575099  67.3905770  42.5631726  32.5599143  67.8426813  43.0305652
  31.5255728  66.7489589  43.1911619  30.3055461  65.9817526  56.9382935
  29.6754121  66.6633807  57.1718332  30.1991549  65.8700608  55.9936073
  25.6000433  65.6489322  47.8648859  24.8099487  65.9046851  47.3888970
  26.0911681  66.4637660  47.9700900  27.5515179  66.0133902  44.8232336
  26.7546342  66.1252596  45.3415832  27.3240771  66.3520554  43.9573226
  23.8838136  65.9019813  50.2963850  24.1346175  66.7866823  50.5621426
  24.4197685  65.7224414  49.5238942  47.7070236  69.3333310  46.9639111
  46.9533944  68.7640708  46.8083116  47.8417777  69.2995975  47.9109746
  33.0968864  74.2046712  42.6393831  32.9614539  75.0498248  43.0678679
  33.6378676  74.4065990  41.8759765  26.5498261  71.7222150  43.2121756
  27.0622782  72.5165401  43.3627321  27.2020974  71.0248441  43.1455357
  28.3593146  74.8387907  45.2944509  28.5359774  75.7605871  45.1065493
  29.1549980  74.5246326  45.7238889  27.6445503  66.8852539  55.1706672
  27.5299018  65.9837796  55.4713771  26.7890020  67.1316235  54.8191489
  29.4824461  76.3566080  51.2954851  30.0331887  76.2283144  50.5231845
  28.6435937  76.6560969  50.9449744  24.5147178  70.0510805  43.9881326
  25.3522400  70.4607813  43.7715034  24.6925446  69.1110247  43.9581520
  36.4111610  67.7185885  39.6765159  35.8958234  68.4890490  39.9153547
  36.1388919  67.0451021  40.2998221  41.3845884  70.4718240  41.6118333
  40.6075327  70.1329399  41.1673495  42.0637365  70.4770863  40.9373298
  34.6444345  71.7503201  43.1517895  34.1165707  71.0155960  42.8391132
  34.1431848  72.5277877  42.9057863  29.3763073  62.4122867  45.5124506
  29.9506825  62.1898048  44.7797699  29.9634055  62.4811561  46.2653107
  29.7032660  64.4427328  39.5320391  28.8669972  64.7802015  39.8529666
  29.5637430  64.3076308  38.5947528  32.7896945  69.5683411  36.1552868
  31.8824007  69.3372664  36.3544017  33.2867977  68.7721030  36.3426849
  35.6965024  78.2780918  39.0749554  35.0226723  78.5812615  39.6834512
  36.0830846  79.0809999  38.7255011  33.9685179  69.6696006  40.6776858
  33.0596398  69.3855039  40.7749327  33.9980263  70.0895084  39.8180165
  39.2004446  73.2802595  44.4468025  38.7466773  72.4393505  44.5033216
  38.5698413  73.9163994  44.7842805  37.6437386  75.1179092  45.3817843
  37.9360360  75.6784149  44.6630209  38.1536006  75.4107653  46.1371003
  24.5373349  67.3901520  44.6592060  24.3397749  66.7970881  43.9343126
  23.9820013  67.0853730  45.3767999  33.6661267  71.2104750  38.0164936
  33.2280697  70.4940608  37.5570574  34.4071708  71.4380864  37.4550028
  30.4562433  65.9001686  44.5377032  29.6430298  66.1995857  44.9442224
  30.9521427  65.5057375  45.2551514  32.6071011  75.8959443  46.4711297
  32.5647190  76.1220289  45.5419829  33.5233710  75.6622818  46.6197098
  29.9476508  63.4720042  50.1538267  30.5875887  63.3308801  49.4561230
  29.1154038  63.1854555  49.7776869  30.7236811  72.7722472  46.2673259
  31.5177410  72.2772792  46.0655834  30.0128504  72.2440335  45.9040965
  35.5431656  75.1540568  50.6185627  35.5968678  75.7231504  51.3863343
  34.6746437  75.3242453  50.2539664  27.0319575  66.9165554  42.3433012
  26.1017163  66.8550009  42.5602974  27.1277047  66.3941507  41.5469653
  26.9505124  63.4420367  44.9311254  27.2111941  64.3565700  44.8220414
  27.7722296  62.9744809  45.0807866  28.4230049  64.8558124  52.1010078
  29.0953103  64.6475486  51.4522727  27.5959836  64.6580210  51.6615310
  33.3008087  73.3451494  49.9471096  33.1619173  72.9770279  50.8197035
  32.5122684  73.8599134  49.7755054  33.8956239  78.4460591  41.2896633
  34.0707995  77.9748634  42.1042256  33.2089027  79.0726357  41.5177894
  34.8513303  72.7233097  47.3359934  34.5163135  72.6833867  48.2317584
  34.3517248  72.0577813  46.8630344  28.8257547  68.1300727  52.8612515
  28.6877345  67.3980966  53.4624054  29.7362470  68.0409627  52.5796703
  37.7872494  70.0689131  37.6096994  37.1701665  69.3435959  37.5130047
  37.3188983  70.8298491  37.2664068  30.1668781  64.8285904  54.1691834
  29.6306138  64.3776643  54.8213431  29.5785490  64.9631813  53.4262299
  28.4617325  81.5949953  48.0636493  28.7013923  82.2268478  48.7415512
  27.6186521  81.2437993  48.3501852  29.5771040  64.2874555  36.7318298
  28.7000507  64.1663356  36.3680545  30.0528793  63.4960634  36.4797187
  21.0973180  69.0751715  46.8259805  21.7844220  68.7613445  46.2380821
  20.9421309  69.9793080  46.5527057  25.9007902  63.9641912  51.2544829
  25.8166091  63.3567581  50.5195239  25.0790609  64.4550930  51.2554325
  32.9745187  77.4029076  50.4677997  32.9015358  78.2084047  50.9797302
  32.5322580  77.6021042  49.6426018  32.7634966  76.6400846  43.9780819
  31.9802488  77.1822526  44.0719043  33.4627711  77.1574825  44.3775060
  35.4343870  77.3015910  52.6236156  36.1471842  77.9363375  52.5512057
  34.9433899  77.3979776  51.8076158  37.1561397  71.2067163  44.1953447
  36.2217676  71.3268625  44.0258152  37.3338065  70.3039629  43.9313457
  38.6110179  73.3928303  41.7289634  38.8870023  73.2784898  42.6383508
  37.7414678  72.9945788  41.6901807  35.2464244  77.6414654  45.3722447
  35.4286638  76.8236310  45.8350200  36.0697230  77.8582346  44.9347337
  35.5806409  76.5682839  42.6337496  36.1094175  76.0575294  42.0207658
  35.8434629  76.2525369  43.4983029  26.0823502  74.5846708  50.3772829
  26.6676939  73.8390396  50.5100733  25.8848340  74.8950665  51.2609493
  28.9362157  77.6197956  45.3935272  28.2672532  78.1044083  44.9099312
  28.7975027  77.8667176  46.3078650  20.6741156  67.1552309  49.0977272
  20.7125256  66.6215899  49.8914391  20.1681449  66.6287514  48.4788250
  33.0767426  79.6541699  51.9917930  33.6285734  79.8173321  52.7567015
  33.4173619  80.2446137  51.3197955  28.0531919  62.0016849  52.5939815
  28.1173245  62.8631680  52.1817212  27.9899039  61.3890851  51.8612173
  27.5284191  64.0739982  56.2412849  28.1556230  63.6917059  56.8550373
  26.6712110  63.8554184  56.6068541  24.3049734  65.8816411  42.1731204
  24.6003175  64.9727089  42.1198258  23.4037770  65.8604150  41.8512206
  36.2135813  77.6023675  48.9781612  36.0886952  76.8013415  48.4692558
  36.8714904  78.0969868  48.4895582  27.8343981  63.9572407  48.1558752
  27.1130567  64.5708375  48.0166226  28.6237237  64.4930172  48.0775398
  26.0337576  63.5630508  42.2970529  25.7050282  62.6827887  42.1145635
  26.3876946  63.5078177  43.1846918  35.2817154  75.1985411  46.8065514
  35.1342117  74.2702118  46.9873085  36.1070648  75.2205502  46.3222590
  29.1479399  63.8503478  42.6646007  29.4875471  64.3789399  41.9424615
  29.5951519  64.1883884  43.4404573  38.8851276  76.0213970  47.8930387
  39.8097824  75.8156831  47.7554838  38.7166580  75.7730371  48.8019729
  31.1347546  62.3478100  40.8639299  31.8555908  62.7259353  40.3603016
  30.5112850  63.0666977  40.9674277  35.2778669  63.0523249  41.7997632
  35.4942283  63.9347887  41.4986460  34.7972736  62.6609462  41.0703274
  30.0177890  66.0108962  48.3768376  29.8722471  66.3249265  49.2692658
  29.5403094  66.6293862  47.8239275  38.6746593  76.5399637  43.2492479
  38.8483470  75.9746060  42.4966331  39.1675484  77.3400532  43.0671969
  24.4923552  68.5514306  51.3156038  23.9477020  69.3274114  51.4476312
  25.3702902  68.8985111  51.1575159  31.2811169  61.8825890  43.6936836
  31.4027080  60.9542536  43.8927724  30.9913211  61.8964576  42.7815151
  39.6621765  75.8566402  40.3489377  40.3572670  76.4773094  40.5676692
  40.0044915  75.0061753  40.6241755  25.2789574  67.6784203  54.2086194
  24.5371310  67.8266838  54.7950825  24.9582318  67.9392468  53.3452944
  41.5613188  73.3066107  41.8776708  42.0864512  73.6453380  41.1526028
  41.4735541  72.3713123  41.6939842  33.2233237  77.2200181  54.0066584
  33.5320363  76.9749328  54.8789284  34.0208719  77.4246819  53.5185455
  33.2453849  79.3738090  46.2371961  32.8058839  78.8814469  46.9304818
  33.9961966  78.8311058  45.9964036  25.7246188  75.5649631  46.2396589
  26.5504208  75.2653403  45.8595233  25.3740240  74.7957254  46.6886378
  30.6927721  74.9176100  48.3094263  30.0707730  74.2546805  48.0096490
  31.3632588  74.9437231  47.6267910  23.9254793  73.4835958  47.1985523
  23.0886701  73.0558132  47.0169524  23.8978438  73.6768401  48.1356314
  30.2541228  73.4680023  41.7852723  30.4029348  74.1515487  41.1319396
  31.0607671  73.4485113  42.3002179  28.0093861  69.4945201  42.7913792
  27.7639903  68.5907531  42.9894002  28.1789775  69.4962351  41.8493270
  27.2789508  65.2273558  40.2899954  26.5858753  65.3017913  39.6339989
  27.0341260  64.4633902  40.8121470  33.7536633  75.9628153  39.2564471
  33.1810601  76.5818340  38.8034942  34.3269427  76.5127515  39.7904393
  36.9733893  76.2465303  40.3873053  37.9064566  76.1810865  40.5905928
  36.8857106  77.0821570  39.9287586  39.6021910  75.5631174  37.3477000
  39.5235541  75.2291037  38.2412758  40.4231577  76.0552942  37.3468473
  34.1383432  67.2988966  36.5980523  35.0842537  67.1695174  36.6668941
  33.7597677  66.5603628  37.0749951  32.3226349  65.2238942  36.5335408
  31.4157805  64.9272055  36.6098122  32.6002330  64.9268761  35.6669695
  23.2404290  66.5445306  46.9834455  22.9207074  65.6910614  46.6908829
  22.6937718  66.7593884  47.7392422  27.0184197  69.2607747  50.7003961
  27.2370207  70.1924855  50.7191995  27.4309971  68.9015721  51.4858765
  31.0925134  62.0825878  36.6747387  31.9544298  62.4080776  36.9343205
  31.2775478  61.2957374  36.1620453  23.1092550  70.1648217  48.9527576
  22.4156021  69.7502170  48.4397531  23.8565541  70.2068754  48.3560995
  31.7543332  68.2638091  58.9071772  31.2710414  69.0638452  59.1135661
  31.8404271  68.2746036  57.9539216  25.0229292  70.0966471  46.8293591
  24.9999980  70.1954158  45.8775474  25.3329929  70.9431622  47.1510757
  27.6816670  72.1542626  50.9440206  28.6359923  72.1226569  50.8770137
  27.4829194  71.6933250  51.7590431  28.2716052  70.7243742  53.5111003
  29.0908941  71.2187821  53.5345841  28.5452860  69.8075710  53.4828571
  26.0366899  77.6962246  47.9610403  25.9021367  76.9362647  47.3948401
  25.6198961  78.4203146  47.4939192  37.1725862  72.8799169  36.9686979
  37.8761712  73.0849172  37.5844634  36.4488510  73.4475931  37.2336062
  29.1936025  78.5931563  48.1728846  29.0768409  79.5376995  48.0707536
  28.3728471  78.2905124  48.5614645  39.0812559  73.3181698  39.0185439
  39.9158163  72.8862897  38.8362914  38.9196902  73.1463712  39.9462333
  38.7358451  69.8213812  40.3841778  38.6807255  69.6558083  39.4430222
  38.1104507  70.5289845  40.5403968  23.5250966  65.0581876  54.2103200
  24.1709830  64.5480830  54.6990425  23.3168117  65.7950558  54.7846626
  32.0454577  59.3221921  39.9627096  32.0333247  60.2663761  40.1195367
  32.9377999  59.1392066  39.6686558  30.2190539  79.2459825  51.3884775
  31.1217785  79.2783435  51.7051269  29.9927909  78.3160276  51.4031110
  31.9744141  77.9990811  48.0494853  31.0239772  77.9992673  47.9359225
  32.2776627  77.2523546  47.5330888  35.8606696  55.9164697  44.2173033
  35.0939092  55.3623184  44.3629716  36.2717401  55.9886566  45.0787185
  27.8648457  62.2049493  58.3078215  28.7279919  61.8486298  58.5181539
  27.2913868  61.8663388  58.9953619  47.7096834  83.8351350  49.1140616
  48.3475244  83.7158097  48.4103956  47.5917677  84.7832193  49.1728568
  44.5186540  83.7878778  49.0502140  44.1805052  83.6719842  48.1622675
  45.3876309  83.3869943  49.0303146  40.3773356  85.6414254  45.0399031
  39.8138221  85.5504191  44.2715319  40.2625751  84.8214159  45.5201524
  45.0006323  84.9413629  55.0088346  44.9894964  84.5466428  54.1368849
  45.1626963  84.2079702  55.6022117  37.9237788  87.1365446  47.8783252
  38.7159080  86.7956270  47.4629551  38.1634438  87.2460421  48.7985405
  45.9572915  89.3085222  40.3513496  45.3060895  89.8939302  39.9647510
  46.7517278  89.8391417  40.4108534  39.8828542  86.3974359  40.7500630
  40.6559418  85.8503346  40.6113506  40.2353941  87.2618608  40.9615092
  41.7213585  87.7250741  53.9567530  41.4303451  88.6296372  53.8414196
  42.3570569  87.7667269  54.6711599  42.6469791  85.1027590  50.5468889
  43.2433364  84.8783612  49.8325852  42.7044763  84.3612335  51.1494337
  42.2194820  82.5567025  38.3819080  42.4720341  82.0348546  37.6202543
  41.2819379  82.3933170  38.4845764  47.2638103  81.5602803  46.1893824
  48.0501192  81.1422227  45.8384241  47.5276807  82.4648896  46.3575472
  47.4348180  86.9975654  40.8882480  46.7994013  87.0710280  41.6003385
  47.1045586  87.5869253  40.2101560  52.6646530  81.4978037  47.0926802
  53.3971702  80.9277253  47.3264632  51.9085886  81.1099637  47.5333308
  41.9391109  84.4595131  40.5843455  41.8227367  83.7840034  41.2524540
  42.0493369  83.9727505  39.7675608  44.2822650  83.9205278  44.2890145
  43.9180857  83.3935899  45.0003066  45.1389765  83.5303747  44.1156630
  50.1871950  75.2099611  51.5521411  49.8555275  76.0795022  51.3282626
  49.5917564  74.8935895  52.2315441  43.9228137  78.9495178  39.2851493
  44.0902539  79.8175414  39.6521964  43.7325306  79.1122459  38.3612782
  46.6803470  87.4112157  50.9517323  46.3804193  88.3137195  50.8433131
  46.3354529  87.1444340  51.8038476  40.1315951  83.8625954  46.9854028
  39.2066448  83.7302168  47.1931720  40.3800364  84.6420173  47.4823970
  50.0800614  79.9294697  48.6314761  49.1717491  79.8610105  48.3373522
  50.0288209  80.4066642  49.4596586  43.9017357  81.4052835  40.2698160
  43.7816983  81.8509886  41.1083640  43.2069946  81.7538153  39.7111698
  37.4924762  83.5059227  47.8197817  37.6217143  83.7593706  48.7337229
  36.8122214  84.0986935  47.5002472  41.6624250  94.1756477  43.9188291
  41.5848279  95.1264302  43.9976772  41.0585893  93.8302350  44.5763217
  44.1541479  81.3484342  56.5749658  43.3774813  81.9078263  56.5652523
  44.7932042  81.8341125  57.0964528  51.9462260  78.1311135  50.4092635
  51.3036640  78.4243668  49.7632429  51.4417188  78.0164056  51.2145831
  49.6002424  81.8774308  41.0978494  50.5120280  82.1101695  40.9226191
  49.0912071  82.4611353  40.5353573  42.4087852  84.1569796  56.1367625
  43.1502536  84.6954840  55.8602449  41.7024837  84.7836085  56.2939177
  47.8843191  86.2998936  54.7339787  48.2926547  85.8581347  53.9894419
  47.1620453  85.7251564  54.9873979  44.2374261  81.2371543  52.1073343
  45.0835456  81.6610957  52.2507992  44.1772899  80.5805167  52.8011907
  48.2072006  86.8600127  48.4892075  47.5780868  87.0245841  47.7868143
  47.8197668  87.2741736  49.2603039  52.0861238  87.7954565  45.8436439
  51.4012276  88.1753466  45.2933472  52.1705087  88.4049891  46.5768387
  47.3873707  78.8975911  53.7654517  47.1434638  79.6517972  53.2288793
  47.6633637  79.2761259  54.6001764  49.3412169  85.4414524  52.4431783
  49.5529065  86.0846284  51.7666164  49.2941918  84.6076840  51.9753713
  46.9438398  78.0532344  49.3468355  46.0822877  78.3513598  49.6385092
  46.9700833  78.2702743  48.4149387  43.7599968  86.5974535  45.7542160
  44.2238313  86.8762238  44.9646783  43.4956766  85.6957980  45.5715251
  40.6524049  86.1446017  48.6921924  41.2225406  86.5733285  48.0539408
  41.2432161  85.8628601  49.3906109  42.6968854  82.7197687  42.5631726
  43.3992897  83.1718731  43.0305652  42.3649482  82.0781506  43.1911619
  41.1449215  81.3109444  56.9382935  40.5147876  81.9925725  57.1718332
  41.0385303  81.1992526  55.9936073  36.4394188  80.9781240  47.8648859
  35.6493242  81.2338769  47.3888970  36.9305435  81.7929578  47.9700900
  50.4557997  88.3186479  50.6154140  51.2775441  87.9166666  50.3336822
  50.4520400  88.2154713  51.5670256  38.3908933  81.3425819  44.8232336
  37.5940096  81.4544514  45.3415832  38.1634525  81.6812471  43.9573226
  44.2214601  87.8670522  52.7714851  44.2859033  88.3290930  53.6073022
  43.5125525  87.2367887  52.8997160  34.7231891  81.2311730  50.2963850
  34.9739929  82.1158740  50.5621426  35.2591439  81.0516332  49.5238942
  58.5463990  84.6625228  46.9639111  57.7927699  84.0932626  46.8083116
  58.6811532  84.6287892  47.9109746  43.9362618  89.5338630  42.6393831
  43.8008293  90.3790166  43.0678679  44.4772431  89.7357908  41.8759765
  37.3892016  87.0514068  43.2121756  37.9016536  87.8457318  43.3627321
  38.0414729  86.3540358  43.1455357  39.1986901  90.1679824  45.2944509
  39.3753529  91.0897789  45.1065493  39.9943734  89.8538244  45.7238889
  43.3397919  77.0288089  56.8928443  44.0807632  77.6295242  56.8132905
  43.5715842  76.2865727  56.3346485  38.4839257  82.2144456  55.1706672
  38.3692772  81.3129713  55.4713771  37.6283775  82.4608153  54.8191489
  45.5631095  90.1562196  56.7694173  45.1194949  89.3698575  56.4515077
  46.2248308  90.3441347  56.1038064  40.3218216  91.6857998  51.2954851
  40.8725641  91.5575061  50.5231845  39.4829692  91.9852887  50.9449744
  47.6612333  90.4364996  54.7975574  47.6430808  91.2573877  54.3055843
  48.5832253  90.3119072  55.0225715  44.1185387  87.9509126  55.6399083
  44.6513724  87.1897414  55.4098391  43.5899468  87.6582778  56.3823237
  47.2855082  73.0569192  51.1692724  46.9419351  73.9470834  51.0931835
  47.6534045  72.8670850  50.3062309  35.3540933  85.3802722  43.9881326
  36.1916155  85.7899731  43.7715034  35.5319200  84.4402164  43.9581520
  47.2505365  83.0477803  39.6765159  46.7351988  83.8182408  39.9153547
  46.9782673  82.3742939  40.2998221  44.8352476  77.8927504  44.7350398
  43.9794072  77.5034354  44.5556036  45.2479428  77.9719465  43.8750183
  46.3651622  75.4273847  49.1341958  45.8616418  75.3903982  48.3209763
  46.6582229  76.3366590  49.1938614  52.2239639  85.8010158  41.6118333
  51.4469082  85.4621317  41.1673495  52.9031120  85.8062781  40.9373298
  47.0391668  80.9204895  41.5024941  46.7341803  81.2351044  42.3535084
  47.9922110  80.9986315  41.5452274  45.4838100  87.0795118  43.1517895
  44.9559461  86.3447878  42.8391132  44.9825602  87.8569795  42.9057863
  50.4630946  85.2744139  48.2684941  49.8054620  85.9643400  48.3565070
  51.2671345  85.6640571  48.6118927  40.2156827  77.7414785  45.5124506
  40.7900579  77.5189966  44.7797699  40.8027810  77.8103479  46.2653107
  49.2736405  83.6288512  46.3188883  49.7868286  84.2618503  46.8210592
  49.9237628  83.0289707  45.9532243  40.5426414  79.7719246  39.5320391
  39.7063727  80.1093932  39.8529666  40.4031184  79.6368225  38.5947528
  42.5179495  74.6156034  44.2399576  41.8643907  74.3005051  43.6156190
  42.4759969  73.9931774  44.9659398  43.6290700  84.8975329  36.1552868
  42.7217762  84.6664582  36.3544017  44.1261732  84.1012948  36.3426849
  46.5358779  93.6072836  39.0749554  45.8620478  93.9104533  39.6834512
  46.9224601  94.4101916  38.7255011  45.7517235  81.1037967  48.5647223
  44.8339797  81.3252914  48.4068911  46.1677379  81.1784278  47.7058930
  46.5352283  82.5029383  43.6949903  47.2824102  83.0150780  43.3857025
  46.8043873  82.1813436  44.5554297  44.8078933  84.9987924  40.6776858
  43.8990153  84.7146956  40.7749327  44.8374017  85.4187002  39.8180165
  50.0398201  88.6094513  44.4468025  49.5860528  87.7685423  44.5033216
  49.4092167  89.2455911  44.7842805  48.9831120  79.5386499  45.6768693
  48.2453877  79.0263885  46.0078935  49.2357894  79.0986881  44.8651970
  48.4831140  90.4471010  45.3817843  48.7754114  91.0076067  44.6630209
  48.9929761  90.7399571  46.1371003  49.0842748  72.3162751  46.2710462
  49.3901624  71.4560114  45.9836377  49.8095352  72.9080371  46.0709456
  35.3767104  82.7193438  44.6592060  35.1791504  82.1262798  43.9343126
  34.8213768  82.4145648  45.3767999  43.3563827  82.6116544  46.7786653
  43.4112437  81.6590381  46.7029130  42.5455029  82.7675983  47.2627951
  44.5055021  86.5396667  38.0164936  44.0674451  85.8232526  37.5570574
  45.2465462  86.7672782  37.4550028  41.2956187  81.2293604  44.5377032
  40.4824053  81.5287774  44.9442224  41.7915182  80.8349293  45.2551514
  43.4464765  91.2251361  46.4711297  43.4040944  91.4512207  45.5419829
  44.3627464  90.9914735  46.6197098  46.8930399  81.6935428  53.3691926
  47.2479787  81.9206901  54.2286392  47.5402530  82.0253805  52.7469181
  52.6228136  84.8153864  44.0741255  52.4846035  85.0055460  43.1462444
  52.2664355  85.5773247  44.5309306  40.7870262  78.8011959  50.1538267
  41.4269641  78.6600718  49.4561230  39.9547793  78.5146473  49.7776869
  52.6497516  86.8830391  49.0852526  53.0834022  86.7905680  49.9335580
  53.3629096  86.8587892  48.4472542  41.5630566  88.1014390  46.2673259
  42.3571164  87.6064710  46.0655834  40.8522258  87.5732253  45.9040965
  46.3825410  90.4832485  50.6185627  46.4362433  91.0523422  51.3863343
  45.5140192  90.6534370  50.2539664  37.8713329  82.2457472  42.3433012
  36.9410918  82.1841927  42.5602974  37.9670801  81.7233424  41.5469653
  37.7898878  78.7712284  44.9311254  38.0505696  79.6857618  44.8220414
  38.6116051  78.3036727  45.0807866  39.2623804  80.1850042  52.1010078
  39.9346857  79.9767404  51.4522727  38.4353590  79.9872128  51.6615310
  53.5113065  86.9254092  51.6185412  53.7048955  87.8299902  51.8644687
  53.4113683  86.4661511  52.4523997  45.1649376  76.8111982  54.1175739
  44.5177291  77.5101932  54.0240215  45.9350391  77.2448126  54.4851987
  45.3413510  84.6492747  52.1772559  46.2705570  84.8003907  52.0041526
  44.9204540  84.7376768  51.3221205  44.1401842  88.6743412  49.9471096
  44.0012928  88.3062196  50.8197035  43.3516438  89.1891051  49.7755054
  44.7349994  93.7752508  41.2896633  44.9101750  93.3040551  42.1042256
  44.0482782  94.4018274  41.5177894  45.6907057  88.0525014  47.3359934
  45.3556890  88.0125784  48.2317584  45.1911003  87.3869730  46.8630344
  39.6651301  83.4592645  52.8612515  39.5271099  82.7272883  53.4624054
  40.5756225  83.3701545  52.5796703  48.6266249  85.3981049  37.6096994
  48.0095419  84.6727877  37.5130047  48.1582737  86.1590409  37.2664068
  42.2933602  83.1712604  52.3496195  43.0033220  82.5305796  52.3082813
  42.2502910  83.4225499  53.2722376  50.2820380  90.1079957  55.2702774
  50.2232927  89.4239177  54.6033357  50.6839899  90.8498947  54.8183400
  41.0062536  80.1577822  54.1691834  40.4699893  79.7068560  54.8213431
  40.4179244  80.2923731  53.4262299  39.3011079  96.9241871  48.0636493
  39.5407677  97.5560395  48.7415512  38.4580276  96.5729911  48.3501852
  40.4164795  79.6166473  36.7318298  39.5394261  79.4955274  36.3680545
  40.8922548  78.8252551  36.4797187  50.2837788  88.0719541  53.5016754
  49.3964566  87.7345463  53.6243153  50.8536339  87.3402572  53.7385519
  31.9366935  84.4043633  46.8259805  32.6237975  84.0905363  46.2380821
  31.7815064  85.3084998  46.5527057  36.7401657  79.2933829  51.2544829
  36.6559846  78.6859499  50.5195239  35.9184363  79.7842848  51.2554325
  43.8138941  92.7320993  50.4677997  43.7409113  93.5375965  50.9797302
  43.3716334  92.9312959  49.6426018  43.6028721  91.9692763  43.9780819
  42.8196243  92.5114444  44.0719043  44.3021466  92.4866743  44.3775060
  46.9125371  77.7787393  46.6215024  47.4094070  77.0257355  46.3016094
  46.1412352  77.8151710  46.0558233  54.7655128  83.4827758  48.2633316
  54.7545004  84.3652474  47.8927249  53.8972508  83.1299309  48.0687853
  46.2737625  92.6307827  52.6236156  46.9865597  93.2655292  52.5512057
  45.7827653  92.7271693  51.8076158  47.9955152  86.5359080  44.1953447
  47.0611430  86.6560543  44.0258152  48.1731820  85.6331547  43.9313457
  43.4960340  79.9204776  46.3486709  43.1258127  79.3675816  47.0367614
  43.9919432  79.3162909  45.7961709  51.3827703  82.3776399  44.7303482
  51.8488155  83.2104391  44.6563784  51.8335203  81.9121381  45.4348740
  41.3249538  90.3802271  53.4441727  42.0258998  91.0138754  53.5971121
  40.8544653  90.7217003  52.6837366  49.4503934  88.7220221  41.7289634
  49.7263778  88.6076815  42.6383508  48.5808433  88.3237706  41.6901807
  49.3544366  74.7456986  48.7694383  48.4407445  74.9761213  48.9376590
  49.7837467  74.8295431  49.6208415  49.1250824  82.9346878  51.2694277
  48.4722274  83.1822786  50.6146730  49.5031204  82.1211017  50.9356754
  46.0857998  92.9706572  45.3722447  46.2680393  92.1528228  45.8350200
  46.9090984  93.1874264  44.9347337  46.4200163  91.8974757  42.6337496
  46.9487930  91.3867211  42.0207658  46.6828383  91.5817287  43.4983029
  45.1738397  83.6766689  57.7560314  44.4979034  83.5760819  58.4262689
  45.9966031  83.5205903  58.2196311  36.9217256  89.9138626  50.3772829
  37.5070693  89.1682314  50.5100733  36.7242095  90.2242583  51.2609493
  39.7755911  92.9489873  45.3935272  39.1066287  93.4336001  44.9099312
  39.6368781  93.1959094  46.3078650  31.5134911  82.4844226  49.0977272
  31.5519010  81.9507817  49.8914391  31.0075204  81.9579432  48.4788250
  43.9161180  94.9833617  51.9917930  44.4679488  95.1465238  52.7567015
  44.2567373  95.5738055  51.3197955  38.3677946  79.4031899  56.2412849
  38.9949985  79.0208977  56.8550373  37.5105865  79.1846101  56.6068541
  48.7672054  89.8094874  57.8466584  49.3111958  90.4224833  57.3521539
  48.1858899  90.3674453  58.3633597  35.1443489  81.2108328  42.1731204
  35.4396930  80.3019007  42.1198258  34.2431524  81.1896068  41.8512206
  47.0529567  92.9315592  48.9781612  46.9280707  92.1305332  48.4692558
  47.7108658  93.4261786  48.4895582  38.6737736  79.2864325  48.1558752
  37.9524321  79.9000293  48.0166226  39.4630991  79.8222090  48.0775398
  49.1164476  90.7324613  50.6061162  48.1694811  90.6129964  50.5339489
  49.4647249  89.8447111  50.6887424  41.4764049  76.6218751  54.4299404
  41.9998451  76.8681048  55.1925713  41.2576382  77.4538786  54.0102541
  36.8731330  78.8922426  42.2970529  36.5444036  78.0119805  42.1145635
  37.2270701  78.8370095  43.1846918  46.1210909  90.5277329  46.8065514
  45.9735871  89.5994036  46.9873085  46.9464402  90.5497419  46.3222590
  39.9873153  79.1795396  42.6646007  40.3269226  79.7081317  41.9424615
  40.4345274  79.5175802  43.4404573  49.7245031  91.3505887  47.8930387
  50.6491578  91.1448749  47.7554838  49.5560334  91.1022289  48.8019729
  42.6816594  77.5632447  52.1149075  42.3413414  76.7640260  52.5169755
  41.9755600  77.8634157  51.5425908  41.9741300  77.6770017  40.8639299
  42.6949663  78.0551270  40.3603016  41.3506605  78.3958894  40.9674277
  46.1172423  78.3815166  41.7997632  46.3336038  79.2639804  41.4986460
  45.6366490  77.9901380  41.0703274  40.8571645  81.3400880  48.3768376
  40.7116225  81.6541183  49.2692658  40.3796848  81.9585780  47.8239275
  42.7168028  78.3303428  48.4249266  42.7029596  77.4344521  48.0881564
  43.4340456  78.3374091  49.0587552  44.5694158  78.7640768  50.4702393
  44.3111936  79.6857838  50.4686724  44.0379199  78.3671202  51.1602857
  49.5140347  91.8691555  43.2492479  49.6877225  91.3037977  42.4966331
  50.0069238  92.6692450  43.0671969  35.3317307  83.8806224  51.3156038
  34.7870775  84.6566032  51.4476312  36.2096657  84.2277028  51.1575159
  42.1204923  77.2117808  43.6936836  42.2420835  76.2834454  43.8927724
  41.8306966  77.2256494  42.7815151  55.3679738  84.6327978  44.8682778
  55.8110884  83.8835303  44.4701902  54.4906248  84.6238114  44.4856510
  50.5015520  91.1858319  40.3489377  51.1966424  91.8065012  40.5676692
  50.8438670  90.3353671  40.6241755  36.1183329  83.0076120  54.2086194
  35.3765065  83.1558756  54.7950825  35.7976073  83.2684386  53.3452944
  52.4006943  88.6358025  41.8776708  52.9258267  88.9745298  41.1526028
  52.3129295  87.7005040  41.6939842  44.0626991  92.5492099  54.0066584
  44.3714118  92.3041245  54.8789284  44.8602473  92.7538737  53.5185455
  44.0847603  94.7030008  46.2371961  43.6452594  94.2106387  46.9304818
  44.8355720  94.1602976  45.9964036  36.5639942  90.8941549  46.2396589
  37.3897962  90.5945321  45.8595233  36.2133994  90.1249171  46.6886378
  41.5321476  90.2468017  48.3094263  40.9101485  89.5838722  48.0096490
  42.2026342  90.2729149  47.6267910  34.7648547  88.8127875  47.1985523
  33.9280456  88.3850050  47.0169524  34.7372193  89.0060319  48.1356314
  41.6046003  78.7249805  57.9026769  41.6534158  79.6011928  57.5204538
  42.1468517  78.1827198  57.3298412  52.0900849  89.2690929  57.1827906
  51.2996392  89.2515067  56.6432405  51.8534203  89.8079222  57.9376942
  52.2098724  86.1183395  54.4960634  52.2596729  85.9533402  55.4376157
  52.1012647  85.2510654  54.1058515  41.0934982  88.7971941  41.7852723
  41.2423103  89.4807405  41.1319396  41.9001426  88.7777031  42.3002179
  43.8345291  79.4781178  54.6573127  42.9648601  79.7714744  54.3855716
  44.0704772  80.0621623  55.3780391  54.9112603  86.1033216  47.2605226
  55.7459494  86.5423020  47.4242786  55.0471732  85.6271869  46.4413472
  51.9604109  83.6612951  53.2082714  52.4358230  83.8540597  52.4001565
  51.0369674  83.7172137  52.9626097  38.8487615  84.8237118  42.7913792
  38.6033657  83.9199448  42.9894002  39.0183530  84.8254269  41.8493270
  46.5384325  75.6960795  52.1738548  47.0566269  76.4321822  51.8485036
  46.1839458  76.0024788  53.0085307  38.1183263  80.5565476  40.2899954
  37.4252508  80.6309831  39.6339989  37.8735015  79.7925819  40.8121470
  46.7896919  72.1161077  47.6939444  47.0698673  71.4484266  48.3199871
  47.5747526  72.3090173  47.1814108  44.5930388  91.2920071  39.2564471
  44.0204355  91.9110258  38.8034942  45.1663182  91.8419433  39.7904393
  50.6605778  80.5378711  51.4411019  51.6123201  80.6376809  51.4623243
  50.4909228  79.7456980  51.9509104  48.6820157  77.6234294  51.6270420
  48.0870089  77.9039307  50.9316909  48.3969854  78.1128195  52.3987161
  47.8127648  91.5757221  40.3873053  48.7458321  91.5102783  40.5905928
  47.7250861  92.4113488  39.9287586  50.4415664  90.8923091  37.3477000
  50.3629296  90.5582955  38.2412758  51.2625331  91.3844859  37.3468473
  53.1393856  83.7584831  50.5553319  53.1070176  82.8200832  50.7413003
  53.7494479  83.8368868  49.8219144  44.9777186  82.6280884  36.5980523
  45.9236291  82.4987092  36.6668941  44.5991431  81.8895546  37.0749951
  53.2888344  80.5495874  50.6011602  52.7727393  79.7654331  50.4141531
  54.1728293  80.2214591  50.7658122  50.9499071  74.2936890  46.5607415
  50.7523892  73.9851978  47.4450747  51.5598777  75.0198529  46.6905345
  58.9570405  84.8200838  49.6959356  59.6873794  84.5586126  50.2567059
  58.3477351  84.0829560  49.7361424  57.0385703  82.9608700  50.2933807
  56.3118866  82.8264665  49.6850299  56.6232989  83.2685529  51.0990525
  44.8615879  86.6798630  58.0581180  45.7818888  86.8577229  58.2521227
  44.8265462  85.7354675  57.9060879  43.1620104  80.5530860  36.5335408
  42.2551559  80.2563973  36.6098122  43.4396085  80.2560678  35.6669695
  34.0798044  81.8737224  46.9834455  33.7600828  81.0202532  46.6908829
  33.5331472  82.0885802  47.7392422  37.8577952  84.5899665  50.7003961
  38.0763961  85.5216772  50.7191995  38.2703725  84.2307639  51.4858765
  44.7782169  75.0967750  42.6879650  43.9682898  74.7514835  43.0634896
  45.4666586  74.7875294  43.2767261  46.7072718  74.1745797  44.3103946
  47.2603756  74.5941250  44.9693969  46.9442804  73.2481545  44.3526902
  42.7305817  80.1632870  60.0906710  42.6302544  81.1127227  60.0218801
  42.5127359  79.8351109  59.2182780  41.9318888  77.4117795  36.6747387
  42.7938052  77.7372694  36.9343205  42.1169232  76.6249291  36.1620453
  33.9486304  85.4940135  48.9527576  33.2549775  85.0794088  48.4397531
  34.6959295  85.5360672  48.3560995  50.0851525  76.2846322  43.8182610
  49.5050194  76.9431126  43.4360663  49.8187457  75.4623666  43.4070028
  48.5355091  75.6851380  46.0203931  49.0354869  75.7967914  45.2118250
  49.1790699  75.3812432  46.6604739  42.5937087  83.5930009  58.9071772
  42.1104169  84.3930369  59.1135661  42.6798026  83.6037954  57.9539216
  35.8623047  85.4258389  46.8293591  35.8393735  85.5246076  45.8775474
  36.1723683  86.2723540  47.1510757  38.5210424  87.4834544  50.9440206
  39.4753678  87.4518486  50.8770137  38.3222948  87.0225168  51.7590431
  39.1109807  86.0535660  53.5111003  39.9302696  86.5479739  53.5345841
  39.3846614  85.1367628  53.4828571  48.8676403  78.4446412  42.8738959
  47.9802258  78.7296063  42.6559154  49.2830392  78.2840176  42.0266236
  52.2190939  78.4692933  46.5893298  52.9951329  78.9589386  46.8617915
  51.4939073  78.8950987  47.0465167  54.6563497  79.1820552  47.6467239
  55.2507988  78.9416288  46.9360547  54.7290081  78.4627683  48.2740775
  36.8760653  93.0254163  47.9610403  36.7415121  92.2654564  47.3948401
  36.4592715  93.7495063  47.4939192  48.0119616  88.2091087  36.9686979
  48.7155466  88.4141089  37.5844634  47.2882265  88.7767849  37.2336062
  48.8417426  83.9600948  43.0889249  48.7852628  84.4169500  42.2496881
  49.3945769  83.1991633  42.9112092  52.6522232  79.7490680  43.9139368
  52.3959167  79.3487316  44.7447576  52.0275100  80.4634474  43.7889508
  56.9634570  82.4886753  46.4210660  56.4034128  82.5579943  47.1942222
  56.3578074  82.3127738  45.7010156  40.0329779  93.9223480  48.1728846
  39.9162163  94.8668913  48.0707536  39.2122225  93.6197042  48.5614645
  49.9206314  88.6473616  39.0185439  50.7551918  88.2154815  38.8362914
  49.7590657  88.4755630  39.9462333  49.5752206  85.1505729  40.3841778
  49.5201010  84.9850001  39.4430222  48.9498261  85.8581762  40.5403968
  34.3644721  80.3873794  54.2103200  35.0103584  79.8772748  54.6990425
  34.1561872  81.1242475  54.7846626  42.8848331  74.6513838  39.9627096
  42.8727001  75.5955678  40.1195367  43.7771753  74.4683984  39.6686558
  41.0584293  94.5751742  51.3884775  41.9611540  94.6075353  51.7051269
  40.8321663  93.6452193  51.4031110  42.8137895  93.3282729  48.0494853
  41.8633526  93.3284590  47.9359225  43.1170381  92.5815463  47.5330888
  46.7000451  71.2456615  44.2173033  45.9332847  70.6915102  44.3629716
  47.1111156  71.3178484  45.0787185  58.5490589  99.1643267  49.1140616
  59.1868999  99.0450015  48.4103956  58.4311432 100.1124111  49.1728568
  55.3580295  99.1170695  49.0502140  55.0198807  99.0011760  48.1622675
  56.2270063  98.7161860  49.0303146  51.2167111 100.9706172  45.0399031
  50.6531976 100.8796109  44.2715319  51.1019506 100.1506076  45.5201524
  55.8400078 100.2705547  55.0088346  55.8288719  99.8758345  54.1368849
  56.0020717  99.5371620  55.6022117  48.7631543 102.4657363  47.8783252
  49.5552835 102.1248188  47.4629551  49.0028193 102.5752338  48.7985405
  56.7966669 104.6377139  40.3513496  56.1454649 105.2231220  39.9647510
  57.5911032 105.1683334  40.4108534  50.7222297 101.7266277  40.7500630
  51.4953173 101.1795264  40.6113506  51.0747695 102.5910526  40.9615092
  52.5607339 103.0542659  53.9567530  52.2697205 103.9588290  53.8414196
  53.1964323 103.0959186  54.6711599  53.4863546 100.4319507  50.5468889
  54.0827118 100.2075530  49.8325852  53.5438518  99.6904253  51.1494337
  53.0588574  97.8858943  38.3819080  53.3114095  97.3640464  37.6202543
  52.1213133  97.7225088  38.4845764  58.1031857  96.8894721  46.1893824
  58.8894946  96.4714144  45.8384241  58.3670562  97.7940813  46.3575472
  58.2741935 102.3267571  40.8882480  57.6387768 102.4002198  41.6003385
  57.9439341 102.9161170  40.2101560  63.5040284  96.8269954  47.0926802
  64.2365456  96.2569171  47.3264632  62.7479640  96.4391555  47.5333308
  52.7784863  99.7887049  40.5843455  52.6621121  99.1131952  41.2524540
  52.8887123  99.3019423  39.7675608  55.1216404  99.2497196  44.2890145
  54.7574611  98.7227817  45.0003066  55.9783520  98.8595665  44.1156630
  61.0265705  90.5391528  51.5521411  60.6949029  91.4086939  51.3282626
  60.4311318  90.2227812  52.2315441  54.7621891  94.2787095  39.2851493
  54.9296293  95.1467332  39.6521964  54.5719060  94.4414377  38.3612782
  57.5197224 102.7404074  50.9517323  57.2197947 103.6429113  50.8433131
  57.1748284 102.4736258  51.8038476  50.9709706  99.1917871  46.9854028
  50.0460202  99.0594085  47.1931720  51.2194119  99.9712090  47.4823970
  60.9194368  95.2586615  48.6314761  60.0111245  95.1902023  48.3373522
  60.8681964  95.7358559  49.4596586  54.7411112  96.7344753  40.2698160
  54.6210737  97.1801804  41.1083640  54.0463700  97.0830071  39.7111698
  48.3318517  98.8351145  47.8197817  48.4610898  99.0885624  48.7337229
  47.6515968  99.4278853  47.5002472  52.5018004 109.5048395  43.9188291
  52.4242034 110.4556220  43.9976772  51.8979648 109.1594267  44.5763217
  54.9935234  96.6776260  56.5749658  54.2168568  97.2370180  56.5652523
  55.6325797  97.1633043  57.0964528  62.7856014  93.4603053  50.4092635
  62.1430395  93.7535586  49.7632429  62.2810943  93.3455973  51.2145831
  60.4396178  97.2066226  41.0978494  61.3514034  97.4393613  40.9226191
  59.9305825  97.7903270  40.5353573  53.2481606  99.4861713  56.1367625
  53.9896290 100.0246757  55.8602449  52.5418592 100.1128002  56.2939177
  58.7236946 101.6290854  54.7339787  59.1320302 101.1873264  53.9894419
  58.0014207 101.0543481  54.9873979  55.0768016  96.5663461  52.1073343
  55.9229211  96.9902874  52.2507992  55.0166653  95.9097085  52.8011907
  59.0465760 102.1892045  48.4892075  58.4174623 102.3537759  47.7868143
  58.6591422 102.6033654  49.2603039  62.9254992 103.1246482  45.8436439
  62.2406030 103.5045384  45.2933472  63.0098842 103.7341809  46.5768387
  58.2267461  94.2267829  53.7654517  57.9828393  94.9809890  53.2288793
  58.5027392  94.6053177  54.6001764  60.1805924 100.7706441  52.4431783
  60.3922819 101.4138201  51.7666164  60.1335672  99.9368758  51.9753713
  57.7832153  93.3824262  49.3468355  56.9216632  93.6805516  49.6385092
  57.8094587  93.5994661  48.4149387  54.5993722 101.9266453  45.7542160
  55.0632068 102.2054156  44.9646783  54.3350520 101.0249897  45.5715251
  51.4917803 101.4737934  48.6921924  52.0619160 101.9025203  48.0539408
  52.0825915 101.1920519  49.3906109  53.5362608  98.0489605  42.5631726
  54.2386652  98.5010649  43.0305652  53.2043237  97.4073424  43.1911619
  51.9842970  96.6401362  56.9382935  51.3541630  97.3217643  57.1718332
  51.8779058  96.5284443  55.9936073  47.2787942  96.3073158  47.8648859
  46.4886996  96.5630686  47.3888970  47.7699190  97.1221496  47.9700900
  61.2951752 103.6478397  50.6154140  62.1169196 103.2458584  50.3336822
  61.2914155 103.5446631  51.5670256  49.2302688  96.6717737  44.8232336
  48.4333851  96.7836431  45.3415832  49.0028280  97.0104389  43.9573226
  55.0608355 103.1962440  52.7714851  55.1252788 103.6582847  53.6073022
  54.3519279 102.5659805  52.8997160  45.5625645  96.5603648  50.2963850
  45.8133684  97.4450658  50.5621426  46.0985194  96.3808250  49.5238942
  69.3857745  99.9917145  46.9639111  68.6321453  99.4224543  46.8083116
  69.5205286  99.9579810  47.9109746  54.7756373 104.8630548  42.6393831
  54.6402048 105.7082083  43.0678679  55.3166185 105.0649825  41.8759765
  51.2623713  90.9422128  59.3008186  50.8690658  90.3888326  59.9755830
  52.0789853  91.2532706  59.6914704  48.2285770 102.3805986  43.2121756
  48.7410291 103.1749236  43.3627321  48.8808483 101.6832276  43.1455357
  50.0380655 105.4971742  45.2944509  50.2147283 106.4189707  45.1065493
  50.8337489 105.1830161  45.7238889  54.1791674  92.3580007  56.8928443
  54.9201387  92.9587160  56.8132905  54.4109596  91.6157644  56.3346485
  49.3233012  97.5436374  55.1706672  49.2086527  96.6421631  55.4713771
  48.4677529  97.7900071  54.8191489  56.4024849 105.4854114  56.7694173
  55.9588703 104.6990493  56.4515077  57.0642063 105.6733265  56.1038064
  51.1611970 107.0149916  51.2954851  51.7119396 106.8866979  50.5231845
  50.3223446 107.3144805  50.9449744  58.5006087 105.7656914  54.7975574
  58.4824563 106.5865795  54.3055843  59.4226007 105.6410989  55.0225715
  54.9579142 103.2801044  55.6399083  55.4907478 102.5189332  55.4098391
  54.4293223 102.9874695  56.3823237  58.1248836  88.3861110  51.1692724
  57.7813106  89.2762751  51.0931835  58.4927799  88.1962767  50.3062309
  46.1934687 100.7094640  43.9881326  47.0309909 101.1191648  43.7715034
  46.3712955  99.7694082  43.9581520  58.0899119  98.3769721  39.6765159
  57.5745743  99.1474325  39.9153547  57.8176428  97.7034857  40.2998221
  55.6746230  93.2219421  44.7350398  54.8187827  92.8326272  44.5556036
  56.0873182  93.3011382  43.8750183  57.2045377  90.7565765  49.1341958
  56.7010172  90.7195900  48.3209763  57.4975984  91.6658507  49.1938614
  53.4488263  90.8404494  48.1408139  54.3141260  90.6447303  47.7814029
  53.5165772  90.6114846  49.0677496  63.0633393 101.1302075  41.6118333
  62.2862836 100.7913235  41.1673495  63.7424874 101.1354698  40.9373298
  57.8785422  96.2496813  41.5024941  57.5735558  96.5642962  42.3535084
  58.8315865  96.3278233  41.5452274  56.3231854 102.4087036  43.1517895
  55.7953216 101.6739796  42.8391132  55.8219357 103.1861712  42.9057863
  61.3024700 100.6036057  48.2684941  60.6448375 101.2935318  48.3565070
  62.1065099 100.9932488  48.6118927  51.0550582  93.0706702  45.5124506
  51.6294334  92.8481884  44.7797699  51.6421564  93.1395397  46.2653107
  60.1130159  98.9580429  46.3188883  60.6262041  99.5910421  46.8210592
  60.7631383  98.3581625  45.9532243  51.3820169  95.1011163  39.5320391
  50.5457481  95.4385850  39.8529666  51.2424939  94.9660143  38.5947528
  53.3573250  89.9447951  44.2399576  52.7037662  89.6296968  43.6156190
  53.3153724  89.3223692  44.9659398  54.4684454 100.2267246  36.1552868
  53.5611516  99.9956500  36.3544017  54.9655486  99.4304866  36.3426849
  57.3752533 108.9364754  39.0749554  56.7014232 109.2396450  39.6834512
  57.7618355 109.7393834  38.7255011  56.5910990  96.4329885  48.5647223
  55.6733551  96.6544832  48.4068911  57.0071134  96.5076195  47.7058930
  57.3746038  97.8321300  43.6949903  58.1217857  98.3442698  43.3857025
  57.6437627  97.5105353  44.5554297  55.6472688 100.3279841  40.6776858
  54.7383907 100.0438874  40.7749327  55.6767772 100.7478920  39.8180165
  60.8791955 103.9386431  44.4468025  60.4254282 103.0977341  44.5033216
  60.2485922 104.5747829  44.7842805  59.8224875  94.8678417  45.6768693
  59.0847632  94.3555803  46.0078935  60.0751648  94.4278798  44.8651970
  59.3224895 105.7762927  45.3817843  59.6147869 106.3367984  44.6630209
  59.8323515 106.0691488  46.1371003  59.9236502  87.6454669  46.2710462
  60.2295379  86.7852032  45.9836377  60.6489107  88.2372289  46.0709456
  46.2160858  98.0485355  44.6592060  46.0185258  97.4554716  43.9343126
  45.6607522  97.7437566  45.3767999  54.1957582  97.9408462  46.7786653
  54.2506192  96.9882298  46.7029130  53.3848784  98.0967901  47.2627951
  55.3448776 101.8688585  38.0164936  54.9068206 101.1524444  37.5570574
  56.0859217 102.0964700  37.4550028  52.1349942  96.5585522  44.5377032
  51.3217807  96.8579692  44.9442224  52.6308936  96.1641210  45.2551514
  54.2858520 106.5543278  46.4711297  54.2434698 106.7804125  45.5419829
  55.2021219 106.3206653  46.6197098  57.7324153  97.0227346  53.3691926
  58.0873541  97.2498819  54.2286392  58.3796285  97.3545723  52.7469181
  63.4621890 100.1445782  44.0741255  63.3239789 100.3347378  43.1462444
  63.1058109 100.9065165  44.5309306  51.6264017  94.1303877  50.1538267
  52.2663396  93.9892636  49.4561230  50.7941547  93.8438390  49.7776869
  63.4891270 102.2122309  49.0852526  63.9227777 102.1197598  49.9335580
  64.2022851 102.1879809  48.4472542  52.4024320 103.4306307  46.2673259
  53.1964919 102.9356628  46.0655834  51.6916013 102.9024171  45.9040965
  57.2219165 105.8124403  50.6185627  57.2756187 106.3815339  51.3863343
  56.3533946 105.9826288  50.2539664  48.7107084  97.5749389  42.3433012
  47.7804672  97.5133845  42.5602974  48.8064556  97.0525342  41.5469653
  48.6292633  94.1004202  44.9311254  48.8899450  95.0149535  44.8220414
  49.4509805  93.6328645  45.0807866  50.1017558  95.5141959  52.1010078
  50.7740612  95.3059321  51.4522727  49.2747345  95.3164045  51.6615310
  64.3506820 102.2546010  51.6185412  64.5442710 103.1591820  51.8644687
  64.2507438 101.7953429  52.4523997  56.0043130  92.1403900  54.1175739
  55.3571045  92.8393850  54.0240215  56.7744146  92.5740044  54.4851987
  59.4121928 102.4052752  57.1926292  59.2607435 102.1763304  56.2756376
  59.4026608 103.3623354  57.2057637  56.1807265  99.9784665  52.1772559
  57.1099325 100.1295825  52.0041526  55.7598295 100.0668686  51.3221205
  54.9795596 104.0035329  49.9471096  54.8406682 103.6354114  50.8197035
  54.1910193 104.5182969  49.7755054  55.5743748 109.1044426  41.2896633
  55.7495504 108.6332469  42.1042256  54.8876536 109.7310192  41.5177894
  56.5300812 103.3816932  47.3359934  56.1950644 103.3417702  48.2317584
  56.0304757 102.7161648  46.8630344  50.5045056  98.7884562  52.8612515
  50.3664854  98.0564801  53.4624054  51.4149979  98.6993462  52.5796703
  59.4660003 100.7272967  37.6096994  58.8489174 100.0019795  37.5130047
  58.9976492 101.4882327  37.2664068  53.1327356  98.5004522  52.3496195
  53.8426975  97.8597714  52.3082813  53.0896664  98.7517416  53.2722376
  61.1214135 105.4371875  55.2702774  61.0626681 104.7531095  54.6033357
  61.5233653 106.1790865  54.8183400  51.8456290  95.4869739  54.1691834
  51.3093647  95.0360478  54.8213431  51.2572999  95.6215648  53.4262299
  50.1404834 112.2533789  48.0636493  50.3801432 112.8852313  48.7415512
  49.2974030 111.9021829  48.3501852  51.2558549  94.9458391  36.7318298
  50.3788015  94.8247192  36.3680545  51.7316302  94.1544469  36.4797187
  61.1231542 103.4011459  53.5016754  60.2358321 103.0637381  53.6243153
  61.6930093 102.6694490  53.7385519  42.7760689  99.7335551  46.8259805
  43.4631729  99.4197281  46.2380821  42.6208818 100.6376915  46.5527057
  47.5795411  94.6225747  51.2544829  47.4953600  94.0151417  50.5195239
  46.7578118  95.1134765  51.2554325  54.6532696 108.0612911  50.4677997
  54.5802867 108.8667883  50.9797302  54.2110089 108.2604877  49.6426018
  54.4422475 107.2984681  43.9780819  53.6589997 107.8406361  44.0719043
  55.1415220 107.8158661  44.3775060  57.7519125  93.1079311  46.6215024
  58.2487825  92.3549273  46.3016094  56.9806107  93.1443627  46.0558233
  65.6048883  98.8119676  48.2633316  65.5938759  99.6944392  47.8927249
  64.7366262  98.4591227  48.0687853  57.1131379 107.9599745  52.6236156
  57.8259351 108.5947210  52.5512057  56.6221408 108.0563611  51.8076158
  58.8348906 101.8650998  44.1953447  57.9005185 101.9852460  44.0258152
  59.0125574 100.9623465  43.9313457  54.3354094  95.2496694  46.3486709
  53.9651882  94.6967734  47.0367614  54.8313187  94.6454827  45.7961709
  62.2221457  97.7068317  44.7303482  62.6881910  98.5396309  44.6563784
  62.6728958  97.2413299  45.4348740  52.1643293 105.7094189  53.4441727
  52.8652752 106.3430672  53.5971121  51.6938408 106.0508920  52.6837366
  60.2897688 104.0512138  41.7289634  60.5657532 103.9368733  42.6383508
  59.4202187 103.6529623  41.6901807  60.1938120  90.0748904  48.7694383
  59.2801200  90.3053131  48.9376590  60.6231222  90.1587348  49.6208415
  59.9644579  98.2638796  51.2694277  59.3116029  98.5114704  50.6146730
  60.3424959  97.4502934  50.9356754  56.9251752 108.2998489  45.3722447
  57.1074147 107.4820145  45.8350200  57.7484738 108.5166182  44.9347337
  57.2593918 107.2266674  42.6337496  57.7881684 106.7159129  42.0207658
  57.5222138 106.9109205  43.4983029  56.0132152  99.0058607  57.7560314
  55.3372789  98.9052736  58.4262689  56.8359786  98.8497821  58.2196311
  47.7611011 105.2430544  50.3772829  48.3464448 104.4974232  50.5100733
  47.5635849 105.5534500  51.2609493  50.6149666 108.2781791  45.3935272
  49.9460041 108.7627919  44.9099312  50.4762536 108.5251012  46.3078650
  42.3528665  97.8136144  49.0977272  42.3912765  97.2799735  49.8914391
  41.8468958  97.2871349  48.4788250  54.7554935 110.3125535  51.9917930
  55.3073243 110.4757156  52.7567015  55.0961128 110.9029972  51.3197955
  49.7319428  92.6600684  52.5939815  49.7960754  93.5215515  52.1817212
  49.6686548  92.0474686  51.8612173  49.2071700  94.7323817  56.2412849
  49.8343739  94.3500894  56.8550373  48.3499619  94.5138019  56.6068541
  59.6065809 105.1386792  57.8466584  60.1505713 105.7516750  57.3521539
  59.0252654 105.6966371  58.3633597  45.9837243  96.5400246  42.1731204
  46.2790684  95.6310924  42.1198258  45.0825279  96.5187985  41.8512206
  57.8923322 108.2607510  48.9781612  57.7674461 107.4597250  48.4692558
  58.5502413 108.7553703  48.4895582  49.5131490  94.6156243  48.1558752
  48.7918076  95.2292210  48.0166226  50.3024746  95.1514007  48.0775398
  59.9558230 106.0616530  50.6061162  59.0088566 105.9421881  50.5339489
  60.3041003 105.1739028  50.6887424  52.3157804  91.9510669  54.4299404
  52.8392205  92.1972966  55.1925713  52.0970137  92.7830704  54.0102541
  47.7125085  94.2214344  42.2970529  47.3837791  93.3411723  42.1145635
  48.0664455  94.1662012  43.1846918  56.9604663 105.8569246  46.8065514
  56.8129626 104.9285954  46.9873085  57.7858157 105.8789337  46.3222590
  50.8266908  94.5087314  42.6646007  51.1662980  95.0373235  41.9424615
  51.2739028  94.8467720  43.4404573  60.5638785 106.6797805  47.8930387
  61.4885333 106.4740666  47.7554838  60.3954089 106.4314206  48.8019729
  53.5210349  92.8924364  52.1149075  53.1807169  92.0932177  52.5169755
  52.8149355  93.1926075  51.5425908  54.1726820  89.9773677  50.5676398
  54.9952890  89.5034155  50.4455288  54.4164884  90.7564160  51.0675084
  52.8135055  93.0061935  40.8639299  53.5343417  93.3843188  40.3603016
  52.1900359  93.7250812  40.9674277  56.9566178  93.7107084  41.7997632
  57.1729792  94.5931722  41.4986460  56.4760245  93.3193297  41.0703274
  51.6965399  96.6692797  48.3768376  51.5509980  96.9833100  49.2692658
  51.2190603  97.2877698  47.8239275  53.5561782  93.6595345  48.4249266
  53.5423351  92.7636439  48.0881564  54.2734210  93.6666009  49.0587552
  55.4087913  94.0932685  50.4702393  55.1505691  95.0149756  50.4686724
  54.8772953  93.6963120  51.1602857  60.3534102 107.1983473  43.2492479
  60.5270979 106.6329895  42.4966331  60.8462993 107.9984367  43.0671969
  46.1711061  99.2098142  51.3156038  45.6264529  99.9857950  51.4476312
  47.0490411  99.5568946  51.1575159  52.9598678  92.5409726  43.6936836
  53.0814589  91.6126372  43.8927724  52.6700720  92.5548412  42.7815151
  55.8289868  90.2264636  46.8303556  55.8511565  90.2903969  45.8755535
  56.2457927  89.3869145  47.0244062  66.2073493  99.9619896  44.8682778
  66.6504639  99.2127221  44.4701902  65.3300003  99.9530032  44.4856510
  61.3409274 106.5150237  40.3489377  62.0360179 107.1356930  40.5676692
  61.6832424 105.6645588  40.6241755  46.9577083  98.3368038  54.2086194
  46.2158819  98.4850673  54.7950825  46.6369827  98.5976304  53.3452944
  63.2400697 103.9649943  41.8776708  63.7652021 104.3037215  41.1526028
  63.1523050 103.0296958  41.6939842  54.9020746 107.8784016  54.0066584
  55.2107872 107.6333163  54.8789284  55.6996228 108.0830655  53.5185455
  54.9241358 110.0321926  46.2371961  54.4846348 109.5398305  46.9304818
  55.6749475 109.4894893  45.9964036  47.4033697 106.2233467  46.2396589
  48.2291717 105.9237239  45.8595233  47.0527749 105.4541089  46.6886378
  52.3715230 105.5759935  48.3094263  51.7495239 104.9130640  48.0096490
  53.0420097 105.6021067  47.6267910  45.6042302 104.1419793  47.1985523
  44.7674210 103.7141967  47.0169524  45.5765947 104.3352236  48.1356314
  52.4439758  94.0541723  57.9026769  52.4927913  94.9303846  57.5204538
  52.9862272  93.5119116  57.3298412  62.9294603 104.5982846  57.1827906
  62.1390147 104.5806985  56.6432405  62.6927958 105.1371140  57.9376942
  63.0492478 101.4475313  54.4960634  63.0990483 101.2825320  55.4376157
  62.9406402 100.5802572  54.1058515  51.9328737 104.1263858  41.7852723
  52.0816857 104.8099323  41.1319396  52.7395180 104.1068948  42.3002179
  60.3396241  97.4306241  55.8119941  61.2406103  97.2912705  55.5203939
  60.4144215  97.5960695  56.7518118  54.6739046  94.8073095  54.6573127
  53.8042355  95.1006661  54.3855716  54.9098526  95.3913540  55.3780391
  64.5510675 103.8672254  54.7402656  64.2595483 104.2302235  55.5766117
  63.9382806 103.1539262  54.5615988  65.7506357 101.4325134  47.2605226
  66.5853249 101.8714938  47.4242786  65.8865486 100.9563787  46.4413472
  62.7997863  98.9904869  53.2082714  63.2751985  99.1832515  52.4001565
  61.8763429  99.0464055  52.9626097  49.6881370 100.1529036  42.7913792
  49.4427412  99.2491366  42.9894002  49.8577284 100.1546186  41.8493270
  57.3778080  91.0252712  52.1738548  57.8960024  91.7613739  51.8485036
  57.0233213  91.3316706  53.0085307  48.9577017  95.8857393  40.2899954
  48.2646262  95.9601748  39.6339989  48.7128769  95.1217737  40.8121470
  57.6290674  87.4452995  47.6939444  57.9092428  86.7776184  48.3199871
  58.4141281  87.6382090  47.1814108  55.4324142 106.6211989  39.2564471
  54.8598110 107.2402176  38.8034942  56.0056936 107.1711350  39.7904393
  61.4999532  95.8670629  51.4411019  62.4516955  95.9668726  51.4623243
  61.3302983  95.0748897  51.9509104  59.5213912  92.9526212  51.6270420
  58.9263844  93.2331225  50.9316909  59.2363608  93.4420113  52.3987161
  58.6521402 106.9049139  40.3873053  59.5852075 106.8394701  40.5905928
  58.5644615 107.7405406  39.9287586  61.2809419 106.2215009  37.3477000
  61.2023050 105.8874873  38.2412758  62.1019086 106.7136777  37.3468473
  63.9787610  99.0876748  50.5553319  63.9463930  98.1492749  50.7413003
  64.5888234  99.1660785  49.8219144  55.8170941  97.9572801  36.5980523
  56.7630046  97.8279010  36.6668941  55.4385186  97.2187463  37.0749951
  64.1282099  95.8787792  50.6011602  63.6121147  95.0946249  50.4141531
  65.0122047  95.5506509  50.7658122  61.7892826  89.6228807  46.5607415
  61.5917647  89.3143896  47.4450747  62.3992531  90.3490446  46.6905345
  69.7964160 100.1492755  49.6959356  70.5267548  99.8878043  50.2567059
  69.1871105  99.4121477  49.7361424  67.8779457  98.2900618  50.2933807
  67.1512621  98.1556583  49.6850299  67.4626744  98.5977447  51.0990525
  55.7009633 102.0090548  58.0581180  56.6212643 102.1869147  58.2521227
  55.6659217 101.0646593  57.9060879  54.0013858  95.8822778  36.5335408
  53.0945314  95.5855891  36.6098122  54.2789839  95.5852596  35.6669695
  44.9191798  97.2029141  46.9834455  44.5994583  96.3494449  46.6908829
  44.3725227  97.4177719  47.7392422  48.6971706  99.9191582  50.7003961
  48.9157716 100.8508690  50.7191995  49.1097480  99.5599557  51.4858765
  55.6175924  90.4259668  42.6879650  54.8076652  90.0806753  43.0634896
  56.3060341  90.1167211  43.2767261  57.5466472  89.5037714  44.3103946
  58.0997511  89.9233168  44.9693969  57.7836558  88.5773462  44.3526902
  53.5699571  95.4924788  60.0906710  53.4696298  96.4419145  60.0218801
  53.3521113  95.1643027  59.2182780  52.7712643  92.7409713  36.6747387
  53.6331807  93.0664611  36.9343205  52.9562987  91.9541209  36.1620453
  44.7880058 100.8232053  48.9527576  44.0943530 100.4086006  48.4397531
  45.5353049 100.8652589  48.3560995  60.9245279  91.6138240  43.8182610
  60.3443948  92.2723044  43.4360663  60.6581212  90.7915584  43.4070028
  59.3748846  91.0143297  46.0203931  59.8748624  91.1259832  45.2118250
  60.0184454  90.7104350  46.6604739  53.4330841  98.9221927  58.9071772
  52.9497923  99.7222287  59.1135661  53.5191780  98.9329872  57.9539216
  46.7016801 100.7550307  46.8293591  46.6787489 100.8537994  45.8775474
  47.0117438 101.6015457  47.1510757  49.3604179 102.8126462  50.9440206
  50.3147432 102.7810404  50.8770137  49.1616702 102.3517085  51.7590431
  49.9503561 101.3827578  53.5111003  50.7696450 101.8771656  53.5345841
  50.2240369 100.4659546  53.4828571  59.7070157  93.7738330  42.8738959
  58.8196012  94.0587981  42.6559154  60.1224146  93.6132093  42.0266236
  63.0584693  93.7984851  46.5893298  63.8345083  94.2881303  46.8617915
  62.3332828  94.2242905  47.0465167  65.4957252  94.5112470  47.6467239
  66.0901743  94.2708206  46.9360547  65.5683836  93.7919601  48.2740775
  47.7154408 108.3546081  47.9610403  47.5808876 107.5946482  47.3948401
  47.2986470 109.0786981  47.4939192  58.8513371 103.5383005  36.9686979
  59.5549221 103.7433007  37.5844634  58.1276019 104.1059766  37.2336062
  59.6811181  99.2892866  43.0889249  59.6246382  99.7461417  42.2496881
  60.2339523  98.5283550  42.9112092  63.4915987  95.0782598  43.9139368
  63.2352921  94.6779233  44.7447576  62.8668855  95.7926392  43.7889508
  67.8028325  97.8178671  46.4210660  67.2427883  97.8871860  47.1942222
  67.1971828  97.6419656  45.7010156  50.8723534 109.2515398  48.1728846
  50.7555918 110.1960831  48.0707536  50.0515980 108.9488960  48.5614645
  60.7600068 103.9765534  39.0185439  61.5945672 103.5446732  38.8362914
  60.5984411 103.8047547  39.9462333  60.4145960 100.4797647  40.3841778
  60.3594764 100.3141919  39.4430222  59.7892016 101.1873680  40.5403968
  45.2038475  95.7165711  54.2103200  45.8497339  95.2064665  54.6990425
  44.9955626  96.4534393  54.7846626  57.7291867 102.7846559  59.7095341
  58.5983027 102.9587211  59.3481976  57.2498619 103.6040976  59.5871070
  53.7242086  89.9805756  39.9627096  53.7120756  90.9247596  40.1195367
  54.6165508  89.7975901  39.6686558  51.8978048 109.9043660  51.3884775
  52.8005294 109.9367270  51.7051269  51.6715418 108.9744111  51.4031110
  53.6531650 108.6574646  48.0494853  52.7027281 108.6576508  47.9359225
  53.9564136 107.9107381  47.5330888  57.5394205  86.5748533  44.2173033
  56.7726601  86.0207019  44.3629716  57.9504910  86.6470401  45.0787185
  49.5435966  92.8633329  58.3078215  50.4067428  92.5070133  58.5181539
  48.9701377  92.5247223  58.9953619  69.3884343 114.4935185  49.1140616
  70.0262753 114.3741932  48.4103956  69.2705186 115.4416029  49.1728568
  66.1974049 114.4462613  49.0502140  65.8592561 114.3303678  48.1622675
  67.0663818 114.0453778  49.0303146  62.0560865 116.2998089  45.0399031
  61.4925730 116.2088026  44.2715319  61.9413260 115.4797994  45.5201524
  66.6793832 115.5997465  55.0088346  66.6682473 115.2050263  54.1368849
  66.8414472 114.8663537  55.6022117  59.6025297 117.7949281  47.8783252
  60.3946589 117.4540106  47.4629551  59.8421947 117.9044256  48.7985405
  67.6360424 119.9669057  40.3513496  66.9848404 120.5523138  39.9647510
  68.4304787 120.4975252  40.4108534  61.5616051 117.0558194  40.7500630
  62.3346927 116.5087181  40.6113506  61.9141450 117.9202444  40.9615092
  63.4001094 118.3834577  53.9567530  63.1090960 119.2880207  53.8414196
  64.0358078 118.4251104  54.6711599  64.3257300 115.7611425  50.5468889
  64.9220873 115.5367447  49.8325852  64.3832272 115.0196171  51.1494337
  63.8982329 113.2150860  38.3819080  64.1507850 112.6932382  37.6202543
  62.9606888 113.0517006  38.4845764  68.9425612 112.2186639  46.1893824
  69.7288701 111.8006062  45.8384241  69.2064316 113.1232731  46.3575472
  69.1135689 117.6559489  40.8882480  68.4781522 117.7294116  41.6003385
  68.7833095 118.2453088  40.2101560  74.3434039 112.1561872  47.0926802
  75.0759211 111.5861089  47.3264632  73.5873395 111.7683472  47.5333308
  63.6178618 115.1178966  40.5843455  63.5014876 114.4423870  41.2524540
  63.7280877 114.6311340  39.7675608  65.9610159 114.5789113  44.2890145
  65.5968366 114.0519734  45.0003066  66.8177274 114.1887582  44.1156630
  71.8659459 105.8683446  51.5521411  71.5342784 106.7378857  51.3282626
  71.2705073 105.5519730  52.2315441  65.6015646 109.6079013  39.2851493
  65.7690048 110.4759250  39.6521964  65.4112815 109.7706295  38.3612782
  68.3590979 118.0695992  50.9517323  68.0591702 118.9721031  50.8433131
  68.0142038 117.8028175  51.8038476  61.8103460 114.5209789  46.9854028
  60.8853957 114.3886003  47.1931720  62.0587873 115.3004008  47.4823970
  71.7588122 110.5878532  48.6314761  70.8505000 110.5193941  48.3373522
  71.7075718 111.0650477  49.4596586  65.5804866 112.0636671  40.2698160
  65.4604492 112.5093721  41.1083640  64.8857455 112.4121988  39.7111698
  59.1712271 114.1643062  47.8197817  59.3004652 114.4177541  48.7337229
  58.4909723 114.7570770  47.5002472  63.3411758 124.8340312  43.9188291
  63.2635788 125.7848137  43.9976772  62.7373402 124.4886185  44.5763217
  65.8328988 112.0068178  56.5749658  65.0562322 112.5662098  56.5652523
  66.4719551 112.4924961  57.0964528  73.6249769 108.7894971  50.4092635
  72.9824149 109.0827504  49.7632429  73.1204697 108.6747891  51.2145831
  71.2789933 112.5358144  41.0978494  72.1907789 112.7685531  40.9226191
  70.7699580 113.1195188  40.5353573  64.0875361 114.8153631  56.1367625
  64.8290045 115.3538675  55.8602449  63.3812346 115.4419920  56.2939177
  69.5630700 116.9582772  54.7339787  69.9714056 116.5165182  53.9894419
  68.8407962 116.3835399  54.9873979  65.9161770 111.8955378  52.1073343
  66.7622965 112.3194792  52.2507992  65.8560408 111.2389003  52.8011907
  69.8859515 117.5183962  48.4892075  69.2568377 117.6829676  47.7868143
  69.4985177 117.9325572  49.2603039  73.7648747 118.4538400  45.8436439
  73.0799785 118.8337301  45.2933472  73.8492596 119.0633727  46.5768387
  69.0661216 109.5559747  53.7654517  68.8222147 110.3101807  53.2288793
  69.3421146 109.9345094  54.6001764  71.0199678 116.0998359  52.4431783
  71.2316574 116.7430119  51.7666164  70.9729427 115.2660676  51.9753713
  68.6225907 108.7116180  49.3468355  67.7610386 109.0097433  49.6385092
  68.6488342 108.9286579  48.4149387  65.4387477 117.2558370  45.7542160
  65.9025822 117.5346073  44.9646783  65.1744275 116.3541815  45.5715251
  62.3311558 116.8029852  48.6921924  62.9012915 117.2317120  48.0539408
  62.9219670 116.5212437  49.3906109  64.3756363 113.3781523  42.5631726
  65.0780406 113.8302566  43.0305652  64.0436991 112.7365342  43.1911619
  62.8236724 111.9693279  56.9382935  62.1935385 112.6509560  57.1718332
  62.7172812 111.8576361  55.9936073  58.1181697 111.6365075  47.8648859
  57.3280751 111.8922604  47.3888970  58.6092944 112.4513413  47.9700900
  72.1345506 118.9770315  50.6154140  72.9562950 118.5750502  50.3336822
  72.1307909 118.8738549  51.5670256  60.0696442 112.0009655  44.8232336
  59.2727605 112.1128349  45.3415832  59.8422034 112.3396307  43.9573226
  65.9002110 118.5254358  52.7714851  65.9646542 118.9874765  53.6073022
  65.1913034 117.8951723  52.8997160  56.4019400 111.8895566  50.2963850
  56.6527438 112.7742576  50.5621426  56.9378948 111.7100167  49.5238942
  80.2251499 115.3209063  46.9639111  79.4715208 114.7516461  46.8083116
  80.3599041 115.2871728  47.9109746  65.6150127 120.1922465  42.6393831
  65.4795802 121.0374001  43.0678679  66.1559940 120.3941743  41.8759765
  62.1017467 106.2714045  59.3008186  61.7084413 105.7180244  59.9755830
  62.9183607 106.5824624  59.6914704  59.0679525 117.7097903  43.2121756
  59.5804045 118.5041154  43.3627321  59.7202238 117.0124194  43.1455357
  60.8774410 120.8263660  45.2944509  61.0541038 121.7481624  45.1065493
  61.6731243 120.5122079  45.7238889  65.0185428 107.6871924  56.8928443
  65.7595141 108.2879077  56.8132905  65.2503351 106.9449562  56.3346485
  60.1626766 112.8728292  55.1706672  60.0480281 111.9713549  55.4713771
  59.3071284 113.1191988  54.8191489  67.2418604 120.8146032  56.7694173
  66.7982458 120.0282410  56.4515077  67.9035817 121.0025182  56.1038064
  62.0005725 122.3441833  51.2954851  62.5513150 122.2158897  50.5231845
  61.1617201 122.6436722  50.9449744  69.3399842 121.0948832  54.7975574
  69.3218317 121.9157713  54.3055843  70.2619762 120.9702907  55.0225715
  65.7972896 118.6092961  55.6399083  66.3301233 117.8481249  55.4098391
  65.2686977 118.3166613  56.3823237  68.9642591 103.7153027  51.1692724
  68.6206860 104.6054669  51.0931835  69.3321554 103.5254685  50.3062309
  57.0328442 116.0386558  43.9881326  57.8703664 116.4483566  43.7715034
  57.2106709 115.0986000  43.9581520  68.9292874 113.7061638  39.6765159
  68.4139497 114.4766243  39.9153547  68.6570182 113.0326774  40.2998221
  66.5139985 108.5511339  44.7350398  65.6581581 108.1618189  44.5556036
  66.9266936 108.6303300  43.8750183  68.0439131 106.0857682  49.1341958
  67.5403927 106.0487818  48.3209763  68.3369738 106.9950425  49.1938614
  64.2882017 106.1696412  48.1408139  65.1535014 105.9739221  47.7814029
  64.3559526 105.9406764  49.0677496  73.9027148 116.4593993  41.6118333
  73.1256591 116.1205152  41.1673495  74.5818629 116.4646616  40.9373298
  68.7179177 111.5788730  41.5024941  68.4129312 111.8934880  42.3535084
  69.6709619 111.6570150  41.5452274  67.1625609 117.7378954  43.1517895
  66.6346970 117.0031713  42.8391132  66.6613111 118.5153630  42.9057863
  72.1418455 115.9327974  48.2684941  71.4842129 116.6227236  48.3565070
  72.9458854 116.3224406  48.6118927  61.8944336 108.3998620  45.5124506
  62.4688088 108.1773802  44.7797699  62.4815319 108.4687315  46.2653107
  70.9523914 114.2872347  46.3188883  71.4655795 114.9202339  46.8210592
  71.6025137 113.6873542  45.9532243  62.2213923 110.4303081  39.5320391
  61.3851236 110.7677768  39.8529666  62.0818693 110.2952061  38.5947528
  64.1967004 105.2739869  44.2399576  63.5431416 104.9588886  43.6156190
  64.1547478 104.6515609  44.9659398  65.3078209 115.5559164  36.1552868
  64.4005271 115.3248417  36.3544017  65.8049241 114.7596783  36.3426849
  68.2146288 124.2656671  39.0749554  67.5407987 124.5688368  39.6834512
  68.6012110 125.0685752  38.7255011  67.4304744 111.7621802  48.5647223
  66.5127306 111.9836749  48.4068911  67.8464888 111.8368113  47.7058930
  68.2139792 113.1613218  43.6949903  68.9611611 113.6734615  43.3857025
  68.4831382 112.8397271  44.5554297  66.4866442 115.6571759  40.6776858
  65.5777662 115.3730792  40.7749327  66.5161526 116.0770837  39.8180165
  71.7185710 119.2678348  44.4468025  71.2648037 118.4269258  44.5033216
  71.0879676 119.9039747  44.7842805  70.6618629 110.1970334  45.6768693
  69.9241386 109.6847721  46.0078935  70.9145403 109.7570716  44.8651970
  70.1618649 121.1054845  45.3817843  70.4541623 121.6659902  44.6630209
  70.6717270 121.3983406  46.1371003  70.7630257 102.9746586  46.2710462
  71.0689133 102.1143950  45.9836377  71.4882861 103.5664207  46.0709456
  57.0554613 113.3777273  44.6592060  56.8579013 112.7846634  43.9343126
  56.5001277 113.0729483  45.3767999  65.0351336 113.2700379  46.7786653
  65.0899946 112.3174216  46.7029130  64.2242538 113.4259819  47.2627951
  66.1842530 117.1980503  38.0164936  65.7461960 116.4816361  37.5570574
  66.9252971 117.4256617  37.4550028  62.9743696 111.8877439  44.5377032
  62.1611562 112.1871610  44.9442224  63.4702690 111.4933128  45.2551514
  65.1252274 121.8835196  46.4711297  65.0828453 122.1096042  45.5419829
  66.0414973 121.6498571  46.6197098  68.5717908 112.3519264  53.3691926
  68.9267296 112.5790737  54.2286392  69.2190039 112.6837640  52.7469181
  74.3015645 115.4737700  44.0741255  74.1633544 115.6639296  43.1462444
  73.9451864 116.2357082  44.5309306  62.4657771 109.4595795  50.1538267
  63.1057150 109.3184554  49.4561230  61.6335302 109.1730308  49.7776869
  74.3285025 117.5414227  49.0852526  74.7621531 117.4489516  49.9335580
  75.0416605 117.5171727  48.4472542  63.2418075 118.7598225  46.2673259
  64.0358673 118.2648545  46.0655834  62.5309767 118.2316088  45.9040965
  68.0612919 121.1416321  50.6185627  68.1149942 121.7107257  51.3863343
  67.1927701 121.3118206  50.2539664  59.5500838 112.9041307  42.3433012
  58.6198427 112.8425762  42.5602974  59.6458310 112.3817260  41.5469653
  59.4686387 109.4296120  44.9311254  59.7293205 110.3441453  44.8220414
  60.2903560 108.9620562  45.0807866  60.9411313 110.8433877  52.1010078
  61.6134366 110.6351239  51.4522727  60.1141099 110.6455963  51.6615310
  75.1900574 117.5837927  51.6185412  75.3836464 118.4883738  51.8644687
  75.0901192 117.1245346  52.4523997  66.8436885 107.4695818  54.1175739
  66.1964800 108.1685767  54.0240215  67.6137900 107.9031962  54.4851987
  70.2515683 117.7344670  57.1926292  70.1001189 117.5055222  56.2756376
  70.2420362 118.6915271  57.2057637  67.0201019 115.3076583  52.1772559
  67.9493079 115.4587742  52.0041526  66.5992049 115.3960604  51.3221205
  65.8189351 119.3327247  49.9471096  65.6800437 118.9646032  50.8197035
  65.0303947 119.8474887  49.7755054  66.4137503 124.4336344  41.2896633
  66.5889259 123.9624387  42.1042256  65.7270291 125.0602110  41.5177894
  67.3694566 118.7108850  47.3359934  67.0344399 118.6709620  48.2317584
  66.8698512 118.0453566  46.8630344  61.3438810 114.1176480  52.8612515
  61.2058608 113.3856719  53.4624054  62.2543734 114.0285380  52.5796703
  70.3053758 116.0564884  37.6096994  69.6882928 115.3311712  37.5130047
  69.8370246 116.8174244  37.2664068  63.9721111 113.8296439  52.3496195
  64.6820729 113.1889631  52.3082813  63.9290419 114.0809334  53.2722376
  71.9607889 120.7663793  55.2702774  71.9020436 120.0823013  54.6033357
  72.3627408 121.5082783  54.8183400  62.6850045 110.8161657  54.1691834
  62.1487402 110.3652396  54.8213431  62.0966753 110.9507566  53.4262299
  62.0952304 110.2750308  36.7318298  61.2181770 110.1539109  36.3680545
  62.5710057 109.4836387  36.4797187  71.9625297 118.7303376  53.5016754
  71.0752075 118.3929298  53.6243153  72.5323848 117.9986408  53.7385519
  53.6154444 115.0627468  46.8259805  54.3025484 114.7489198  46.2380821
  53.4602572 115.9668833  46.5527057  58.4189166 109.9517665  51.2544829
  58.3347355 109.3443334  50.5195239  57.5971872 110.4426683  51.2554325
  65.4926450 123.3904829  50.4677997  65.4196622 124.1959800  50.9797302
  65.0503843 123.5896795  49.6426018  65.2816230 122.6276599  43.9780819
  64.4983752 123.1698279  44.0719043  65.9808975 123.1450578  44.3775060
  68.5912880 108.4371228  46.6215024  69.0881579 107.6841191  46.3016094
  67.8199861 108.4735545  46.0558233  76.4442637 114.1411594  48.2633316
  76.4332513 115.0236309  47.8927249  75.5760017 113.7883145  48.0687853
  67.9525134 123.2891663  52.6236156  68.6653106 123.9239128  52.5512057
  67.4615162 123.3855529  51.8076158  69.6742661 117.1942916  44.1953447
  68.7398939 117.3144378  44.0258152  69.8519329 116.2915382  43.9313457
  65.1747849 110.5788611  46.3486709  64.8045636 110.0259652  47.0367614
  65.6706941 109.9746745  45.7961709  73.0615212 113.0360235  44.7303482
  73.5275664 113.8688226  44.6563784  73.5122712 112.5705216  45.4348740
  63.0037047 121.0386106  53.4441727  63.7046507 121.6722589  53.5971121
  62.5332162 121.3800838  52.6837366  71.1291443 119.3804056  41.7289634
  71.4051287 119.2660651  42.6383508  70.2595942 118.9821541  41.6901807
  71.0331875 105.4040822  48.7694383  70.1194954 105.6345049  48.9376590
  71.4624976 105.4879266  49.6208415  70.8038333 113.5930714  51.2694277
  70.1509783 113.8406621  50.6146730  71.1818713 112.7794852  50.9356754
  67.7645507 123.6290407  45.3722447  67.9467902 122.8112063  45.8350200
  68.5878493 123.8458099  44.9347337  68.0987672 122.5558592  42.6337496
  68.6275439 122.0451047  42.0207658  68.3615892 122.2401122  43.4983029
  66.8525906 114.3350525  57.7560314  66.1766543 114.2344654  58.4262689
  67.6753540 114.1789739  58.2196311  58.6004765 120.5722461  50.3772829
  59.1858202 119.8266149  50.5100733  58.4029604 120.8826418  51.2609493
  61.4543420 123.6073709  45.3935272  60.7853796 124.0919836  44.9099312
  61.3156290 123.8542929  46.3078650  53.1922420 113.1428062  49.0977272
  53.2306519 112.6091652  49.8914391  52.6862713 112.6163267  48.4788250
  65.5948689 125.6417452  51.9917930  66.1466997 125.8049074  52.7567015
  65.9354882 126.2321890  51.3197955  60.5713182 107.9892602  52.5939815
  60.6354509 108.8507433  52.1817212  60.5080302 107.3766604  51.8612173
  60.0465455 110.0615735  56.2412849  60.6737494 109.6792812  56.8550373
  59.1893374 109.8429937  56.6068541  70.4459563 120.4678710  57.8466584
  70.9899467 121.0808668  57.3521539  69.8646408 121.0258288  58.3633597
  56.8230998 111.8692164  42.1731204  57.1184439 110.9602842  42.1198258
  55.9219033 111.8479903  41.8512206  68.7317076 123.5899428  48.9781612
  68.6068216 122.7889168  48.4692558  69.3896167 124.0845621  48.4895582
  60.3525245 109.9448160  48.1558752  59.6311830 110.5584128  48.0166226
  61.1418500 110.4805925  48.0775398  70.7951985 121.3908448  50.6061162
  69.8482320 121.2713799  50.5339489  71.1434758 120.5030946  50.6887424
  63.1551558 107.2802587  54.4299404  63.6785960 107.5264883  55.1925713
  62.9363891 108.1122622  54.0102541  58.5518839 109.5506261  42.2970529
  58.2231545 108.6703640  42.1145635  58.9058210 109.4953930  43.1846918
  67.7998418 121.1861164  46.8065514  67.6523380 120.2577872  46.9873085
  68.6251911 121.2081255  46.3222590  61.6660662 109.8379231  42.6646007
  62.0056735 110.3665152  41.9424615  62.1132783 110.1759637  43.4404573
  71.4032540 122.0089723  47.8930387  72.3279087 121.8032584  47.7554838
  71.2347843 121.7606124  48.8019729  64.3604103 108.2216282  52.1149075
  64.0200923 107.4224095  52.5169755  63.6543109 108.5217993  51.5425908
  65.0120575 105.3065594  50.5676398  65.8346644 104.8326073  50.4455288
  65.2558638 106.0856078  51.0675084  63.6528809 108.3353853  40.8639299
  64.3737172 108.7135106  40.3603016  63.0294114 109.0542730  40.9674277
  67.7959932 109.0399002  41.7997632  68.0123547 109.9223640  41.4986460
  67.3153999 108.6485215  41.0703274  62.5359154 111.9984715  48.3768376
  62.3903734 112.3125018  49.2692658  62.0584357 112.6169615  47.8239275
  64.3955537 108.9887263  48.4249266  64.3817105 108.0928356  48.0881564
  65.1127965 108.9957927  49.0587552  66.2481667 109.4224603  50.4702393
  65.9899445 110.3441674  50.4686724  65.7166708 109.0255038  51.1602857
  71.1927856 122.5275390  43.2492479  71.3664734 121.9621813  42.4966331
  71.6856747 123.3276285  43.0671969  57.0104816 114.5390059  51.3156038
  56.4658284 115.3149867  51.4476312  57.8884166 114.8860864  51.1575159
  63.7992432 107.8701643  43.6936836  63.9208344 106.9418289  43.8927724
  63.5094475 107.8840329  42.7815151  66.6683623 105.5556554  46.8303556
  66.6905320 105.6195887  45.8755535  67.0851682 104.7161062  47.0244062
  77.0467247 115.2911813  44.8682778  77.4898393 114.5419138  44.4701902
  76.1693757 115.2821950  44.4856510  72.1803028 121.8442155  40.3489377
  72.8753933 122.4648847  40.5676692  72.5226179 120.9937506  40.6241755
  57.7970838 113.6659956  54.2086194  57.0552574 113.8142591  54.7950825
  57.4763582 113.9268221  53.3452944  74.0794452 119.2941860  41.8776708
  74.6045776 119.6329133  41.1526028  73.9916804 118.3588876  41.6939842
  65.7414500 123.2075934  54.0066584  66.0501627 122.9625081  54.8789284
  66.5389982 123.4122572  53.5185455  65.7635112 125.3613843  46.2371961
  65.3240103 124.8690222  46.9304818  66.5143229 124.8186811  45.9964036
  58.2427451 121.5525384  46.2396589  59.0685471 121.2529156  45.8595233
  57.8921503 120.7833007  46.6886378  63.2108985 120.9051853  48.3094263
  62.5888994 120.2422558  48.0096490  63.8813851 120.9312984  47.6267910
  56.4436056 119.4711711  47.1985523  55.6067965 119.0433885  47.0169524
  56.4159702 119.6644154  48.1356314  63.2833512 109.3833641  57.9026769
  63.3321667 110.2595763  57.5204538  63.8256026 108.8411034  57.3298412
  73.7688358 119.9274764  57.1827906  72.9783901 119.9098903  56.6432405
  73.5321712 120.4663058  57.9376942  73.8886233 116.7767230  54.4960634
  73.9384238 116.6117238  55.4376157  73.7800156 115.9094489  54.1058515
  62.7722491 119.4555776  41.7852723  62.9210612 120.1391240  41.1319396
  63.5788935 119.4360866  42.3002179  71.1789995 112.7598158  55.8119941
  72.0799858 112.6204623  55.5203939  71.2537970 112.9252613  56.7518118
  65.5132800 110.1365013  54.6573127  64.6436110 110.4298579  54.3855716
  65.7492281 110.7205458  55.3780391  75.3904430 119.1964172  54.7402656
  75.0989238 119.5594152  55.5766117  74.7776561 118.4831180  54.5615988
  76.5900112 116.7617052  47.2605226  77.4247003 117.2006856  47.4242786
  76.7259241 116.2855705  46.4413472  73.6391618 114.3196786  53.2082714
  74.1145739 114.5124433  52.4001565  72.7157183 114.3755972  52.9626097
  60.5275124 115.4820954  42.7913792  60.2821166 114.5783284  42.9894002
  60.6971039 115.4838104  41.8493270  68.2171834 106.3544630  52.1738548
  68.7353778 107.0905657  51.8485036  67.8626967 106.6608623  53.0085307
  59.7970772 111.2149311  40.2899954  59.1040017 111.2893666  39.6339989
  59.5522524 110.4509655  40.8121470  68.4684428 102.7744912  47.6939444
  68.7486182 102.1068102  48.3199871  69.2535035 102.9674008  47.1814108
  66.2717897 121.9503906  39.2564471  65.6991864 122.5694094  38.8034942
  66.8450691 122.5003268  39.7904393  72.3393287 111.1962546  51.4411019
  73.2910710 111.2960644  51.4623243  72.1696737 110.4040815  51.9509104
  70.3607666 108.2818130  51.6270420  69.7657598 108.5623142  50.9316909
  70.0757363 108.7712031  52.3987161  69.4915157 122.2341057  40.3873053
  70.4245830 122.1686618  40.5905928  69.4038370 123.0697323  39.9287586
  72.1203173 121.5506927  37.3477000  72.0416805 121.2166790  38.2412758
  72.9412840 122.0428695  37.3468473  74.8181365 114.4168666  50.5553319
  74.7857685 113.4784667  50.7413003  75.4281988 114.4952703  49.8219144
  66.6564695 113.2864719  36.5980523  67.6023800 113.1570927  36.6668941
  66.2778940 112.5479381  37.0749951  74.9675853 111.2079710  50.6011602
  74.4514902 110.4238166  50.4141531  75.8515802 110.8798426  50.7658122
  72.6286580 104.9520725  46.5607415  72.4311401 104.6435813  47.4450747
  73.2386286 105.6782364  46.6905345  80.6357914 115.4784673  49.6959356
  81.3661303 115.2169961  50.2567059  80.0264860 114.7413395  49.7361424
  78.7173212 113.6192536  50.2933807  77.9906375 113.4848501  49.6850299
  78.3020498 113.9269364  51.0990525  66.5403388 117.3382465  58.0581180
  67.4606397 117.5161064  58.2521227  66.5052971 116.3938511  57.9060879
  64.8407613 111.2114696  36.5335408  63.9339068 110.9147808  36.6098122
  65.1183594 110.9144514  35.6669695  55.7585553 112.5321059  46.9834455
  55.4388337 111.6786367  46.6908829  55.2118981 112.7469637  47.7392422
  59.5365461 115.2483500  50.7003961  59.7551470 116.1800608  50.7191995
  59.9491234 114.8891474  51.4858765  66.4569678 105.7551585  42.6879650
  65.6470407 105.4098670  43.0634896  67.1454095 105.4459129  43.2767261
  68.3860227 104.8329632  44.3103946  68.9391265 105.2525085  44.9693969
  68.6230313 103.9065380  44.3526902  64.4093326 110.8216706  60.0906710
  64.3090053 111.7711063  60.0218801  64.1914868 110.4934945  59.2182780
  63.6106397 108.0701631  36.6747387  64.4725561 108.3956529  36.9343205
  63.7956741 107.2833127  36.1620453  55.6273813 116.1523970  48.9527576
  54.9337284 115.7377923  48.4397531  56.3746804 116.1944507  48.3560995
  71.7639034 106.9430157  43.8182610  71.1837703 107.6014961  43.4360663
  71.4974966 106.1207502  43.4070028  70.2142600 106.3435215  46.0203931
  70.7142378 106.4551749  45.2118250  70.8578208 106.0396268  46.6604739
  64.2724596 114.2513845  58.9071772  63.7891678 115.0514205  59.1135661
  64.3585535 114.2621789  57.9539216  57.5410556 116.0842224  46.8293591
  57.5181244 116.1829911  45.8775474  57.8511192 116.9307375  47.1510757
  60.1997933 118.1418379  50.9440206  61.1541187 118.1102322  50.8770137
  60.0010457 117.6809003  51.7590431  60.7897316 116.7119495  53.5111003
  61.6090205 117.2063574  53.5345841  61.0634123 115.7951463  53.4828571
  70.5463912 109.1030248  42.8738959  69.6589767 109.3879898  42.6559154
  70.9617901 108.9424011  42.0266236  73.8978448 109.1276769  46.5893298
  74.6738838 109.6173221  46.8617915  73.1726582 109.5534823  47.0465167
  76.3351006 109.8404388  47.6467239  76.9295497 109.6000124  46.9360547
  76.4077590 109.1211518  48.2740775  69.6907125 118.8674922  36.9686979
  70.3942975 119.0724925  37.5844634  68.9669774 119.4351684  37.2336062
  70.5204935 114.6184784  43.0889249  70.4640137 115.0753335  42.2496881
  71.0733278 113.8575468  42.9112092  74.3309741 110.4074515  43.9139368
  74.0746676 110.0071151  44.7447576  73.7062609 111.1218309  43.7889508
  78.6422079 113.1470589  46.4210660  78.0821637 113.2163778  47.1942222
  78.0365583 112.9711573  45.7010156  71.5993823 119.3057451  39.0185439
  72.4339427 118.8738650  38.8362914  71.4378166 119.1339465  39.9462333
  71.2539715 115.8089565  40.3841778  71.1988519 115.6433836  39.4430222
  70.6285770 116.5165598  40.5403968  56.0432230 111.0457629  54.2103200
  56.6891093 110.5356583  54.6990425  55.8349381 111.7826311  54.7846626
  68.5685622 118.1138477  59.7095341  69.4376782 118.2879129  59.3481976
  68.0892373 118.9332893  59.5871070  64.5635840 105.3097674  39.9627096
  64.5514510 106.2539514  40.1195367  65.4559262 105.1267819  39.6686558
  62.7371802 125.2335578  51.3884775  63.6399049 125.2659188  51.7051269
  62.5109172 124.3036029  51.4031110  64.4925404 123.9866564  48.0494853
  63.5421035 123.9868426  47.9359225  64.7957890 123.2399299  47.5330888
  68.3787960 101.9040450  44.2173033  67.6120356 101.3498937  44.3629716
  68.7898665 101.9762319  45.0787185  60.3829721 108.1925246  58.3078215
  61.2461182 107.8362051  58.5181539  59.8095131 107.8539141  58.9953619
  80.2278098 129.8227103  49.1140616  80.8656508 129.7033850  48.4103956
  80.1098941 130.7707947  49.1728568  77.0367804 129.7754531  49.0502140
  76.6986315 129.6595595  48.1622675  77.9057572 129.3745696  49.0303146
  77.5187587 130.9289382  55.0088346  77.5076228 130.5342181  54.1368849
  77.6808226 130.1955455  55.6022117  74.7376083 128.5442778  38.3819080
  74.9901604 128.0224299  37.6202543  73.8000642 128.3808923  38.4845764
  79.7819366 127.5478556  46.1893824  80.5682455 127.1297980  45.8384241
  80.0458070 128.4524649  46.3575472  85.1827793 127.4853790  47.0926802
  85.9152965 126.9153006  47.3264632  84.4267149 127.0975390  47.5333308
  76.8003913 129.9081031  44.2890145  76.4362120 129.3811652  45.0003066
  77.6571029 129.5179500  44.1156630  82.7053214 121.1975364  51.5521411
  82.3736538 122.0670775  51.3282626  82.1098827 120.8811648  52.2315441
  76.4409400 124.9370931  39.2851493  76.6083802 125.8051167  39.6521964
  76.2506569 125.0998213  38.3612782  82.5981877 125.9170450  48.6314761
  81.6898754 125.8485858  48.3373522  82.5469473 126.3942395  49.4596586
  76.4198621 127.3928588  40.2698160  76.2998246 127.8385639  41.1083640
  75.7251209 127.7413906  39.7111698  76.6722743 127.3360095  56.5749658
  75.8956077 127.8954016  56.5652523  77.3113306 127.8216878  57.0964528
  84.4643523 124.1186888  50.4092635  83.8217904 124.4119421  49.7632429
  83.9598452 124.0039809  51.2145831  82.1183687 127.8650061  41.0978494
  83.0301543 128.0977448  40.9226191  81.6093334 128.4487106  40.5353573
  76.7555525 127.2247296  52.1073343  77.6016720 127.6486710  52.2507992
  76.6954162 126.5680920  52.8011907  79.9054970 124.8851664  53.7654517
  79.6615902 125.6393725  53.2288793  80.1814901 125.2637012  54.6001764
  79.4619662 124.0408097  49.3468355  78.6004141 124.3389351  49.6385092
  79.4882096 124.2578496  48.4149387  75.2150117 128.7073440  42.5631726
  75.9174161 129.1594484  43.0305652  74.8830746 128.0657259  43.1911619
  73.6630479 127.2985197  56.9382935  73.0329139 127.9801478  57.1718332
  73.5566567 127.1868279  55.9936073  68.9575451 126.9656993  47.8648859
  68.1674505 127.2214522  47.3888970  69.4486699 127.7805331  47.9700900
  70.9090197 127.3301572  44.8232336  70.1121360 127.4420267  45.3415832
  70.6815789 127.6688225  43.9573226  72.9411222 121.6005963  59.3008186
  72.5478167 121.0472161  59.9755830  73.7577362 121.9116541  59.6914704
  75.8579183 123.0163842  56.8928443  76.5988896 123.6170995  56.8132905
  76.0897105 122.2741480  56.3346485  79.8036345 119.0444945  51.1692724
  79.4600615 119.9346587  51.0931835  80.1715308 118.8546603  50.3062309
  79.7686628 129.0353556  39.6765159  79.2533252 129.8058161  39.9153547
  79.4963937 128.3618692  40.2998221  77.3533739 123.8803257  44.7350398
  76.4975336 123.4910107  44.5556036  77.7660691 123.9595218  43.8750183
  78.8832886 121.4149600  49.1341958  78.3797681 121.3779735  48.3209763
  79.1763493 122.3242343  49.1938614  75.1275772 121.4988330  48.1408139
  75.9928769 121.3031138  47.7814029  75.1953281 121.2698682  49.0677496
  79.5572931 126.9080648  41.5024941  79.2523067 127.2226797  42.3535084
  80.5103373 126.9862068  41.5452274  72.7338091 123.7290538  45.5124506
  73.3081843 123.5065719  44.7797699  73.3209073 123.7979232  46.2653107
  81.7917668 129.6164265  46.3188883  82.3049550 130.2494256  46.8210592
  82.4418892 129.0165460  45.9532243  73.0607678 125.7594999  39.5320391
  72.2244990 126.0969685  39.8529666  72.9212448 125.6243979  38.5947528
  75.0360759 120.6031787  44.2399576  74.3825171 120.2880804  43.6156190
  74.9941233 119.9807527  44.9659398  78.2698499 127.0913720  48.5647223
  77.3521060 127.3128667  48.4068911  78.6858643 127.1660031  47.7058930
  79.0533547 128.4905136  43.6949903  79.8005366 129.0026533  43.3857025
  79.3225136 128.1689189  44.5554297  81.5012384 125.5262252  45.6768693
  80.7635141 125.0139638  46.0078935  81.7539157 125.0862634  44.8651970
  81.6024011 118.3038504  46.2710462  81.9082888 117.4435868  45.9836377
  82.3276616 118.8956124  46.0709456  75.8745091 128.5992297  46.7786653
  75.9293701 127.6466134  46.7029130  75.0636293 128.7551736  47.2627951
  73.8137451 127.2169357  44.5377032  73.0005316 127.5163527  44.9442224
  74.3096445 126.8225046  45.2551514  79.4111662 127.6811181  53.3691926
  79.7661050 127.9082654  54.2286392  80.0583794 128.0129558  52.7469181
  73.3051526 124.7887712  50.1538267  73.9450905 124.6476472  49.4561230
  72.4729056 124.5022226  49.7776869  70.3894593 128.2333225  42.3433012
  69.4592181 128.1717680  42.5602974  70.4852065 127.7109177  41.5469653
  70.3080142 124.7588037  44.9311254  70.5686959 125.6733371  44.8220414
  71.1297314 124.2912480  45.0807866  71.7805067 126.1725795  52.1010078
  72.4528121 125.9643157  51.4522727  70.9534854 125.9747881  51.6615310
  77.6830639 122.7987735  54.1175739  77.0358554 123.4977685  54.0240215
  78.4531655 123.2323879  54.4851987  77.8594774 130.6368500  52.1772559
  78.7886834 130.7879660  52.0041526  77.4385804 130.7252521  51.3221205
  81.1447512 131.3856802  37.6096994  80.5276683 130.6603630  37.5130047
  80.6764001 132.1466162  37.2664068  74.8114865 129.1588357  52.3496195
  75.5214484 128.5181549  52.3082813  74.7684173 129.4101252  53.2722376
  73.5243799 126.1453575  54.1691834  72.9881156 125.6944313  54.8213431
  72.9360508 126.2799484  53.4262299  72.9346058 125.6042226  36.7318298
  72.0575524 125.4831027  36.3680545  73.4103811 124.8128304  36.4797187
  69.2582920 125.2809582  51.2544829  69.1741109 124.6735252  50.5195239
  68.4365627 125.7718601  51.2554325  79.4306634 123.7663146  46.6215024
  79.9275334 123.0133108  46.3016094  78.6593616 123.8027463  46.0558233
  76.0141603 125.9080529  46.3486709  75.6439391 125.3551569  47.0367614
  76.5100696 125.3038662  45.7961709  83.9008966 128.3652152  44.7303482
  84.3669419 129.1980144  44.6563784  84.3516467 127.8997134  45.4348740
  81.8725629 120.7332739  48.7694383  80.9588709 120.9636966  48.9376590
  82.3018731 120.8171184  49.6208415  81.6432088 128.9222631  51.2694277
  80.9903538 129.1698539  50.6146730  82.0212467 128.1086770  50.9356754
  77.6919661 129.6642442  57.7560314  77.0160298 129.5636572  58.4262689
  78.5147294 129.5081656  58.2196311  71.4106937 123.3184520  52.5939815
  71.4748263 124.1799351  52.1817212  71.3474057 122.7058521  51.8612173
  70.8859209 125.3907652  56.2412849  71.5131248 125.0084730  56.8550373
  70.0287128 125.1721854  56.6068541  67.6624752 127.1984081  42.1731204
  67.9578193 126.2894760  42.1198258  66.7612788 127.1771821  41.8512206
  71.1918999 125.2740078  48.1558752  70.4705585 125.8876046  48.0166226
  71.9812255 125.8097843  48.0775398  73.9945313 122.6094504  54.4299404
  74.5179714 122.8556801  55.1925713  73.7757646 123.4414539  54.0102541
  69.3912594 124.8798179  42.2970529  69.0625300 123.9995558  42.1145635
  69.7451964 124.8245848  43.1846918  72.5054417 125.1671149  42.6646007
  72.8450489 125.6957070  41.9424615  72.9526537 125.5051555  43.4404573
  75.1997858 123.5508200  52.1149075  74.8594678 122.7516013  52.5169755
  74.4936864 123.8509910  51.5425908  75.8514329 120.6357512  50.5676398
  76.6740399 120.1617990  50.4455288  76.0952393 121.4147996  51.0675084
  74.4922564 123.6645770  40.8639299  75.2130926 124.0427023  40.3603016
  73.8687868 124.3834647  40.9674277  78.6353687 124.3690919  41.7997632
  78.8517301 125.2515557  41.4986460  78.1547754 123.9777133  41.0703274
  73.3752908 127.3276633  48.3768376  73.2297489 127.6416936  49.2692658
  72.8978112 127.9461533  47.8239275  75.2349291 124.3179181  48.4249266
  75.2210860 123.4220274  48.0881564  75.9521719 124.3249844  49.0587552
  77.0875422 124.7516521  50.4702393  76.8293200 125.6733591  50.4686724
  76.5560462 124.3546955  51.1602857  74.6386187 123.1993561  43.6936836
  74.7602098 122.2710207  43.8927724  74.3488229 123.2132247  42.7815151
  77.5077377 120.8848471  46.8303556  77.5299074 120.9487804  45.8755535
  77.9245436 120.0452980  47.0244062  74.1227267 124.7125558  57.9026769
  74.1715422 125.5887681  57.5204538  74.6649781 124.1702951  57.3298412
  82.0183750 128.0890076  55.8119941  82.9193612 127.9496541  55.5203939
  82.0931724 128.2544531  56.7518118  76.3526555 125.4656931  54.6573127
  75.4829864 125.7590497  54.3855716  76.5886035 126.0497376  55.3780391
  79.0565589 121.6836548  52.1738548  79.5747533 122.4197575  51.8485036
  78.7020722 121.9900541  53.0085307  70.6364526 126.5441229  40.2899954
  69.9433771 126.6185584  39.6339989  70.3916278 125.7801572  40.8121470
  79.3078183 118.1036830  47.6939444  79.5879937 117.4360019  48.3199871
  80.0928790 118.2965926  47.1814108  83.1787041 126.5254464  51.4411019
  84.1304464 126.6252562  51.4623243  83.0090492 125.7332733  51.9509104
  81.2001421 123.6110047  51.6270420  80.6051353 123.8915060  50.9316909
  80.9151117 124.1003948  52.3987161  77.4958450 128.6156637  36.5980523
  78.4417555 128.4862845  36.6668941  77.1172695 127.8771299  37.0749951
  85.8069608 126.5371627  50.6011602  85.2908656 125.7530084  50.4141531
  86.6909556 126.2090344  50.7658122  83.4680334 120.2812643  46.5607415
  83.2705156 119.9727731  47.4450747  84.0780040 121.0074282  46.6905345
  75.6801367 126.5406613  36.5335408  74.7732822 126.2439726  36.6098122
  75.9577348 126.2436431  35.6669695  77.2963433 121.0843503  42.6879650
  76.4864161 120.7390588  43.0634896  77.9847850 120.7751047  43.2767261
  79.2253981 120.1621550  44.3103946  79.7785020 120.5817003  44.9693969
  79.4624067 119.2357298  44.3526902  75.2487080 126.1508623  60.0906710
  75.1483807 127.1002980  60.0218801  75.0308622 125.8226862  59.2182780
  74.4500152 123.3993548  36.6747387  75.3119316 123.7248447  36.9343205
  74.6350496 122.6125044  36.1620453  82.6032788 122.2722075  43.8182610
  82.0231457 122.9306879  43.4360663  82.3368721 121.4499419  43.4070028
  81.0536355 121.6727133  46.0203931  81.5536133 121.7843667  45.2118250
  81.6971962 121.3688185  46.6604739  81.3857666 124.4322165  42.8738959
  80.4983521 124.7171816  42.6559154  81.8011655 124.2715929  42.0266236
  84.7372202 124.4568686  46.5893298  85.5132592 124.9465139  46.8617915
  84.0120337 124.8826740  47.0465167  87.1744761 125.1696305  47.6467239
  87.7689252 124.9292041  46.9360547  87.2471345 124.4503436  48.2740775
  81.3598690 129.9476701  43.0889249  81.3033891 130.4045253  42.2496881
  81.9127032 129.1867386  42.9112092  85.1703496 125.7366433  43.9139368
  84.9140430 125.3363069  44.7447576  84.5456364 126.4510227  43.7889508
  82.0933469 131.1381482  40.3841778  82.0382273 130.9725754  39.4430222
  81.4679525 131.8457515  40.5403968  66.8825984 126.3749547  54.2103200
  67.5284848 125.8648501  54.6990425  66.6743135 127.1118228  54.7846626
  75.4029595 120.6389591  39.9627096  75.3908265 121.5831431  40.1195367
  76.2953017 120.4559737  39.6686558  79.2181714 117.2332368  44.2173033
  78.4514110 116.6790855  44.3629716  79.6292419 117.3054237  45.0787185
  71.2223475 123.5217164  58.3078215  72.0854937 123.1653969  58.5181539
  70.6488886 123.1831059  58.9953619  15.1915572  14.8537719  35.8385922
  15.8293982  14.7344466  35.1349262  15.0736415  15.8018563  35.8973874
  12.0005278  14.8065147  35.7747447  11.6623790  14.6906212  34.8867982
  12.8695046  14.4056312  35.7548453  12.4825061  15.9599999  41.7333652
  12.4713702  15.5652797  40.8614156  12.6445701  15.2266072  42.3267424
   5.4056526  18.1551815  34.6028558   6.1977818  17.8142640  34.1874858
   5.6453176  18.2646790  35.5230712   9.2032322  18.7437111  40.6812836
   8.9122188  19.6482742  40.5659503   9.8389307  18.7853638  41.3956906
  10.1288529  16.1213959  37.2714196  10.7252102  15.8969982  36.5571159
  10.1863501  15.3798705  37.8739644  20.1465268  12.5164406  33.8172109
  20.8790440  11.9463623  34.0509938  19.3904623  12.1286007  34.2578614
  14.1622207  18.4298526  37.6762630  13.8622931  19.3323565  37.5678437
  13.8173267  18.1630709  38.5283783  17.5619351  10.9481066  35.3560067
  16.6536229  10.8796475  35.0618828  17.5106947  11.4253011  36.1841893
   9.1442987  25.1942847  30.6433598   9.0667017  26.1450672  30.7222078
   8.5404631  24.8488719  31.3008524  11.6360217  12.3670712  43.2994965
  10.8593551  12.9264632  43.2897829  12.2750780  12.8527495  43.8209835
  19.4280998   9.1497505  37.1337941  18.7855378   9.4430038  36.4877736
  18.9235926   9.0350425  37.9391138   9.8906589  15.1756165  42.8612932
  10.6321274  15.7141209  42.5847755   9.1843575  15.8022454  43.0184483
  15.3661929  17.3185306  41.4585093  15.7745285  16.8767716  40.7139725
  14.6439191  16.7437933  41.7119286  11.7192999  12.2557913  38.8318650
  12.5654194  12.6797326  38.9753299  11.6591637  11.5991537  39.5257213
  15.6890744  17.8786496  35.2137382  15.0599606  18.0432211  34.5113450
  15.3016406  18.2928106  35.9848346  19.5679976  18.8140934  32.5681746
  18.8831014  19.1939836  32.0178779  19.6523825  19.4236261  33.3013694
  14.8692444   9.9162281  40.4899824  14.6253376  10.6704342  39.9534099
  15.1452375  10.2947629  41.3247071  16.8230907  16.4600893  39.1677089
  17.0347802  17.1032653  38.4911470  16.7760655  15.6263210  38.6999019
   8.1342787  17.1632386  35.4167230   8.7044144  17.5919654  34.7784715
   8.7250898  16.8814971  36.1151416  17.9376735  19.3372849  37.3399447
  18.7594179  18.9353036  37.0582128  17.9339138  19.2341083  38.2915562
  11.7033339  18.8856892  39.4960157  11.7677771  19.3477299  40.3318329
  10.9944262  18.2554257  39.6242467  26.0282728  15.6811597  33.6884418
  25.2746437  15.1118995  33.5328423  26.1630269  15.6474262  34.6355053
   6.6805638  21.1866194  32.0189816   6.8572267  22.1084159  31.8310800
   7.4762472  20.8724613  32.4484196  13.0449833  21.1748566  43.4939480
  12.6013687  20.3884945  43.1760384  13.7067046  21.3627717  42.8283370
   7.8036954  22.7044368  38.0200158   8.3544379  22.5761431  37.2477152
   6.9648430  23.0039257  37.6695051  15.1431071  21.4551366  41.5220881
  15.1249546  22.2760247  41.0301150  16.0650991  21.3305441  41.7471022
  11.6004125  18.9695495  42.3644389  12.1332462  18.2083784  42.1343697
  11.0718206  18.6769147  43.1068544  17.9449684  16.2930508  34.9930248
  17.2873358  16.9829770  35.0810376  18.7490083  16.6826940  35.3364234
  16.7555142  14.6474881  33.0434189  17.2687024  15.2804873  33.5455899
  17.4056366  14.0476077  32.6777549  13.2335973  12.1224337  35.2892530
  12.3158535  12.3439284  35.1314218  13.6496117  12.1970647  34.4304237
  17.5216939  19.6280883  31.1713332  17.0679266  18.7871792  31.2278522
  16.8910905  20.2642281  31.5088112  15.9649878  21.4657379  32.1063150
  16.2572852  22.0262436  31.3875516  16.4748498  21.7585940  32.8616309
  10.9283503  22.2437730  33.1956603  10.8859682  22.4698577  32.2665135
  11.8446202  22.0101105  33.3442404  14.3749137  12.7121798  40.0937232
  14.7298525  12.9393271  40.9531698  15.0221268  13.0440175  39.4714488
  20.1046874  15.8340234  30.7986561  19.9664772  16.0241830  29.8707751
  19.7483093  16.5959617  31.2554613  20.1316253  17.9016761  35.8097833
  20.5652760  17.8092050  36.6580887  20.8447834  17.8774261  35.1717849
  13.8644148  21.5018855  37.3430934  13.9181171  22.0709791  38.1108649
  12.9958930  21.6720740  36.9784971  20.9931803  17.9440461  38.3430718
  21.1867693  18.8486272  38.5889993  20.8932421  17.4847881  39.1769303
  16.0546912  18.0947204  43.9171599  15.9032418  17.8657756  43.0001683
  16.0451591  19.0517806  43.9302944  12.8232248  15.6679117  38.9017865
  13.7524308  15.8190277  38.7286833  12.4023278  15.7563138  38.0466512
  11.6220580  19.6929781  36.6716403  11.4831665  19.3248566  37.5442341
  10.8335176  20.2077421  36.5000361  12.2168732  24.7938878  28.0141940
  12.3920487  24.3226921  28.8287562  11.5301520  25.4204644  28.2423200
  13.1725795  19.0711384  34.0605241  12.8375628  19.0312154  34.9562891
  12.6729741  18.4056100  33.5875651   7.1470039  14.4779014  39.5857822
   7.0089837  13.7459253  40.1869361   8.0574962  14.3887914  39.3042010
   9.7752340  14.1898973  39.0741502  10.4851958  13.5492166  39.0328120
   9.7321648  14.4411868  39.9967682  17.7639118  21.1266327  41.9948081
  17.7051664  20.4425547  41.3278664  18.1658637  21.8685317  41.5428707
   6.7829817  27.9428241  34.7881800   7.0226415  28.5746765  35.4660818
   5.9399013  27.5916281  35.0747159  17.7656525  19.0905911  40.2262061
  16.8783304  18.7531832  40.3488459  18.3355077  18.3588942  40.4630826
  11.2957679  23.7507363  37.1923304  11.2227850  24.5562335  37.7042608
  10.8535072  23.9499329  36.3671325  11.0847458  22.9879133  30.7026125
  10.3014980  23.5300813  30.7964350  11.7840204  23.5053113  31.1020366
  22.2473866  14.5014128  34.9878622  22.2363742  15.3838843  34.6172555
  21.3791245  14.1485679  34.7933159  13.7556362  23.6494197  39.3481462
  14.4684335  24.2841662  39.2757364  13.2646391  23.7458063  38.5321464
   8.8068276  21.3988641  40.1687033   9.5077735  22.0325123  40.3216427
   8.3363391  21.7403372  39.4082672  16.6069562  13.9533248  37.9939584
  15.9541012  14.2009155  37.3392036  16.9849942  13.1397386  37.6602061
  13.5676736  23.9892941  32.0967754  13.7499130  23.1714597  32.5595506
  14.3909722  24.2060633  31.6592644  13.9018901  22.9161126  29.3582802
  14.4306668  22.4053581  28.7452964  14.1647121  22.6003656  30.2228335
  12.6557135  14.6953059  44.4805621  11.9797772  14.5947188  45.1507996
  13.4784769  14.5392273  44.9441618   4.4035994  20.9324996  37.1018136
   4.9889431  20.1868683  37.2346040   4.2060832  21.2428952  37.9854800
   7.2574649  23.9676243  32.1180578   6.5885024  24.4522371  31.6344618
   7.1187519  24.2145463  33.0323957  11.3979918  26.0019986  38.7163237
  11.9498226  26.1651608  39.4812322  11.7386111  26.5924424  38.0443261
  16.2490792  20.8281244  44.5711891  16.7930696  21.4411202  44.0766846
  15.6677637  21.3860822  45.0878904  14.5348305  23.9501962  35.7026919
  14.4099445  23.1491702  35.1937864  15.1927396  24.4448155  35.2140889
  16.5983213  21.7510982  37.3306469  15.6513549  21.6316333  37.2584796
  16.9465987  20.8633480  37.4132730  13.6029647  21.5463698  33.5310821
  13.4554609  20.6180406  33.7118391  14.4283140  21.5683789  33.0467896
  17.2063769  22.3692257  34.6175694  18.1310316  22.1635118  34.4800145
  17.0379072  22.1208658  35.5265035  16.9959085  22.8877924  29.9737785
  17.1695962  22.3224347  29.2211638  17.4887976  23.6878819  29.7917275
  22.8498476  15.6514347  31.5928085  23.2929622  14.9021673  31.1947208
  21.9724986  15.6424484  31.2101817  17.9834257  22.2044689  27.0734684
  18.6785162  22.8251382  27.2921998  18.3257407  21.3540040  27.3487061
  19.8825680  19.6544394  28.6022014  20.4077005  19.9931667  27.8771334
  19.7948033  18.7191410  28.4185149  11.5445729  23.5678468  40.7311891
  11.8532856  23.3227615  41.6034591  12.3421211  23.7725107  40.2430761
  11.5666341  25.7216378  32.9617268  11.1271331  25.2292756  33.6550124
  12.3174458  25.1789345  32.7209343   4.0458680  21.9127919  32.9641896
   4.8716700  21.6131690  32.5840539   3.6952732  21.1435541  33.4131684
   9.0140213  21.2654387  35.0339569   8.3920223  20.6025092  34.7341797
   9.6845080  21.2915519  34.3513217  19.5719586  20.2877298  43.9073212
  18.7815130  20.2701437  43.3677712  19.3352941  20.8265592  44.6622249
  19.6917462  17.1369764  41.2205941  19.7415466  16.9719772  42.1621464
  19.5831385  16.2697023  40.8303822  16.9821224  13.1200692  42.5365248
  17.8831087  12.9807157  42.2449245  17.0569198  13.2855147  43.4763425
  21.1935658  19.5566706  41.4647962  20.9020467  19.9196687  42.3011423
  20.5807790  18.8433714  41.2861294  22.3931341  17.1219586  33.9850533
  23.2278232  17.5609390  34.1488093  22.5290469  16.6458239  33.1658778
  19.4422847  14.6799321  39.9328020  19.9176968  14.8726967  39.1246872
  18.5188412  14.7358506  39.6871404  18.1424516  11.5565081  38.1656326
  19.0941938  11.6563178  38.1868550  17.9727966  10.7643349  38.6754410
  16.1638895   8.6420664  38.3515727  15.5688827   8.9225677  37.6562216
  15.8788592   9.1314565  39.1232468  20.6212593  14.7771200  37.2798626
  20.5888913  13.8387201  37.4658309  21.2313217  14.8555237  36.5464451
  20.7707082  11.5682244  37.3256909  20.2546131  10.7840700  37.1386838
  21.6547030  11.2400960  37.4903428  26.4389143  15.8387207  36.4204662
  27.1692532  15.5772495  36.9812366  25.8296089  15.1015929  36.4606730
  24.5204440  13.9795070  37.0179114  23.7937604  13.8451035  36.4095605
  24.1051727  14.2871898  37.8235832  12.3434617  17.6984999  44.7826487
  13.2637626  17.8763598  44.9766533  12.3084200  16.7541045  44.6306186
   5.3396689  15.6086034  37.4249268   5.5582699  16.5403142  37.4437302
   5.7522463  15.2494009  38.2104072  10.0755825  14.6116379  45.6317078
   9.5922906  15.4116739  45.8380967  10.1616764  14.6224324  44.6784522
   6.0029162  18.5020913  37.6685512   6.9572416  18.4704856  37.6015444
   5.8041686  18.0411537  38.4835738   6.5928544  17.0722029  40.2356310
   7.4121433  17.5666108  40.2591147   6.8665352  16.1553998  40.2073877
  22.1382235  10.2006922  34.3712545  22.7326726   9.9602658  33.6605853
  22.2108819   9.4814053  34.9986082   4.3579391  24.0440533  34.6855710
   4.2233859  23.2840934  34.1193708   3.9411453  24.7681433  34.2184499
  24.4453308  13.5073123  33.1455966  23.8852866  13.5766312  33.9187528
  23.8396811  13.3314107  32.4255463   7.5148517  24.9409850  34.8974153
   7.3980901  25.8855282  34.7952843   6.6940963  24.6383411  35.2859952
  14.3716851  18.4741011  46.4340647  15.2408010  18.6481663  46.0727282
  13.8923602  19.2935428  46.3116377   8.5403031  25.5938112  38.1130081
   9.4430278  25.6261722  38.4296576   8.3140401  24.6638563  38.1276417
  10.2956633  24.3469098  34.7740160   9.3452264  24.3470960  34.6604532
  10.5989119  23.6001833  34.2576194  26.0309326  30.1829637  35.8385922
  26.6687736  30.0636384  35.1349262  25.9130169  31.1310481  35.8973874
  22.8399033  30.1357065  35.7747447  22.5017544  30.0198130  34.8867982
  23.7088801  29.7348230  35.7548453  18.6985848  31.9892541  31.7644338
  18.1350714  31.8982478  30.9960626  18.5838244  31.1692446  32.2446830
  23.3218816  31.2891917  41.7333652  23.3107457  30.8944715  40.8614156
  23.4839455  30.5557989  42.3267424  16.2450280  33.4843733  34.6028558
  17.0371572  33.1434558  34.1874858  16.4846931  33.5938708  35.5230712
  24.2785407  35.6563509  27.0758803  23.6273387  36.2417589  26.6892817
  25.0729770  36.1869704  27.1353840  18.2041034  32.7452646  27.4745937
  18.9771910  32.1981633  27.3358813  18.5566433  33.6096895  27.6860398
  20.0426077  34.0729028  40.6812836  19.7515943  34.9774659  40.5659503
  20.6783061  34.1145556  41.3956906  20.9682284  31.4505877  37.2714196
  21.5645856  31.2261899  36.5571159  21.0257255  30.7090622  37.8739644
  20.5407312  28.9045312  25.1064387  20.7932833  28.3826834  24.3447850
  19.6031871  28.7411458  25.2091071  25.5850595  27.9081091  32.9139130
  26.3713684  27.4900514  32.5629547  25.8489299  28.8127183  33.0820779
  25.7560672  33.3453941  27.6127787  25.1206505  33.4188567  28.3248692
  25.4258079  33.9347540  26.9346866  30.9859022  27.8456324  33.8172109
  31.7184194  27.2755541  34.0509938  30.2298378  27.4577924  34.2578614
  20.2603601  30.8073418  27.3088762  20.1439859  30.1318322  27.9769846
  20.3705861  30.3205792  26.4920915  22.6035142  30.2683565  31.0135451
  22.2393349  29.7414186  31.7248373  23.4602258  29.8782034  30.8401937
  28.5084442  21.5577898  38.2766717  28.1767767  22.4273309  38.0527932
  27.9130056  21.2414182  38.9560748  22.2440629  25.2973465  26.0096800
  22.4115031  26.1653701  26.3767271  22.0537798  25.4600747  25.0858089
  25.0015962  33.7590444  37.6762630  24.7016685  34.6615483  37.5678437
  24.6567022  33.4922627  38.5283783  18.4528443  30.2104241  33.7099334
  17.5278940  30.0780455  33.9177026  18.7012857  30.9898460  34.2069277
  28.4013106  26.2772984  35.3560067  27.4929983  26.2088393  35.0618828
  28.3500702  26.7544929  36.1841893  22.2229850  27.7531123  26.9943467
  22.1029475  28.1988173  27.8328947  21.5282438  28.1016440  26.4357005
  15.8137255  29.8537514  34.5443124  15.9429636  30.1071993  35.4582535
  15.1334706  30.4465222  34.2247779  19.9836742  40.5234764  30.6433598
  19.9060771  41.4742589  30.7222078  19.3798385  40.1780637  31.3008524
  22.4753972  27.6962630  43.2994965  21.6987306  28.2556550  43.2897829
  23.1144535  28.1819413  43.8209835  30.2674752  24.4789423  37.1337941
  29.6249132  24.7721956  36.4877736  29.7629681  24.3642343  37.9391138
  27.9214916  28.2252596  27.8223801  28.8332772  28.4579982  27.6471498
  27.4124563  28.8089640  27.2598879  20.7300344  30.5048083  42.8612932
  21.4715028  31.0433127  42.5847755  20.0237329  31.1314372  43.0184483
  26.2055684  32.6477224  41.4585093  26.6139040  32.2059634  40.7139725
  25.4832945  32.0729851  41.7119286  22.5586754  27.5849830  38.8318650
  23.4047949  28.0089244  38.9753299  22.4985391  26.9283455  39.5257213
  26.5284498  33.2078414  35.2137382  25.8993361  33.3724128  34.5113450
  26.1410160  33.6220024  35.9848346  30.4073730  34.1432852  32.5681746
  29.7224768  34.5231753  32.0178779  30.4917579  34.7528179  33.3013694
  25.7086199  25.2454199  40.4899824  25.4647131  25.9996259  39.9534099
  25.9846129  25.6239546  41.3247071  27.6624662  31.7892811  39.1677089
  27.8741557  32.4324571  38.4911470  27.6154410  30.9555128  38.6999019
  25.2650891  24.4010632  36.0713661  24.4035370  24.6991885  36.3630399
  25.2913325  24.6181031  35.1394694  22.0812460  32.9452822  32.4787467
  22.5450806  33.2240525  31.6892090  21.8169258  32.0436267  32.2960558
  18.9736541  32.4924304  35.4167230  19.5437898  32.9211572  34.7784715
  19.5644653  32.2106888  36.1151416  21.0181346  29.0675975  29.2877032
  21.7205389  29.5197018  29.7550959  20.6861975  28.4259793  29.9156925
  19.4661708  27.6587731  43.6628242  18.8360368  28.3404012  43.8963638
  19.3597795  27.5470813  42.7181380  14.7606680  27.3259527  34.5894166
  13.9705734  27.5817056  34.1134276  15.2517927  28.1407865  34.6946206
  28.7770490  34.6664766  37.3399447  29.5987933  34.2644954  37.0582128
  28.7732892  34.5633001  38.2915562  16.7121425  27.6904107  31.5477643
  15.9152589  27.8022801  32.0661138  16.4847018  28.0290759  30.6818533
  22.5427093  34.2148810  39.4960157  22.6071526  34.6769217  40.3318329
  21.8338017  33.5846175  39.6242467  13.0444383  27.5790018  37.0209157
  13.2952421  28.4637028  37.2866733  13.5803931  27.3994619  36.2484248
  36.8676483  31.0103515  33.6884418  36.1140191  30.4410913  33.5328423
  37.0024024  30.9766179  34.6355053  22.2575111  35.8816917  29.3639137
  22.1220785  36.7268453  29.7923985  22.7984923  36.0836195  28.6005071
  18.7442450  21.9608497  46.0253493  18.3509396  21.4074696  46.7001137
  19.5608591  22.2719076  46.4160010  15.7104508  33.3992355  29.9367063
  16.2229029  34.1935606  30.0872627  16.3627221  32.7018646  29.8700664
  17.5199393  36.5158112  32.0189816  17.6966021  37.4376076  31.8310800
  18.3156226  36.2016531  32.4484196  21.6610411  23.3766376  43.6173749
  22.4020125  23.9773529  43.5378212  21.8928334  22.6344014  43.0591792
  16.8051749  28.5622743  41.8951979  16.6905264  27.6608001  42.1959078
  15.9496267  28.8086440  41.5436795  23.8843587  36.5040484  43.4939480
  23.4407441  35.7176862  43.1760384  24.5460801  36.6919634  42.8283370
  18.6430708  38.0336285  38.0200158  19.1938133  37.9053349  37.2477152
  17.8042184  38.3331174  37.6695051  25.9824825  36.7843284  41.5220881
  25.9643300  37.6052165  41.0301150  26.9044745  36.6597359  41.7471022
  22.4397879  34.2987413  42.3644389  22.9726216  33.5375701  42.1343697
  21.9111960  34.0061065  43.1068544  25.6067574  19.4047479  37.8938031
  25.2631844  20.2949121  37.8177142  25.9746537  19.2149137  37.0307616
  13.6753425  31.7281010  30.7126633  14.5128647  32.1378018  30.4960341
  13.8531693  30.7880452  30.6826827  25.5717857  29.3956090  26.4010466
  25.0564480  30.1660695  26.6398853  25.2995165  28.7221226  27.0243527
  23.1564968  24.2405791  31.4595704  22.3006564  23.8512641  31.2801343
  23.5691920  24.3197752  30.5995490  24.6864115  21.7752134  35.8587264
  24.1828910  21.7382269  35.0455069  24.9794722  22.6844877  35.9183921
  20.9307001  21.8590864  34.8653446  21.7959997  21.6633673  34.5059335
  20.9984509  21.6301216  35.7922803  30.5452131  32.1488445  28.3363640
  29.7681574  31.8099604  27.8918802  31.2243612  32.1541068  27.6618605
  25.3604160  27.2683182  28.2270247  25.0554296  27.5829331  29.0780390
  26.3134602  27.3464602  28.2697580  23.8050592  33.4273406  29.8763201
  23.2771954  32.6926165  29.5636439  23.3038095  34.2048082  29.6303170
  28.7843438  31.6222426  34.9930248  28.1267112  32.3121688  35.0810376
  29.5883837  32.0118858  35.3364234  18.5369320  24.0893072  32.2369813
  19.1113072  23.8668253  31.5043006  19.1240302  24.1581766  32.9898414
  27.5948897  29.9766799  33.0434189  28.1080779  30.6096791  33.5455899
  28.2450121  29.3767994  32.6777549  18.8638907  26.1197533  26.2565698
  18.0276219  26.4572219  26.5774973  18.7243676  25.9846513  25.3192835
  20.8391987  20.9634321  30.9644882  20.1856400  20.6483338  30.3401497
  20.7972461  20.3410061  31.6904705  21.9503192  31.2453616  22.8798174
  21.0430254  31.0142869  23.0789323  22.4474224  30.4491235  23.0672156
  24.8571271  39.9551123  25.7994860  24.1832970  40.2582820  26.4079818
  25.2437093  40.7580203  25.4500317  24.0729728  27.4516254  35.2892530
  23.1552289  27.6731201  35.1314218  24.4889871  27.5262565  34.4304237
  24.8564775  28.8507670  30.4195210  25.6036594  29.3629067  30.1102332
  25.1256365  28.5291723  31.2799604  23.1291426  31.3466211  27.4022164
  22.2202645  31.0625244  27.4994634  23.1586509  31.7665289  26.5425471
  28.3610693  34.9572800  31.1713332  27.9073020  34.1163710  31.2278522
  27.7304660  35.5934199  31.5088112  27.3043613  25.8864786  32.4013999
  26.5666369  25.3742172  32.7324242  27.5570386  25.4465168  31.5897276
  26.8043632  36.7949297  32.1063150  27.0966607  37.3554354  31.3875516
  27.3142253  37.0877858  32.8616309  27.4055240  18.6641038  32.9955769
  27.7114117  17.8038402  32.7081684  28.1307845  19.2558658  32.7954763
  13.6979596  29.0671725  31.3837367  13.5003996  28.4741086  30.6588433
  13.1426260  28.7623935  32.1013305  21.6776320  28.9594831  33.5031960
  21.7324929  28.0068668  33.4274436  20.8667522  29.1154270  33.9873258
  22.8267513  32.8874954  24.7410243  22.3886943  32.1710813  24.2815880
  23.5677954  33.1151069  24.1795334  19.6168680  27.5771891  31.2622339
  18.8036545  27.8766062  31.6687531  20.1127674  27.1827580  31.9796821
  21.7677257  37.5729648  33.1956603  21.7253436  37.7990494  32.2665135
  22.6839956  37.3393023  33.3442404  25.2142891  28.0413716  40.0937232
  25.5692279  28.2685189  40.9531698  25.8615022  28.3732092  39.4714488
  30.9440628  31.1632151  30.7986561  30.8058527  31.3533747  29.8707751
  30.5876847  31.9251534  31.2554613  19.1082754  25.1490247  36.8783574
  19.7482134  25.0079006  36.1806537  18.2760285  24.8624760  36.5022175
  30.9710008  33.2308678  35.8097833  31.4046514  33.1383968  36.6580887
  31.6841589  33.2066179  35.1717849  19.8843058  34.4492677  32.9918566
  20.6783657  33.9542997  32.7901141  19.1734751  33.9210540  32.6286272
  24.7037903  36.8310773  37.3430934  24.7574925  37.4001709  38.1108649
  23.8352684  37.0012658  36.9784971  16.1925822  28.5935759  29.0678319
  15.2623410  28.5320214  29.2848281  16.2883294  28.0711712  28.2714960
  16.1111371  25.1190572  31.6556560  16.3718188  26.0335905  31.5465721
  16.9328543  24.6515014  31.8053173  17.5836296  26.5328329  38.8255385
  18.2559350  26.3245691  38.1768034  16.7566083  26.3350415  38.3860617
  31.8325557  33.2732379  38.3430718  32.0261447  34.1778190  38.5889993
  31.7326176  32.8139798  39.1769303  23.4861868  23.1590270  40.8421046
  22.8389783  23.8580219  40.7485522  24.2562884  23.5926414  41.2097294
  26.8940666  33.4239122  43.9171599  26.7426172  33.1949674  43.0001683
  26.8845346  34.3809723  43.9302944  23.6626002  30.9971035  38.9017865
  24.5918062  31.1482194  38.7286833  23.2417032  31.0855055  38.0466512
  22.4614334  35.0221699  36.6716403  22.3225420  34.6540483  37.5442341
  21.6728930  35.5369338  36.5000361  23.0562486  40.1230795  28.0141940
  23.2314242  39.6518839  28.8287562  22.3695274  40.7496562  28.2423200
  24.0119549  34.4003302  34.0605241  23.6769382  34.3604072  34.9562891
  23.5123495  33.7348018  33.5875651  17.9863793  29.8070932  39.5857822
  17.8483591  29.0751171  40.1869361  18.8968717  29.7179832  39.3042010
  26.9478741  31.7459336  24.3342301  26.3307912  31.0206164  24.2375353
  26.4795230  32.5068696  23.9909375  20.6146094  29.5190891  39.0741502
  21.3245713  28.8784083  39.0328120  20.5715402  29.7703786  39.9967682
  28.6032873  36.4558244  41.9948081  28.5445419  35.7717465  41.3278664
  29.0052391  37.1977234  41.5428707  19.3275028  26.5056109  40.8937141
  18.7912385  26.0546847  41.5458737  18.7391736  26.6402018  40.1507605
  17.6223572  43.2720158  34.7881800  17.8620170  43.9038682  35.4660818
  16.7792768  42.9208198  35.0747159  28.6050280  34.4197828  40.2262061
  27.7177059  34.0823750  40.3488459  29.1748831  33.6880860  40.4630826
  10.2579427  30.7521920  33.5505112  10.9450467  30.4383650  32.9626127
  10.1027556  31.6563285  33.2772363  15.0614149  25.6412117  37.9790136
  14.9772338  25.0337786  37.2440546  14.2396856  26.1321135  37.9799632
  22.1351433  39.0799281  37.1923304  22.0621605  39.8854252  37.7042608
  21.6928826  39.2791247  36.3671325  21.9241213  38.3171051  30.7026125
  21.1408735  38.8592731  30.7964350  22.6233958  38.8345030  31.1020366
  25.2337863  24.1265680  33.3460331  25.7306563  23.3735643  33.0261401
  24.4624845  24.1629997  32.7803540  33.0867621  29.8306046  34.9878622
  33.0757497  30.7130761  34.6172555  32.2185000  29.4777597  34.7933159
  24.5950117  38.9786115  39.3481462  25.3078089  39.6133580  39.2757364
  24.1040146  39.0749981  38.5321464  26.3167644  32.8837367  30.9198754
  25.3823923  33.0038830  30.7503458  26.4944312  31.9809834  30.6558764
  21.8172832  26.2683063  33.0732015  21.4470619  25.7154104  33.7612921
  22.3131924  25.6641197  32.5207015  29.7040195  28.7254687  31.4548788
  30.1700647  29.5582678  31.3809091  30.1547696  28.2599668  32.1594047
  19.6462030  36.7280558  40.1687033  20.3471490  37.3617041  40.3216427
  19.1757145  37.0695290  39.4082672  27.7716426  35.0698508  28.4534940
  28.0476270  34.9555103  29.3628814  26.9020925  34.6715993  28.4147113
  27.6756858  21.0935274  35.4939690  26.7619938  21.3239501  35.6621896
  28.1049959  21.1773718  36.3453722  27.4463316  29.2825166  37.9939584
  26.7934767  29.5301073  37.3392036  27.8243696  28.4689304  37.6602061
  24.4070490  39.3184859  32.0967754  24.5892885  38.5006515  32.5595506
  25.2303476  39.5352551  31.6592644  24.7412656  38.2453044  29.3582802
  25.2700422  37.7345499  28.7452964  25.0040875  37.9295574  30.2228335
  23.4950889  30.0244977  44.4805621  22.8191526  29.9239106  45.1507996
  24.3178523  29.8684190  44.9441618  15.2429748  36.2616913  37.1018136
  15.8283185  35.5160601  37.2346040  15.0454587  36.5720870  37.9854800
  18.0968404  39.2968161  32.1180578  17.4278779  39.7814288  31.6344618
  17.9581273  39.5437381  33.0323957   9.8347403  28.8322513  35.8222579
   9.8731503  28.2986104  36.6159697   9.3287696  28.3057719  35.2033556
  22.2373672  41.3311904  38.7163237  22.7891980  41.4943526  39.4812322
  22.5779866  41.9216342  38.0443261  17.2138166  23.6787054  39.3185121
  17.2779492  24.5401885  38.9062519  17.1505286  23.0661056  38.5857480
  16.6890438  25.7510187  42.9658156  17.3162477  25.3687264  43.5795680
  15.8318357  25.5324388  43.3313848  27.0884547  36.1573162  44.5711891
  27.6324451  36.7703120  44.0766846  26.5071391  36.7152740  45.0878904
  13.4655981  27.5586616  28.8976510  13.7609422  26.6497294  28.8443564
  12.5644017  27.5374355  28.5757513  25.3742060  39.2793880  35.7026919
  25.2493199  38.4783620  35.1937864  26.0321151  39.7740073  35.2140889
  16.9950228  25.6342612  34.8804059  16.2736814  26.2478580  34.7411532
  17.7843484  26.1700377  34.8020705  27.4376968  37.0802900  37.3306469
  26.4907303  36.9608251  37.2584796  27.7859741  36.1925398  37.4132730
  19.7976541  22.9697039  41.1544711  20.3210943  23.2159335  41.9171020
  19.5788875  23.8017074  40.7347848  15.1943822  25.2400713  29.0215836
  14.8656529  24.3598092  28.8390942  15.5483193  25.1848382  29.9092225
  24.4423401  36.8755616  33.5310821  24.2948364  35.9472323  33.7118391
  25.2676895  36.8975707  33.0467896  18.3085646  25.5273683  29.3891313
  18.6481718  26.0559604  28.6669922  18.7557766  25.8654089  30.1649880
  28.0457523  37.6984175  34.6175694  28.9704071  37.4927036  34.4800145
  27.8772826  37.4500576  35.5265035  21.0029086  23.9110734  38.8394381
  20.6625907  23.1118547  39.2415061  20.2968093  24.2112445  38.2671215
  21.6545558  20.9960046  37.2921704  22.4771628  20.5220524  37.1700595
  21.8983622  21.7750530  37.7920391  20.2953793  24.0248305  27.5884606
  21.0162155  24.4029557  27.0848323  19.6719097  24.7437181  27.6919584
  24.4384916  24.7293454  28.5242938  24.6548530  25.6118092  28.2231767
  23.9578983  24.3379667  27.7948580  19.1784137  27.6879167  35.1013683
  19.0328718  28.0019470  35.9937964  18.7009341  28.3064067  34.5484582
  21.0380520  24.6781715  35.1494573  21.0242089  23.7822808  34.8126870
  21.7552948  24.6852379  35.7832859  22.8906651  25.1119055  37.1947700
  22.6324428  26.0336126  37.1932030  22.3591691  24.7149490  37.8848164
  27.8352839  38.2169842  29.9737785  28.0089717  37.6516265  29.2211638
  28.3281731  39.0170737  29.7917275  13.6529799  30.2284511  38.0401344
  13.1083267  31.0044319  38.1721618  14.5309149  30.5755316  37.8820466
  20.4417416  23.5596095  30.4182143  20.5633327  22.6312741  30.6173030
  20.1519458  23.5734781  29.5060458  23.3108606  21.2451006  33.5548862
  23.3330303  21.3090339  32.6000842  23.7276665  20.4055514  33.7489369
  33.6892230  30.9806265  31.5928085  34.1323377  30.2313590  31.1947208
  32.8118741  30.9716401  31.2101817  28.8228012  37.5336607  27.0734684
  29.5178916  38.1543299  27.2921998  29.1651162  36.6831958  27.3487061
  14.4395821  29.3554408  40.9331501  13.6977557  29.5037043  41.5196131
  14.1188565  29.6162673  40.0698250  30.7219435  34.9836312  28.6022014
  31.2470759  35.3223585  27.8771334  30.6341787  34.0483327  28.4185149
  22.3839484  38.8970386  40.7311891  22.6926610  38.6519533  41.6034591
  23.1814966  39.1017024  40.2430761  22.4060096  41.0508295  32.9617268
  21.9665086  40.5584674  33.6550124  23.1568213  40.5081263  32.7209343
  14.8852435  37.2419836  32.9641896  15.7110455  36.9423608  32.5840539
  14.5346487  36.4727459  33.4131684  19.8533968  36.5946304  35.0339569
  19.2313977  35.9317009  34.7341797  20.5238835  36.6207436  34.3513217
  13.0861040  35.1606163  33.9230829  12.2492948  34.7328337  33.7414830
  13.0584685  35.3538606  34.8601620  19.9258495  25.0728092  44.6272075
  19.9746651  25.9490215  44.2449845  20.4681010  24.5305486  44.0543718
  30.4113341  35.6169216  43.9073212  29.6208885  35.5993355  43.3677712
  30.1746696  36.1557509  44.6622249  30.5311216  32.4661682  41.2205941
  30.5809221  32.3011690  42.1621464  30.4225139  31.5988941  40.8303822
  19.4147475  35.1450228  28.5098030  19.5635595  35.8285692  27.8564703
  20.2213918  35.1255318  29.0247486  27.8214978  28.4492610  42.5365248
  28.7224841  28.3099075  42.2449245  27.8962953  28.6147065  43.4763425
  22.1557784  25.8259465  41.3818434  21.2861093  26.1193031  41.1101022
  22.3917264  26.4099910  42.1025698  32.0329413  34.8858624  41.4647962
  31.7414221  35.2488604  42.3011423  31.4201544  34.1725632  41.2861294
  33.2325095  32.4511503  33.9850533  34.0671987  32.8901307  34.1488093
  33.3684224  31.9750157  33.1658778  30.2816601  30.0091238  39.9328020
  30.7570723  30.2018885  39.1246872  29.3582166  30.0650424  39.6871404
  17.1700108  31.1715405  29.5159099  16.9246150  30.2677735  29.7139309
  17.3396022  31.1732556  28.5738577  24.8596818  22.0439082  38.8983854
  25.3778761  22.7800109  38.5730343  24.5051950  22.3503075  39.7330613
  16.4395755  26.9043763  27.0145260  15.7465000  26.9788118  26.3585296
  16.1947507  26.1404107  27.5366777  25.1109412  18.4639364  34.4184751
  25.3911166  17.7962553  35.0445177  25.8960019  18.6568460  33.9059415
  22.9142880  37.6398358  25.9809777  22.3416847  38.2588545  25.5280249
  23.4875674  38.1897720  26.5149699  28.9818270  26.8856998  38.1656326
  29.9335693  26.9855096  38.1868550  28.8121721  26.0935267  38.6754410
  27.0032650  23.9712582  38.3515727  26.4082582  24.2517594  37.6562216
  26.7182346  24.4606482  39.1232468  26.1340140  37.9235508  27.1118359
  27.0670813  37.8581070  27.3151235  26.0463353  38.7591775  26.6532892
  28.7628157  37.2401379  24.0722307  28.6841788  36.9061242  24.9658065
  29.5837823  37.7323147  24.0713779  31.4606348  30.1063118  37.2798626
  31.4282668  29.1679119  37.4658309  32.0706972  30.1847155  36.5464451
  23.2989679  28.9759171  23.3225830  24.2448783  28.8465379  23.3914248
  22.9203924  28.2373833  23.7995258  31.6100836  26.8974161  37.3256909
  31.0939885  26.1132618  37.1386838  32.4940785  26.5692878  37.4903428
  29.2711563  20.6415177  33.2852722  29.0736384  20.3330265  34.1696053
  29.8811269  21.3676816  33.4150651  37.2782898  31.1679125  36.4204662
  38.0086286  30.9064413  36.9812366  36.6689843  30.4307847  36.4606730
  35.3598195  29.3086987  37.0179114  34.6331358  29.1742952  36.4095605
  34.9445482  29.6163816  37.8235832  23.1828371  33.0276917  44.7826487
  24.1031381  33.2055516  44.9766533  23.1477954  32.0832962  44.6306186
  12.4010536  28.2215511  33.7079761  12.0813321  27.3680819  33.4154135
  11.8543964  28.4364089  34.4637729  16.1790444  30.9377952  37.4249268
  16.3976454  31.8695060  37.4437302  16.5916218  30.5785926  38.2104072
  23.0994662  21.4446037  29.4124956  22.2895390  21.0993122  29.7880202
  23.7879079  21.1353581  30.0012568  25.0285210  20.5224084  31.0349253
  25.5816249  20.9419537  31.6939276  25.2655296  19.5959832  31.0772209
  21.0518309  26.5111158  46.8152017  20.9515036  27.4605515  46.7464108
  20.8339851  26.1829396  45.9428087  12.2698796  31.8418422  35.6772883
  11.5762268  31.4272375  35.1642837  13.0171787  31.8838959  35.0806302
  28.4064017  22.6324609  30.5427917  27.8262686  23.2909413  30.1605970
  28.1399950  21.8101954  30.1315335  26.8567583  22.0329667  32.7449237
  27.3567362  22.1446201  31.9363556  27.5003191  21.7290720  33.3850046
  20.9149579  29.9408296  45.6317078  20.4316661  30.7408657  45.8380967
  21.0010518  29.9516241  44.6784522  14.1835539  31.7736676  33.5538898
  14.1606227  31.8724363  32.6020781  14.4936175  32.6201827  33.8756064
  16.8422917  33.8312831  37.6685512  17.7966170  33.7996773  37.6015444
  16.6435440  33.3703455  38.4835738  17.4322299  32.4013947  40.2356310
  18.2515188  32.8958026  40.2591147  17.7059107  31.4845915  40.2073877
  27.1888895  24.7924699  29.5984265  26.3014750  25.0774350  29.3804460
  27.6042884  24.6318463  28.7511542  30.5403431  24.8171220  33.3138605
  31.3163821  25.3067673  33.5863221  29.8151565  25.2429275  33.7710474
  32.9775990  25.5298840  34.3712545  33.5720481  25.2894576  33.6605853
  33.0502573  24.8105970  34.9986082  15.1973145  39.3732451  34.6855710
  15.0627613  38.6132851  34.1193708  14.7805208  40.0973350  34.2184499
  26.3332108  34.5569374  23.6932285  27.0367959  34.7619377  24.3089941
  25.6094757  35.1246136  23.9581369  27.1629919  30.3079235  29.8134556
  27.1065120  30.7647787  28.9742188  27.7158261  29.5469920  29.6357398
  30.9734725  26.0968967  30.6384675  30.7171659  25.6965603  31.4692883
  30.3487593  26.8112761  30.5134814  35.2847063  28.8365041  33.1455966
  34.7246621  28.9058230  33.9187528  34.6790566  28.6606025  32.4255463
  18.3542271  40.2701768  34.8974153  18.2374655  41.2147200  34.7952843
  17.5334718  39.9675329  35.2859952  28.2418806  34.9951903  25.7430745
  29.0764410  34.5633102  25.5608220  28.0803149  34.8233917  26.6707640
  27.8964698  31.4984017  27.1087085  27.8413502  31.3328288  26.1675529
  27.2710753  32.2060050  27.2649274  12.6857213  26.7352081  40.9348507
  13.3316077  26.2251035  41.4235732  12.4774364  27.4720763  41.5091932
  25.2110605  33.8032929  46.4340647  26.0801765  33.9773581  46.0727282
  24.7317357  34.6227345  46.3116377  21.2060824  20.9992126  26.6872403
  21.1939493  21.9433966  26.8440674  22.0984245  20.8162271  26.3931864
  19.3796785  40.9230030  38.1130081  20.2824032  40.9553640  38.4296576
  19.1534156  39.9930480  38.1276417  21.1350387  39.6761016  34.7740160
  20.1846019  39.6762878  34.6604532  21.4382874  38.9293751  34.2576194
  25.0212943  17.5934902  30.9418340  24.2545339  17.0393389  31.0875022
  25.4323648  17.6656771  31.8032492  17.0254704  23.8819698  45.0323521
  17.8886166  23.5256503  45.2426846  16.4520115  23.5433593  45.7198925
  36.8703081  45.5121554  35.8385922  37.5081491  45.3928302  35.1349262
  36.7523924  46.4602398  35.8973874  33.6792787  45.4648983  35.7747447
  33.3411299  45.3490047  34.8867982  34.5482555  45.0640148  35.7548453
  29.5379603  47.3184459  31.7644338  28.9744468  47.2274396  30.9960626
  29.4231998  46.4984363  32.2446830  34.1612570  46.6183834  41.7333652
  34.1501211  46.2236633  40.8614156  34.3233210  45.8849907  42.3267424
  27.0844035  48.8135651  34.6028558  27.8765327  48.4726475  34.1874858
  27.3240685  48.9230626  35.5230712  35.1179162  50.9855427  27.0758803
  34.4667141  51.5709507  26.6892817  35.9123524  51.5161622  27.1353840
  29.0434789  48.0744564  27.4745937  29.8165665  47.5273551  27.3358813
  29.3960188  48.9388813  27.6860398  30.8819831  49.4020946  40.6812836
  30.5909697  50.3066577  40.5659503  31.5176816  49.4437474  41.3956906
  31.8076038  46.7797795  37.2714196  32.4039610  46.5553817  36.5571159
  31.8651010  46.0382540  37.8739644  31.3801067  44.2337230  25.1064387
  31.6326587  43.7118751  24.3447850  30.4425626  44.0703375  25.2091071
  36.4244349  43.2373008  32.9139130  37.2107439  42.8192431  32.5629547
  36.6883054  44.1419100  33.0820779  36.5954427  48.6745859  27.6127787
  35.9600260  48.7480485  28.3248692  36.2651833  49.2639457  26.9346866
  41.8252777  43.1748241  33.8172109  42.5577949  42.6047458  34.0509938
  41.0692132  42.7869842  34.2578614  31.0997355  46.1365336  27.3088762
  30.9833613  45.4610239  27.9769846  31.2099615  45.6497710  26.4920915
  33.4428896  45.5975483  31.0135451  33.0787104  45.0706104  31.7248373
  34.2996012  45.2073952  30.8401937  39.3478197  36.8869816  38.2766717
  39.0161522  37.7565227  38.0527932  38.7523810  36.5706100  38.9560748
  33.0834383  40.6265383  26.0096800  33.2508786  41.4945619  26.3767271
  32.8931552  40.7892664  25.0858089  35.8409716  49.0882362  37.6762630
  35.5410440  49.9907400  37.5678437  35.4960776  48.8214545  38.5283783
  29.2922198  45.5396158  33.7099334  28.3672694  45.4072373  33.9177026
  29.5406611  46.3190378  34.2069277  39.2406860  41.6064902  35.3560067
  38.3323738  41.5380310  35.0618828  39.1894456  42.0836847  36.1841893
  33.0623604  43.0823040  26.9943467  32.9423229  43.5280091  27.8328947
  32.3676193  43.4308358  26.4357005  26.6531009  45.1829432  34.5443124
  26.7823390  45.4363911  35.4582535  25.9728460  45.7757140  34.2247779
  30.8230496  55.8526682  30.6433598  30.7454526  56.8034507  30.7222078
  30.2192140  55.5072554  31.3008524  33.3147726  43.0254547  43.2994965
  32.5381060  43.5848468  43.2897829  33.9538289  43.5111330  43.8209835
  41.1068507  39.8081340  37.1337941  40.4642887  40.1013873  36.4877736
  40.6023435  39.6934261  37.9391138  38.7608670  43.5544513  27.8223801
  39.6726526  43.7871900  27.6471498  38.2518317  44.1381558  27.2598879
  31.5694098  45.8340001  42.8612932  32.3108783  46.3725045  42.5847755
  30.8631084  46.4606289  43.0184483  37.0449438  47.9769141  41.4585093
  37.4532794  47.5351552  40.7139725  36.3226699  47.4021769  41.7119286
  33.3980508  42.9141748  38.8318650  34.2441703  43.3381162  38.9753299
  33.3379146  42.2575372  39.5257213  37.3678253  48.5370332  35.2137382
  36.7387115  48.7016046  34.5113450  36.9803915  48.9511941  35.9848346
  41.2467485  49.4724770  32.5681746  40.5618523  49.8523671  32.0178779
  41.3311334  50.0820096  33.3013694  36.5479953  40.5746116  40.4899824
  36.3040885  41.3288177  39.9534099  36.8239884  40.9531464  41.3247071
  38.5018416  47.1184729  39.1677089  38.7135311  47.7616489  38.4911470
  38.4548164  46.2847045  38.6999019  36.1044645  39.7302549  36.0713661
  35.2429124  40.0283803  36.3630399  36.1307080  39.9472948  35.1394694
  32.9206215  48.2744740  32.4787467  33.3844560  48.5532443  31.6892090
  32.6563013  47.3728184  32.2960558  29.8130296  47.8216221  35.4167230
  30.3831653  48.2503490  34.7784715  30.4038407  47.5398806  36.1151416
  31.8575101  44.3967892  29.2877032  32.5599144  44.8488936  29.7550959
  31.5255729  43.7551711  29.9156925  30.3055462  42.9879649  43.6628242
  29.6754123  43.6695930  43.8963638  30.1991550  42.8762731  42.7181380
  25.6000435  42.6551445  34.5894166  24.8099489  42.9108973  34.1134276
  26.0911682  43.4699783  34.6946206  39.6164244  49.9956684  37.3399447
  40.4381688  49.5936871  37.0582128  39.6126647  49.8924918  38.2915562
  27.5515180  43.0196024  31.5477643  26.7546343  43.1314718  32.0661138
  27.3240772  43.3582676  30.6818533  33.3820848  49.5440727  39.4960157
  33.4465280  50.0061135  40.3318329  32.6731771  48.9138092  39.6242467
  23.8838138  42.9081935  37.0209157  24.1346176  43.7928945  37.2866733
  24.4197686  42.7286537  36.2484248  47.7070237  46.3395433  33.6884418
  46.9533946  45.7702831  33.5328423  47.8417778  46.3058097  34.6355053
  33.0968865  51.2108835  29.3639137  32.9614540  52.0560371  29.7923985
  33.6378678  51.4128113  28.6005071  29.5836205  37.2900415  46.0253493
  29.1903150  36.7366613  46.7001137  30.4002345  37.6010993  46.4160010
  26.5498263  48.7284273  29.9367063  27.0622783  49.5227523  30.0872627
  27.2020975  48.0310563  29.8700664  28.3593147  51.8450029  32.0189816
  28.5359776  52.7667994  31.8310800  29.1549981  51.5308448  32.4484196
  32.5004166  38.7058294  43.6173749  33.2413879  39.3065447  43.5378212
  32.7322089  37.9635932  43.0591792  27.6445504  43.8914661  41.8951979
  27.5299019  42.9899918  42.1959078  26.7890022  44.1378358  41.5436795
  34.7237342  51.8332401  43.4939480  34.2801196  51.0468780  43.1760384
  35.3854555  52.0211552  42.8283370  29.4824463  53.3628203  38.0200158
  30.0331888  53.2345266  37.2477152  28.6435939  53.6623092  37.6695051
  36.8218580  52.1135201  41.5220881  36.8037055  52.9344082  41.0301150
  37.7438500  51.9889277  41.7471022  33.2791634  49.6279331  42.3644389
  33.8119971  48.8667619  42.1343697  32.7505715  49.3352983  43.1068544
  36.4461329  34.7339397  37.8938031  36.1025598  35.6241038  37.8177142
  36.8140291  34.5441054  37.0307616  24.5147179  47.0572927  30.7126633
  25.3522401  47.4669936  30.4960341  24.6925447  46.1172369  30.6826827
  36.4111611  44.7248008  26.4010466  35.8958235  45.4952613  26.6398853
  36.1388920  44.0513144  27.0243527  33.9958723  39.5697709  31.4595704
  33.1400319  39.1804559  31.2801343  34.4085674  39.6489669  30.5995490
  35.5257869  37.1044052  35.8587264  35.0222665  37.0674187  35.0455069
  35.8188476  38.0136795  35.9183921  31.7700755  37.1882782  34.8653446
  32.6353752  36.9925590  34.5059335  31.8378264  36.9593133  35.7922803
  41.3845886  47.4780363  28.3363640  40.6075328  47.1391522  27.8918802
  42.0637367  47.4832986  27.6618605  36.1997915  42.5975100  28.2270247
  35.8948050  42.9121249  29.0780390  37.1528357  42.6756520  28.2697580
  34.6444347  48.7565323  29.8763201  34.1165708  48.0218083  29.5636439
  34.1431849  49.5340000  29.6303170  39.6237193  46.9514344  34.9930248
  38.9660867  47.6413605  35.0810376  40.4277592  47.3410776  35.3364234
  29.3763074  39.4184990  32.2369813  29.9506826  39.1960171  31.5043006
  29.9634057  39.4873684  32.9898414  38.4342651  45.3058716  33.0434189
  38.9474533  45.9388708  33.5455899  39.0843875  44.7059912  32.6777549
  29.7032661  41.4489451  26.2565698  28.8669973  41.7864137  26.5774973
  29.5637431  41.3138430  25.3192835  31.6785742  36.2926238  30.9644882
  31.0250154  35.9775256  30.3401497  31.6366216  35.6701979  31.6904705
  32.7896947  46.5745534  22.8798174  31.8824008  46.3434787  23.0789323
  33.2867979  45.7783153  23.0672156  35.6965026  55.2843041  25.7994860
  35.0226724  55.5874738  26.4079818  36.0830848  56.0872121  25.4500317
  34.9123482  42.7808172  35.2892530  33.9946044  43.0023119  35.1314218
  35.3283626  42.8554483  34.4304237  35.6958530  44.1799588  30.4195210
  36.4430349  44.6920985  30.1102332  35.9650119  43.8583640  31.2799604
  33.9685180  46.6758128  27.4022164  33.0596399  46.3917161  27.4994634
  33.9980264  47.0957207  26.5425471  39.2004448  50.2864718  31.1713332
  38.7466775  49.4455628  31.2278522  38.5698414  50.9226116  31.5088112
  38.1437367  41.2156704  32.4013999  37.4060124  40.7034090  32.7324242
  38.3964141  40.7757086  31.5897276  37.6437387  52.1241215  32.1063150
  37.9360361  52.6846272  31.3875516  38.1536007  52.4169776  32.8616309
  38.2448994  33.9932956  32.9955769  38.5507871  33.1330319  32.7081684
  38.9701599  34.5850576  32.7954763  24.5373351  44.3963643  31.3837367
  24.3397750  43.8033003  30.6588433  23.9820014  44.0915853  32.1013305
  32.5170074  44.2886749  33.5031960  32.5718684  43.3360585  33.4274436
  31.7061276  44.4446188  33.9873258  33.6661268  48.2166872  24.7410243
  33.2280698  47.5002731  24.2815880  34.4071709  48.4442987  24.1795334
  30.4562434  42.9063809  31.2622339  29.6430300  43.2057979  31.6687531
  30.9521428  42.5119498  31.9796821  32.6071012  52.9021566  33.1956603
  32.5647191  53.1282412  32.2665135  33.5233711  52.6684940  33.3442404
  36.0536646  43.3705633  40.0937232  36.4086033  43.5977106  40.9531698
  36.7008777  43.7024010  39.4714488  41.7834383  46.4924069  30.7986561
  41.6452281  46.6825665  29.8707751  41.4270602  47.2543452  31.2554613
  29.9476509  40.4782164  36.8783574  30.5875888  40.3370923  36.1806537
  29.1154039  40.1916678  36.5022175  41.8103762  48.5600596  35.8097833
  42.2440269  48.4675885  36.6580887  42.5235343  48.5358097  35.1717849
  30.7236813  49.7784595  32.9918566  31.5177411  49.2834915  32.7901141
  30.0128505  49.2502458  32.6286272  35.5431657  52.1602690  37.3430934
  35.5968679  52.7293627  38.1108649  34.6746439  52.3304575  36.9784971
  27.0319576  43.9227676  29.0678319  26.1017164  43.8612132  29.2848281
  27.1277048  43.4003629  28.2714960  26.9505125  40.4482489  31.6556560
  27.2111943  41.3627823  31.5465721  27.7722298  39.9806932  31.8053173
  28.4230051  41.8620246  38.8255385  29.0953104  41.6537609  38.1768034
  27.5959837  41.6642332  38.3860617  42.6719312  48.6024297  38.3430718
  42.8655202  49.5070107  38.5889993  42.5719930  48.1431716  39.1769303
  34.3255623  38.4882187  40.8421046  33.6783538  39.1872137  40.7485522
  35.0956638  38.9218331  41.2097294  37.7334421  48.7531040  43.9171599
  37.5819927  48.5241591  43.0001683  37.7239100  49.7101641  43.9302944
  34.5019757  46.3262952  38.9017865  35.4311817  46.4774112  38.7286833
  34.0810787  46.4146973  38.0466512  33.3008089  50.3513617  36.6716403
  33.1619174  49.9832401  37.5442341  32.5122685  50.8661256  36.5000361
  33.8956241  55.4522713  28.0141940  34.0707996  54.9810756  28.8287562
  33.2089029  56.0788479  28.2423200  34.8513304  49.7295219  34.0605241
  34.5163136  49.6895989  34.9562891  34.3517250  49.0639935  33.5875651
  28.8257548  45.1362849  39.5857822  28.6877346  44.4043088  40.1869361
  29.7362471  45.0471750  39.3042010  37.7872496  47.0751254  24.3342301
  37.1701666  46.3498082  24.2375353  37.3188984  47.8360614  23.9909375
  31.4539849  44.8482809  39.0741502  32.1639467  44.2076001  39.0328120
  31.4109157  45.0995704  39.9967682  39.4426627  51.7850162  41.9948081
  39.3839173  51.1009382  41.3278664  39.8446146  52.5269152  41.5428707
  30.1668782  41.8348027  40.8937141  29.6306140  41.3838765  41.5458737
  29.5785491  41.9693935  40.1507605  28.4617326  58.6012076  34.7881800
  28.7013924  59.2330600  35.4660818  27.6186522  58.2500116  35.0747159
  29.5771041  41.2936678  23.4563605  28.7000508  41.1725479  23.0925851
  30.0528795  40.5022756  23.2042493  39.4444034  49.7489746  40.2262061
  38.5570813  49.4115668  40.3488459  40.0142586  49.0172777  40.4630826
  21.0973182  46.0813838  33.5505112  21.7844221  45.7675568  32.9626127
  20.9421310  46.9855202  33.2772363  25.9007904  40.9704034  37.9790136
  25.8166092  40.3629704  37.2440546  25.0790610  41.4613053  37.9799632
  32.9745188  54.4091198  37.1923304  32.9015359  55.2146170  37.7042608
  32.5322581  54.6083164  36.3671325  32.7634967  53.6462968  30.7026125
  31.9802489  54.1884649  30.7964350  33.4627713  54.1636948  31.1020366
  36.0731618  39.4557598  33.3460331  36.5700317  38.7027560  33.0261401
  35.3018599  39.4921915  32.7803540  43.9261375  45.1597963  34.9878622
  43.9151251  46.0422679  34.6172555  43.0578754  44.8069514  34.7933159
  35.4343871  54.3078032  39.3481462  36.1471844  54.9425497  39.2757364
  34.9433900  54.4041898  38.5321464  37.1561398  48.2129285  30.9198754
  36.2217677  48.3330748  30.7503458  37.3338067  47.3101752  30.6558764
  32.6566586  41.5974981  33.0732015  32.2864374  41.0446021  33.7612921
  33.1525679  40.9933114  32.5207015  40.5433950  44.0546604  31.4548788
  41.0094402  44.8874596  31.3809091  40.9941450  43.5891586  32.1594047
  30.4855785  52.0572476  40.1687033  31.1865244  52.6908959  40.3216427
  30.0150900  52.3987207  39.4082672  38.6110181  50.3990426  28.4534940
  38.8870025  50.2847020  29.3628814  37.7414679  50.0007911  28.4147113
  38.5150612  36.4227191  35.4939690  37.6013692  36.6531418  35.6621896
  38.9443714  36.5065635  36.3453722  38.2857071  44.6117083  37.9939584
  37.6328521  44.8592991  37.3392036  38.6637451  43.7981222  37.6602061
  35.2464245  54.6476777  32.0967754  35.4286639  53.8298432  32.5595506
  36.0697231  54.8644469  31.6592644  35.5806410  53.5744962  29.3582802
  36.1094177  53.0637416  28.7452964  35.8434630  53.2587492  30.2228335
  34.3344644  45.3536894  44.4805621  33.6585281  45.2531024  45.1507996
  35.1572278  45.1976108  44.9441618  26.0823503  51.5908831  37.1018136
  26.6676940  50.8452519  37.2346040  25.8848341  51.9012788  37.9854800
  28.9362158  54.6260078  32.1180578  28.2672533  55.1106206  31.6344618
  28.7975028  54.8729299  33.0323957  20.6741158  44.1614431  35.8222579
  20.7125257  43.6278022  36.6159697  20.1681451  43.6349637  35.2033556
  33.0767427  56.6603822  38.7163237  33.6285735  56.8235443  39.4812322
  33.4173620  57.2508260  38.0443261  28.0531920  39.0078972  39.3185121
  28.1173246  39.8693803  38.9062519  27.9899040  38.3952973  38.5857480
  27.5284193  41.0802104  42.9658156  28.1556231  40.6979182  43.5795680
  26.6712111  40.8616306  43.3313848  37.9278301  51.4865079  44.5711891
  38.4718205  52.0995038  44.0766846  37.3465146  52.0444658  45.0878904
  24.3049735  42.8878533  28.8976510  24.6003176  41.9789212  28.8443564
  23.4037771  42.8666273  28.5757513  36.2135814  54.6085797  35.7026919
  36.0886954  53.8075537  35.1937864  36.8714905  55.1031991  35.2140889
  27.8343982  40.9634530  34.8804059  27.1130568  41.5770498  34.7411532
  28.6237238  41.4992295  34.8020705  38.2770722  52.4094817  37.3306469
  37.3301058  52.2900169  37.2584796  38.6253496  51.5217315  37.4132730
  30.6370296  38.2988956  41.1544711  31.1604698  38.5451253  41.9171020
  30.4182629  39.1308991  40.7347848  26.0337577  40.5692631  29.0215836
  25.7050283  39.6890010  28.8390942  26.3876948  40.5140300  29.9092225
  35.2817156  52.2047534  33.5310821  35.1342118  51.2764241  33.7118391
  36.1070649  52.2267624  33.0467896  29.1479400  40.8565601  29.3891313
  29.4875473  41.3851522  28.6669922  29.5951521  41.1946007  30.1649880
  38.8851278  53.0276092  34.6175694  39.8097825  52.8218954  34.4800145
  38.7166581  52.7792494  35.5265035  31.8422841  39.2402651  38.8394381
  31.5019661  38.4410465  39.2415061  31.1361847  39.5404362  38.2671215
  32.4939313  36.3251964  37.2921704  33.3165382  35.8512442  37.1700595
  32.7377376  37.1042448  37.7920391  31.1347547  39.3540222  27.5884606
  31.8555910  39.7321475  27.0848323  30.5112851  40.0729099  27.6919584
  35.2778670  40.0585371  28.5242938  35.4942284  40.9410009  28.2231767
  34.7972737  39.6671585  27.7948580  30.0177891  43.0171085  35.1013683
  29.8722472  43.3311388  35.9937964  29.5403095  43.6355985  34.5484582
  31.8774274  40.0073633  35.1494573  31.8635843  39.1114726  34.8126870
  32.5946702  40.0144296  35.7832859  33.7300405  40.4410973  37.1947700
  33.4718183  41.3628043  37.1932030  33.1985445  40.0441407  37.8848164
  38.6746594  53.5461760  29.9737785  38.8483471  52.9808182  29.2211638
  39.1675485  54.3462655  29.7917275  24.4923554  45.5576429  38.0401344
  23.9477022  46.3336237  38.1721618  25.3702903  45.9047233  37.8820466
  31.2811170  38.8888013  30.4182143  31.4027081  37.9604659  30.6173030
  30.9913213  38.9026699  29.5060458  34.1502361  36.5742923  33.5548862
  34.1724057  36.6382256  32.6000842  34.5670420  35.7347432  33.7489369
  44.5285985  46.3098183  31.5928085  44.9717131  45.5605508  31.1947208
  43.6512495  46.3008319  31.2101817  39.6621766  52.8628524  27.0734684
  40.3572671  53.4835217  27.2921998  40.0044916  52.0123875  27.3487061
  25.2789575  44.6846325  40.9331501  24.5371311  44.8328961  41.5196131
  24.9582320  44.9454591  40.0698250  41.5613189  50.3128230  28.6022014
  42.0864513  50.6515503  27.8771334  41.4735542  49.3775245  28.4185149
  33.2233238  54.2262303  40.7311891  33.5320365  53.9811450  41.6034591
  34.0208720  54.4308942  40.2430761  33.2453850  56.3800213  32.9617268
  32.8058840  55.8876592  33.6550124  33.9961967  55.8373181  32.7209343
  25.7246189  52.5711754  32.9641896  26.5504209  52.2715526  32.5840539
  25.3740241  51.8019376  33.4131684  30.6927722  51.9238222  35.0339569
  30.0707732  51.2608927  34.7341797  31.3632589  51.9499354  34.3513217
  23.9254794  50.4898080  33.9230829  23.0886702  50.0620255  33.7414830
  23.8978440  50.6830524  34.8601620  30.7652250  40.4020010  44.6272075
  30.8140405  41.2782133  44.2449845  31.3074764  39.8597403  44.0543718
  41.3704971  47.7953600  41.2205941  41.4202975  47.6303607  42.1621464
  41.2618894  46.9280859  40.8303822  30.2541229  50.4742145  28.5098030
  30.4029350  51.1577610  27.8564703  31.0607673  50.4547236  29.0247486
  38.6608733  43.7784528  42.5365248  39.5618596  43.6390993  42.2449245
  38.7356707  43.9438983  43.4763425  32.9951538  41.1551383  41.3818434
  32.1254848  41.4484949  41.1101022  33.2311019  41.7391828  42.1025698
  42.8723167  50.2150541  41.4647962  42.5807976  50.5780522  42.3011423
  42.2595299  49.5017550  41.2861294  44.0718850  47.7803421  33.9850533
  44.9065741  48.2193225  34.1488093  44.2077978  47.3042074  33.1658778
  41.1210356  45.3383156  39.9328020  41.5964477  45.5310802  39.1246872
  40.1975921  45.3942342  39.6871404  28.0093862  46.5007323  29.5159099
  27.7639904  45.5969653  29.7139309  28.1789777  46.5024474  28.5738577
  35.6990572  37.3731000  38.8983854  36.2172516  38.1092026  38.5730343
  35.3445705  37.6794993  39.7330613  27.2789510  42.2335681  27.0145260
  26.5858755  42.3080036  26.3585296  27.0341262  41.4696024  27.5366777
  35.9503166  33.7931282  34.4184751  36.2304920  33.1254471  35.0445177
  36.7353773  33.9860378  33.9059415  33.7536635  52.9690276  25.9809777
  33.1810602  53.5880463  25.5280249  34.3269428  53.5189638  26.5149699
  39.8212025  42.2148916  38.1656326  40.7729447  42.3147014  38.1868550
  39.6515475  41.4227185  38.6754410  37.8426404  39.3004499  38.3515727
  37.2476336  39.5809512  37.6562216  37.5576101  39.7898400  39.1232468
  36.9733895  53.2527426  27.1118359  37.9064568  53.1872988  27.3151235
  36.8857107  54.0883693  26.6532892  39.6021911  52.5693296  24.0722307
  39.5235543  52.2353160  24.9658065  40.4231578  53.0615064  24.0713779
  42.3000102  45.4355036  37.2798626  42.2676422  44.4971036  37.4658309
  42.9100726  45.5139072  36.5464451  34.1383433  44.3051089  23.3225830
  35.0842538  44.1757297  23.3914248  33.7597678  43.5665751  23.7995258
  42.4494591  42.2266079  37.3256909  41.9333640  41.4424536  37.1386838
  43.3334539  41.8984796  37.4903428  40.1105318  35.9707095  33.2852722
  39.9130139  35.6622183  34.1696053  40.7205023  36.6968734  33.4150651
  48.1176652  46.4971043  36.4204662  48.8480041  46.2356331  36.9812366
  47.5083598  45.7599765  36.4606730  46.1991949  44.6378905  37.0179114
  45.4725113  44.5034870  36.4095605  45.7839236  44.9455734  37.8235832
  34.0222126  48.3568835  44.7826487  34.9425135  48.5347434  44.9766533
  33.9871709  47.4124880  44.6306186  32.3226350  42.2301065  23.2580715
  31.4157806  41.9334178  23.3343429  32.6002331  41.9330883  22.3915001
  23.2404291  43.5507428  33.7079761  22.9207075  42.6972737  33.4154135
  22.6937719  43.7656007  34.4637729  27.0184198  46.2669869  37.4249268
  27.2370208  47.1986977  37.4437302  27.4309972  45.9077844  38.2104072
  33.9388416  36.7737955  29.4124956  33.1289144  36.4285040  29.7880202
  34.6272833  36.4645499  30.0012568  35.8678964  35.8516002  31.0349253
  36.4210003  36.2711455  31.6939276  36.1049051  34.9251750  31.0772209
  31.8912064  41.8403075  46.8152017  31.7908791  42.7897432  46.7464108
  31.6733606  41.5121314  45.9428087  31.0925135  39.0888000  23.3992694
  31.9544299  39.4142899  23.6588511  31.2775479  38.3019496  22.8865760
  23.1092551  47.1710340  35.6772883  22.4156022  46.7564293  35.1642837
  23.8565542  47.2130876  35.0806302  39.2457771  37.9616527  30.5427917
  38.6656441  38.6201331  30.1605970  38.9793704  37.1393871  30.1315335
  37.6961338  37.3621584  32.7449237  38.1961116  37.4738119  31.9363556
  38.3396946  37.0582637  33.3850046  31.7543334  45.2700214  45.6317078
  31.2710415  46.0700574  45.8380967  31.8404273  45.2808159  44.6784522
  25.0229293  47.1028594  33.5538898  24.9999981  47.2016281  32.6020781
  25.3329930  47.9493745  33.8756064  27.6816671  49.1604749  37.6685512
  28.6359925  49.1288691  37.6015444  27.4829195  48.6995373  38.4835738
  28.2716053  47.7305865  40.2356310  29.0908942  48.2249944  40.2591147
  28.5452861  46.8137833  40.2073877  38.0282650  40.1216617  29.5984265
  37.1408505  40.4066268  29.3804460  38.4436639  39.9610381  28.7511542
  41.3797186  40.1463138  33.3138605  42.1557576  40.6359591  33.5863221
  40.6545320  40.5721192  33.7710474  43.8169744  40.8590757  34.3712545
  44.4114235  40.6186493  33.6605853  43.8896328  40.1397888  34.9986082
  26.0366900  54.7024368  34.6855710  25.9021368  53.9424769  34.1193708
  25.6198962  55.4265268  34.2184499  37.1725863  49.8861292  23.6932285
  37.8761713  50.0911294  24.3089941  36.4488512  50.4538054  23.9581369
  38.0023673  45.6371153  29.8134556  37.9458875  46.0939705  28.9742188
  38.5552016  44.8761838  29.6357398  41.8128479  41.4260885  30.6384675
  41.5565413  41.0257521  31.4692883  41.1881347  42.1404679  30.5134814
  46.1240817  44.1656958  33.1455966  45.5640375  44.2350148  33.9187528
  45.5184320  43.9897943  32.4255463  29.1936026  55.5993685  34.8974153
  29.0768410  56.5439118  34.7952843  28.3728472  55.2967247  35.2859952
  39.0812560  50.3243821  25.7430745  39.9158164  49.8925019  25.5608220
  38.9196903  50.1525835  26.6707640  38.7358453  46.8275934  27.1087085
  38.6807256  46.6620206  26.1675529  38.1104508  47.5351967  27.2649274
  23.5250968  42.0643999  40.9348507  24.1709831  41.5542953  41.4235732
  23.3168119  42.8012680  41.5091932  36.0504360  49.1324846  46.4340647
  36.9195519  49.3065498  46.0727282  35.5711111  49.9519263  46.3116377
  32.0454578  36.3284043  26.6872403  32.0333248  37.2725883  26.8440674
  32.9378000  36.1454189  26.3931864  30.2190540  56.2521947  38.1130081
  31.1217787  56.2845557  38.4296576  29.9927910  55.3222398  38.1276417
  31.9744142  55.0052934  34.7740160  31.0239773  55.0054795  34.6604532
  32.2776628  54.2585668  34.2576194  35.8606697  32.9226820  30.9418340
  35.0939093  32.3685307  31.0875022  36.2717402  32.9948689  31.8032492
  27.8648459  39.2111616  45.0323521  28.7279920  38.8548421  45.2426846
  27.2913869  38.8725511  45.7198925  44.5186542  60.7940900  35.7747447
  44.1805053  60.6781965  34.8867982  45.3876310  60.3932065  35.7548453
  40.3773357  62.6476377  31.7644338  39.8138223  62.5566314  30.9960626
  40.2625752  61.8276281  32.2446830  37.9237789  64.1427568  34.6028558
  38.7159081  63.8018393  34.1874858  38.1634440  64.2522543  35.5230712
  45.9572916  66.3147344  27.0758803  45.3060896  66.9001425  26.6892817
  46.7517279  66.8453539  27.1353840  39.8828543  63.4036481  27.4745937
  40.6559419  62.8565469  27.3358813  40.2353942  64.2680731  27.6860398
  42.6469793  62.1089712  37.2714196  43.2433365  61.8845735  36.5571159
  42.7044764  61.3674458  37.8739644  42.2194821  59.5629148  25.1064387
  42.4720342  59.0410669  24.3447850  41.2819380  59.3995293  25.2091071
  47.2638104  58.5664926  32.9139130  48.0501193  58.1484349  32.5629547
  47.5276808  59.4711018  33.0820779  47.4348181  64.0037776  27.6127787
  46.7994014  64.0772403  28.3248692  47.1045588  64.5931375  26.9346866
  41.9391110  61.4657254  27.3088762  41.8227368  60.7902157  27.9769846
  42.0493370  60.9789627  26.4920915  44.2822651  60.9267401  31.0135451
  43.9180858  60.3998022  31.7248373  45.1389767  60.5365870  30.8401937
  50.1871951  52.2161733  38.2766717  49.8555276  53.0857144  38.0527932
  49.5917565  51.8998017  38.9560748  43.9228138  55.9557300  26.0096800
  44.0902540  56.8237537  26.3767271  43.7325307  56.1184582  25.0858089
  40.1315952  60.8688076  33.7099334  39.2066449  60.7364290  33.9177026
  40.3800366  61.6482295  34.2069277  43.9017359  58.4114958  26.9943467
  43.7816984  58.8572009  27.8328947  43.2069947  58.7600276  26.4357005
  37.4924763  60.5121350  34.5443124  37.6217145  60.7655829  35.4582535
  36.8122215  61.1049058  34.2247779  41.6624251  71.1818600  30.6433598
  41.5848280  72.1326425  30.7222078  41.0585894  70.8364472  31.3008524
  49.6002425  58.8836431  27.8223801  50.5120281  59.1163818  27.6471498
  49.0912072  59.4673475  27.2598879  44.2374263  58.2433666  38.8318650
  45.0835458  58.6673079  38.9753299  44.1772900  57.5867290  39.5257213
  46.9438400  55.0594467  36.0713661  46.0822879  55.3575721  36.3630399
  46.9700834  55.2764866  35.1394694  43.7599969  63.6036658  32.4787467
  44.2238315  63.8824361  31.6892090  43.4956767  62.7020102  32.2960558
  40.6524050  63.1508139  35.4167230  41.2225407  63.5795407  34.7784715
  41.2432162  62.8690724  36.1151416  42.6968855  59.7259810  29.2877032
  43.3992898  60.1780854  29.7550959  42.3649484  59.0843629  29.9156925
  36.4394189  57.9843363  34.5894166  35.6493243  58.2400891  34.1134276
  36.9305436  58.7991700  34.6946206  38.3908934  58.3487942  31.5477643
  37.5940098  58.4606636  32.0661138  38.1634527  58.6874594  30.6818533
  44.2214602  64.8732645  39.4960157  44.2859035  65.3353052  40.3318329
  43.5125526  64.2430010  39.6242467  34.7231892  58.2373853  37.0209157
  34.9739930  59.1220863  37.2866733  35.2591440  58.0578455  36.2484248
  43.9362620  66.5400753  29.3639137  43.8008294  67.3852288  29.7923985
  44.4772432  66.7420030  28.6005071  37.3892017  64.0576191  29.9367063
  37.9016538  64.8519441  30.0872627  38.0414730  63.3602481  29.8700664
  39.1986902  67.1741947  32.0189816  39.3753530  68.0959912  31.8310800
  39.9943735  66.8600366  32.4484196  40.3218217  68.6920121  38.0200158
  40.8725642  68.5637184  37.2477152  39.4829693  68.9915010  37.6695051
  47.6612334  67.4427119  41.5220881  47.6430809  68.2636000  41.0301150
  48.5832254  67.3181194  41.7471022  47.2855083  50.0631314  37.8938031
  46.9419353  50.9532956  37.8177142  47.6534046  49.8732972  37.0307616
  35.3540934  62.3864845  30.7126633  36.1916156  62.7961853  30.4960341
  35.5319202  61.4464287  30.6826827  47.2505366  60.0539926  26.4010466
  46.7351989  60.8244530  26.6398853  46.9782674  59.3805062  27.0243527
  44.8352477  54.8989626  31.4595704  43.9794073  54.5096477  31.2801343
  45.2479429  54.9781587  30.5995490  46.3651624  52.4335970  35.8587264
  45.8616419  52.3966105  35.0455069  46.6582231  53.3428712  35.9183921
  42.6094510  52.5174699  34.8653446  43.4747506  52.3217508  34.5059335
  42.6772018  52.2885051  35.7922803  47.0391669  57.9267018  28.2270247
  46.7341805  58.2413167  29.0780390  47.9922111  58.0048438  28.2697580
  45.4838101  64.0857241  29.8763201  44.9559463  63.3510001  29.5636439
  44.9825604  64.8631917  29.6303170  40.2156829  54.7476907  32.2369813
  40.7900581  54.5252089  31.5043006  40.8027811  54.8165602  32.9898414
  40.5426416  56.7781368  26.2565698  39.7063728  57.1156055  26.5774973
  40.4031185  56.6430348  25.3192835  42.5179496  51.6218156  30.9644882
  41.8643909  51.3067173  30.3401497  42.4759970  50.9993897  31.6904705
  43.6290701  61.9037451  22.8798174  42.7217763  61.6726705  23.0789323
  44.1261733  61.1075070  23.0672156  46.5358780  70.6134958  25.7994860
  45.8620479  70.9166655  26.4079818  46.9224602  71.4164039  25.4500317
  45.7517237  58.1100090  35.2892530  44.8339798  58.3315037  35.1314218
  46.1677380  58.1846400  34.4304237  46.5352284  59.5091505  30.4195210
  47.2824103  60.0212903  30.1102332  46.8043874  59.1875558  31.2799604
  44.8078935  62.0050046  27.4022164  43.8990154  61.7209079  27.4994634
  44.8374018  62.4249125  26.5425471  48.4831141  67.4533132  32.1063150
  48.7754116  68.0138189  31.3875516  48.9929762  67.7461693  32.8616309
  49.0842749  49.3224874  32.9955769  49.3901626  48.4622237  32.7081684
  49.8095354  49.9142494  32.7954763  35.3767105  59.7255560  31.3837367
  35.1791505  59.1324921  30.6588433  34.8213769  59.4207770  32.1013305
  43.3563829  59.6178667  33.5031960  43.4112438  58.6652503  33.4274436
  42.5455031  59.7738106  33.9873258  44.5055022  63.5458790  24.7410243
  44.0674452  62.8294649  24.2815880  45.2465463  63.7734905  24.1795334
  41.2956189  58.2355726  31.2622339  40.4824054  58.5349897  31.6687531
  41.7915183  57.8411415  31.9796821  43.4464766  68.2313483  33.1956603
  43.4040945  68.4574330  32.2665135  44.3627465  67.9976858  33.3442404
  40.7870263  55.8074082  36.8783574  41.4269643  55.6662841  36.1806537
  39.9547794  55.5208595  36.5022175  41.5630567  65.1076512  32.9918566
  42.3571166  64.6126833  32.7901141  40.8522260  64.5794376  32.6286272
  46.3825412  67.4894608  37.3430934  46.4362434  68.0585544  38.1108649
  45.5140193  67.6596493  36.9784971  37.8713331  59.2519594  29.0678319
  36.9410919  59.1904050  29.2848281  37.9670803  58.7295547  28.2714960
  37.7898880  55.7774407  31.6556560  38.0505697  56.6919740  31.5465721
  38.6116052  55.3098850  31.8053173  39.2623805  57.1912164  38.8255385
  39.9346859  56.9829526  38.1768034  38.4353592  56.9934250  38.3860617
  44.1401843  65.6805534  36.6716403  44.0012929  65.3124319  37.5442341
  43.3516439  66.1953174  36.5000361  44.7349995  70.7814631  28.0141940
  44.9101751  70.3102674  28.8287562  44.0482783  71.4080397  28.2423200
  45.6907058  65.0587137  34.0605241  45.3556891  65.0187907  34.9562891
  45.1911004  64.3931853  33.5875651  39.6651302  60.4654767  39.5857822
  39.5271100  59.7335006  40.1869361  40.5756226  60.3763667  39.3042010
  48.6266250  62.4043171  24.3342301  48.0095421  61.6790000  24.2375353
  48.1582738  63.1652532  23.9909375  42.2933603  60.1774726  39.0741502
  43.0033222  59.5367919  39.0328120  42.2502911  60.4287621  39.9967682
  50.2820382  67.1142080  41.9948081  50.2232928  66.4301300  41.3278664
  50.6839900  67.8561070  41.5428707  39.3011080  73.9303994  34.7881800
  39.5407679  74.5622518  35.4660818  38.4580277  73.5792034  35.0747159
  40.4164796  56.6228596  23.4563605  39.5394262  56.5017397  23.0925851
  40.8922549  55.8314674  23.2042493  31.9366936  61.4105755  33.5505112
  32.6237976  61.0967485  32.9626127  31.7815065  62.3147120  33.2772363
  36.7401658  56.2995952  37.9790136  36.6559847  55.6921622  37.2440546
  35.9184365  56.7904970  37.9799632  43.8138942  69.7383116  37.1923304
  43.7409114  70.5438088  37.7042608  43.3716335  69.9375082  36.3671325
  43.6028722  68.9754886  30.7026125  42.8196244  69.5176566  30.7964350
  44.3021467  69.4928866  31.1020366  46.9125372  54.7849516  33.3460331
  47.4094072  54.0319478  33.0261401  46.1412354  54.8213832  32.7803540
  46.2737626  69.6369950  39.3481462  46.9865598  70.2717415  39.2757364
  45.7827655  69.7333816  38.5321464  43.4960341  56.9266899  33.0732015
  43.1258128  56.3737939  33.7612921  43.9919433  56.3225032  32.5207015
  41.3249539  67.3864394  40.1687033  42.0258999  68.0200877  40.3216427
  40.8544654  67.7279125  39.4082672  49.4503935  65.7282343  28.4534940
  49.7263779  65.6138938  29.3628814  48.5808434  65.3299828  28.4147113
  49.3544367  51.7519109  35.4939690  48.4407447  51.9823336  35.6621896
  49.7837468  51.8357553  36.3453722  46.0857999  69.9768694  32.0967754
  46.2680394  69.1590350  32.5595506  46.9090985  70.1936386  31.6592644
  46.4200165  68.9036879  29.3582802  46.9487931  68.3929334  28.7452964
  46.6828384  68.5879410  30.2228335  36.9217257  66.9200749  37.1018136
  37.5070694  66.1744437  37.2346040  36.7242096  67.2304705  37.9854800
  39.7755913  69.9551996  32.1180578  39.1066288  70.4398124  31.6344618
  39.6368782  70.2021216  33.0323957  31.5134912  59.4906349  35.8222579
  31.5519012  58.9569940  36.6159697  31.0075205  58.9641554  35.2033556
  43.9161181  71.9895740  38.7163237  44.4679489  72.1527361  39.4812322
  44.2567375  72.5800177  38.0443261  38.8925674  54.3370889  39.3185121
  38.9567001  55.1985720  38.9062519  38.8292795  53.7244891  38.5857480
  48.7672056  66.8156997  44.5711891  49.3111960  67.4286955  44.0766846
  48.1858900  67.3736575  45.0878904  35.1443490  58.2170451  28.8976510
  35.4396931  57.3081129  28.8443564  34.2431526  58.1958190  28.5757513
  47.0529569  69.9377715  35.7026919  46.9280708  69.1367455  35.1937864
  47.7108660  70.4323908  35.2140889  38.6737737  56.2926448  34.8804059
  37.9524323  56.9062415  34.7411532  39.4630993  56.8284212  34.8020705
  41.4764050  53.6280874  41.1544711  41.9998452  53.8743171  41.9171020
  41.2576384  54.4600909  40.7347848  36.8731331  55.8984549  29.0215836
  36.5444038  55.0181928  28.8390942  37.2270702  55.8432217  29.9092225
  46.1210910  67.5339451  33.5310821  45.9735873  66.6056159  33.7118391
  46.9464404  67.5559542  33.0467896  39.9873155  56.1857518  29.3891313
  40.3269227  56.7143440  28.6669922  40.4345275  56.5237925  30.1649880
  49.7245032  68.3568010  34.6175694  50.6491580  68.1510871  34.4800145
  49.5560335  68.1084411  35.5265035  42.6816595  54.5694569  38.8394381
  42.3413416  53.7702382  39.2415061  41.9755602  54.8696280  38.2671215
  43.3333067  51.6543882  37.2921704  44.1559136  51.1804360  37.1700595
  43.5771131  52.4334365  37.7920391  41.9741302  54.6832140  27.5884606
  42.6949664  55.0613393  27.0848323  41.3506606  55.4021017  27.6919584
  46.1172425  55.3877289  28.5242938  46.3336039  56.2701927  28.2231767
  45.6366492  54.9963502  27.7948580  40.8571646  58.3463002  35.1013683
  40.7116227  58.6603305  35.9937964  40.3796850  58.9647903  34.5484582
  42.7168029  55.3365550  35.1494573  42.7029598  54.4406644  34.8126870
  43.4340457  55.3436214  35.7832859  44.5694160  55.7702890  37.1947700
  44.3111937  56.6919961  37.1932030  44.0379200  55.3733325  37.8848164
  49.5140348  68.8753678  29.9737785  49.6877226  68.3100100  29.2211638
  50.0069240  69.6754572  29.7917275  35.3317308  60.8868347  38.0401344
  34.7870776  61.6628155  38.1721618  36.2096658  61.2339151  37.8820466
  42.1204925  54.2179930  30.4182143  42.2420836  53.2896577  30.6173030
  41.8306967  54.2318616  29.5060458  44.9896115  51.9034841  33.5548862
  45.0117812  51.9674174  32.6000842  45.4064174  51.0639350  33.7489369
  50.5015521  68.1920442  27.0734684  51.1966425  68.8127135  27.2921998
  50.8438671  67.3415793  27.3487061  36.1183330  60.0138243  40.9331501
  35.3765066  60.1620878  41.5196131  35.7976074  60.2746508  40.0698250
  52.4006944  65.6420147  28.6022014  52.9258268  65.9807420  27.8771334
  52.3129296  64.7067163  28.4185149  44.0626993  69.5554221  40.7311891
  44.3714119  69.3103368  41.6034591  44.8602475  69.7600860  40.2430761
  44.0847605  71.7092131  32.9617268  43.6452595  71.2168509  33.6550124
  44.8355722  71.1665098  32.7209343  36.5639944  67.9003672  32.9641896
  37.3897964  67.6007443  32.5840539  36.2133996  67.1311294  33.4131684
  41.5321477  67.2530140  35.0339569  40.9101486  66.5900845  34.7341797
  42.2026344  67.2791272  34.3513217  34.7648549  65.8189998  33.9230829
  33.9280457  65.3912172  33.7414830  34.7372194  66.0122441  34.8601620
  52.0900850  66.2753051  43.9073212  51.2996394  66.2577190  43.3677712
  51.8534205  66.8141345  44.6622249  41.0934984  65.8034063  28.5098030
  41.2423104  66.4869528  27.8564703  41.9001427  65.7839153  29.0247486
  38.8487617  61.8299241  29.5159099  38.6033659  60.9261571  29.7139309
  39.0183531  61.8316391  28.5738577  46.5384327  52.7022917  38.8983854
  47.0566270  53.4383944  38.5730343  46.1839459  53.0086910  39.7330613
  38.1183264  57.5627598  27.0145260  37.4252509  57.6371953  26.3585296
  37.8735016  56.7987942  27.5366777  46.7896921  49.1223200  34.4184751
  47.0698674  48.4546389  35.0445177  47.5747528  49.3152295  33.9059415
  44.5930389  68.2982194  25.9809777  44.0204356  68.9172381  25.5280249
  45.1663183  68.8481555  26.5149699  48.6820159  54.6296417  38.3515727
  48.0870091  54.9101430  37.6562216  48.3969855  55.1190318  39.1232468
  47.8127649  68.5819344  27.1118359  48.7458322  68.5164905  27.3151235
  47.7250862  69.4175611  26.6532892  50.4415666  67.8985214  24.0722307
  50.3629297  67.5645078  24.9658065  51.2625332  68.3906982  24.0713779
  44.9777188  59.6343006  23.3225830  45.9236292  59.5049214  23.3914248
  44.5991433  58.8957668  23.7995258  50.9499072  51.2999012  33.2852722
  50.7523893  50.9914101  34.1696053  51.5598778  52.0260651  33.4150651
  43.1620105  57.5592983  23.2580715  42.2551560  57.2626095  23.3343429
  43.4396086  57.2622801  22.3915001  34.0798045  58.8799346  33.7079761
  33.7600830  58.0264654  33.4154135  33.5331473  59.0947924  34.4637729
  37.8577953  61.5961787  37.4249268  38.0763963  62.5278895  37.4437302
  38.2703727  61.2369762  38.2104072  44.7782171  52.1029872  29.4124956
  43.9682899  51.7576957  29.7880202  45.4666588  51.7937416  30.0012568
  46.7072719  51.1807919  31.0349253  47.2603758  51.6003373  31.6939276
  46.9442805  50.2543667  31.0772209  41.9318890  54.4179918  23.3992694
  42.7938054  54.7434816  23.6588511  42.1169234  53.6311414  22.8865760
  33.9486305  62.5002258  35.6772883  33.2549777  62.0856210  35.1642837
  34.6959296  62.5422794  35.0806302  50.0851526  53.2908444  30.5427917
  49.5050195  53.9493248  30.1605970  49.8187459  52.4685789  30.1315335
  48.5355092  52.6913502  32.7449237  49.0354871  52.8030037  31.9363556
  49.1790700  52.3874555  33.3850046  35.8623048  62.4320511  33.5538898
  35.8393736  62.5308199  32.6020781  36.1723684  63.2785662  33.8756064
  38.5210426  64.4896666  37.6685512  39.4753679  64.4580609  37.6015444
  38.3222949  64.0287290  38.4835738  39.1109808  63.0597783  40.2356310
  39.9302697  63.5541861  40.2591147  39.3846616  62.1429751  40.2073877
  48.8676404  55.4508535  29.5984265  47.9802259  55.7358185  29.3804460
  49.2830393  55.2902298  28.7511542  52.2190940  55.4755056  33.3138605
  52.9951330  55.9651508  33.5863221  51.4939074  55.9013110  33.7710474
  36.8760654  70.0316286  34.6855710  36.7415122  69.2716687  34.1193708
  36.4592717  70.7557186  34.2184499  48.0119617  65.2153209  23.6932285
  48.7155468  65.4203212  24.3089941  47.2882266  65.7829971  23.9581369
  40.0329780  70.9285603  34.8974153  39.9162164  71.8731035  34.7952843
  39.2122227  70.6259165  35.2859952  49.9206315  65.6535739  25.7430745
  50.7551919  65.2216937  25.5608220  49.7590658  65.4817752  26.6707640
  49.5752207  62.1567852  27.1087085  49.5201011  61.9912123  26.1675529
  48.9498262  62.8643885  27.2649274  34.3644722  57.3935916  40.9348507
  35.0103586  56.8834870  41.4235732  34.1561873  58.1304598  41.5091932
  42.8848333  51.6575961  26.6872403  42.8727002  52.6017801  26.8440674
  43.7771754  51.4746106  26.3931864  41.0584294  71.5813865  38.1130081
  41.9611541  71.6137475  38.4296576  40.8321665  70.6514316  38.1276417
  42.8137896  70.3344851  34.7740160  41.8633527  70.3346713  34.6604532
  43.1170383  69.5877586  34.2576194  46.7000452  48.2518738  30.9418340
  45.9332848  47.6977224  31.0875022  47.1111157  48.3240606  31.8032492
  58.5490590  76.1705390  35.8385922  59.1869000  76.0512137  35.1349262
  58.4311433  77.1186234  35.8973874  55.3580296  76.1232818  35.7747447
  55.0198808  76.0073883  34.8867982  56.2270064  75.7223983  35.7548453
  51.2167112  77.9768294  31.7644338  50.6531977  77.8858231  30.9960626
  51.1019507  77.1568199  32.2446830  55.8400079  77.2767670  41.7333652
  55.8288720  76.8820468  40.8614156  56.0020719  76.5433742  42.3267424
  48.7631544  79.4719486  34.6028558  49.5552836  79.1310311  34.1874858
  49.0028194  79.5814461  35.5230712  56.7966671  81.6439262  27.0758803
  56.1454650  82.2293342  26.6892817  57.5911033  82.1745457  27.1353840
  50.7222298  78.7328399  27.4745937  51.4953174  78.1857386  27.3358813
  51.0747697  79.5972648  27.6860398  52.5607340  80.0604781  40.6812836
  52.2697206  80.9650412  40.5659503  53.1964325  80.1021309  41.3956906
  53.4863547  77.4381630  37.2714196  54.0827119  77.2137652  36.5571159
  53.5438519  76.6966375  37.8739644  53.0588576  74.8921065  25.1064387
  53.3114096  74.3702587  24.3447850  52.1213135  74.7287211  25.2091071
  58.1031858  73.8956844  32.9139130  58.8894948  73.4776267  32.5629547
  58.3670563  74.8002936  33.0820779  58.2741936  79.3329694  27.6127787
  57.6387769  79.4064320  28.3248692  57.9439342  79.9223293  26.9346866
  52.7784864  76.7949171  27.3088762  52.6621122  76.1194075  27.9769846
  52.8887124  76.3081545  26.4920915  55.1216405  76.2559318  31.0135451
  54.7574613  75.7289939  31.7248373  55.9783521  75.8657787  30.8401937
  54.7621892  71.2849218  26.0096800  54.9296295  72.1529454  26.3767271
  54.5719061  71.4476500  25.0858089  57.5197225  79.7466197  37.6762630
  57.2197949  80.6491236  37.5678437  57.1748285  79.4798380  38.5283783
  50.9709707  76.1979994  33.7099334  50.0460203  76.0656208  33.9177026
  51.2194120  76.9774213  34.2069277  54.7411113  73.7406876  26.9943467
  54.6210738  74.1863926  27.8328947  54.0463702  74.0892193  26.4357005
  48.3318518  75.8413267  34.5443124  48.4610899  76.0947746  35.4582535
  47.6515969  76.4340975  34.2247779  52.5018005  86.5110517  30.6433598
  52.4242035  87.4618342  30.7222078  51.8979649  86.1656390  31.3008524
  54.9935235  73.6838383  43.2994965  54.2168569  74.2432303  43.2897829
  55.6325798  74.1695166  43.8209835  60.4396179  74.2128349  27.8223801
  61.3514035  74.4455735  27.6471498  59.9305826  74.7965393  27.2598879
  53.2481607  76.4923836  42.8612932  53.9896292  77.0308880  42.5847755
  52.5418593  77.1190125  43.0184483  58.7236947  78.6352977  41.4585093
  59.1320303  78.1935387  40.7139725  58.0014208  78.0605604  41.7119286
  55.0768017  73.5725583  38.8318650  55.9229212  73.9964997  38.9753299
  55.0166655  72.9159208  39.5257213  59.0465762  79.1954167  35.2137382
  58.4174624  79.3599881  34.5113450  58.6591424  79.6095777  35.9848346
  62.9254994  80.1308605  32.5681746  62.2406032  80.5107506  32.0178779
  63.0098843  80.7403932  33.3013694  58.2267462  71.2329952  40.4899824
  57.9828394  71.9872012  39.9534099  58.5027393  71.6115299  41.3247071
  60.1805925  77.7768564  39.1677089  60.3922820  78.4200324  38.4911470
  60.1335673  76.9430881  38.6999019  57.7832154  70.3886385  36.0713661
  56.9216633  70.6867638  36.3630399  57.8094589  70.6056784  35.1394694
  54.5993723  78.9328575  32.4787467  55.0632069  79.2116278  31.6892090
  54.3350522  78.0312020  32.2960558  51.4917805  78.4800057  35.4167230
  52.0619162  78.9087325  34.7784715  52.0825916  78.1982642  36.1151416
  53.5362610  75.0551728  29.2877032  54.2386653  75.5072771  29.7550959
  53.2043238  74.4135546  29.9156925  51.9842971  73.6463484  43.6628242
  51.3541632  74.3279765  43.8963638  51.8779059  73.5346566  42.7181380
  47.2787944  73.3135280  34.5894166  46.4886997  73.5692809  34.1134276
  47.7699191  74.1283618  34.6946206  61.2951753  80.6540519  37.3399447
  62.1169197  80.2520707  37.0582128  61.2914156  80.5508754  38.2915562
  49.2302689  73.6779860  31.5477643  48.4333852  73.7898554  32.0661138
  49.0028281  74.0166512  30.6818533  55.0608357  80.2024563  39.4960157
  55.1252789  80.6644970  40.3318329  54.3519280  79.5721928  39.6242467
  45.5625646  73.5665771  37.0209157  45.8133685  74.4512781  37.2866733
  46.0985195  73.3870372  36.2484248  69.3857746  76.9979268  33.6884418
  68.6321455  76.4286666  33.5328423  69.5205287  76.9641932  34.6355053
  54.7756374  81.8692670  29.3639137  54.6402049  82.7144206  29.7923985
  55.3166187  82.0711948  28.6005071  51.2623714  67.9484250  46.0253493
  50.8690659  67.3950449  46.7001137  52.0789854  68.2594829  46.4160010
  48.2285772  79.3868108  29.9367063  48.7410292  80.1811359  30.0872627
  48.8808484  78.6894399  29.8700664  50.0380656  82.5033865  32.0189816
  50.2147285  83.4251829  31.8310800  50.8337490  82.1892284  32.4484196
  54.1791675  69.3642129  43.6173749  54.9201388  69.9649282  43.5378212
  54.4109598  68.6219767  43.0591792  49.3233013  74.5498496  41.8951979
  49.2086528  73.6483754  42.1959078  48.4677531  74.7962193  41.5436795
  56.4024851  82.4916237  43.4939480  55.9588705  81.7052615  43.1760384
  57.0642064  82.6795387  42.8283370  51.1611972  84.0212038  38.0200158
  51.7119397  83.8929102  37.2477152  50.3223448  84.3206927  37.6695051
  58.5006089  82.7719037  41.5220881  58.4824564  83.5927918  41.0301150
  59.4226009  82.6473112  41.7471022  54.9579143  80.2863166  42.3644389
  55.4907480  79.5251454  42.1343697  54.4293224  79.9936818  43.1068544
  46.1934688  77.7156763  30.7126633  47.0309910  78.1253771  30.4960341
  46.3712956  76.7756205  30.6826827  58.0899120  75.3831843  26.4010466
  57.5745744  76.1536448  26.6398853  57.8176429  74.7096979  27.0243527
  55.6746231  70.2281544  31.4595704  54.8187828  69.8388394  31.2801343
  56.0873183  70.3073505  30.5995490  57.2045378  67.7627887  35.8587264
  56.7010174  67.7258022  35.0455069  57.4975985  68.6720630  35.9183921
  53.4488264  67.8466617  34.8653446  54.3141261  67.6509426  34.5059335
  53.5165773  67.6176969  35.7922803  63.0633395  78.1364198  28.3363640
  62.2862837  77.7975357  27.8918802  63.7424876  78.1416821  27.6618605
  57.8785424  73.2558935  28.2270247  57.5735559  73.5705085  29.0780390
  58.8315866  73.3340355  28.2697580  56.3231855  79.4149159  29.8763201
  55.7953217  78.6801918  29.5636439  55.8219358  80.1923835  29.6303170
  61.3024702  77.6098179  34.9930248  60.6448376  78.2997441  35.0810376
  62.1065101  77.9994611  35.3364234  51.0550583  70.0768825  32.2369813
  51.6294335  69.8544006  31.5043006  51.6421566  70.1457519  32.9898414
  60.1130160  75.9642552  33.0434189  60.6262042  76.5972544  33.5455899
  60.7631384  75.3643747  32.6777549  51.3820170  72.1073286  26.2565698
  50.5457482  72.4447973  26.5774973  51.2424940  71.9722266  25.3192835
  53.3573251  66.9510074  30.9644882  52.7037663  66.6359091  30.3401497
  53.3153725  66.3285814  31.6904705  54.4684456  77.2329369  22.8798174
  53.5611517  77.0018622  23.0789323  54.9655488  76.4366988  23.0672156
  57.3752535  85.9426876  25.7994860  56.7014233  86.2458573  26.4079818
  57.7618357  86.7455956  25.4500317  56.5910991  73.4392007  35.2892530
  55.6733553  73.6606954  35.1314218  57.0071135  73.5138318  34.4304237
  57.3746039  74.8383423  30.4195210  58.1217858  75.3504820  30.1102332
  57.6437628  74.5167476  31.2799604  55.6472689  77.3341964  27.4022164
  54.7383908  77.0500997  27.4994634  55.6767773  77.7541042  26.5425471
  60.8791957  80.9448553  31.1713332  60.4254284  80.1039463  31.2278522
  60.2485923  81.5809952  31.5088112  59.3224896  82.7825050  32.1063150
  59.6147870  83.3430107  31.3875516  59.8323516  83.0753611  32.8616309
  46.2160859  75.0547478  31.3837367  46.0185259  74.4616839  30.6588433
  45.6607523  74.7499688  32.1013305  54.1957583  74.9470584  33.5031960
  54.2506193  73.9944421  33.4274436  53.3848785  75.1030023  33.9873258
  55.3448777  78.8750707  24.7410243  54.9068207  78.1586566  24.2815880
  56.0859218  79.1026822  24.1795334  52.1349943  73.5647644  31.2622339
  51.3217809  73.8641815  31.6687531  52.6308937  73.1703333  31.9796821
  54.2858521  83.5605401  33.1956603  54.2434700  83.7866247  32.2665135
  55.2021220  83.3268776  33.3442404  57.7324155  74.0289469  40.0937232
  58.0873542  74.2560942  40.9531698  58.3796286  74.3607845  39.4714488
  63.4621892  77.1507904  30.7986561  63.3239790  77.3409500  29.8707751
  63.1058110  77.9127287  31.2554613  51.6264018  71.1366000  36.8783574
  52.2663397  70.9954759  36.1806537  50.7941548  70.8500513  36.5022175
  63.4891271  79.2184431  35.8097833  63.9227778  79.1259721  36.6580887
  64.2022852  79.1941932  35.1717849  52.4024322  80.4368430  32.9918566
  53.1964920  79.9418750  32.7901141  51.6916014  79.9086293  32.6286272
  57.2219166  82.8186526  37.3430934  57.2756188  83.3877462  38.1108649
  56.3533948  82.9888411  36.9784971  48.7107085  74.5811512  29.0678319
  47.7804673  74.5195967  29.2848281  48.8064557  74.0587465  28.2714960
  48.6292634  71.1066325  31.6556560  48.8899452  72.0211658  31.5465721
  49.4509807  70.6390767  31.8053173  50.1017560  72.5204082  38.8255385
  50.7740613  72.3121444  38.1768034  49.2747346  72.3226168  38.3860617
  64.3506821  79.2608132  38.3430718  64.5442711  80.1653943  38.5889993
  64.2507439  78.8015551  39.1769303  56.0043132  69.1466023  40.8421046
  55.3571047  69.8455972  40.7485522  56.7744147  69.5802167  41.2097294
  59.4121930  79.4114875  43.9171599  59.2607436  79.1825427  43.0001683
  59.4026609  80.3685476  43.9302944  56.1807266  76.9846788  38.9017865
  57.1099326  77.1357947  38.7286833  55.7598296  77.0730808  38.0466512
  54.9795598  81.0097452  36.6716403  54.8406683  80.6416236  37.5442341
  54.1910194  81.5245091  36.5000361  55.5743750  86.1106549  28.0141940
  55.7495505  85.6394592  28.8287562  54.8876538  86.7372315  28.2423200
  56.5300813  80.3879055  34.0605241  56.1950645  80.3479825  34.9562891
  56.0304759  79.7223771  33.5875651  50.5045057  75.7946685  39.5857822
  50.3664855  75.0626924  40.1869361  51.4149980  75.7055585  39.3042010
  59.4660005  77.7335089  24.3342301  58.8489175  77.0081917  24.2375353
  58.9976493  78.4944449  23.9909375  53.1327357  75.5066644  39.0741502
  53.8426976  74.8659836  39.0328120  53.0896666  75.7579539  39.9967682
  61.1214136  82.4433997  41.9948081  61.0626682  81.7593218  41.3278664
  61.5233655  83.1852987  41.5428707  51.8456291  72.4931862  40.8937141
  51.3093648  72.0422600  41.5458737  51.2573000  72.6277771  40.1507605
  50.1404835  89.2595911  34.7881800  50.3801433  89.8914435  35.4660818
  49.2974031  88.9083951  35.0747159  51.2558550  71.9520513  23.4563605
  50.3788017  71.8309314  23.0925851  51.7316303  71.1606592  23.2042493
  61.1231543  80.4073581  40.2262061  60.2358322  80.0699503  40.3488459
  61.6930095  79.6756613  40.4630826  42.7760691  76.7397673  33.5505112
  43.4631730  76.4259403  32.9626127  42.6208819  77.6439038  33.2772363
  47.5795413  71.6287870  37.9790136  47.4953601  71.0213539  37.2440546
  46.7578119  72.1196888  37.9799632  54.6532697  85.0675034  37.1923304
  54.5802868  85.8730005  37.7042608  54.2110090  85.2667000  36.3671325
  54.4422476  84.3046804  30.7026125  53.6589998  84.8468484  30.7964350
  55.1415222  84.8220783  31.1020366  65.6048884  75.8181799  34.9878622
  65.5938760  76.7006514  34.6172555  64.7366263  75.4653350  34.7933159
  57.1131380  84.9661868  39.3481462  57.8259353  85.6009333  39.2757364
  56.6221409  85.0625734  38.5321464  58.8348907  78.8713120  30.9198754
  57.9005186  78.9914583  30.7503458  59.0125576  77.9685587  30.6558764
  54.3354095  72.2558816  33.0732015  53.9651883  71.7029857  33.7612921
  54.8313188  71.6516950  32.5207015  62.2221459  74.7130440  31.4548788
  62.6881911  75.5458431  31.3809091  62.6728959  74.2475421  32.1594047
  52.1643294  82.7156311  40.1687033  52.8652753  83.3492794  40.3216427
  51.6938409  83.0571043  39.4082672  60.2897690  81.0574261  28.4534940
  60.5657534  80.9430856  29.3628814  59.4202188  80.6591746  28.4147113
  59.9644580  75.2700919  37.9939584  59.3116030  75.5176826  37.3392036
  60.3424960  74.4565057  37.6602061  56.9251754  85.3060612  32.0967754
  57.1074148  84.4882268  32.5595506  57.7484740  85.5228304  31.6592644
  57.2593919  84.2328797  29.3582802  57.7881686  83.7221252  28.7452964
  57.5222139  83.9171327  30.2228335  56.0132153  76.0120730  44.4805621
  55.3372790  75.9114859  45.1507996  56.8359787  75.8559943  44.9441618
  47.7611012  82.2492666  37.1018136  48.3464449  81.5036354  37.2346040
  47.5635850  82.5596623  37.9854800  50.6149667  85.2843914  32.1180578
  49.9460042  85.7690041  31.6344618  50.4762537  85.5313134  33.0323957
  42.3528667  74.8198266  35.8222579  42.3912766  74.2861857  36.6159697
  41.8468960  74.2933472  35.2033556  54.7554936  87.3187657  38.7163237
  55.3073244  87.4819279  39.4812322  55.0961129  87.9092095  38.0443261
  49.7319429  69.6662807  39.3185121  49.7960755  70.5277638  38.9062519
  49.6686549  69.0536809  38.5857480  49.2071702  71.7385940  42.9658156
  49.8343740  71.3563017  43.5795680  48.3499620  71.5200141  43.3313848
  59.6065810  82.1448915  44.5711891  60.1505714  82.7578873  44.0766846
  59.0252655  82.7028493  45.0878904  45.9837244  73.5462369  28.8976510
  46.2790685  72.6373047  28.8443564  45.0825280  73.5250108  28.5757513
  57.8923323  85.2669633  35.7026919  57.7674462  84.4659373  35.1937864
  58.5502414  85.7615826  35.2140889  49.5131491  71.6218365  34.8804059
  48.7918077  72.2354333  34.7411532  50.3024747  72.1576130  34.8020705
  59.9558231  83.0678653  37.3306469  59.0088567  82.9484004  37.2584796
  60.3041005  82.1801151  37.4132730  52.3157805  68.9572792  41.1544711
  52.8392207  69.2035088  41.9171020  52.0970138  69.7892827  40.7347848
  47.7125086  71.2276466  29.0215836  47.3837792  70.3473845  28.8390942
  48.0664457  71.1724135  29.9092225  56.9604665  82.8631369  33.5310821
  56.8129627  81.9348076  33.7118391  57.7858158  82.8851460  33.0467896
  50.8266909  71.5149436  29.3891313  51.1662982  72.0435357  28.6669922
  51.2739029  71.8529842  30.1649880  60.5638787  83.6859928  34.6175694
  61.4885334  83.4802789  34.4800145  60.3954090  83.4376329  35.5265035
  53.5210350  69.8986487  38.8394381  53.1807170  69.0994300  39.2415061
  52.8149356  70.1988198  38.2671215  54.1726822  66.9835799  37.2921704
  54.9952891  66.5096277  37.1700595  54.4164885  67.7626283  37.7920391
  52.8135056  70.0124058  27.5884606  53.5343419  70.3905310  27.0848323
  52.1900360  70.7312935  27.6919584  56.9566179  70.7169207  28.5242938
  57.1729793  71.5993845  28.2231767  56.4760246  70.3255420  27.7948580
  51.6965400  73.6754920  35.1013683  51.5509981  73.9895223  35.9937964
  51.2190604  74.2939820  34.5484582  53.5561783  70.6657468  35.1494573
  53.5423352  69.7698561  34.8126870  54.2734211  70.6728132  35.7832859
  55.4087914  71.0994808  37.1947700  55.1505692  72.0211879  37.1932030
  54.8772954  70.7025243  37.8848164  60.3534103  84.2045595  29.9737785
  60.5270980  83.6392018  29.2211638  60.8462994  85.0046490  29.7917275
  46.1711063  76.2160264  38.0401344  45.6264531  76.9920072  38.1721618
  47.0490412  76.5631069  37.8820466  52.9598679  69.5471848  30.4182143
  53.0814590  68.6188494  30.6173030  52.6700722  69.5610534  29.5060458
  55.8289870  67.2326759  33.5548862  55.8511566  67.2966092  32.6000842
  56.2457929  66.3931267  33.7489369  66.2073494  76.9682018  31.5928085
  66.6504640  76.2189343  31.1947208  65.3300004  76.9592155  31.2101817
  61.3409275  83.5212360  27.0734684  62.0360180  84.1419052  27.2921998
  61.6832425  82.6707711  27.3487061  46.9577084  75.3430161  40.9331501
  46.2158820  75.4912796  41.5196131  46.6369829  75.6038426  40.0698250
  63.2400698  80.9712065  28.6022014  63.7652022  81.3099338  27.8771334
  63.1523051  80.0359080  28.4185149  54.9020747  84.8846139  40.7311891
  55.2107874  84.6395286  41.6034591  55.6996229  85.0892777  40.2430761
  54.9241359  87.0384048  32.9617268  54.4846349  86.5460427  33.6550124
  55.6749476  86.4957016  32.7209343  47.4033698  83.2295589  32.9641896
  48.2291718  82.9299361  32.5840539  47.0527750  82.4603212  33.4131684
  52.3715231  82.5822058  35.0339569  51.7495241  81.9192763  34.7341797
  53.0420098  82.6083189  34.3513217  45.6042303  81.1481916  33.9230829
  44.7674211  80.7204090  33.7414830  45.5765949  81.3414359  34.8601620
  52.4439759  71.0603846  44.6272075  52.4927914  71.9365968  44.2449845
  52.9862273  70.5181239  44.0543718  62.9294604  81.6044969  43.9073212
  62.1390148  81.5869108  43.3677712  62.6927959  82.1433262  44.6622249
  63.0492479  78.4537435  41.2205941  63.0990484  78.2887443  42.1621464
  62.9406403  77.5864694  40.8303822  51.9328738  81.1325981  28.5098030
  52.0816859  81.8161445  27.8564703  52.7395182  81.1131071  29.0247486
  60.3396242  74.4368363  42.5365248  61.2406105  74.2974828  42.2449245
  60.4144216  74.6022818  43.4763425  54.6739047  71.8135218  41.3818434
  53.8042357  72.1068784  41.1101022  54.9098528  72.3975663  42.1025698
  64.5510676  80.8734377  41.4647962  64.2595485  81.2364357  42.3011423
  63.9382808  80.1601385  41.2861294  65.7506359  78.4387256  33.9850533
  66.5853250  78.8777061  34.1488093  65.8865487  77.9625910  33.1658778
  62.7997865  75.9966991  39.9328020  63.2751986  76.1894638  39.1246872
  61.8763430  76.0526177  39.6871404  49.6881371  77.1591158  29.5159099
  49.4427413  76.2553488  29.7139309  49.8577286  77.1608309  28.5738577
  48.9577019  72.8919516  27.0145260  48.2646264  72.9663871  26.3585296
  48.7128771  72.1279860  27.5366777  55.4324144  83.6274111  25.9809777
  54.8598111  84.2464298  25.5280249  56.0056937  84.1773473  26.5149699
  58.6521404  83.9111261  27.1118359  59.5852077  83.8456823  27.3151235
  58.5644616  84.7467528  26.6532892  61.2809420  83.2277132  24.0722307
  61.2023052  82.8936995  24.9658065  62.1019087  83.7198900  24.0713779
  63.9787611  76.0938871  37.2798626  63.9463931  75.1554872  37.4658309
  64.5888235  76.1722908  36.5464451  55.8170942  74.9634924  23.3225830
  56.7630047  74.8341132  23.3914248  55.4385187  74.2249586  23.7995258
  69.7964161  77.1554878  36.4204662  70.5267550  76.8940166  36.9812366
  69.1871107  76.4183600  36.4606730  55.7009635  79.0152670  44.7826487
  56.6212644  79.1931269  44.9766533  55.6659218  78.0708716  44.6306186
  54.0013859  72.8884900  23.2580715  53.0945315  72.5918013  23.3343429
  54.2789840  72.5914719  22.3915001  44.9191800  74.2091264  33.7079761
  44.5994584  73.3556572  33.4154135  44.3725228  74.4239842  34.4637729
  48.6971707  76.9253705  37.4249268  48.9157717  77.8570813  37.4437302
  49.1097481  76.5661679  38.2104072  55.6175925  67.4321790  29.4124956
  54.8076653  67.0868875  29.7880202  56.3060342  67.1229334  30.0012568
  53.5699573  72.4986911  46.8152017  53.4696300  73.4481268  46.7464108
  53.3521115  72.1705149  45.9428087  52.7712644  69.7471836  23.3992694
  53.6331808  70.0726734  23.6588511  52.9562988  68.9603332  22.8865760
  44.7880060  77.8294175  35.6772883  44.0943531  77.4148128  35.1642837
  45.5353051  77.8714712  35.0806302  53.4330843  75.9284049  45.6317078
  52.9497924  76.7284410  45.8380967  53.5191782  75.9391994  44.6784522
  46.7016802  77.7612429  33.5538898  46.6787490  77.8600116  32.6020781
  47.0117439  78.6077580  33.8756064  49.3604180  79.8188584  37.6685512
  50.3147434  79.7872526  37.6015444  49.1616704  79.3579208  38.4835738
  49.9503562  78.3889700  40.2356310  50.7696451  78.8833779  40.2591147
  50.2240370  77.4721668  40.2073877  47.7154409  85.3608204  34.6855710
  47.5808877  84.6008605  34.1193708  47.2986471  86.0849103  34.2184499
  58.8513372  80.5445127  23.6932285  59.5549222  80.7495130  24.3089941
  58.1276021  81.1121889  23.9581369  59.6811182  76.2954988  29.8134556
  59.6246384  76.7523540  28.9742188  60.2339525  75.5345673  29.6357398
  50.8723535  86.2577521  34.8974153  50.7555919  87.2022953  34.7952843
  50.0515981  85.9551082  35.2859952  60.7600069  80.9827656  25.7430745
  61.5945673  80.5508855  25.5608220  60.5984412  80.8109670  26.6707640
  60.4145962  77.4859770  27.1087085  60.3594765  77.3204041  26.1675529
  59.7892017  78.1935803  27.2649274  45.2038477  72.7227834  40.9348507
  45.8497340  72.2126788  41.4235732  44.9955628  73.4596516  41.5091932
  57.7291869  79.7908682  46.4340647  58.5983028  79.9649334  46.0727282
  57.2498620  80.6103098  46.3116377  53.7242087  66.9867879  26.6872403
  53.7120757  67.9309719  26.8440674  54.6165509  66.8038024  26.3931864
  51.8978049  86.9105783  38.1130081  52.8005296  86.9429393  38.4296576
  51.6715419  85.9806233  38.1276417  53.6531651  85.6636769  34.7740160
  52.7027282  85.6638631  34.6604532  53.9564137  84.9169504  34.2576194
  49.5435968  69.8695451  45.0323521  50.4067429  69.5132256  45.2426846
  48.9701378  69.5309346  45.7198925  69.3884344  91.4997307  35.8385922
  70.0262754  91.3804055  35.1349262  69.2705187  92.4478151  35.8973874
  66.1974051  91.4524736  35.7747447  65.8592562  91.3365800  34.8867982
  67.0663819  91.0515901  35.7548453  62.0560866  93.3060212  31.7644338
  61.4925732  93.2150149  30.9960626  61.9413261  92.4860116  32.2446830
  66.6793834  92.6059587  41.7333652  66.6682474  92.2112386  40.8614156
  66.8414473  91.8725660  42.3267424  59.6025298  94.8011404  34.6028558
  60.3946590  94.4602228  34.1874858  59.8421949  94.9106379  35.5230712
  67.6360425  96.9731180  27.0758803  66.9848405  97.5585260  26.6892817
  68.4304788  97.5037375  27.1353840  61.5616052  94.0620317  27.4745937
  62.3346928  93.5149304  27.3358813  61.9141451  94.9264566  27.6860398
  63.4001095  95.3896699  40.6812836  63.1090961  96.2942330  40.5659503
  64.0358079  95.4313227  41.3956906  64.3257302  92.7673548  37.2714196
  64.9220874  92.5429570  36.5571159  64.3832273  92.0258293  37.8739644
  63.8982330  90.2212983  25.1064387  64.1507851  89.6994504  24.3447850
  62.9606889  90.0579128  25.2091071  68.9425613  89.2248761  32.9139130
  69.7288702  88.8068184  32.5629547  69.2064317  90.1294854  33.0820779
  69.1135690  94.6621612  27.6127787  68.4781523  94.7356238  28.3248692
  68.7833097  95.2515210  26.9346866  74.3434040  89.1623995  33.8172109
  75.0759212  88.5923211  34.0509938  73.5873396  88.7745595  34.2578614
  63.6178619  92.1241089  27.3088762  63.5014877  91.4485992  27.9769846
  63.7280879  91.6373463  26.4920915  65.9610160  91.5851236  31.0135451
  65.5968367  91.0581857  31.7248373  66.8177276  91.1949705  30.8401937
  71.8659460  82.8745569  38.2766717  71.5342785  83.7440980  38.0527932
  71.2705074  82.5581853  38.9560748  65.6015647  86.6141136  26.0096800
  65.7690049  87.4821372  26.3767271  65.4112816  86.7768417  25.0858089
  68.3590980  95.0758115  37.6762630  68.0591703  95.9783153  37.5678437
  68.0142039  94.8090298  38.5283783  61.8103461  91.5271911  33.7099334
  60.8853958  91.3948126  33.9177026  62.0587875  92.3066131  34.2069277
  71.7588124  87.5940655  35.3560067  70.8505001  87.5256063  35.0618828
  71.7075720  88.0712600  36.1841893  65.5804868  89.0698793  26.9943467
  65.4604493  89.5155844  27.8328947  64.8857456  89.4184111  26.4357005
  59.1712272  91.1705185  34.5443124  59.3004654  91.4239664  35.4582535
  58.4909724  91.7632893  34.2247779  63.3411760 101.8402435  30.6433598
  63.2635789 102.7910260  30.7222078  62.7373403 101.4948307  31.3008524
  65.8328990  89.0130300  43.2994965  65.0562324  89.5724221  43.2897829
  66.4719553  89.4987083  43.8209835  73.6249770  85.7957093  37.1337941
  72.9824150  86.0889626  36.4877736  73.1204699  85.6810014  37.9391138
  71.2789934  89.5420266  27.8223801  72.1907790  89.7747653  27.6471498
  70.7699581  90.1257311  27.2598879  64.0875362  91.8215754  42.8612932
  64.8290046  92.3600798  42.5847755  63.3812347  92.4482043  43.0184483
  69.5630701  93.9644894  41.4585093  69.9714057  93.5227305  40.7139725
  68.8407963  93.3897522  41.7119286  65.9161772  88.9017501  38.8318650
  66.7622967  89.3256915  38.9753299  65.8560409  88.2451125  39.5257213
  69.8859516  94.5246085  35.2137382  69.2568379  94.6891799  34.5113450
  69.4985178  94.9387694  35.9848346  73.7648748  95.4600523  32.5681746
  73.0799786  95.8399424  32.0178779  73.8492597  96.0695849  33.3013694
  69.0661217  86.5621869  40.4899824  68.8222149  87.3163930  39.9534099
  69.3421147  86.9407217  41.3247071  71.0199680  93.1060482  39.1677089
  71.2316575  93.7492242  38.4911470  70.9729428  92.2722798  38.6999019
  68.6225909  85.7178302  36.0713661  67.7610388  86.0159556  36.3630399
  68.6488343  85.9348701  35.1394694  65.4387478  94.2620493  32.4787467
  65.9025824  94.5408196  31.6892090  65.1744276  93.3603938  32.2960558
  62.3311559  93.8091974  35.4167230  62.9012916  94.2379243  34.7784715
  62.9219671  93.5274559  36.1151416  64.3756364  90.3843645  29.2877032
  65.0780407  90.8364689  29.7550959  64.0436993  89.7427464  29.9156925
  62.8236726  88.9755402  43.6628242  62.1935386  89.6571683  43.8963638
  62.7172813  88.8638484  42.7181380  58.1181698  88.6427198  34.5894166
  57.3280752  88.8984727  34.1134276  58.6092945  89.4575536  34.6946206
  72.1345508  95.9832437  37.3399447  72.9562951  95.5812624  37.0582128
  72.1307910  95.8800671  38.2915562  60.0696443  89.0071777  31.5477643
  59.2727607  89.1190471  32.0661138  59.8422036  89.3458429  30.6818533
  65.9002111  95.5316480  39.4960157  65.9646544  95.9936888  40.3318329
  65.1913035  94.9013845  39.6242467  56.4019401  88.8957688  37.0209157
  56.6527439  89.7804698  37.2866733  56.9378949  88.7162290  36.2484248
  80.2251501  92.3271186  33.6884418  79.4715209  91.7578584  33.5328423
  80.3599042  92.2933850  34.6355053  65.6150129  97.1984588  29.3639137
  65.4795803  98.0436124  29.7923985  66.1559941  97.4003866  28.6005071
  62.1017468  83.2776168  46.0253493  61.7084414  82.7242366  46.7001137
  62.9183609  83.5886746  46.4160010  59.0679526  94.7160026  29.9367063
  59.5804047  95.5103276  30.0872627  59.7202239  94.0186316  29.8700664
  60.8774411  97.8325782  32.0189816  61.0541039  98.7543747  31.8310800
  61.6731244  97.5184201  32.4484196  65.0185429  84.6934047  43.6173749
  65.7595143  85.2941200  43.5378212  65.2503352  83.9511685  43.0591792
  60.1626767  89.8790414  41.8951979  60.0480282  88.9775671  42.1959078
  59.3071285  90.1254111  41.5436795  67.2418605  97.8208154  43.4939480
  66.7982459  97.0344533  43.1760384  67.9035819  98.0087305  42.8283370
  62.0005726  99.3503956  38.0200158  62.5513151  99.2221019  37.2477152
  61.1617202  99.6498845  37.6695051  69.3399843  98.1010954  41.5220881
  69.3218318  98.9219835  41.0301150  70.2619763  97.9765030  41.7471022
  65.7972897  95.6155084  42.3644389  66.3301234  94.8543372  42.1343697
  65.2686978  95.3228736  43.1068544  68.9642592  80.7215150  37.8938031
  68.6206862  81.6116791  37.8177142  69.3321555  80.5316807  37.0307616
  57.0328443  93.0448680  30.7126633  57.8703665  93.4545689  30.4960341
  57.2106711  92.1048122  30.6826827  68.9292875  90.7123761  26.4010466
  68.4139498  91.4828366  26.6398853  68.6570183  90.0388897  27.0243527
  66.5139986  85.5573462  31.4595704  65.6581582  85.1680312  31.2801343
  66.9266938  85.6365422  30.5995490  68.0439133  83.0919805  35.8587264
  67.5403928  83.0549940  35.0455069  68.3369739  84.0012548  35.9183921
  64.2882019  83.1758535  34.8653446  65.1535015  82.9801343  34.5059335
  64.3559527  82.9468886  35.7922803  73.9027149  93.4656116  28.3363640
  73.1256592  93.1267275  27.8918802  74.5818630  93.4708739  27.6618605
  68.7179178  88.5850853  28.2270247  68.4129314  88.8997002  29.0780390
  69.6709620  88.6632273  28.2697580  67.1625610  94.7441076  29.8763201
  66.6346972  94.0093836  29.5636439  66.6613113  95.5215753  29.6303170
  72.1418456  92.9390097  34.9930248  71.4842130  93.6289358  35.0810376
  72.9458855  93.3286529  35.3364234  61.8944338  85.4060743  32.2369813
  62.4688089  85.1835924  31.5043006  62.4815320  85.4749437  32.9898414
  70.9523915  91.2934470  33.0434189  71.4655797  91.9264461  33.5455899
  71.6025139  90.6935665  32.6777549  62.2213925  87.4365204  26.2565698
  61.3851237  87.7739890  26.5774973  62.0818694  87.3014183  25.3192835
  64.1967005  82.2801992  30.9644882  63.5431418  81.9651009  30.3401497
  64.1547479  81.6577732  31.6904705  65.3078210  92.5621287  22.8798174
  64.4005272  92.3310540  23.0789323  65.8049242  91.7658906  23.0672156
  68.2146289 101.2718794  25.7994860  67.5407988 101.5750491  26.4079818
  68.6012111 102.0747874  25.4500317  67.4304746  88.7683925  35.2892530
  66.5127307  88.9898872  35.1314218  67.8464889  88.8430236  34.4304237
  68.2139793  90.1675341  30.4195210  68.9611612  90.6796738  30.1102332
  68.4831383  89.8459393  31.2799604  66.4866444  92.6633881  27.4022164
  65.5777663  92.3792914  27.4994634  66.5161527  93.0832960  26.5425471
  71.7185711  96.2740471  31.1713332  71.2648038  95.4331381  31.2278522
  71.0879678  96.9101869  31.5088112  70.6618631  87.2032457  32.4013999
  69.9241387  86.6909843  32.7324242  70.9145404  86.7632839  31.5897276
  70.1618650  98.1116968  32.1063150  70.4541625  98.6722025  31.3875516
  70.6717271  98.4045529  32.8616309  70.7630258  79.9808709  32.9955769
  71.0689135  79.1206072  32.7081684  71.4882863  80.5726329  32.7954763
  57.0554614  90.3839396  31.3837367  56.8579014  89.7908756  30.6588433
  56.5001278  90.0791606  32.1013305  65.0351338  90.2762502  33.5031960
  65.0899947  89.3236338  33.4274436  64.2242540  90.4321941  33.9873258
  66.1842531  94.2042625  24.7410243  65.7461961  93.4878484  24.2815880
  66.9252972  94.4318740  24.1795334  62.9743698  88.8939562  31.2622339
  62.1611563  89.1933732  31.6687531  63.4702692  88.4995251  31.9796821
  65.1252275  98.8897319  33.1956603  65.0828454  99.1158165  32.2665135
  66.0414974  98.6560693  33.3442404  68.5717909  89.3581386  40.0937232
  68.9267297  89.5852859  40.9531698  69.2190040  89.6899763  39.4714488
  74.3015646  92.4799822  30.7986561  74.1633545  92.6701418  29.8707751
  73.9451865  93.2419205  31.2554613  62.4657772  86.4657917  36.8783574
  63.1057152  86.3246676  36.1806537  61.6335303  86.1792431  36.5022175
  74.3285026  94.5476349  35.8097833  74.7621532  94.4551638  36.6580887
  75.0416606  94.5233850  35.1717849  63.2418076  95.7660348  32.9918566
  64.0358675  95.2710668  32.7901141  62.5309769  95.2378211  32.6286272
  68.0612921  98.1478443  37.3430934  68.1149943  98.7169380  38.1108649
  67.1927702  98.3180328  36.9784971  59.5500840  89.9103429  29.0678319
  58.6198428  89.8487885  29.2848281  59.6458312  89.3879382  28.2714960
  59.4686389  86.4358242  31.6556560  59.7293206  87.3503576  31.5465721
  60.2903561  85.9682685  31.8053173  60.9411314  87.8495999  38.8255385
  61.6134367  87.6413362  38.1768034  60.1141101  87.6518085  38.3860617
  75.1900575  94.5900050  38.3430718  75.3836465  95.4945860  38.5889993
  75.0901194  94.1307469  39.1769303  66.8436886  84.4757940  40.8421046
  66.1964801  85.1747890  40.7485522  67.6137901  84.9094084  41.2097294
  70.2515684  94.7406793  43.9171599  70.1001190  94.5117344  43.0001683
  70.2420363  95.6977394  43.9302944  67.0201020  92.3138705  38.9017865
  67.9493080  92.4649865  38.7286833  66.5992050  92.4022726  38.0466512
  65.8189352  96.3389370  36.6716403  65.6800438  95.9708154  37.5442341
  65.0303948  96.8537009  36.5000361  66.4137504 101.4398466  28.0141940
  66.5889260 100.9686509  28.8287562  65.7270292 102.0664232  28.2423200
  67.3694567  95.7170972  34.0605241  67.0344400  95.6771742  34.9562891
  66.8698513  95.0515688  33.5875651  61.3438811  91.1238602  39.5857822
  61.2058609  90.3918841  40.1869361  62.2543735  91.0347503  39.3042010
  70.3053759  93.0627007  24.3342301  69.6882930  92.3373835  24.2375353
  69.8370247  93.8236367  23.9909375  63.9721112  90.8358562  39.0741502
  64.6820731  90.1951754  39.0328120  63.9290420  91.0871457  39.9967682
  71.9607891  97.7725915  41.9948081  71.9020437  97.0885135  41.3278664
  72.3627409  98.5144905  41.5428707  62.6850046  87.8223780  40.8937141
  62.1487403  87.3714518  41.5458737  62.0966754  87.9569689  40.1507605
  60.9798589 104.5887829  34.7881800  61.2195188 105.2206353  35.4660818
  60.1367786 104.2375869  35.0747159  62.0952305  87.2812431  23.4563605
  61.2181771  87.1601232  23.0925851  62.5710058  86.4898509  23.2042493
  71.9625298  95.7365499  40.2262061  71.0752077  95.3991421  40.3488459
  72.5323849  95.0048530  40.4630826  53.6154445  92.0689591  33.5505112
  54.3025485  91.7551321  32.9626127  53.4602574  92.9730955  33.2772363
  58.4189167  86.9579787  37.9790136  58.3347356  86.3505457  37.2440546
  57.5971874  87.4488806  37.9799632  65.4926451 100.3966951  37.1923304
  65.4196623 101.2021923  37.7042608  65.0503844 100.5958917  36.3671325
  65.2816231  99.6338721  30.7026125  64.4983753 100.1760402  30.7964350
  65.9808976 100.1512701  31.1020366  68.5912881  85.4433351  33.3460331
  69.0881581  84.6903313  33.0261401  67.8199863  85.4797668  32.7803540
  76.4442638  91.1473716  34.9878622  76.4332515  92.0298432  34.6172555
  75.5760018  90.7945267  34.7933159  67.9525135 100.2953785  39.3481462
  68.6653107 100.9301250  39.2757364  67.4615163 100.3917651  38.5321464
  69.6742662  94.2005038  30.9198754  68.7398940  94.3206501  30.7503458
  69.8519330  93.2977505  30.6558764  65.1747850  87.5850734  33.0732015
  64.8045637  87.0321774  33.7612921  65.6706942  86.9808867  32.5207015
  73.0615213  90.0422357  31.4548788  73.5275665  90.8750349  31.3809091
  73.5122714  89.5767339  32.1594047  63.0037048  98.0448229  40.1687033
  63.7046508  98.6784712  40.3216427  62.5332163  98.3862960  39.4082672
  71.1291444  96.3866179  28.4534940  71.4051288  96.2722773  29.3628814
  70.2595943  95.9883664  28.4147113  71.0331876  82.4102944  35.4939690
  70.1194956  82.6407171  35.6621896  71.4624977  82.4941388  36.3453722
  70.8038334  90.5992836  37.9939584  70.1509785  90.8468744  37.3392036
  71.1818714  89.7856975  37.6602061  67.7645508 100.6352530  32.0967754
  67.9467903  99.8174185  32.5595506  68.5878494 100.8520222  31.6592644
  68.0987674  99.5620715  29.3582802  68.6275440  99.0513169  28.7452964
  68.3615893  99.2463245  30.2228335  66.8525907  91.3412647  44.4805621
  66.1766544  91.2406777  45.1507996  67.6753541  91.1851861  44.9441618
  58.6004766  97.5784584  37.1018136  59.1858203  96.8328272  37.2346040
  58.4029605  97.8888541  37.9854800  61.4543422 100.6135831  32.1180578
  60.7853797 101.0981959  31.6344618  61.3156291 100.8605052  33.0323957
  53.1922421  90.1490184  35.8222579  53.2306521  89.6153775  36.6159697
  52.6862714  89.6225390  35.2033556  65.5948690 102.6479575  38.7163237
  66.1466998 102.8111196  39.4812322  65.9354884 103.2384013  38.0443261
  60.5713183  84.9954725  39.3185121  60.6354510  85.8569556  38.9062519
  60.5080304  84.3828726  38.5857480  60.0465456  87.0677857  42.9658156
  60.6737495  86.6854935  43.5795680  59.1893375  86.8492059  43.3313848
  70.4459565  97.4740832  44.5711891  70.9899469  98.0870791  44.0766846
  69.8646409  98.0320411  45.0878904  56.8230999  88.8754286  28.8976510
  57.1184440  87.9664965  28.8443564  55.9219035  88.8542026  28.5757513
  68.7317078 100.5961550  35.7026919  68.6068217  99.7951290  35.1937864
  69.3896169 101.0907744  35.2140889  60.3525246  86.9510283  34.8804059
  59.6311832  87.5646251  34.7411532  61.1418502  87.4868048  34.8020705
  70.7951986  98.3970570  37.3306469  69.8482321  98.2775922  37.2584796
  71.1434759  97.5093069  37.4132730  63.1551559  84.2864709  41.1544711
  63.6785961  84.5327006  41.9171020  62.9363893  85.1184744  40.7347848
  58.5518840  86.5568384  29.0215836  58.2231547  85.6765763  28.8390942
  58.9058211  86.5016053  29.9092225  67.7998419  98.1923287  33.5310821
  67.6523382  97.2639994  33.7118391  68.6251913  98.2143377  33.0467896
  61.6660664  86.8441354  29.3891313  62.0056736  87.3727275  28.6669922
  62.1132784  87.1821760  30.1649880  71.4032541  99.0151845  34.6175694
  72.3279089  98.8094707  34.4800145  71.2347844  98.7668247  35.5265035
  64.3604104  85.2278405  38.8394381  64.0200925  84.4286218  39.2415061
  63.6543111  85.5280115  38.2671215  65.0120576  82.3127717  37.2921704
  65.8346645  81.8388195  37.1700595  65.2558640  83.0918201  37.7920391
  63.6528811  85.3415975  27.5884606  64.3737173  85.7197228  27.0848323
  63.0294115  86.0604852  27.6919584  67.7959934  86.0461124  28.5242938
  68.0123548  86.9285762  28.2231767  67.3154001  85.6547338  27.7948580
  62.5359155  89.0046838  35.1013683  62.3903736  89.3187141  35.9937964
  62.0584359  89.6231738  34.5484582  64.3955538  85.9949386  35.1494573
  64.3817107  85.0990479  34.8126870  65.1127966  86.0020049  35.7832859
  66.2481669  86.4286726  37.1947700  65.9899446  87.3503796  37.1932030
  65.7166709  86.0317160  37.8848164  71.1927857  99.5337513  29.9737785
  71.3664735  98.9683935  29.2211638  71.6856749 100.3338408  29.7917275
  57.0104817  91.5452182  38.0401344  56.4658285  92.3211990  38.1721618
  57.8884167  91.8922986  37.8820466  63.7992434  84.8763766  30.4182143
  63.9208345  83.9480412  30.6173030  63.5094476  84.8902452  29.5060458
  66.6683624  82.5618676  33.5548862  66.6905321  82.6258009  32.6000842
  67.0851683  81.7223185  33.7489369  77.0467248  92.2973936  31.5928085
  77.4898394  91.5481261  31.1947208  76.1693759  92.2884072  31.2101817
  72.1803030  98.8504277  27.0734684  72.8753934  99.4710970  27.2921998
  72.5226180  97.9999629  27.3487061  57.7970839  90.6722078  40.9331501
  57.0552575  90.8204714  41.5196131  57.4763583  90.9330344  40.0698250
  74.0794453  96.3003983  28.6022014  74.6045777  96.6391256  27.8771334
  73.9916805  95.3650998  28.4185149  65.7414502 100.2138056  40.7311891
  66.0501628  99.9687203  41.6034591  66.5389984 100.4184695  40.2430761
  65.7635114 102.3675966  32.9617268  65.3240104 101.8752345  33.6550124
  66.5143231 101.8248934  32.7209343  58.2427453  98.5587507  32.9641896
  59.0685473  98.2591279  32.5840539  57.8921505  97.7895129  33.4131684
  63.2108986  97.9113975  35.0339569  62.5888995  97.2484680  34.7341797
  63.8813853  97.9375107  34.3513217  56.4436058  96.4773833  33.9230829
  55.6067966  96.0496008  33.7414830  56.4159703  96.6706277  34.8601620
  63.2833513  86.3895763  44.6272075  63.3321669  87.2657886  44.2449845
  63.8256027  85.8473156  44.0543718  73.7688359  96.9336886  43.9073212
  72.9783903  96.9161025  43.3677712  73.5321714  97.4725180  44.6622249
  73.8886234  93.7829353  41.2205941  73.9384239  93.6179360  42.1621464
  73.7800157  92.9156612  40.8303822  62.7722493  96.4617899  28.5098030
  62.9210613  97.1453363  27.8564703  63.5788936  96.4422989  29.0247486
  71.1789996  89.7660281  42.5365248  72.0799859  89.6266746  42.2449245
  71.2537971  89.9314736  43.4763425  65.5132802  87.1427136  41.3818434
  64.6436111  87.4360702  41.1101022  65.7492282  87.7267581  42.1025698
  75.3904431  96.2026294  41.4647962  75.0989239  96.5656275  42.3011423
  74.7776562  95.4893303  41.2861294  76.5900113  93.7679174  33.9850533
  77.4247005  94.2068978  34.1488093  76.7259242  93.2917827  33.1658778
  73.6391619  91.3258909  39.9328020  74.1145741  91.5186555  39.1246872
  72.7157184  91.3818095  39.6871404  60.5275126  92.4883076  29.5159099
  60.2821168  91.5845406  29.7139309  60.6971040  92.4900227  28.5738577
  68.2171836  83.3606753  38.8983854  68.7353779  84.0967779  38.5730343
  67.8626968  83.6670746  39.7330613  59.7970773  88.2211434  27.0145260
  59.1040018  88.2955789  26.3585296  59.5522525  87.4571777  27.5366777
  68.4684430  79.7807035  34.4184751  68.7486183  79.1130224  35.0445177
  69.2535037  79.9736131  33.9059415  66.2717898  98.9566029  25.9809777
  65.6991865  99.5756216  25.5280249  66.8450692  99.5065391  26.5149699
  72.3393288  88.2024669  38.1656326  73.2910711  88.3022767  38.1868550
  72.1696738  87.4102938  38.6754410  70.3607668  85.2880252  38.3515727
  69.7657600  85.5685265  37.6562216  70.0757364  85.7774153  39.1232468
  69.4915158  99.2403179  27.1118359  70.4245831  99.1748741  27.3151235
  69.4038371 100.0759446  26.6532892  72.1203175  98.5569049  24.0722307
  72.0416806  98.2228913  24.9658065  72.9412841  99.0490817  24.0713779
  74.8181366  91.4230789  37.2798626  74.7857686  90.4846789  37.4658309
  75.4281989  91.5014825  36.5464451  66.6564697  90.2926842  23.3225830
  67.6023801  90.1633050  23.3914248  66.2778942  89.5541504  23.7995258
  74.9675854  88.2141832  37.3256909  74.4514903  87.4300289  37.1386838
  75.8515803  87.8860549  37.4903428  72.6286581  81.9582848  33.2852722
  72.4311402  81.6497936  34.1696053  73.2386287  82.6844487  33.4150651
  80.6357916  92.4846796  36.4204662  81.3661304  92.2232084  36.9812366
  80.0264861  91.7475518  36.4606730  78.7173213  90.6254658  37.0179114
  77.9906376  90.4910623  36.4095605  78.3020500  90.9331487  37.8235832
  66.5403389  94.3444588  44.7826487  67.4606399  94.5223187  44.9766533
  66.5052972  93.4000633  44.6306186  64.8407614  88.2176818  23.2580715
  63.9339069  87.9209931  23.3343429  65.1183595  87.9206636  22.3915001
  55.7585554  89.5383182  33.7079761  55.4388339  88.6848490  33.4154135
  55.2118982  89.7531760  34.4637729  59.5365462  92.2545623  37.4249268
  59.7551472  93.1862730  37.4437302  59.9491236  91.8953597  38.2104072
  66.4569680  82.7613708  29.4124956  65.6470408  82.4160793  29.7880202
  67.1454097  82.4521252  30.0012568  68.3860228  81.8391755  31.0349253
  68.9391266  82.2587208  31.6939276  68.6230314  80.9127503  31.0772209
  64.4093327  87.8278828  46.8152017  64.3090054  88.7773185  46.7464108
  64.1914869  87.4997067  45.9428087  63.6106398  85.0763753  23.3992694
  64.4725562  85.4018652  23.6588511  63.7956743  84.2895249  22.8865760
  55.6273814  93.1586093  35.6772883  54.9337286  92.7440046  35.1642837
  56.3746805  93.2006630  35.0806302  71.7639035  83.9492280  30.5427917
  71.1837704  84.6077084  30.1605970  71.4974968  83.1269624  30.1315335
  70.2142601  83.3497337  32.7449237  70.7142380  83.4613872  31.9363556
  70.8578209  83.0458390  33.3850046  64.2724597  91.2575967  45.6317078
  63.7891679  92.0576327  45.8380967  64.3585536  91.2683912  44.6784522
  57.5410557  93.0904347  33.5538898  57.5181245  93.1892034  32.6020781
  57.8511193  93.9369498  33.8756064  60.1997935  95.1480502  37.6685512
  61.1541188  95.1164444  37.6015444  60.0010458  94.6871126  38.4835738
  60.7897317  93.7181618  40.2356310  61.6090206  94.2125697  40.2591147
  61.0634124  92.8013586  40.2073877  70.5463913  86.1092370  29.5984265
  69.6589768  86.3942021  29.3804460  70.9617902  85.9486134  28.7511542
  73.8978449  86.1338891  33.3138605  74.6738839  86.6235344  33.5863221
  73.1726583  86.5596945  33.7710474  76.3351008  86.8466510  34.3712545
  76.9295499  86.6062246  33.6605853  76.4077591  86.1273641  34.9986082
  58.5548163 100.6900121  34.6855710  58.4202631  99.9300522  34.1193708
  58.1380226 101.4141021  34.2184499  69.6907126  95.8737045  23.6932285
  70.3942977  96.0787047  24.3089941  68.9669775  96.4413807  23.9581369
  70.5204937  91.6246906  29.8134556  70.4640138  92.0815458  28.9742188
  71.0733279  90.8637591  29.6357398  74.3309743  87.4136638  30.6384675
  74.0746677  87.0133274  31.4692883  73.7062611  88.1280432  30.5134814
  78.6422080  90.1532711  33.1455966  78.0821638  90.2225901  33.9187528
  78.0365584  89.9773696  32.4255463  61.7117289 101.5869438  34.8974153
  61.5949673 102.5314871  34.7952843  60.8909736 101.2843000  35.2859952
  71.5993824  96.3119574  25.7430745  72.4339428  95.8800773  25.5608220
  71.4378167  96.1401588  26.6707640  71.2539716  92.8151687  27.1087085
  71.1988520  92.6495959  26.1675529  70.6285771  93.5227720  27.2649274
  56.0432231  88.0519752  40.9348507  56.6891095  87.5418706  41.4235732
  55.8349382  88.7888433  41.5091932  68.5685623  95.1200599  46.4340647
  69.4376783  95.2941252  46.0727282  68.0892375  95.9395016  46.3116377
  64.5635841  82.3159796  26.6872403  64.5514511  83.2601636  26.8440674
  65.4559263  82.1329942  26.3931864  62.7371803 102.2397700  38.1130081
  63.6399050 102.2721310  38.4296576  62.5109174 101.3098151  38.1276417
  64.4925405 100.9928687  34.7740160  63.5421036 100.9930548  34.6604532
  64.7957892 100.2461421  34.2576194  68.3787961  78.9102573  30.9418340
  67.6120357  78.3561060  31.0875022  68.7898666  78.9824442  31.8032492
  60.3829722  85.1987369  45.0323521  61.2461184  84.8424174  45.2426846
  59.8095133  84.8601264  45.7198925  80.2278099 106.8289225  35.8385922
  80.8656509 106.7095973  35.1349262  80.1098942 107.7770069  35.8973874
  77.0367805 106.7816653  35.7747447  76.6986317 106.6657718  34.8867982
  77.9057573 106.3807818  35.7548453  72.8954621 108.6352130  31.7644338
  72.3319486 108.5442067  30.9960626  72.7807016 107.8152034  32.2446830
  77.5187588 107.9351505  41.7333652  77.5076229 107.5404303  40.8614156
  77.6808228 107.2017578  42.3267424  70.4419053 110.1303321  34.6028558
  71.2340345 109.7894146  34.1874858  70.6815703 110.2398296  35.5230712
  78.4754180 112.3023097  27.0758803  77.8242159 112.8877178  26.6892817
  79.2698542 112.8329292  27.1353840  72.4009807 109.3912235  27.4745937
  73.1740683 108.8441222  27.3358813  72.7535206 110.2556484  27.6860398
  74.2394849 110.7188617  40.6812836  73.9484715 111.6234248  40.5659503
  74.8751834 110.7605144  41.3956906  75.1651056 108.0965465  37.2714196
  75.7614628 107.8721488  36.5571159  75.2226028 107.3550211  37.8739644
  74.7376085 105.5504901  25.1064387  74.9901605 105.0286422  24.3447850
  73.8000644 105.3871046  25.2091071  79.7819367 104.5540679  32.9139130
  80.5682457 104.1360102  32.5629547  80.0458072 105.4586771  33.0820779
  79.9529445 109.9913529  27.6127787  79.3175278 110.0648156  28.3248692
  79.6226851 110.5807128  26.9346866  85.1827795 104.4915912  33.8172109
  85.9152967 103.9215129  34.0509938  84.4267150 104.1037513  34.2578614
  74.4572373 107.4533007  27.3088762  74.3408631 106.7777910  27.9769846
  74.5674633 106.9665381  26.4920915  76.8003914 106.9143154  31.0135451
  76.4362122 106.3873775  31.7248373  77.6571030 106.5241623  30.8401937
  82.7053215  98.2037486  38.2766717  82.3736540  99.0732897  38.0527932
  82.1098828  97.8873770  38.9560748  76.4409401 101.9433053  26.0096800
  76.6083804 102.8113290  26.3767271  76.2506570 102.1060335  25.0858089
  79.1984734 110.4050032  37.6762630  78.8985458 111.3075071  37.5678437
  78.8535794 110.1382216  38.5283783  72.6497216 106.8563829  33.7099334
  71.7247712 106.7240043  33.9177026  72.8981629 107.6358048  34.2069277
  82.5981878 102.9232572  35.3560067  81.6898756 102.8547981  35.0618828
  82.5469474 103.4004517  36.1841893  76.4198622 104.3990711  26.9943467
  76.2998247 104.8447762  27.8328947  75.7251211 104.7476029  26.4357005
  70.0106027 106.4997103  34.5443124  70.1398408 106.7531582  35.4582535
  69.3303478 107.0924811  34.2247779  74.1805514 117.1694353  30.6433598
  74.1029544 118.1202178  30.7222078  73.5767158 116.8240225  31.3008524
  76.6722744 104.3422218  43.2994965  75.8956078 104.9016138  43.2897829
  77.3113307 104.8279001  43.8209835  84.4643525 101.1249011  37.1337941
  83.8217905 101.4181544  36.4877736  83.9598453 101.0101931  37.9391138
  82.1183688 104.8712184  27.8223801  83.0301544 105.1039571  27.6471498
  81.6093335 105.4549228  27.2598879  74.9269116 107.1507671  42.8612932
  75.6683801 107.6892715  42.5847755  74.2206102 107.7773960  43.0184483
  80.4024456 109.2936812  41.4585093  80.8107812 108.8519222  40.7139725
  79.6801717 108.7189439  41.7119286  76.7555526 104.2309419  38.8318650
  77.6016721 104.6548832  38.9753299  76.6954164 103.5743043  39.5257213
  80.7253271 109.8538003  35.2137382  80.0962133 110.0183717  34.5113450
  80.3378933 110.2679612  35.9848346  84.6042503 110.7892440  32.5681746
  83.9193541 111.1691342  32.0178779  84.6886352 111.3987767  33.3013694
  79.9054971 101.8913787  40.4899824  79.6615903 102.6455848  39.9534099
  80.1814902 102.2699135  41.3247071  81.8593434 108.4352399  39.1677089
  82.0710329 109.0784159  38.4911470  81.8123182 107.6014716  38.6999019
  79.4619663 101.0470220  36.0713661  78.6004142 101.3451474  36.3630399
  79.4882098 101.2640619  35.1394694  76.2781232 109.5912411  32.4787467
  76.7419578 109.8700114  31.6892090  76.0138031 108.6895855  32.2960558
  73.1705314 109.1383892  35.4167230  73.7406671 109.5671161  34.7784715
  73.7613425 108.8566477  36.1151416  75.2150119 105.7135563  29.2877032
  75.9174162 106.1656607  29.7550959  74.8830747 105.0719382  29.9156925
  73.6630480 104.3047320  43.6628242  73.0329141 104.9863600  43.8963638
  73.5566568 104.1930401  42.7181380  68.9575452 103.9719116  34.5894166
  68.1674506 104.2276644  34.1134276  69.4486700 104.7867454  34.6946206
  82.9739262 111.3124355  37.3399447  83.7956706 110.9104542  37.0582128
  82.9701665 111.2092589  38.2915562  70.9090198 104.3363695  31.5477643
  70.1121361 104.4482389  32.0661138  70.6815790 104.6750347  30.6818533
  76.7395865 110.8608398  39.4960157  76.8040298 111.3228805  40.3318329
  76.0306789 110.2305763  39.6242467  67.2413155 104.2249606  37.0209157
  67.4921194 105.1096616  37.2866733  67.7772704 104.0454208  36.2484248
  91.0645255 107.6563103  33.6884418  90.3108963 107.0870501  33.5328423
  91.1992796 107.6225768  34.6355053  76.4543883 112.5276506  29.3639137
  76.3189558 113.3728041  29.7923985  76.9953696 112.7295783  28.6005071
  72.9411223  98.6068085  46.0253493  72.5478168  98.0534284  46.7001137
  73.7577363  98.9178664  46.4160010  69.9073281 110.0451944  29.9367063
  70.4197801 110.8395194  30.0872627  70.5595993 109.3478234  29.8700664
  71.7168165 113.1617700  32.0189816  71.8934794 114.0835665  31.8310800
  72.5124999 112.8476119  32.4484196  75.8579184 100.0225965  43.6173749
  76.5988897 100.6233118  43.5378212  76.0897107  99.2803602  43.0591792
  71.0020522 105.2082332  41.8951979  70.8874037 104.3067589  42.1959078
  70.1465040 105.4546029  41.5436795  78.0812360 113.1500072  43.4939480
  77.6376214 112.3636451  43.1760384  78.7429573 113.3379223  42.8283370
  72.8399481 114.6795874  38.0200158  73.3906906 114.5512937  37.2477152
  72.0010957 114.9790763  37.6695051  80.1793598 113.4302872  41.5220881
  80.1612073 114.2511753  41.0301150  81.1013518 113.3056947  41.7471022
  76.6366652 110.9447002  42.3644389  77.1694989 110.1835290  42.1343697
  76.1080733 110.6520653  43.1068544  79.8036347  96.0507067  37.8938031
  79.4600616  96.9408709  37.8177142  80.1715309  95.8608725  37.0307616
  67.8722197 108.3740598  30.7126633  68.7097419 108.7837606  30.4960341
  68.0500465 107.4340040  30.6826827  79.7686629 106.0415679  26.4010466
  79.2533253 106.8120283  26.6398853  79.4963938 105.3680815  27.0243527
  77.3533740 100.8865379  31.4595704  76.4975337 100.4972230  31.2801343
  77.7660692 100.9657340  30.5995490  78.8832887  98.4211723  35.8587264
  78.3797683  98.3841858  35.0455069  79.1763494  99.3304465  35.9183921
  75.1275773  98.5050452  34.8653446  75.9928770  98.3093261  34.5059335
  75.1953282  98.2760804  35.7922803  84.7420904 108.7948033  28.3363640
  83.9650346 108.4559193  27.8918802  85.4212385 108.8000656  27.6618605
  79.5572933 103.9142771  28.2270247  79.2523068 104.2288920  29.0780390
  80.5103375 103.9924191  28.2697580  78.0019364 110.0732994  29.8763201
  77.4740726 109.3385754  29.5636439  77.5006867 110.8507670  29.6303170
  82.9812210 108.2682014  34.9930248  82.3235885 108.9581276  35.0810376
  83.7852610 108.6578446  35.3364234  72.7338092 100.7352660  32.2369813
  73.3081844 100.5127842  31.5043006  73.3209075 100.8041355  32.9898414
  81.7917669 106.6226387  33.0434189  82.3049551 107.2556379  33.5455899
  82.4418893 106.0227583  32.6777549  73.0607679 102.7657121  26.2565698
  72.2244991 103.1031808  26.5774973  72.9212449 102.6306101  25.3192835
  75.0360760  97.6093909  30.9644882  74.3825172  97.2942926  30.3401497
  74.9941234  96.9869650  31.6904705  76.1471965 107.8913204  22.8798174
  75.2399026 107.6602458  23.0789323  76.6442997 107.0950824  23.0672156
  78.2698500 104.0975843  35.2892530  77.3521062 104.3190790  35.1314218
  78.6858644 104.1722153  34.4304237  79.0533548 105.4967258  30.4195210
  79.8005367 106.0088656  30.1102332  79.3225137 105.1751311  31.2799604
  77.3260198 107.9925799  27.4022164  76.4171417 107.7084832  27.4994634
  77.3555282 108.4124878  26.5425471  82.5579465 111.6032389  31.1713332
  82.1041793 110.7623299  31.2278522  81.9273432 112.2393787  31.5088112
  81.5012385 102.5324375  32.4013999  80.7635142 102.0201761  32.7324242
  81.7539159 102.0924756  31.5897276  81.0012405 113.4408885  32.1063150
  81.2935379 114.0013942  31.3875516  81.5111025 113.7337446  32.8616309
  81.6024012  95.3100627  32.9955769  81.9082889  94.4497990  32.7081684
  82.3276617  95.9018247  32.7954763  67.8948368 105.7131313  31.3837367
  67.6972768 105.1200674  30.6588433  67.3395032 105.4083523  32.1013305
  75.8745092 105.6054420  33.5031960  75.9293702 104.6528256  33.4274436
  75.0636294 105.7613859  33.9873258  77.0236286 109.5334543  24.7410243
  76.5855716 108.8170402  24.2815880  77.7646727 109.7610658  24.1795334
  73.8137452 104.2231479  31.2622339  73.0005318 104.5225650  31.6687531
  74.3096446 103.8287168  31.9796821  75.9646030 114.2189236  33.1956603
  75.9222209 114.4450083  32.2665135  76.8808729 113.9852611  33.3442404
  79.4111664 104.6873304  40.0937232  79.7661051 104.9144777  40.9531698
  80.0583795 105.0191681  39.4714488  85.1409401 107.8091740  30.7986561
  85.0027299 107.9993336  29.8707751  84.7845619 108.5711123  31.2554613
  73.3051527 101.7949835  36.8783574  73.9450906 101.6538594  36.1806537
  72.4729057 101.5084348  36.5022175  85.1678780 109.8768267  35.8097833
  85.6015287 109.7843556  36.6580887  85.8810361 109.8525767  35.1717849
  74.0811831 111.0952265  32.9918566  74.8752429 110.6002586  32.7901141
  73.3703523 110.5670129  32.6286272  78.9006675 113.4770361  37.3430934
  78.9543697 114.0461297  38.1108649  78.0321457 113.6472246  36.9784971
  70.3894594 105.2395347  29.0678319  69.4592182 105.1779803  29.2848281
  70.4852066 104.7171300  28.2714960  70.3080143 101.7650160  31.6556560
  70.5686961 102.6795493  31.5465721  71.1297316 101.2974603  31.8053173
  71.7805069 103.1787917  38.8255385  72.4528122 102.9705279  38.1768034
  70.9534855 102.9810003  38.3860617  86.0294330 109.9191968  38.3430718
  86.2230220 110.8237778  38.5889993  85.9294948 109.4599387  39.1769303
  77.6830641  99.8049858  40.8421046  77.0358556 100.5039808  40.7485522
  78.4531656 100.2386002  41.2097294  81.0909439 110.0698710  43.9171599
  80.9394945 109.8409262  43.0001683  81.0814118 111.0269312  43.9302944
  77.8594775 107.6430623  38.9017865  78.7886835 107.7941783  38.7286833
  77.4385805 107.7314644  38.0466512  76.6583107 111.6681287  36.6716403
  76.5194192 111.3000072  37.5442341  75.8697703 112.1828927  36.5000361
  77.2531259 116.7690384  28.0141940  77.4283014 116.2978427  28.8287562
  76.5664047 117.3956150  28.2423200  78.2088322 111.0462890  34.0605241
  77.8738154 111.0063660  34.9562891  77.7092268 110.3807606  33.5875651
  72.1832566 106.4530520  39.5857822  72.0452364 105.7210759  40.1869361
  73.0937489 106.3639420  39.3042010  81.1447513 108.3918924  24.3342301
  80.5276684 107.6665753  24.2375353  80.6764002 109.1528285  23.9909375
  74.8114866 106.1650479  39.0741502  75.5214485 105.5243672  39.0328120
  74.7684175 106.4163374  39.9967682  82.8001645 113.1017833  41.9948081
  82.7414191 112.4177053  41.3278664  83.2021164 113.8436823  41.5428707
  73.5243800 103.1515697  40.8937141  72.9881157 102.7006436  41.5458737
  72.9360509 103.2861606  40.1507605  71.8192344 119.9179747  34.7881800
  72.0588942 120.5498271  35.4660818  70.9761540 119.5667787  35.0747159
  72.9346059 102.6104349  23.4563605  72.0575526 102.4893150  23.0925851
  73.4103812 101.8190427  23.2042493  82.8019052 111.0657417  40.2262061
  81.9145831 110.7283339  40.3488459  83.3717603 110.3340448  40.4630826
  64.4548200 107.3981508  33.5505112  65.1419239 107.0843239  32.9626127
  64.2996328 108.3022873  33.2772363  69.2582922 102.2871705  37.9790136
  69.1741110 101.6797375  37.2440546  68.4365628 102.7780723  37.9799632
  76.3320206 115.7258869  37.1923304  76.2590377 116.5313841  37.7042608
  75.8897599 115.9250835  36.3671325  76.1209985 114.9630639  30.7026125
  75.3377507 115.5052319  30.7964350  76.8202731 115.4804619  31.1020366
  79.4306636 100.7725269  33.3460331  79.9275335 100.0195231  33.0261401
  78.6593617 100.8089585  32.7803540  87.2836393 106.4765634  34.9878622
  87.2726269 107.3590350  34.6172555  86.4153772 106.1237185  34.7933159
  78.7918889 115.6245703  39.3481462  79.5046862 116.2593168  39.2757364
  78.3008918 115.7209569  38.5321464  80.5136416 109.5296956  30.9198754
  79.5792695 109.6498418  30.7503458  80.6913085 108.6269423  30.6558764
  76.0141604 102.9142652  33.0732015  75.6439392 102.3613692  33.7612921
  76.5100697 102.3100785  32.5207015  83.9008968 105.3714275  31.4548788
  84.3669420 106.2042267  31.3809091  84.3516468 104.9059257  32.1594047
  73.8430803 113.3740147  40.1687033  74.5440262 114.0076630  40.3216427
  73.3725918 113.7154878  39.4082672  81.9685199 111.7158096  28.4534940
  82.2445043 111.6014691  29.3628814  81.0989697 111.3175581  28.4147113
  81.8725630  97.7394862  35.4939690  80.9588710  97.9699089  35.6621896
  82.3018732  97.8233306  36.3453722  81.6432089 105.9284754  37.9939584
  80.9903539 106.1760661  37.3392036  82.0212469 105.1148892  37.6602061
  78.6039263 115.9644447  32.0967754  78.7861657 115.1466103  32.5595506
  79.4272249 116.1812139  31.6592644  78.9381428 114.8912632  29.3582802
  79.4669195 114.3805087  28.7452964  79.2009648 114.5755163  30.2228335
  77.6919662 106.6704565  44.4805621  77.0160299 106.5698694  45.1507996
  78.5147296 106.5143779  44.9441618  69.4398521 112.9076502  37.1018136
  70.0251958 112.1620190  37.2346040  69.2423359 113.2180458  37.9854800
  72.2937176 115.9427749  32.1180578  71.6247551 116.4273877  31.6344618
  72.1550046 116.1896969  33.0323957  64.0316176 105.4782102  35.8222579
  64.0700275 104.9445693  36.6159697  63.5256468 104.9517307  35.2033556
  76.4342445 117.9771493  38.7163237  76.9860753 118.1403114  39.4812322
  76.7748638 118.5675930  38.0443261  71.4106938 100.3246642  39.3185121
  71.4748264 101.1861473  38.9062519  71.3474058  99.7120644  38.5857480
  70.8859210 102.3969775  42.9658156  71.5131249 102.0146852  43.5795680
  70.0287129 102.1783977  43.3313848  81.2853319 112.8032750  44.5711891
  81.8293223 113.4162708  44.0766846  80.7040164 113.3612328  45.0878904
  67.6624753 104.2046204  28.8976510  67.9578194 103.2956882  28.8443564
  66.7612789 104.1833943  28.5757513  79.5710832 115.9253468  35.7026919
  79.4461971 115.1243208  35.1937864  80.2289923 116.4199661  35.2140889
  71.1919000 102.2802201  34.8804059  70.4705586 102.8938168  34.7411532
  71.9812256 102.8159965  34.8020705  81.6345740 113.7262488  37.3306469
  80.6876076 113.6067839  37.2584796  81.9828514 112.8384986  37.4132730
  73.9945314  99.6156627  41.1544711  74.5179716  99.8618924  41.9171020
  73.7757647 100.4476662  40.7347848  69.3912595 101.8860302  29.0215836
  69.0625301 101.0057681  28.8390942  69.7451966 101.8307970  29.9092225
  78.6392174 113.5215204  33.5310821  78.4917136 112.5931912  33.7118391
  79.4645667 113.5435295  33.0467896  72.5054418 102.1733271  29.3891313
  72.8450490 102.7019193  28.6669922  72.9526538 102.5113678  30.1649880
  82.2426296 114.3443763  34.6175694  83.1672843 114.1386624  34.4800145
  82.0741599 114.0960164  35.5265035  75.1997859 100.5570322  38.8394381
  74.8594679  99.7578135  39.2415061  74.4936865 100.8572033  38.2671215
  75.8514331  97.6419635  37.2921704  76.6740400  97.1680113  37.1700595
  76.0952394  98.4210118  37.7920391  74.4922565 100.6707893  27.5884606
  75.2130928 101.0489146  27.0848323  73.8687869 101.3896770  27.6919584
  78.6353688 101.3753042  28.5242938  78.8517302 102.2577680  28.2231767
  78.1547755 100.9839255  27.7948580  73.3752909 104.3338755  35.1013683
  73.2297490 104.6479058  35.9937964  72.8978113 104.9523656  34.5484582
  75.2349292 101.3241303  35.1494573  75.2210861 100.4282397  34.8126870
  75.9521720 101.3311967  35.7832859  77.0875423 101.7578643  37.1947700
  76.8293201 102.6795714  37.1932030  76.5560463 101.3609078  37.8848164
  82.0321612 114.8629431  29.9737785  82.2058489 114.2975853  29.2211638
  82.5250503 115.6630325  29.7917275  67.8498572 106.8744100  38.0401344
  67.3052040 107.6503908  38.1721618  68.7277921 107.2214904  37.8820466
  74.6386188 100.2055684  30.4182143  74.7602099  99.2772330  30.6173030
  74.3488231 100.2194369  29.5060458  77.5077379  97.8910594  33.5548862
  77.5299075  97.9549927  32.6000842  77.9245438  97.0515103  33.7489369
  87.8861003 107.6265853  31.5928085  88.3292149 106.8773179  31.1947208
  87.0087513 107.6175990  31.2101817  83.0196784 114.1796195  27.0734684
  83.7147689 114.8002888  27.2921998  83.3619934 113.3291546  27.3487061
  68.6364593 106.0013996  40.9331501  67.8946329 106.1496631  41.5196131
  68.3157338 106.2622262  40.0698250  84.9188207 111.6295900  28.6022014
  85.4439531 111.9683173  27.8771334  84.8310560 110.6942916  28.4185149
  76.5808256 115.5429974  40.7311891  76.8895383 115.2979121  41.6034591
  77.3783738 115.7476613  40.2430761  76.6028868 117.6967884  32.9617268
  76.1633858 117.2044262  33.6550124  77.3536985 117.1540851  32.7209343
  69.0821207 113.8879425  32.9641896  69.9079227 113.5883196  32.5840539
  68.7315259 113.1187047  33.4131684  74.0502740 113.2405893  35.0339569
  73.4282750 112.5776598  34.7341797  74.7207607 113.2667025  34.3513217
  67.2829812 111.8065751  33.9230829  66.4461720 111.3787925  33.7414830
  67.2553458 111.9998194  34.8601620  74.1227268 101.7187681  44.6272075
  74.1715423 102.5949804  44.2449845  74.6649782 101.1765074  44.0543718
  84.6082113 112.2628804  43.9073212  83.8177657 112.2452943  43.3677712
  84.3715468 112.8017098  44.6622249  84.7279988 109.1121271  41.2205941
  84.7777993 108.9471278  42.1621464  84.6193912 108.2448530  40.8303822
  73.6116247 111.7909816  28.5098030  73.7604368 112.4745281  27.8564703
  74.4182691 111.7714906  29.0247486  82.0183751 105.0952199  42.5365248
  82.9193614 104.9558663  42.2449245  82.0931725 105.2606653  43.4763425
  76.3526556 102.4719053  41.3818434  75.4829866 102.7652619  41.1101022
  76.5886037 103.0559498  42.1025698  86.2298185 111.5318212  41.4647962
  85.9382994 111.8948193  42.3011423  85.6170317 110.8185220  41.2861294
  87.4293868 109.0971092  33.9850533  88.2640759 109.5360896  34.1488093
  87.5652996 108.6209745  33.1658778  84.4785374 106.6550827  39.9328020
  84.9539495 106.8478473  39.1246872  83.5550939 106.7110012  39.6871404
  71.3668880 107.8174994  29.5159099  71.1214922 106.9137324  29.7139309
  71.5364795 107.8192144  28.5738577  79.0565590  98.6898670  38.8983854
  79.5747534  99.4259697  38.5730343  78.7020723  98.9962664  39.7330613
  70.6364528 103.5503351  27.0145260  69.9433773 103.6247706  26.3585296
  70.3916280 102.7863695  27.5366777  79.3078184  95.1098953  34.4184751
  79.5879938  94.4422142  35.0445177  80.0928791  95.3028048  33.9059415
  77.1111653 114.2857947  25.9809777  76.5385620 114.9048134  25.5280249
  77.6844446 114.8357308  26.5149699  83.1787043 103.5316587  38.1656326
  84.1304465 103.6314684  38.1868550  83.0090493 102.7394855  38.6754410
  81.2001422 100.6172170  38.3515727  80.6051354 100.8977183  37.6562216
  80.9151119 101.1066071  39.1232468  80.3308912 114.5695097  27.1118359
  81.2639586 114.5040658  27.3151235  80.2432125 115.4051364  26.6532892
  85.6575120 106.7522706  37.2798626  85.6251440 105.8138707  37.4658309
  86.2675744 106.8306743  36.5464451  77.4958451 105.6218759  23.3225830
  78.4417556 105.4924968  23.3914248  77.1172696 104.8833421  23.7995258
  85.8069609 103.5433750  37.3256909  85.2908657 102.7592206  37.1386838
  86.6909557 103.2152466  37.4903428  83.4680336  97.2874765  33.2852722
  83.2705157  96.9789854  34.1696053  84.0780041  98.0136404  33.4150651
  91.4751670 107.8138713  36.4204662  92.2055059 107.5524001  36.9812366
  90.8658616 107.0767435  36.4606730  89.5566967 105.9546576  37.0179114
  88.8300131 105.8202541  36.4095605  89.1414254 106.2623404  37.8235832
  77.3797144 109.6736506  44.7826487  78.3000153 109.8515105  44.9766533
  77.3446727 108.7292551  44.6306186  75.6801368 103.5468736  23.2580715
  74.7732824 103.2501848  23.3343429  75.9577349 103.2498554  22.3915001
  66.5979309 104.8675099  33.7079761  66.2782093 104.0140407  33.4154135
  66.0512737 105.0823677  34.4637729  70.3759216 107.5837540  37.4249268
  70.5945226 108.5154648  37.4437302  70.7884990 107.2245515  38.2104072
  77.2963434  98.0905625  29.4124956  76.4864162  97.7452710  29.7880202
  77.9847851  97.7813169  30.0012568  79.2253982  97.1683672  31.0349253
  79.7785021  97.5879126  31.6939276  79.4624069  96.2419420  31.0772209
  75.2487082 103.1570746  46.8152017  75.1483808 104.1065103  46.7464108
  75.0308624 102.8288985  45.9428087  74.4500153 100.4055671  23.3992694
  75.3119317 100.7310569  23.6588511  74.6350497  99.6187167  22.8865760
  66.4667569 108.4878011  35.6772883  65.7731040 108.0731963  35.1642837
  67.2140560 108.5298547  35.0806302  82.6032789  99.2784197  30.5427917
  82.0231459  99.9369001  30.1605970  82.3368722  98.4561542  30.1315335
  81.0536356  98.6789255  32.7449237  81.5536134  98.7905790  31.9363556
  81.6971964  98.3750308  33.3850046  75.1118352 106.5867885  45.6317078
  74.6285433 107.3868245  45.8380967  75.1979291 106.5975830  44.6784522
  68.3804311 108.4196264  33.5538898  68.3574999 108.5183952  32.6020781
  68.6904948 109.2661415  33.8756064  71.0391689 110.4772419  37.6685512
  71.9934943 110.4456362  37.6015444  70.8404213 110.0163043  38.4835738
  71.6291071 109.0473536  40.2356310  72.4483960 109.5417614  40.2591147
  71.9027879 108.1305504  40.2073877  81.3857667 101.4384288  29.5984265
  80.4983522 101.7233938  29.3804460  81.8011657 101.2778051  28.7511542
  84.7372204 101.4630809  33.3138605  85.5132594 101.9527261  33.5863221
  84.0120338 101.8888863  33.7710474  87.1744762 102.1758428  34.3712545
  87.7689253 101.9354164  33.6605853  87.2471346 101.4565559  34.9986082
  69.3941918 116.0192039  34.6855710  69.2596386 115.2592440  34.1193708
  68.9773980 116.7432939  34.2184499  81.3598691 106.9538824  29.8134556
  81.3033893 107.4107375  28.9742188  81.9127034 106.1929508  29.6357398
  85.1703497 102.7428556  30.6384675  84.9140431 102.3425191  31.4692883
  84.5456365 103.4572350  30.5134814  89.4815835 105.4824629  33.1455966
  88.9215393 105.5517818  33.9187528  88.8759338 105.3065614  32.4255463
  72.5511044 116.9161356  34.8974153  72.4343428 117.8606788  34.7952843
  71.7303490 116.6134918  35.2859952  82.4387578 111.6411492  25.7430745
  83.2733182 111.2092690  25.5608220  82.2771921 111.4693505  26.6707640
  82.0933471 108.1443605  27.1087085  82.0382274 107.9787876  26.1675529
  81.4679526 108.8519638  27.2649274  66.8825986 103.3811669  40.9348507
  67.5284849 102.8710623  41.4235732  66.6743137 104.1180351  41.5091932
  79.4079378 110.4492517  46.4340647  80.2770537 110.6233169  46.0727282
  78.9286129 111.2686934  46.3116377  75.4029596  97.6451714  26.6872403
  75.3908266  98.5893554  26.8440674  76.2953018  97.4621859  26.3931864
  73.5765558 117.5689618  38.1130081  74.4792805 117.6013228  38.4296576
  73.3502928 116.6390069  38.1276417  75.3319160 116.3220604  34.7740160
  74.3814791 116.3222466  34.6604532  75.6351646 115.5753339  34.2576194
  79.2181715  94.2394491  30.9418340  78.4514111  93.6852977  31.0875022
  79.6292420  94.3116359  31.8032492  71.2223477 100.5279286  45.0323521
  72.0854938 100.1716091  45.2426846  70.6488887 100.1893181  45.7198925
  91.0671853 122.1581143  35.8385922  91.7050263 122.0387890  35.1349262
  90.9492696 123.1061987  35.8973874  87.8761560 122.1108571  35.7747447
  87.5380071 121.9949636  34.8867982  88.7451328 121.7099736  35.7548453
  88.3581343 123.2643423  41.7333652  88.3469983 122.8696221  40.8614156
  88.5201982 122.5309495  42.3267424  81.2812807 125.4595239  34.6028558
  82.0734099 125.1186064  34.1874858  81.5209458 125.5690214  35.5230712
  85.0788604 126.0480534  40.6812836  84.7878470 126.9526165  40.5659503
  85.7145588 126.0897062  41.3956906  86.0044811 123.4257383  37.2714196
  86.6008383 123.2013405  36.5571159  86.0619782 122.6842128  37.8739644
  93.5446969 113.5329404  38.2766717  93.2130294 114.4024815  38.0527932
  92.9492583 113.2165688  38.9560748  83.4890970 122.1855747  33.7099334
  82.5641467 122.0531961  33.9177026  83.7375384 122.9649966  34.2069277
  93.4375633 118.2524490  35.3560067  92.5292510 118.1839899  35.0618828
  93.3863229 118.7296435  36.1841893  80.8499781 121.8289020  34.5443124
  80.9792163 122.0823499  35.4582535  80.1697233 122.4216728  34.2247779
  87.5116498 119.6714136  43.2994965  86.7349833 120.2308056  43.2897829
  88.1507062 120.1570919  43.8209835  95.3037279 116.4540929  37.1337941
  94.6611659 116.7473462  36.4877736  94.7992208 116.3393849  37.9391138
  85.7662871 122.4799589  42.8612932  86.5077555 123.0184633  42.5847755
  85.0599856 123.1065878  43.0184483  91.2418210 124.6228730  41.4585093
  91.6501566 124.1811140  40.7139725  90.5195472 124.0481357  41.7119286
  87.5949280 119.5601336  38.8318650  88.4410476 119.9840750  38.9753299
  87.5347918 118.9034961  39.5257213  90.7448726 117.2205705  40.4899824
  90.5009658 117.9747765  39.9534099  91.0208656 117.5991052  41.3247071
  90.3013418 116.3762138  36.0713661  89.4397897 116.6743391  36.3630399
  90.3275852 116.5932537  35.1394694  84.0099068 124.4675810  35.4167230
  84.5800425 124.8963078  34.7784715  84.6007180 124.1858395  36.1151416
  84.5024235 119.6339237  43.6628242  83.8722895 120.3155518  43.8963638
  84.3960322 119.5222319  42.7181380  79.7969207 119.3011033  34.5894166
  79.0068261 119.5568562  34.1134276  80.2880454 120.1159371  34.6946206
  81.7483952 119.6655613  31.5477643  80.9515116 119.7774307  32.0661138
  81.5209545 120.0042265  30.6818533  87.5789620 126.1900316  39.4960157
  87.6434053 126.6520723  40.3318329  86.8700544 125.5597681  39.6242467
  78.0806910 119.5541524  37.0209157  78.3314948 120.4388534  37.2866733
  78.6166458 119.3746125  36.2484248  83.7804977 113.9360003  46.0253493
  83.3871923 113.3826202  46.7001137  84.5971118 114.2470582  46.4160010
  86.6972938 115.3517882  43.6173749  87.4382652 115.9525035  43.5378212
  86.9290861 114.6095520  43.0591792  81.8414276 120.5374249  41.8951979
  81.7267791 119.6359507  42.1959078  80.9858794 120.7837946  41.5436795
  83.6793235 130.0087791  38.0200158  84.2300660 129.8804855  37.2477152
  82.8404711 130.3082680  37.6695051  87.4760406 126.2738919  42.3644389
  88.0088743 125.5127207  42.1343697  86.9474487 125.9812571  43.1068544
  90.6430101 111.3798985  37.8938031  90.2994371 112.2700627  37.8177142
  91.0109064 111.1900643  37.0307616  88.1927495 116.2157297  31.4595704
  87.3369091 115.8264147  31.2801343  88.6054447 116.2949258  30.5995490
  89.7226642 113.7503640  35.8587264  89.2191437 113.7133775  35.0455069
  90.0157248 114.6596383  35.9183921  85.9669527 113.8342370  34.8653446
  86.8322524 113.6385179  34.5059335  86.0347036 113.6052722  35.7922803
  83.5731847 116.0644578  32.2369813  84.1475598 115.8419759  31.5043006
  84.1602829 116.1333272  32.9898414  85.8754514 112.9385827  30.9644882
  85.2218927 112.6234844  30.3401497  85.8334988 112.3161567  31.6904705
  89.1092255 119.4267760  35.2892530  88.1914816 119.6482707  35.1314218
  89.5252398 119.5014071  34.4304237  92.4417767 110.6392544  32.9955769
  92.7476644 109.7789908  32.7081684  93.1670372 111.2310165  32.7954763
  78.7342123 121.0423231  31.3837367  78.5366523 120.4492592  30.6588433
  78.1788787 120.7375441  32.1013305  86.7138847 120.9346337  33.5031960
  86.7687456 119.9820174  33.4274436  85.9030049 121.0905777  33.9873258
  84.6531207 119.5523397  31.2622339  83.8399072 119.8517568  31.6687531
  85.1490201 119.1579086  31.9796821  90.2505418 120.0165222  40.0937232
  90.6054806 120.2436695  40.9531698  90.8977549 120.3483598  39.4714488
  84.1445281 117.1241753  36.8783574  84.7844661 116.9830512  36.1806537
  83.3122812 116.8376266  36.5022175  81.1473898 117.0942078  31.6556560
  81.4080715 118.0087411  31.5465721  81.9691070 116.6266520  31.8053173
  82.6198823 118.5079835  38.8255385  83.2921876 118.2997197  38.1768034
  81.7928610 118.3101921  38.3860617  88.5224395 115.1341776  40.8421046
  87.8752310 115.8331725  40.7485522  89.2925410 115.5677920  41.2097294
  88.6988529 122.9722541  38.9017865  89.6280589 123.1233700  38.7286833
  88.2779559 123.0606561  38.0466512  87.4976861 126.9973205  36.6716403
  87.3587947 126.6291989  37.5442341  86.7091457 127.5120845  36.5000361
  83.0226320 121.7822438  39.5857822  82.8846118 121.0502677  40.1869361
  83.9331244 121.6931338  39.3042010  85.6508621 121.4942397  39.0741502
  86.3608239 120.8535589  39.0328120  85.6077929 121.7455292  39.9967682
  84.3637555 118.4807615  40.8937141  83.8274912 118.0298353  41.5458737
  83.7754263 118.6153524  40.1507605  75.2941954 122.7273426  33.5505112
  75.9812994 122.4135156  32.9626127  75.1390083 123.6314791  33.2772363
  80.0976676 117.6163623  37.9790136  80.0134865 117.0089292  37.2440546
  79.2759383 118.1072641  37.9799632  90.2700390 116.1017186  33.3460331
  90.7669090 115.3487149  33.0261401  89.4987372 116.1381503  32.7803540
  86.8535359 118.2434569  33.0732015  86.4833146 117.6905610  33.7612921
  87.3494451 117.6392703  32.5207015  84.6824557 128.7032064  40.1687033
  85.3834017 129.3368547  40.3216427  84.2119672 129.0446796  39.4082672
  92.7119385 113.0686780  35.4939690  91.7982465 113.2991007  35.6621896
  93.1412486 113.1525224  36.3453722  92.4825843 121.2576672  37.9939584
  91.8297294 121.5052579  37.3392036  92.8606223 120.4440810  37.6602061
  88.5313416 121.9996483  44.4805621  87.8554053 121.8990612  45.1507996
  89.3541050 121.8435697  44.9441618  80.2792275 128.2368419  37.1018136
  80.8645712 127.4912107  37.2346040  80.0817114 128.5472376  37.9854800
  74.8709930 120.8074020  35.8222579  74.9094030 120.2737610  36.6159697
  74.3650223 120.2809225  35.2033556  82.2500692 115.6538560  39.3185121
  82.3142019 116.5153391  38.9062519  82.1867813 115.0412562  38.5857480
  81.7252965 117.7261693  42.9658156  82.3525004 117.3438770  43.5795680
  80.8680884 117.5075895  43.3313848  78.5018508 119.5338122  28.8976510
  78.7971949 118.6248800  28.8443564  77.6006544 119.5125861  28.5757513
  82.0312755 117.6094118  34.8804059  81.3099340 118.2230086  34.7411532
  82.8206011 118.1451883  34.8020705  84.8339068 114.9448545  41.1544711
  85.3573470 115.1910841  41.9171020  84.6151402 115.7768580  40.7347848
  80.2306349 117.2152219  29.0215836  79.9019055 116.3349598  28.8390942
  80.5845720 117.1599888  29.9092225  86.0391613 115.8862240  38.8394381
  85.6988434 115.0870053  39.2415061  85.3330620 116.1863951  38.2671215
  86.6908085 112.9711552  37.2921704  87.5134154 112.4972030  37.1700595
  86.9346149 113.7502036  37.7920391  84.2146664 119.6630673  35.1013683
  84.0691245 119.9770976  35.9937964  83.7371868 120.2815573  34.5484582
  86.0743047 116.6533221  35.1494573  86.0604616 115.7574314  34.8126870
  86.7915475 116.6603885  35.7832859  87.9269177 117.0870561  37.1947700
  87.6686955 118.0087632  37.1932030  87.3954218 116.6900996  37.8848164
  78.6892326 122.2036017  38.0401344  78.1445794 122.9795825  38.1721618
  79.5671676 122.5506822  37.8820466  85.4779943 115.5347601  30.4182143
  85.5995854 114.6064247  30.6173030  85.1881985 115.5486287  29.5060458
  88.3471133 113.2202512  33.5548862  88.3692830 113.2841845  32.6000842
  88.7639192 112.3807020  33.7489369  79.4758348 121.3305914  40.9331501
  78.7340084 121.4788549  41.5196131  79.1551092 121.5914179  40.0698250
  78.1223567 127.1357669  33.9230829  77.2855475 126.7079843  33.7414830
  78.0947212 127.3290112  34.8601620  84.9621022 117.0479599  44.6272075
  85.0109178 117.9241721  44.2449845  85.5043536 116.5056992  44.0543718
  92.8577505 120.4244116  42.5365248  93.7587368 120.2850581  42.2449245
  92.9325480 120.5898571  43.4763425  87.1920311 117.8010971  41.3818434
  86.3223620 118.0944537  41.1101022  87.4279791 118.3851416  42.1025698
  89.8959345 114.0190588  38.8983854  90.4141288 114.7551615  38.5730343
  89.5414477 114.3254581  39.7330613  90.1471939 110.4390870  34.4184751
  90.4273692 109.7714059  35.0445177  90.9322546 110.6319966  33.9059415
  94.0180797 118.8608504  38.1656326  94.9698220 118.9606602  38.1868550
  93.8484247 118.0686773  38.6754410  92.0395177 115.9464088  38.3515727
  91.4445109 116.2269100  37.6562216  91.7544873 116.4357989  39.1232468
  96.6463363 118.8725668  37.3256909  96.1302412 118.0884124  37.1386838
  97.5303312 118.5444384  37.4903428  94.3074090 112.6166683  33.2852722
  94.1098911 112.3081771  34.1696053  94.9173796 113.3428322  33.4150651
  88.2190898 125.0028423  44.7826487  89.1393908 125.1807022  44.9766533
  88.1840481 124.0584469  44.6306186  77.4373063 120.1967017  33.7079761
  77.1175848 119.3432325  33.4154135  76.8906491 120.4115595  34.4637729
  81.2152971 122.9129458  37.4249268  81.4338981 123.8446566  37.4437302
  81.6278745 122.5537432  38.2104072  88.1357189 113.4197543  29.4124956
  87.3257917 113.0744628  29.7880202  88.8241605 113.1105087  30.0012568
  90.0647737 112.4975590  31.0349253  90.6178775 112.9171043  31.6939276
  90.3017823 111.5711338  31.0772209  86.0880836 118.4862664  46.8152017
  85.9877563 119.4357021  46.7464108  85.8702378 118.1580903  45.9428087
  77.3061323 123.8169928  35.6772883  76.6124795 123.4023881  35.1642837
  78.0534314 123.8590465  35.0806302  91.8930110 114.0081173  32.7449237
  92.3929889 114.1197707  31.9363556  92.5365718 113.7042226  33.3850046
  85.9512106 121.9159802  45.6317078  85.4679188 122.7160163  45.8380967
  86.0373045 121.9267747  44.6784522  79.2198066 123.7488182  33.5538898
  79.1968754 123.8475869  32.6020781  79.5298702 124.5953333  33.8756064
  81.8785444 125.8064337  37.6685512  82.8328697 125.7748279  37.6015444
  81.6797967 125.3454961  38.4835738  82.4684826 124.3765453  40.2356310
  83.2877715 124.8709532  40.2591147  82.7421633 123.4597421  40.2073877
  77.7219740 118.7103587  40.9348507  78.3678604 118.2002541  41.4235732
  77.5136891 119.4472269  41.5091932  90.0575470 109.5686408  30.9418340
  89.2907866 109.0144895  31.0875022  90.4686175 109.6408277  31.8032492
  82.0617231 115.8571204  45.0323521  82.9248693 115.5008009  45.2426846
  81.4882642 115.5185099  45.7198925  28.6032874  13.4620367  28.7193387
  28.5445420  12.7779587  28.0523971  29.0052392  14.2039357  28.2674013
  27.0884548  13.1635284  31.2957198  27.6324452  13.7765243  30.8012153
  26.5071393  13.7214863  31.8124211  30.4113342  12.6231338  30.6318519
  29.6208886  12.6055477  30.0923018  30.1746697  13.1619632  31.3867556
  32.0329414  11.8920746  28.1893269  31.7414222  12.2550727  29.0256730
  31.4201545  11.1787755  28.0106601  25.2110607  10.8095051  33.1585954
  26.0801766  10.9835703  32.7972589  24.7317358  11.6289468  33.0361683
  36.8703082  22.5183677  22.5631229  37.5081492  22.3990424  21.8594569
  36.7523925  23.4664521  22.6219181  33.6792789  22.4711105  22.4992754
  33.3411300  22.3552170  21.6113288  34.5482557  22.0702270  22.4793760
  34.1612572  23.6245957  28.4578959  34.1501212  23.2298755  27.5859463
  34.3233211  22.8912029  29.0512730  27.0844036  25.8197773  21.3273865
  27.8765328  25.4788598  20.9120164  27.3240686  25.9292748  22.2476018
  30.8819833  26.4083069  27.4058143  30.5909699  27.3128700  27.2904809
  31.5176817  26.4499596  28.1202213  31.8076040  23.7859917  23.9959503
  32.4039612  23.5615940  23.2816466  31.8651011  23.0444663  24.5984951
  41.8252778  20.1810364  20.5417415  42.5577950  19.6109581  20.7755245
  41.0692134  19.7931965  20.9823921  39.3478198  13.8931938  25.0012024
  39.0161523  14.7627349  24.7773239  38.7523812  13.5768222  25.6806054
  35.8409718  26.0944484  24.4007937  35.5410441  26.9969523  24.2923744
  35.4960777  25.8276667  25.2529090  39.2406862  18.6127024  22.0805374
  38.3323739  18.5442433  21.7864135  39.1894457  19.0898969  22.9087200
  30.8230498  32.8588805  17.3678904  30.7454527  33.8096630  17.4467385
  30.2192141  32.5134677  18.0253831  33.3147727  20.0316670  30.0240271
  32.5381061  20.5910590  30.0143136  33.9538290  20.5173453  30.5455141
  41.1068508  16.8143463  23.8583248  40.4642888  17.1075996  23.2123043
  40.6023436  16.6996383  24.6636445  31.5694100  22.8402123  29.5858238
  32.3108784  23.3787167  29.3093062  30.8631085  23.4668412  29.7429790
  37.0449439  24.9831264  28.1830400  37.4532795  24.5413674  27.4385032
  36.3226701  24.4083891  28.4364593  33.3980509  19.9203871  25.5563957
  34.2441704  20.3443284  25.6998606  33.3379147  19.2637495  26.2502520
  37.3678254  25.5432454  21.9382689  36.7387116  25.7078169  21.2358757
  36.9803916  25.9574064  22.7093653  41.2467486  26.4786892  19.2927052
  40.5618524  26.8585794  18.7424086  41.3311335  27.0882219  20.0259000
  36.5479955  17.5808239  27.2145130  36.3040887  18.3350299  26.6779406
  36.8239885  17.9593587  28.0492377  38.5018417  24.1246851  25.8922396
  38.7135313  24.7678611  25.2156777  38.4548166  23.2909168  25.4244326
  29.8130297  24.8278344  22.1412537  30.3831654  25.2565612  21.5030022
  30.4038409  24.5460929  22.8396723  30.3055463  19.9941772  30.3873548
  29.6754124  20.6758052  30.6208945  30.1991551  19.8824853  29.4426687
  39.6164245  27.0018807  24.0644753  40.4381689  26.5998994  23.7827435
  39.6126648  26.8987041  25.0160869  33.3820849  26.5502850  26.2205464
  33.4465281  27.0123257  27.0563636  32.6731773  25.9200215  26.3487774
  47.7070238  23.3457555  20.4129725  46.9533947  22.7764953  20.2573729
  47.8417780  23.3120220  21.3600359  29.5836206  14.2962537  32.7498799
  29.1903152  13.7428736  33.4246444  30.4002346  14.6073116  33.1405317
  28.3593149  28.8512152  18.7435122  28.5359777  29.7730117  18.5556106
  29.1549982  28.5370571  19.1729502  32.5004167  15.7120416  30.3419056
  33.2413880  16.3127570  30.2623518  32.7322090  14.9698054  29.7837098
  27.6445505  20.8976784  28.6197286  27.5299020  19.9962041  28.9204385
  26.7890023  21.1440480  28.2682102  34.7237343  28.8394524  30.2184786
  34.2801197  28.0530903  29.9005691  35.3854556  29.0273675  29.5528677
  29.4824464  30.3690326  24.7445465  30.0331889  30.2407389  23.9722459
  28.6435940  30.6685215  24.3940358  36.8218581  29.1197324  28.2466187
  36.8037056  29.9406205  27.7546457  37.7438501  28.9951399  28.4716329
  33.2791635  26.6341453  29.0889696  33.8119972  25.8729742  28.8589004
  32.7505716  26.3415105  29.8313850  39.6237194  23.9576466  21.7175554
  38.9660868  24.6475728  21.8055683  40.4277593  24.3472898  22.0609541
  38.4342653  22.3120839  19.7679496  38.9474534  22.9450831  20.2701206
  39.0843876  21.7122035  19.4022856  34.9123483  19.7870295  22.0137836
  33.9946045  20.0085242  21.8559524  35.3283627  19.8616605  21.1549544
  39.2004449  27.2926841  17.8958639  38.7466776  26.4517750  17.9523829
  38.5698416  27.9288239  18.2333419  37.6437388  29.1303337  18.8308457
  37.9360362  29.6908394  18.1120822  38.1536009  29.4231898  19.5861616
  32.6071013  29.9083688  19.9201910  32.5647192  30.1344535  18.9910442
  33.5233712  29.6747063  20.0687711  36.0536647  20.3767756  26.8182539
  36.4086035  20.6039229  27.6777005  36.7008778  20.7086133  26.1959794
  41.7834384  23.4986192  17.5231868  41.6452283  23.6887788  16.5953057
  41.4270603  24.2605575  17.9799919  41.8103764  25.5662719  22.5343140
  42.2440270  25.4738008  23.3826194  42.5235344  25.5420219  21.8963156
  35.5431658  29.1664813  24.0676240  35.5968681  29.7355749  24.8353956
  34.6746440  29.3366698  23.7030277  28.4230052  18.8682369  25.5500691
  29.0953105  18.6599731  24.9013340  27.5959838  18.6704455  25.1105924
  42.6719313  25.6086419  25.0676025  42.8655203  26.5132230  25.3135300
  42.5719931  25.1493838  25.9014610  34.3255624  15.4944310  27.5666352
  33.6783539  16.1934260  27.4730829  35.0956639  15.9280454  27.9342601
  37.7334422  25.7593162  30.6416906  37.5819928  25.5303714  29.7246989
  37.7239101  26.7163764  30.6548251  34.5019758  23.3325075  25.6263172
  35.4311818  23.4836235  25.4532139  34.0810788  23.4209096  24.7711819
  33.3008090  27.3575739  23.3961710  33.1619176  26.9894524  24.2687648
  32.5122686  27.8723379  23.2245667  33.8956242  32.4584836  14.7387246
  34.0707998  31.9872879  15.5532869  33.2089030  33.0850602  14.9668507
  34.8513305  26.7357342  20.7850547  34.5163138  26.6958112  21.6808197
  34.3517251  26.0702058  20.3120958  28.8257549  22.1424972  26.3103129
  28.6877347  21.4105211  26.9114668  29.7362473  22.0533872  26.0287316
  31.4539850  21.8544931  25.7986808  32.1639468  21.2138124  25.7573427
  31.4109158  22.1057826  26.7212989  39.4426628  28.7912285  28.7193387
  39.3839175  28.1071505  28.0523971  39.8446147  29.5331275  28.2674013
  30.1668784  18.8410149  27.6182448  29.6306141  18.3900888  28.2704044
  29.5785492  18.9756058  26.8752912  28.4617327  35.6074199  21.5127106
  28.7013925  36.2392723  22.1906125  27.6186524  35.2562239  21.7992466
  39.4444036  26.7551869  26.9507367  38.5570814  26.4177790  27.0733766
  40.0142587  26.0234900  27.1876133  32.9745189  31.4153321  23.9168610
  32.9015361  32.2208292  24.4287915  32.5322582  31.6145287  23.0916632
  32.7634969  30.6525091  17.4271432  31.9802491  31.1946771  17.5209656
  33.4627714  31.1699071  17.8265673  43.9261376  22.1660086  21.7123929
  43.9151253  23.0484801  21.3417862  43.0578756  21.8131637  21.5178466
  35.4343873  31.3140155  26.0726769  36.1471845  31.9487620  26.0002671
  34.9433901  31.4104021  25.2566771  30.4855786  29.0634598  26.8932340
  31.1865246  29.6971081  27.0461734  30.0150901  29.4049330  26.1327979
  38.2857072  21.6179206  24.7184890  37.6328522  21.8655113  24.0637343
  38.6637452  20.8043344  24.3847368  35.2464246  31.6538899  18.8213061
  35.4286641  30.8360555  19.2840813  36.0697232  31.8706591  18.3837951
  35.5806412  30.5807084  16.0828109  36.1094178  30.0699539  15.4698271
  35.8434631  30.2649614  16.9473642  34.3344645  22.3599017  31.2050927
  33.6585282  22.2593146  31.8753303  35.1572279  22.2038231  31.6686925
  26.0823504  28.5970954  23.8263443  26.6676941  27.8514641  23.9591347
  25.8848343  28.9074910  24.7100106  28.9362159  31.6322201  18.8425885
  28.2672535  32.1168329  18.3589925  28.7975029  31.8791421  19.7569263
  33.0767428  33.6665944  25.4408543  33.6285736  33.8297566  26.2057629
  33.4173621  34.2570382  24.7688568  27.5284194  18.0864227  29.6903462
  28.1556233  17.7041304  30.3040987  26.6712113  17.8678429  30.0559155
  37.9278302  28.4927202  31.2957198  38.4718206  29.1057160  30.8012153
  37.3465147  29.0506780  31.8124211  36.2135815  31.6147920  22.4272225
  36.0886955  30.8137660  21.9183171  36.8714906  32.1094113  21.9386195
  38.2770724  29.4156940  24.0551776  37.3301059  29.2962291  23.9830102
  38.6253497  28.5279438  24.1378037  30.6370297  15.3051079  27.8790017
  31.1604699  15.5513376  28.6416327  30.4182630  16.1371114  27.4593155
  35.2817157  29.2109656  20.2556128  35.1342119  28.2826364  20.4363698
  36.1070651  29.2329747  19.7713203  38.8851279  30.0338215  21.3421001
  39.8097826  29.8281076  21.2045452  38.7166582  29.7854616  22.2510342
  31.8422842  16.2464774  25.5639688  31.5019662  15.4472587  25.9660368
  31.1361848  16.5466485  24.9916521  33.7300406  17.4473095  23.9193007
  33.4718184  18.3690166  23.9177337  33.1985447  17.0503530  24.6093471
  38.6746595  30.5523882  16.6983092  38.8483473  29.9870305  15.9456944
  39.1675486  31.3524777  16.5162582  24.4923555  22.5638552  24.7646651
  23.9477023  23.3398359  24.8966925  25.3702905  22.9109356  24.6065772
  44.5285986  23.3160305  18.3173392  44.9717132  22.5667631  17.9192515
  43.6512497  23.3070442  17.9347124  39.6621768  29.8690647  13.7979990
  40.3572672  30.4897340  14.0167305  40.0044918  29.0185998  14.0732368
  25.2789577  21.6908448  27.6576808  24.5371313  21.8391083  28.2441438
  24.9582321  21.9516713  26.7943557  41.5613191  27.3190352  15.3267321
  42.0864515  27.6577625  14.6016641  41.4735543  26.3837368  15.1430456
  33.2233239  31.2324426  27.4557198  33.5320366  30.9873573  28.3279897
  34.0208721  31.4371064  26.9676068  33.2453851  33.3862336  19.6862574
  32.8058842  32.8938714  20.3795431  33.9961968  32.8435303  19.4454649
  25.7246190  29.5773877  19.6887202  26.5504210  29.2777648  19.3085846
  25.3740242  28.8081499  20.1376991  30.6927724  28.9300345  21.7584876
  30.0707733  28.2671050  21.4587104  31.3632590  28.9561477  21.0758524
  30.7652251  17.4082133  31.3517382  30.8140407  18.2844256  30.9695152
  31.3074765  16.8659526  30.7789025  41.2507097  27.9523256  30.6318519
  40.4602640  27.9347395  30.0923018  41.0140451  28.4911550  31.3867556
  41.3704972  24.8015722  27.9451248  41.4202977  24.6365730  28.8866770
  41.2618895  23.9342981  27.5549128  38.6608734  20.7846650  29.2610554
  39.5618597  20.6453115  28.9694552  38.7356709  20.9501105  30.2008732
  32.9951539  18.1613505  28.1063741  32.1254849  18.4547071  27.8346329
  33.2311020  18.7453950  28.8271004  42.8723169  27.2212664  28.1893269
  42.5807977  27.5842644  29.0256730  42.2595300  26.5079672  28.0106601
  44.0718851  24.7865544  20.7095839  44.9065742  25.2255348  20.8733400
  44.2077980  24.3104197  19.8904085  41.1210357  22.3445279  26.6573327
  41.5964478  22.5372925  25.8492178  40.1975922  22.4004464  26.4116711
  35.6990573  14.3793122  25.6229161  36.2172517  15.1154149  25.2975650
  35.3445706  14.6857115  26.4575920  39.8212026  19.2211039  24.8901633
  40.7729449  19.3209136  24.9113857  39.6515476  18.4289307  25.3999717
  37.8426405  16.3066622  25.0761034  37.2476337  16.5871635  24.3807522
  37.5576102  16.7960523  25.8477775  42.3000104  22.4417158  24.0043932
  42.2676424  21.5033159  24.1903616  42.9100727  22.5201195  23.2709757
  42.4494592  19.2328202  24.0502215  41.9333641  18.4486658  23.8632144
  43.3334541  18.9046918  24.2148735  48.1176653  23.5033165  23.1449969
  48.8480042  23.2418453  23.7057672  47.5083599  22.7661887  23.1852037
  46.1991951  21.6441028  23.7424420  45.4725114  21.5096993  23.1340912
  45.7839237  21.9517856  24.5481138  34.0222127  25.3630957  31.5071793
  34.9425136  25.5409556  31.7011840  33.9871710  24.4187003  31.3551493
  27.0184200  23.2731992  24.1494574  27.2370209  24.2049100  24.1682608
  27.4309973  22.9139966  24.9349378  31.8912065  18.8465198  33.5397323
  31.7908792  19.7959555  33.4709415  31.6733607  18.5183437  32.6673394
  31.7543335  22.2762337  32.3562385  31.2710417  23.0762697  32.5626274
  31.8404274  22.2870282  31.4029829  27.6816672  26.1666871  24.3930819
  28.6359926  26.1350814  24.3260750  27.4829196  25.7057495  25.2081045
  28.2716055  24.7367987  26.9601617  29.0908944  25.2312066  26.9836454
  28.5452862  23.8199956  26.9319184  43.8169746  17.8652880  21.0957852
  44.4114236  17.6248616  20.3851160  43.8896329  17.1460011  21.7231388
  26.0366901  31.7086491  21.4101017  25.9021369  30.9486892  20.8439015
  25.6198963  32.4327391  20.9429806  46.1240818  21.1719081  19.8701273
  45.5640376  21.2412270  20.6432835  45.5184322  20.9960065  19.1500769
  29.1936027  32.6055808  21.6219459  29.0768411  33.5501240  21.5198150
  28.3728473  32.3029369  22.0105259  23.5250969  19.0706121  27.6593814
  24.1709832  18.5605075  28.1481039  23.3168120  19.8074803  28.2337239
  36.0504361  26.1386969  33.1585954  36.9195521  26.3127621  32.7972589
  35.5711112  26.9581386  33.0361683  30.2190541  33.2584070  24.8375388
  31.1217788  33.2907680  25.1541883  29.9927911  32.3284521  24.8521724
  31.9744143  32.0115056  21.4985466  31.0239774  32.0116918  21.3849839
  32.2776629  31.2647791  20.9821501  27.8648460  16.2173738  31.7568828
  28.7279921  15.8610543  31.9672152  27.2913870  15.8787633  32.4444232
  47.7096837  37.8475595  22.5631229  48.3475247  37.7282342  21.8594569
  47.5917680  38.7956439  22.6219181  44.5186543  37.8003023  22.4992754
  44.1805055  37.6844088  21.6113288  45.3876311  37.3994188  22.4793760
  40.3773359  39.6538499  18.4889644  39.8138224  39.5628436  17.7205932
  40.2625754  38.8338404  18.9692137  45.0006326  38.9537875  28.4578959
  44.9894967  38.5590673  27.5859463  45.1626965  38.2203947  29.0512730
  37.9237791  41.1489691  21.3273865  38.7159083  40.8080515  20.9120164
  38.1634441  41.2584666  22.2476018  45.9572917  43.3209467  13.8004109
  45.3060897  43.9063547  13.4138123  46.7517280  43.8515662  13.8599147
  39.8828545  40.4098604  14.1991244  40.6559421  39.8627591  14.0604120
  40.2353943  41.2742853  14.4105705  41.7213587  41.7374986  27.4058143
  41.4303453  42.6420617  27.2904809  42.3570571  41.7791514  28.1202213
  42.6469794  39.1151835  23.9959503  43.2433366  38.8907857  23.2816466
  42.7044766  38.3736580  24.5984951  42.2194822  36.5691270  11.8309694
  42.4720343  36.0472791  11.0693157  41.2819381  36.4057416  11.9336377
  47.2638105  35.5727049  19.6384437  48.0501194  35.1546472  19.2874854
  47.5276810  36.4773141  19.8066085  47.4348183  41.0099899  14.3373094
  46.7994016  41.0834525  15.0493998  47.1045589  41.5993498  13.6592173
  52.6646532  35.5102282  20.5417415  53.3971704  34.9401499  20.7755245
  51.9085888  35.1223882  20.9823921  41.9391111  38.4719376  14.0334069
  41.8227369  37.7964280  14.7015153  42.0493371  37.9851750  13.2166222
  44.2822652  37.9329523  17.7380758  43.9180859  37.4060144  18.4493679
  45.1389768  37.5427992  17.5647243  50.1871953  29.2223856  25.0012024
  49.8555277  30.0919267  24.7773239  49.5917566  28.9060140  25.6806054
  43.9228139  32.9619423  12.7342106  44.0902541  33.8299659  13.1012577
  43.7325308  33.1246705  11.8103396  46.6803472  41.4236402  24.4007937
  46.3804195  42.3261441  24.2923744  46.3354532  41.1568585  25.2529090
  40.1315954  37.8750199  20.4344641  39.2066450  37.7426413  20.6422333
  40.3800367  38.6544418  20.9314584  50.0800616  33.9418942  22.0805374
  49.1717493  33.8734350  21.7864135  50.0288212  34.4190887  22.9087200
  43.9017360  35.4177080  13.7188773  43.7816985  35.8634131  14.5574253
  43.2069948  35.7662398  13.1602311  37.4924765  37.5183472  21.2688430
  37.6217146  37.7717951  22.1827842  36.8122216  38.1111180  20.9493085
  41.6624252  48.1880722  17.3678904  41.5848282  49.1388547  17.4467385
  41.0585896  47.8426595  18.0253831  44.1541482  35.3608588  30.0240271
  43.3774816  35.9202508  30.0143136  44.7932045  35.8465371  30.5455141
  51.9462262  32.1435380  23.8583248  51.3036643  32.4367914  23.2123043
  51.4417191  32.0288301  24.6636445  49.6002426  35.8898554  14.5469107
  50.5120282  36.1225940  14.3716805  49.0912073  36.4735598  13.9844186
  42.4087854  38.1694041  29.5858238  43.1502538  38.7079085  29.3093062
  41.7024840  38.7960330  29.7429790  47.8843194  40.3123181  28.1830400
  48.2926550  39.8705592  27.4385032  47.1620455  39.7375809  28.4364593
  44.2374264  35.2495788  25.5563957  45.0835459  35.6735202  25.6998606
  44.1772901  34.5929413  26.2502520  48.2072008  40.8724372  21.9382689
  47.5780871  41.0370086  21.2358757  47.8197670  41.2865982  22.7093653
  52.0861240  41.8078810  19.2927052  51.4012278  42.1877711  18.7424086
  52.1705090  42.4174137  20.0259000  47.3873709  32.9100157  27.2145130
  47.1434641  33.6642217  26.6779406  47.6633640  33.2885504  28.0492377
  49.3412172  39.4538769  25.8922396  49.5529067  40.0970529  25.2156777
  49.2941920  38.6201086  25.4244326  46.9438401  32.0656590  22.7958968
  46.0822880  32.3637843  23.0875706  46.9700836  32.2826989  21.8640001
  43.7599970  40.6098780  19.2032774  44.2238316  40.8886483  18.4137396
  43.4956768  39.7082225  19.0205864  40.6524051  40.1570262  22.1412537
  41.2225408  40.5857530  21.5030022  41.2432163  39.8752846  22.8396723
  42.6968856  36.7321933  16.0122339  43.3992900  37.1842976  16.4796265
  42.3649485  36.0905751  16.6402232  41.1449218  35.3233689  30.3873548
  40.5147878  36.0049970  30.6208945  41.0385306  35.2116771  29.4426687
  36.4394190  34.9905485  21.3139472  35.6493244  35.2463014  20.8379583
  36.9305438  35.8053823  21.4191513  50.4558000  42.3310724  24.0644753
  51.2775444  41.9290912  23.7827435  50.4520403  42.2278959  25.0160869
  38.3908936  35.3550064  18.2722949  37.5940099  35.4668759  18.7906445
  38.1634528  35.6936717  17.4063840  44.2214603  41.8794768  26.2205464
  44.2859036  42.3415175  27.0563636  43.5125527  41.2492133  26.3487774
  34.7231893  35.2435976  23.7454463  34.9739932  36.1282986  24.0112039
  35.2591442  35.0640577  22.9729555  58.5463993  38.6749473  20.4129725
  57.7927701  38.1056871  20.2573729  58.6811534  38.6412137  21.3600359
  43.9362621  43.5462875  16.0884444  43.8008296  44.3914411  16.5169292
  44.4772433  43.7482153  15.3250378  40.4229961  29.6254455  32.7498799
  40.0296906  29.0720654  33.4246444  41.2396101  29.9365033  33.1405317
  37.3892018  41.0638313  16.6612369  37.9016539  41.8581563  16.8117934
  38.0414731  40.3664604  16.5945971  39.1986903  44.1804069  18.7435122
  39.3753531  45.1022034  18.5556106  39.9943737  43.8662489  19.1729502
  43.3397922  31.0412334  30.3419056  44.0807635  31.6419487  30.2623518
  43.5715844  30.2989972  29.7837098  38.4839260  36.2268701  28.6197286
  38.3692775  35.3253959  28.9204385  37.6283777  36.4732398  28.2682102
  45.5631097  44.1686442  30.2184786  45.1194952  43.3822820  29.9005691
  46.2248311  44.3565592  29.5528677  40.3218218  45.6982243  24.7445465
  40.8725644  45.5699307  23.9722459  39.4829694  45.9977132  24.3940358
  47.6612335  44.4489242  28.2466187  47.6430811  45.2698123  27.7546457
  48.5832255  44.3243317  28.4716329  44.1185390  41.9633371  29.0889696
  44.6513726  41.2021659  28.8589004  43.5899471  41.6707023  29.8313850
  47.2855085  27.0693437  24.6183338  46.9419354  27.9595079  24.5422448
  47.6534047  26.8795095  23.7552923  35.3540935  39.3926968  17.4371940
  36.1916157  39.8023976  17.2205647  35.5319203  38.4526410  17.4072134
  47.2505367  37.0602048  13.1255773  46.7351991  37.8306653  13.3644160
  46.9782676  36.3867184  13.7488834  44.8352478  31.9051749  18.1841011
  43.9794075  31.5158599  18.0046650  45.2479430  31.9843710  17.3240797
  46.3651625  29.4398092  22.5832571  45.8616420  29.4028227  21.7700376
  46.6582232  30.3490835  22.6429227  42.6094511  29.5236822  21.5898753
  43.4747508  29.3279631  21.2304642  42.6772020  29.2947174  22.5168109
  52.2239641  39.8134403  15.0608946  51.4469084  39.4745562  14.6164108
  52.9031122  39.8187026  14.3863911  47.0391670  34.9329140  14.9515554
  46.7341806  35.2475289  15.8025697  47.9922113  35.0110560  14.9942887
  45.4838102  41.0919364  16.6008508  44.9559464  40.3572123  16.2881745
  44.9825605  41.8694040  16.3548476  50.4630948  39.2868384  21.7175554
  49.8054623  39.9767645  21.8055683  51.2671347  39.6764816  22.0609541
  40.2156830  31.7539030  18.9615119  40.7900582  31.5314211  18.2288312
  40.8027812  31.8227724  19.7143721  49.2736407  37.6412757  19.7679496
  49.7868289  38.2742749  20.2701206  49.9237631  37.0413952  19.4022856
  40.5426417  33.7843491  12.9811005  39.7063729  34.1218177  13.3020279
  40.4031187  33.6492471  12.0438142  42.5179498  28.6280279  17.6890189
  41.8643910  28.3129296  17.0646804  42.4759972  28.0056019  18.4150012
  43.6290702  38.9099574   9.6043481  42.7217764  38.6788827   9.8034630
  44.1261734  38.1137193   9.7917462  46.5358781  47.6197081  12.5240167
  45.8620480  47.9228778  13.1325125  46.9224603  48.4226161  12.1745624
  45.7517238  35.1162212  22.0137836  44.8339799  35.3377159  21.8559524
  46.1677382  35.1908523  21.1549544  46.5352286  36.5153628  17.1440517
  47.2824105  37.0275025  16.8347639  46.8043875  36.1937681  18.0044910
  44.8078936  39.0112169  14.1267471  43.8990155  38.7271202  14.2239941
  44.8374020  39.4311247  13.2670778  50.0398203  42.6218758  17.8958639
  49.5860530  41.7809668  17.9523829  49.4092170  43.2580157  18.2333419
  48.9831123  33.5510744  19.1259306  48.2453880  33.0388130  19.4569549
  49.2357896  33.1111126  18.3142583  48.4831143  44.4595255  18.8308457
  48.7754117  45.0200312  18.1120822  48.9929763  44.7523816  19.5861616
  49.0842750  26.3286996  19.7201075  49.3901627  25.4684360  19.4326990
  49.8095355  26.9204616  19.5200069  35.3767106  36.7317683  18.1082673
  35.1791506  36.1387044  17.3833740  34.8213770  36.4269893  18.8258612
  43.3563830  36.6240789  20.2277266  43.4112440  35.6714626  20.1519743
  42.5455032  36.7800228  20.7118565  44.5055024  40.5520912  11.4655550
  44.0674454  39.8356771  11.0061187  45.2465465  40.7797027  10.9040641
  41.2956190  35.2417849  17.9867645  40.4824055  35.5412020  18.3932837
  41.7915184  34.8473538  18.7042127  43.4464768  45.2375606  19.9201910
  43.4040947  45.4636452  18.9910442  44.3627467  45.0038981  20.0687711
  46.8930402  35.7059674  26.8182539  47.2479789  35.9331147  27.6777005
  47.5402533  36.0378050  26.1959794  52.6228138  38.8278109  17.5231868
  52.4846037  39.0179705  16.5953057  52.2664357  39.5897492  17.9799919
  40.7870265  32.8136205  23.6028880  41.4269644  32.6724964  22.9051843
  39.9547795  32.5270718  23.2267482  52.6497518  40.8954636  22.5343140
  53.0834025  40.8029926  23.3826194  53.3629099  40.8712137  21.8963156
  41.5630568  42.1138635  19.7163873  42.3571167  41.6188955  19.5146448
  40.8522261  41.5856498  19.3531578  46.3825413  44.4956731  24.0676240
  46.4362435  45.0647667  24.8353956  45.5140194  44.6658616  23.7030277
  37.8713332  36.2581717  15.7923625  36.9410920  36.1966172  16.0093587
  37.9670804  35.7357669  14.9960267  37.7898881  32.7836530  18.3801867
  38.0505698  33.6981863  18.2711027  38.6116053  32.3160972  18.5298480
  39.2623806  34.1974287  25.5500691  39.9346860  33.9891649  24.9013340
  38.4353593  33.9996373  25.1105924  53.5113068  40.9378337  25.0676025
  53.7048958  41.8424148  25.3135300  53.4113686  40.4785756  25.9014610
  45.1649378  30.8236228  27.5666352  44.5177293  31.5226177  27.4730829
  45.9350394  31.2572372  27.9342601  48.5728176  41.0885080  30.6416906
  48.4213683  40.8595632  29.7246989  48.5632856  42.0455681  30.6548251
  45.3413513  38.6616993  25.6263172  46.2705573  38.8128152  25.4532139
  44.9204543  38.7501013  24.7711819  44.1401844  42.6867657  23.3961710
  44.0012930  42.3186441  24.2687648  43.3516441  43.2015296  23.2245667
  44.7349996  47.7876753  14.7387246  44.9101752  47.3164797  15.5532869
  44.0482784  48.4142520  14.9668507  45.6907060  42.0649260  20.7850547
  45.3556892  42.0250030  21.6808197  45.1911005  41.3993976  20.3120958
  39.6651304  37.4716890  26.3103129  39.5271102  36.7397129  26.9114668
  40.5756227  37.3825790  26.0287316  48.6266251  39.4105294  11.0587607
  48.0095422  38.6852122  10.9620660  48.1582740  40.1714654  10.7154681
  42.2933604  37.1836849  25.7986808  43.0033223  36.5430041  25.7573427
  42.2502912  37.4349744  26.7212989  50.2820383  44.1204202  28.7193387
  50.2232929  43.4363423  28.0523971  50.6839901  44.8623192  28.2674013
  41.0062538  34.1702067  27.6182448  40.4699895  33.7192805  28.2704044
  40.4179247  34.3047976  26.8752912  39.3011082  50.9366116  21.5127106
  39.5407680  51.5684640  22.1906125  38.4580278  50.5854156  21.7992466
  50.2837790  42.0843786  26.9507367  49.3964569  41.7469708  27.0733766
  50.8536341  41.3526818  27.1876133  31.9366937  38.4167878  20.2750419
  32.6237977  38.1029608  19.6871434  31.7815066  39.3209243  20.0017670
  36.7401659  33.3058075  24.7035442  36.6559848  32.6983744  23.9685852
  35.9184366  33.7967093  24.7044939  43.8138944  46.7445239  23.9168610
  43.7409115  47.5500210  24.4287915  43.3716337  46.9437204  23.0916632
  43.6028723  45.9817009  17.4271432  42.8196245  46.5238689  17.5209656
  44.3021468  46.4990988  17.8265673  46.9125373  31.7911638  20.0705637
  47.4094073  31.0381600  19.7506708  46.1412355  31.8275955  19.5048847
  54.7655131  37.4952004  21.7123929  54.7545007  38.3776719  21.3417862
  53.8972510  37.1423555  21.5178466  46.2737627  46.6432073  26.0726769
  46.9865599  47.2779538  26.0002671  45.7827656  46.7395939  25.2566771
  47.9955154  40.5483325  17.6444061  47.0611433  40.6684788  17.4748765
  48.1731822  39.6455792  17.3804071  43.4960342  33.9329021  19.7977322
  43.1258130  33.3800062  20.4858227  43.9919435  33.3287155  19.2452322
  51.3827705  36.3900645  18.1794095  51.8488158  37.2228636  18.1054398
  51.8335206  35.9245626  18.8839353  41.3249541  44.3926516  26.8932340
  42.0259000  45.0262999  27.0461734  40.8544656  44.7341248  26.1327979
  49.4503936  42.7344466  15.1780247  49.7263780  42.6201061  16.0874121
  48.5808435  42.3361951  15.1392420  49.3544368  28.7581232  22.2184996
  48.4407448  28.9885458  22.3867203  49.7837470  28.8419676  23.0699029
  49.1250827  36.9471124  24.7184890  48.4722277  37.1947031  24.0637343
  49.5031207  36.1335262  24.3847368  46.0858001  46.9830817  18.8213061
  46.2680395  46.1652473  19.2840813  46.9090987  47.1998509  18.3837951
  46.4200166  45.9099002  16.0828109  46.9487932  45.3991456  15.4698271
  46.6828386  45.5941532  16.9473642  45.1738400  37.6890935  31.2050927
  44.4979037  37.5885064  31.8753303  45.9966034  37.5330148  31.6686925
  36.9217259  43.9262871  23.8263443  37.5070696  43.1806559  23.9591347
  36.7242097  44.2366828  24.7100106  39.7755914  46.9614119  18.8425885
  39.1066289  47.4460246  18.3589925  39.6368784  47.2083339  19.7569263
  31.5134913  36.4968471  22.5467886  31.5519013  35.9632062  23.3405004
  31.0075206  35.9703677  21.9278863  43.9161183  48.9957862  25.4408543
  44.4679491  49.1589484  26.2057629  44.2567376  49.5862300  24.7688568
  38.8925676  31.3433012  26.0430428  38.9567002  32.2047843  25.6307826
  38.8292796  30.7307014  25.3102787  38.3677948  33.4156144  29.6903462
  38.9949987  33.0333222  30.3040987  37.5105867  33.1970346  30.0559155
  48.7672057  43.8219120  31.2957198  49.3111961  44.4349078  30.8012153
  48.1858902  44.3798698  31.8124211  35.1443491  35.2232574  15.6221817
  35.4396932  34.3143252  15.5688871  34.2431527  35.2020313  15.3002819
  47.0529570  46.9439838  22.4272225  46.9280709  46.1429577  21.9183171
  47.7108661  47.4386031  21.9386195  38.6737738  33.2988570  21.6049366
  37.9524324  33.9124538  21.4656839  39.4630994  33.8346335  21.5266012
  49.1164478  44.7448858  24.0551776  48.1694814  44.6254209  23.9830102
  49.4647251  43.8571356  24.1378037  41.4764052  30.6342997  27.8790017
  41.9998453  30.8805293  28.6416327  41.2576385  31.4663031  27.4593155
  36.8731333  32.9046671  15.7461142  36.5444039  32.0244050  15.5636248
  37.2270703  32.8494340  16.6337531  46.1210911  44.5401574  20.2556128
  45.9735874  43.6118281  20.4363698  46.9464405  44.5621665  19.7713203
  39.9873156  33.1919641  16.1136620  40.3269228  33.7205562  15.3915228
  40.4345276  33.5300047  16.8895186  49.7245033  45.3630133  21.3421001
  50.6491581  45.1572994  21.2045452  49.5560337  45.1146534  22.2510342
  42.6816597  31.5756692  25.5639688  42.3413417  30.7764505  25.9660368
  41.9755603  31.8758403  24.9916521  43.3333068  28.6606004  24.0167011
  44.1559138  28.1866482  23.8945901  43.5771132  29.4396488  24.5165697
  41.9741303  31.6894263  14.3129913  42.6949665  32.0675515  13.8093630
  41.3506607  32.4083139  14.4164891  46.1172426  32.3939412  15.2488245
  46.3336040  33.2764049  14.9477073  45.6366493  32.0025625  14.5193887
  40.8571647  35.3525125  21.8258990  40.7116228  35.6665428  22.7183271
  40.3796851  35.9710025  21.2729888  42.7168030  32.3427673  21.8739879
  42.7029599  31.4468766  21.5372177  43.4340458  32.3498337  22.5078165
  44.5694161  32.7765013  23.9193007  44.3111939  33.6982084  23.9177337
  44.0379201  32.3795448  24.6093471  49.5140350  45.8815800  16.6983092
  49.6877227  45.3162223  15.9456944  50.0069241  46.6816695  16.5162582
  35.3317309  37.8930469  24.7646651  34.7870777  38.6690277  24.8966925
  36.2096659  38.2401274  24.6065772  42.1204926  31.2242053  17.1427449
  42.2420837  30.2958699  17.3418337  41.8306968  31.2380739  16.2305765
  44.9896116  28.9096964  20.2794169  45.0117813  28.9736297  19.3246149
  45.4064175  28.0701472  20.4734675  55.3679741  38.6452223  18.3173392
  55.8110887  37.8959548  17.9192515  54.4906251  38.6362359  17.9347124
  50.5015522  45.1982565  13.7979990  51.1966427  45.8189257  14.0167305
  50.8438672  44.3477916  14.0732368  36.1183331  37.0200365  27.6576808
  35.3765067  37.1683001  28.2441438  35.7976075  37.2808631  26.7943557
  52.4006945  42.6482270  15.3267321  52.9258269  42.9869543  14.6016641
  52.3129298  41.7129285  15.1430456  44.0626994  46.5616344  27.4557198
  44.3714120  46.3165490  28.3279897  44.8602476  46.7662982  26.9676068
  44.0847606  48.7154253  19.6862574  43.6452596  48.2230632  20.3795431
  44.8355723  48.1727221  19.4454649  36.5639945  44.9065794  19.6887202
  37.3897965  44.6069566  19.3085846  36.2133997  44.1373417  20.1376991
  41.5321478  44.2592262  21.7584876  40.9101487  43.5962967  21.4587104
  42.2026345  44.2853394  21.0758524  34.7648550  42.8252121  20.6476136
  33.9280458  42.3974295  20.4660137  34.7372195  43.0184564  21.5846927
  41.6046006  32.7374050  31.3517382  41.6534161  33.6136173  30.9695152
  42.1468520  32.1951443  30.7789025  52.0900851  43.2815174  30.6318519
  51.2996395  43.2639313  30.0923018  51.8534206  43.8203467  31.3867556
  52.2098726  40.1307640  27.9451248  52.2596731  39.9657648  28.8866770
  52.1012650  39.2634899  27.5549128  41.0934985  42.8096186  15.2343336
  41.2423105  43.4931650  14.5810009  41.9001428  42.7901276  15.7492792
  49.5002489  36.1138568  29.2610554  50.4012351  35.9745033  28.9694552
  49.5750463  36.2793023  30.2008732  43.8345294  33.4905423  28.1063741
  42.9648603  33.7838989  27.8346329  44.0704774  34.0745868  28.8271004
  53.7116923  42.5504582  28.1893269  53.4201731  42.9134562  29.0256730
  53.0989054  41.8371590  28.0106601  54.9112605  40.1157461  20.7095839
  55.7459497  40.5547265  20.8733400  55.0471734  39.6396115  19.8904085
  51.9604111  37.6737196  26.6573327  52.4358233  37.8664843  25.8492178
  51.0369677  37.7296382  26.4116711  38.8487618  38.8361363  16.2404405
  38.6033660  37.9323693  16.4384615  39.0183532  38.8378514  15.2983883
  46.5384328  29.7085040  25.6229161  47.0566272  30.4446067  25.2975650
  46.1839461  30.0149033  26.4575920  38.1183265  34.5689721  13.7390567
  37.4252510  34.6434076  13.0830603  37.8735017  33.8050065  14.2612084
  46.7896922  26.1285322  21.1430058  47.0698676  25.4608511  21.7690484
  47.5747529  26.3214418  20.6304721  44.5930390  45.3044316  12.7055084
  44.0204358  45.9234503  12.2525556  45.1663184  45.8543678  13.2395006
  50.6605780  34.5502956  24.8901633  51.6123203  34.6501054  24.9113857
  50.4909231  33.7581225  25.3999717  48.6820160  31.6358540  25.0761034
  48.0870092  31.9163552  24.3807522  48.3969857  32.1252440  25.8477775
  47.8127650  45.5881466  13.8363666  48.7458323  45.5227028  14.0396542
  47.7250863  46.4237733  13.3778199  50.4415667  44.9047337  10.7967614
  50.3629298  44.5707200  11.6903372  51.2625334  45.3969105  10.7959086
  53.1393858  37.7709076  24.0043932  53.1070178  36.8325077  24.1903616
  53.7494482  37.8493113  23.2709757  44.9777189  36.6405129  10.0471136
  45.9236294  36.5111337  10.1159554  44.5991434  35.9019791  10.5240565
  53.2888347  34.5620119  24.0502215  52.7727395  33.7778576  23.8632144
  54.1728295  34.2338836  24.2148735  50.9499074  28.3061135  20.0098028
  50.7523895  27.9976223  20.8941360  51.5598779  29.0322774  20.1395958
  58.9570408  38.8325083  23.1449969  59.6873796  38.5710371  23.7057672
  58.3477353  38.0953805  23.1852037  57.0385705  36.9732945  23.7424420
  56.3118869  36.8388910  23.1340912  56.6232992  37.2809774  24.5481138
  44.8615882  40.6922875  31.5071793  45.7818891  40.8701474  31.7011840
  44.8265465  39.7478920  31.3551493  34.0798047  35.8861469  20.4325068
  33.7600831  35.0326777  20.1399442  33.5331475  36.1010047  21.1883035
  37.8577954  38.6023910  24.1494574  38.0763964  39.5341018  24.1682608
  38.2703728  38.2431884  24.9349378  44.7782172  29.1091995  16.1370263
  43.9682900  28.7639080  16.5125509  45.4666589  28.7999539  16.7257874
  46.7072720  28.1870042  17.7594560  47.2603759  28.6065495  18.4184583
  46.9442807  27.2605790  17.8017516  42.7305819  34.1757116  33.5397323
  42.6302546  35.1251472  33.4709415  42.5127361  33.8475354  32.6673394
  33.9486307  39.5064380  22.4018190  33.2549778  39.0918333  21.8888144
  34.6959298  39.5484917  21.8051608  50.0851527  30.2970567  17.2673224
  49.5050196  30.9555371  16.8851276  49.8187460  29.4747912  16.8560641
  48.5355094  29.6975625  19.4694544  49.0354872  29.8092159  18.6608863
  49.1790702  29.3936678  20.1095353  42.5937089  37.6054254  32.3562385
  42.1104171  38.4054614  32.5626274  42.6798028  37.6162199  31.4029829
  35.8623049  39.4382634  20.2784204  35.8393737  39.5370321  19.3266088
  36.1723686  40.2847785  20.6001371  38.5210427  41.4958789  24.3930819
  39.4753680  41.4642731  24.3260750  38.3222951  41.0349413  25.2081045
  39.1109809  40.0659905  26.9601617  39.9302698  40.5603984  26.9836454
  39.3846617  39.1491873  26.9319184  48.8676405  32.4570657  16.3229572
  47.9802260  32.7420308  16.1049767  49.2830394  32.2964421  15.4756849
  52.2190941  32.4817178  20.0383911  52.9951332  32.9713631  20.3108528
  51.4939076  32.9075233  20.4955781  54.6563500  33.1944798  21.0957852
  55.2507991  32.9540534  20.3851160  54.7290084  32.4751928  21.7231388
  36.8760656  47.0378409  21.4101017  36.7415124  46.2778809  20.8439015
  36.4592718  47.7619308  20.9429806  48.0119619  42.2215332  10.4177592
  48.7155469  42.4265335  11.0335248  47.2882267  42.7892094  10.6826676
  48.8417429  37.9725193  16.5379862  48.7852630  38.4293745  15.6987495
  49.3945771  37.2115878  16.3602705  52.6522235  33.7614925  17.3629982
  52.3959169  33.3611561  18.1938189  52.0275103  34.4758719  17.2380121
  56.9634573  36.5010998  19.8701273  56.4034131  36.5704188  20.6432835
  56.3578076  36.3251983  19.1500769  40.0329782  47.9347726  21.6219459
  39.9162166  48.8793158  21.5198150  39.2122228  47.6321287  22.0105259
  49.9206316  42.6597861  12.4676052  50.7551920  42.2279060  12.2853527
  49.7590659  42.4879875  13.3952947  49.5752208  39.1629975  13.8332391
  49.5201012  38.9974246  12.8920835  48.9498264  39.8706008  13.9894581
  34.3644723  34.3998039  27.6593814  35.0103587  33.8896993  28.1481039
  34.1561874  35.1366721  28.2337239  46.8898115  41.4678886  33.1585954
  47.7589275  41.6419539  32.7972589  46.4104867  42.2873303  33.0361683
  42.8848334  28.6638084  13.4117710  42.8727004  29.6079924  13.5685981
  43.7771756  28.4808229  13.1177171  41.0584296  48.5875987  24.8375388
  41.9611542  48.6199598  25.1541883  40.8321666  47.6576438  24.8521724
  42.8137898  47.3406974  21.4985466  41.8633529  47.3408836  21.3849839
  43.1170384  46.5939709  20.9821501  46.7000453  25.2580860  17.6663647
  45.9332849  24.7039347  17.8120329  47.1111158  25.3302729  18.5277798
  38.7042214  31.5465656  31.7568828  39.5673676  31.1902461  31.9672152
  38.1307625  31.2079551  32.4444232  58.5490591  53.1767512  22.5631229
  59.1869001  53.0574260  21.8594569  58.4311434  54.1248356  22.6219181
  55.3580298  53.1294941  22.4992754  55.0198809  53.0136005  21.6113288
  56.2270066  52.7286106  22.4793760  51.2167113  54.9830417  18.4889644
  50.6531978  54.8920354  17.7205932  51.1019508  54.1630321  18.9692137
  48.7631545  56.4781609  21.3273865  49.5552837  56.1372433  20.9120164
  49.0028195  56.5876584  22.2476018  56.7966672  58.6501385  13.8004109
  56.1454652  59.2355465  13.4138123  57.5911035  59.1807580  13.8599147
  50.7222299  55.7390522  14.1991244  51.4953175  55.1919509  14.0604120
  51.0747698  56.6034771  14.4105705  53.4863548  54.4443753  23.9959503
  54.0827121  54.2199775  23.2816466  53.5438520  53.7028498  24.5984951
  53.0588577  51.8983188  11.8309694  53.3114098  51.3764709  11.0693157
  52.1213136  51.7349333  11.9336377  58.1031860  50.9018966  19.6384437
  58.8894949  50.4838389  19.2874854  58.3670564  51.8065058  19.8066085
  58.2741937  56.3391817  14.3373094  57.6387770  56.4126443  15.0493998
  57.9439343  56.9285415  13.6592173  63.5040287  50.8394199  20.5417415
  64.2365459  50.2693416  20.7755245  62.7479643  50.4515800  20.9823921
  52.7784866  53.8011294  14.0334069  52.6621124  53.1256197  14.7015153
  52.8887126  53.3143668  13.2166222  55.1216407  53.2621441  17.7380758
  54.7574614  52.7352062  18.4493679  55.9783522  52.8719910  17.5647243
  61.0265707  44.5515774  25.0012024  60.6949032  45.4211185  24.7773239
  60.4311321  44.2352058  25.6806054  54.7621894  48.2911341  12.7342106
  54.9296296  49.1591577  13.1012577  54.5719063  48.4538622  11.8103396
  57.5197227  56.7528320  24.4007937  57.2197950  57.6553358  24.2923744
  57.1748286  56.4860503  25.2529090  50.9709708  53.2042116  20.4344641
  50.0460205  53.0718330  20.6422333  51.2194121  53.9836336  20.9314584
  60.9194371  49.2710860  22.0805374  60.0111248  49.2026268  21.7864135
  60.8681966  49.7482805  22.9087200  54.7411114  50.7468998  13.7188773
  54.6210740  51.1926049  14.5574253  54.0463703  51.0954316  13.1602311
  48.3318519  52.8475390  21.2688430  48.4610900  53.1009869  22.1827842
  47.6515971  53.4403098  20.9493085  52.5018007  63.5172640  17.3678904
  52.4242036  64.4680465  17.4467385  51.8979650  63.1718512  18.0253831
  54.9935236  50.6900505  30.0240271  54.2168570  51.2494425  30.0143136
  55.6325799  51.1757288  30.5455141  62.7856017  47.4727298  23.8583248
  62.1430397  47.7659831  23.2123043  62.2810945  47.3580218  24.6636445
  60.4396181  51.2190471  14.5469107  61.3514037  51.4517858  14.3716805
  59.9305828  51.8027516  13.9844186  53.2481609  53.4985959  29.5858238
  53.9896293  54.0371003  29.3093062  52.5418594  54.1252247  29.7429790
  55.0768018  50.5787706  25.5563957  55.9229213  51.0027119  25.6998606
  55.0166656  49.9221330  26.2502520  59.0465763  56.2016290  21.9382689
  58.4174625  56.3662004  21.2358757  58.6591425  56.6157899  22.7093653
  62.9254995  57.1370728  19.2927052  62.2406033  57.5169629  18.7424086
  63.0098844  57.7466054  20.0259000  58.2267464  48.2392074  27.2145130
  57.9828395  48.9934135  26.6779406  58.5027394  48.6177422  28.0492377
  57.7832155  47.3948507  22.7958968  56.9216634  47.6929761  23.0875706
  57.8094590  47.6118906  21.8640001  54.5993725  55.9390698  19.2032774
  55.0632070  56.2178401  18.4137396  54.3350523  55.0374142  19.0205864
  51.4917806  55.4862179  22.1412537  52.0619163  55.9149448  21.5030022
  52.0825918  55.2044764  22.8396723  53.5362611  52.0613850  16.0122339
  54.2386654  52.5134894  16.4796265  53.2043239  51.4197669  16.6402232
  51.9842972  50.6525607  30.3873548  51.3541633  51.3341888  30.6208945
  51.8779060  50.5408688  29.4426687  47.2787945  50.3197403  21.3139472
  46.4886999  50.5754931  20.8379583  47.7699192  51.1345741  21.4191513
  61.2951754  57.6602642  24.0644753  62.1169198  57.2582829  23.7827435
  61.2914157  57.5570876  25.0160869  49.2302690  50.6841982  18.2722949
  48.4333853  50.7960676  18.7906445  49.0028282  51.0228634  17.4063840
  45.5625648  50.5727893  23.7454463  45.8133686  51.4574903  24.0112039
  46.0985196  50.3932495  22.9729555  69.3857747  54.0041391  20.4129725
  68.6321456  53.4348789  20.2573729  69.5205289  53.9704055  21.3600359
  54.7756375  58.8754793  16.0884444  54.6402050  59.7206329  16.5169292
  55.3166188  59.0774070  15.3250378  51.2623715  44.9546373  32.7498799
  50.8690661  44.4012571  33.4246444  52.0789855  45.2656951  33.1405317
  48.2285773  56.3930231  16.6612369  48.7410293  57.1873481  16.8117934
  48.8808486  55.6956521  16.5945971  50.0380658  59.5095987  18.7435122
  50.2147286  60.4313952  18.5556106  50.8337491  59.1954406  19.1729502
  54.1791676  46.3704252  30.3419056  54.9201389  46.9711405  30.2623518
  54.4109599  45.6281890  29.7837098  49.3233014  51.5560619  28.6197286
  49.2086529  50.6545876  28.9204385  48.4677532  51.8024316  28.2682102
  51.1611973  61.0274161  24.7445465  51.7119398  60.8991224  23.9722459
  50.3223449  61.3269050  24.3940358  58.1248839  42.3985355  24.6183338
  57.7813108  43.2886996  24.5422448  58.4927802  42.2087012  23.7552923
  46.1934690  54.7218885  17.4371940  47.0309912  55.1315894  17.2205647
  46.3712957  53.7818327  17.4072134  58.0899122  52.3893966  13.1255773
  57.5745745  53.1598570  13.3644160  57.8176430  51.7159102  13.7488834
  55.6746233  47.2343667  18.1841011  54.8187829  46.8450517  18.0046650
  56.0873185  47.3135627  17.3240797  57.2045379  44.7690010  22.5832571
  56.7010175  44.7320145  21.7700376  57.4975986  45.6782753  22.6429227
  53.4488265  44.8528740  21.5898753  54.3141262  44.6571548  21.2304642
  53.5165774  44.6239091  22.5168109  63.0633396  55.1426320  15.0608946
  62.2862839  54.8037480  14.6164108  63.7424877  55.1478944  14.3863911
  57.8785425  50.2621058  14.9515554  57.5735560  50.5767207  15.8025697
  58.8315867  50.3402478  14.9942887  56.3231857  56.4211281  16.6008508
  55.7953218  55.6864041  16.2881745  55.8219359  57.1985958  16.3548476
  61.3024703  54.6160302  21.7175554  60.6448377  55.3059563  21.8055683
  62.1065102  55.0056734  22.0609541  51.0550584  47.0830948  18.9615119
  51.6294336  46.8606129  18.2288312  51.6421567  47.1519642  19.7143721
  60.1130162  52.9704674  19.7679496  60.6262043  53.6034666  20.2701206
  60.7631385  52.3705870  19.4022856  51.3820171  49.1135409  12.9811005
  50.5457484  49.4510095  13.3020279  51.2424941  48.9784388  12.0438142
  53.3573252  43.9572196  17.6890189  52.7037664  43.6421214  17.0646804
  53.3153726  43.3347937  18.4150012  54.4684457  54.2391492   9.6043481
  53.5611519  54.0080745   9.8034630  54.9655489  53.4429111   9.7917462
  57.3752536  62.9488999  12.5240167  56.7014235  63.2520695  13.1325125
  57.7618358  63.7518079  12.1745624  56.5910992  50.4454130  22.0137836
  55.6733554  50.6669077  21.8559524  57.0071136  50.5200440  21.1549544
  57.3746040  51.8445546  17.1440517  58.1217859  52.3566943  16.8347639
  57.6437630  51.5229598  18.0044910  55.6472690  54.3404086  14.1267471
  54.7383910  54.0563119  14.2239941  55.6767774  54.7603165  13.2670778
  60.8791958  57.9510676  17.8958639  60.4254285  57.1101586  17.9523829
  60.2485924  58.5872074  18.2333419  59.8224877  48.8802662  19.1259306
  59.0847634  48.3680048  19.4569549  60.0751651  48.4403044  18.3142583
  59.3224897  59.7887173  18.8308457  59.6147871  60.3492230  18.1120822
  59.8323518  60.0815734  19.5861616  59.9236505  41.6578914  19.7201075
  60.2295381  40.7976277  19.4326990  60.6489109  42.2496534  19.5200069
  46.2160861  52.0609601  18.1082673  46.0185261  51.4678961  17.3833740
  45.6607525  51.7561811  18.8258612  54.1957584  51.9532707  20.2277266
  54.2506194  51.0006543  20.1519743  53.3848786  52.1092146  20.7118565
  55.3448778  55.8812830  11.4655550  54.9068208  55.1648689  11.0061187
  56.0859219  56.1088945  10.9040641  52.1349944  50.5709767  17.9867645
  51.3217810  50.8703937  18.3932837  52.6308939  50.1765456  18.7042127
  54.2858522  60.5667524  19.9201910  54.2434701  60.7928370  18.9910442
  55.2021221  60.3330898  20.0687711  57.7324156  51.0351591  26.8182539
  58.0873544  51.2623064  27.6777005  58.3796287  51.3669968  26.1959794
  63.4621893  54.1570027  17.5231868  63.3239792  54.3471623  16.5953057
  63.1058112  54.9189410  17.9799919  51.6264019  48.1428122  23.6028880
  52.2663398  48.0016881  22.9051843  50.7941550  47.8562636  23.2267482
  63.4891273  56.2246554  22.5343140  63.9227779  56.1321843  23.3826194
  64.2022853  56.2004055  21.8963156  52.4024323  57.4430553  19.7163873
  53.1964921  56.9480873  19.5146448  51.6916015  56.9148416  19.3531578
  57.2219167  59.8248648  24.0676240  57.2756190  60.3939585  24.8353956
  56.3533949  59.9950533  23.7030277  48.7107086  51.5873634  15.7923625
  47.7804675  51.5258090  16.0093587  48.8064558  51.0649587  14.9960267
  48.6292635  48.1128447  18.3801867  48.8899453  49.0273780  18.2711027
  49.4509808  47.6452890  18.5298480  50.1017561  49.5266204  25.5500691
  50.7740614  49.3183567  24.9013340  49.2747347  49.3288290  25.1105924
  56.0043133  46.1528145  27.5666352  55.3571048  46.8518095  27.4730829
  56.7744148  46.5864289  27.9342601  56.1807267  53.9908910  25.6263172
  57.1099327  54.1420070  25.4532139  55.7598297  54.0792931  24.7711819
  54.9795599  58.0159575  23.3961710  54.8406685  57.6478359  24.2687648
  54.1910195  58.5307214  23.2245667  55.5743751  63.1168671  14.7387246
  55.7495507  62.6456714  15.5532869  54.8876539  63.7434437  14.9668507
  56.5300814  57.3941177  20.7850547  56.1950647  57.3541947  21.6808197
  56.0304760  56.7285893  20.3120958  50.5045058  52.8008807  26.3103129
  50.3664856  52.0689046  26.9114668  51.4149982  52.7117707  26.0287316
  59.4660006  54.7397212  11.0587607  58.8489176  54.0144040  10.9620660
  58.9976494  55.5006572  10.7154681  53.1327359  52.5128767  25.7986808
  53.8426977  51.8721959  25.7573427  53.0896667  52.7641662  26.7212989
  51.8456293  49.4993985  27.6182448  51.3093650  49.0484723  28.2704044
  51.2573001  49.6339893  26.8752912  50.1404836  66.2658034  21.5127106
  50.3801434  66.8976558  22.1906125  49.2974033  65.9146074  21.7992466
  51.2558552  48.9582636  10.1808911  50.3788018  48.8371437   9.8171158
  51.7316305  48.1668714   9.9287800  42.7760692  53.7459796  20.2750419
  43.4631732  53.4321526  19.6871434  42.6208821  54.6501160  20.0017670
  47.5795414  48.6349992  24.7035442  47.4953603  48.0275662  23.9685852
  46.7578120  49.1259011  24.7044939  54.6532698  62.0737156  23.9168610
  54.5802870  62.8792128  24.4287915  54.2110091  62.2729122  23.0916632
  54.4422478  61.3108926  17.4271432  53.6590000  61.8530607  17.5209656
  55.1415223  61.8282906  17.8265673  57.7519128  47.1203556  20.0705637
  58.2487827  46.3673518  19.7506708  56.9806109  47.1567872  19.5048847
  65.6048885  52.8243921  21.7123929  65.5938761  53.7068637  21.3417862
  64.7366265  52.4715472  21.5178466  57.1131382  61.9723990  26.0726769
  57.8259354  62.6071455  26.0002671  56.6221410  62.0687856  25.2566771
  58.8348909  55.8775243  17.6444061  57.9005187  55.9976706  17.4748765
  59.0125577  54.9747710  17.3804071  54.3354097  49.2620939  19.7977322
  53.9651884  48.7091979  20.4858227  54.8313189  48.6579072  19.2452322
  62.2221460  51.7192562  18.1794095  62.6881912  52.5520554  18.1054398
  62.6728960  51.2537544  18.8839353  52.1643295  59.7218434  26.8932340
  52.8652755  60.3554917  27.0461734  51.6938410  60.0633165  26.1327979
  60.2897691  58.0636384  15.1780247  60.5657535  57.9492978  16.0874121
  59.4202190  57.6653868  15.1392420  60.1938123  44.0873149  22.2184996
  59.2801202  44.3177376  22.3867203  60.6231224  44.1711593  23.0699029
  59.9644581  52.2763041  24.7184890  59.3116031  52.5238949  24.0637343
  60.3424961  51.4627179  24.3847368  56.9251755  62.3122734  18.8213061
  57.1074150  61.4944390  19.2840813  57.7484741  62.5290427  18.3837951
  57.2593920  61.2390920  16.0828109  57.7881687  60.7283374  15.4698271
  57.5222140  60.9233450  16.9473642  47.7611013  59.2554789  23.8263443
  48.3464450  58.5098477  23.9591347  47.5635852  59.5658746  24.7100106
  50.6149668  62.2906036  18.8425885  49.9460044  62.7752164  18.3589925
  50.4762538  62.5375257  19.7569263  42.3528668  51.8260389  22.5467886
  42.3912767  51.2923980  23.3405004  41.8468961  51.2995595  21.9278863
  54.7554937  64.3249780  25.4408543  55.3073245  64.4881401  26.2057629
  55.0961130  64.9154218  24.7688568  49.7319430  46.6724930  26.0430428
  49.7960757  47.5339760  25.6307826  49.6686550  46.0598931  25.3102787
  49.2071703  48.7448062  29.6903462  49.8343742  48.3625139  30.3040987
  48.3499622  48.5262264  30.0559155  45.9837246  50.5524491  15.6221817
  46.2790687  49.6435170  15.5688871  45.0825281  50.5312231  15.3002819
  57.8923324  62.2731755  22.4272225  57.7674464  61.4721495  21.9183171
  58.5502415  62.7677949  21.9386195  49.5131493  48.6280488  21.6049366
  48.7918078  49.2416456  21.4656839  50.3024748  49.1638253  21.5266012
  59.9558233  60.0740775  24.0551776  59.0088568  59.9546127  23.9830102
  60.3041006  59.1863273  24.1378037  52.3157806  45.9634914  27.8790017
  52.8392208  46.2097211  28.6416327  52.0970139  46.7954949  27.4593155
  47.7125087  48.2338589  15.7461142  47.3837793  47.3535968  15.5636248
  48.0664458  48.1786258  16.6337531  56.9604666  59.8693492  20.2556128
  56.8129628  58.9410199  20.4363698  57.7858159  59.8913582  19.7713203
  50.8266910  48.5211559  16.1136620  51.1662983  49.0497480  15.3915228
  51.2739031  48.8591965  16.8895186  60.5638788  60.6922050  21.3421001
  61.4885335  60.4864912  21.2045452  60.3954091  60.4438452  22.2510342
  53.5210351  46.9048609  25.5639688  53.1807171  46.1056422  25.9660368
  52.8149357  47.2050320  24.9916521  54.1726823  43.9897922  24.0167011
  54.9952892  43.5158400  23.8945901  54.4164886  44.7688406  24.5165697
  52.8135057  47.0186180  14.3129913  53.5343420  47.3967433  13.8093630
  52.1900362  47.7375057  14.4164891  56.9566180  47.7231329  15.2488245
  57.1729795  48.6055967  14.9477073  56.4760247  47.3317543  14.5193887
  51.6965402  50.6817042  21.8258990  51.5509982  50.9957346  22.7183271
  51.2190605  51.3001943  21.2729888  53.5561785  47.6719590  21.8739879
  53.5423353  46.7760684  21.5372177  54.2734213  47.6790254  22.5078165
  55.4087915  48.1056931  23.9193007  55.1505693  49.0274001  23.9177337
  54.8772956  47.7087365  24.6093471  60.3534104  61.2107718  16.6983092
  60.5270982  60.6454140  15.9456944  60.8462995  62.0108613  16.5162582
  46.1711064  53.2222387  24.7646651  45.6264532  53.9982195  24.8966925
  47.0490414  53.5693191  24.6065772  52.9598680  46.5533971  17.1427449
  53.0814592  45.6250617  17.3418337  52.6700723  46.5672657  16.2305765
  55.8289871  44.2388881  20.2794169  55.8511568  44.3028214  19.3246149
  56.2457930  43.3993390  20.4734675  66.2073495  53.9744141  18.3173392
  66.6504641  53.2251466  17.9192515  65.3300005  53.9654277  17.9347124
  61.3409277  60.5274482  13.7979990  62.0360181  61.1481175  14.0167305
  61.6832427  59.6769833  14.0732368  46.9577086  52.3492283  27.6576808
  46.2158822  52.4974919  28.2441438  46.6369830  52.6100549  26.7943557
  63.2400700  57.9774188  15.3267321  63.7652024  58.3161460  14.6016641
  63.1523052  57.0421203  15.1430456  54.9241360  64.0446171  19.6862574
  54.4846351  63.5522550  20.3795431  55.6749477  63.5019139  19.4454649
  47.4033699  60.2357712  19.6887202  48.2291719  59.9361484  19.3085846
  47.0527751  59.4665334  20.1376991  52.3715233  59.5884180  21.7584876
  51.7495242  58.9254885  21.4587104  53.0420099  59.6145312  21.0758524
  45.6042304  58.1544038  20.6476136  44.7674213  57.7266213  20.4660137
  45.5765950  58.3476482  21.5846927  52.4439760  48.0665968  31.3517382
  52.4927916  48.9428091  30.9695152  52.9862274  47.5243361  30.7789025
  51.9328739  58.1388103  15.2343336  52.0816860  58.8223568  14.5810009
  52.7395183  58.1193193  15.7492792  54.6739048  48.8197341  28.1063741
  53.8042358  49.1130907  27.8346329  54.9098529  49.4037786  28.8271004
  65.7506360  55.4449379  20.7095839  66.5853251  55.8839183  20.8733400
  65.8865489  54.9688032  19.8904085  49.6881372  54.1653281  16.2404405
  49.4427414  53.2615611  16.4384615  49.8577287  54.1670432  15.2983883
  57.3778082  45.0376957  25.6229161  57.8960026  45.7737984  25.2975650
  57.0233215  45.3440951  26.4575920  48.9577020  49.8981639  13.7390567
  48.2646265  49.9725994  13.0830603  48.7128772  49.1341982  14.2612084
  57.6290676  41.4577240  21.1430058  57.9092430  40.7900429  21.7690484
  58.4141283  41.6506336  20.6304721  55.4324145  60.6336234  12.7055084
  54.8598112  61.2526421  12.2525556  56.0056939  61.1835596  13.2395006
  61.4999535  49.8794874  24.8901633  62.4516958  49.9792972  24.9113857
  61.3302985  49.0873143  25.3999717  59.5213914  46.9650457  25.0761034
  58.9263846  47.2455470  24.3807522  59.2363611  47.4544358  25.8477775
  58.6521405  60.9173384  13.8363666  59.5852078  60.8518946  14.0396542
  58.5644618  61.7529651  13.3778199  61.2809421  60.2339254  10.7967614
  61.2023053  59.8999118  11.6903372  62.1019088  60.7261022  10.7959086
  63.9787613  53.1000994  24.0043932  63.9463933  52.1616994  24.1903616
  64.5888236  53.1785030  23.2709757  55.8170943  51.9697047  10.0471136
  56.7630048  51.8403255  10.1159554  55.4385188  51.2311709  10.5240565
  64.1282101  49.8912037  24.0502215  63.6121150  49.1070494  23.8632144
  65.0122050  49.5630754  24.2148735  61.7892828  43.6353053  20.0098028
  61.5917649  43.3268141  20.8941360  62.3992534  44.3614692  20.1395958
  54.0013861  49.8947023   9.9826022  53.0945316  49.5980136  10.0588735
  54.2789842  49.5976841   9.1160308  44.9191801  51.2153386  20.4325068
  44.5994585  50.3618695  20.1399442  44.3725229  51.4301965  21.1883035
  48.6971709  53.9315827  24.1494574  48.9157718  54.8632935  24.1682608
  49.1097482  53.5723802  24.9349378  55.6175926  44.4383913  16.1370263
  54.8076655  44.0930998  16.5125509  56.3060343  44.1291456  16.7257874
  57.5466475  43.5161960  17.7594560  58.0997513  43.9357413  18.4184583
  57.7836561  42.5897708  17.8017516  53.5699574  49.5049033  33.5397323
  53.4696301  50.4543390  33.4709415  53.3521116  49.1767272  32.6673394
  52.7712645  46.7533958  10.1238001  53.6331809  47.0788857  10.3833818
  52.9562989  45.9665454   9.6111067  44.7880061  54.8356298  22.4018190
  44.0943532  54.4210251  21.8888144  45.5353052  54.8776834  21.8051608
  60.9245282  45.6262485  17.2673224  60.3443951  46.2847289  16.8851276
  60.6581214  44.8039829  16.8560641  59.3748848  45.0267542  19.4694544
  59.8748626  45.1384077  18.6608863  60.0184456  44.7228595  20.1095353
  53.4330844  52.9346172  32.3562385  52.9497926  53.7346532  32.5626274
  53.5191783  52.9454117  31.4029829  46.7016804  54.7674552  20.2784204
  46.6787492  54.8662239  19.3266088  47.0117440  55.6139703  20.6001371
  49.3604181  56.8250707  24.3930819  50.3147435  56.7934649  24.3260750
  49.1616705  56.3641330  25.2081045  49.9503564  55.3951823  26.9601617
  50.7696453  55.8895901  26.9836454  50.2240371  54.4783791  26.9319184
  59.7070160  47.7862575  16.3229572  58.8196015  48.0712226  16.1049767
  60.1224149  47.6256338  15.4756849  63.0584696  47.8109096  20.0383911
  63.8345086  48.3005549  20.3108528  62.3332830  48.2367150  20.4955781
  65.4957254  48.5236715  21.0957852  66.0901745  48.2832451  20.3851160
  65.5683838  47.8043846  21.7231388  47.7154410  62.3670326  21.4101017
  47.5808878  61.6070727  20.8439015  47.2986472  63.0911226  20.9429806
  58.8513373  57.5507250  10.4177592  59.5549223  57.7557252  11.0335248
  58.1276022  58.1184012  10.6826676  59.6811183  53.3017111  16.5379862
  59.6246385  53.7585662  15.6987495  60.2339526  52.5407796  16.3602705
  63.4915989  49.0906843  17.3629982  63.2352924  48.6903479  18.1938189
  62.8668857  49.8050637  17.2380121  67.8028327  51.8302916  19.8701273
  67.2427885  51.8996105  20.6432835  67.1971831  51.6543901  19.1500769
  50.8723536  63.2639643  21.6219459  50.7555920  64.2085076  21.5198150
  50.0515982  62.9613205  22.0105259  60.7600071  57.9889779  12.4676052
  61.5945675  57.5570977  12.2853527  60.5984414  57.8171793  13.3952947
  60.4145963  54.4921892  13.8332391  60.3594767  54.3266164  12.8920835
  59.7892018  55.1997925  13.9894581  45.2038478  49.7289957  27.6593814
  45.8497341  49.2188911  28.1481039  44.9955629  50.4658638  28.2337239
  53.7242088  43.9930001  13.4117710  53.7120758  44.9371841  13.5685981
  54.6165510  43.8100147  13.1177171  51.8978050  63.9167905  24.8375388
  52.8005297  63.9491515  25.1541883  51.6715420  62.9868356  24.8521724
  53.6531652  62.6698892  21.4985466  52.7027283  62.6700753  21.3849839
  53.9564138  61.9231626  20.9821501  57.5394208  40.5872778  17.6663647
  56.7726604  40.0331265  17.8120329  57.9504913  40.6594647  18.5277798
  49.5435969  46.8757574  31.7568828  50.4067430  46.5194379  31.9672152
  48.9701379  46.5371469  32.4444232  69.3884346  68.5059430  22.5631229
  70.0262756  68.3866177  21.8594569  69.2705189  69.4540274  22.6219181
  66.1974052  68.4586858  22.4992754  65.8592564  68.3427923  21.6113288
  67.0663820  68.0578023  22.4793760  62.0560868  70.3122335  18.4889644
  61.4925733  70.2212272  17.7205932  61.9413263  69.4922239  18.9692137
  59.6025300  71.8073526  21.3273865  60.3946592  71.4664351  20.9120164
  59.8421950  71.9168501  22.2476018  67.6360426  73.9793302  13.8004109
  66.9848406  74.5647383  13.4138123  68.4304789  74.5099497  13.8599147
  61.5616054  71.0682439  14.1991244  62.3346930  70.5211427  14.0604120
  61.9141452  71.9326689  14.4105705  64.3257303  69.7735670  23.9959503
  64.9220875  69.5491693  23.2816466  64.3832275  69.0320416  24.5984951
  63.8982331  67.2275106  11.8309694  64.1507852  66.7056627  11.0693157
  62.9606890  67.0641251  11.9336377  68.9425614  66.2310884  19.6384437
  69.7288703  65.8130307  19.2874854  69.2064319  67.1356976  19.8066085
  69.1135692  71.6683734  14.3373094  68.4781525  71.7418361  15.0493998
  68.7833098  72.2577333  13.6592173  74.3434041  66.1686117  20.5417415
  75.0759213  65.5985334  20.7755245  73.5873397  65.7807718  20.9823921
  63.6178620  69.1303212  14.0334069  63.5014878  68.4548115  14.7015153
  63.7280880  68.6435585  13.2166222  65.9610161  68.5913359  17.7380758
  65.5968368  68.0643980  18.4493679  66.8177277  68.2011828  17.5647243
  65.6015648  63.6203258  12.7342106  65.7690050  64.4883495  13.1012577
  65.4112817  63.7830540  11.8103396  68.3590981  72.0820237  24.4007937
  68.0591704  72.9845276  24.2923744  68.0142041  71.8152420  25.2529090
  71.7588125  64.6002777  22.0805374  70.8505002  64.5318186  21.7864135
  71.7075721  65.0774722  22.9087200  65.5804869  66.0760916  13.7188773
  65.4604494  66.5217967  14.5574253  64.8857457  66.4246233  13.1602311
  63.3411761  78.8464558  17.3678904  63.2635791  79.7972383  17.4467385
  62.7373405  78.5010430  18.0253831  73.6249771  62.8019216  23.8583248
  72.9824152  63.0951749  23.2123043  73.1204700  62.6872136  24.6636445
  71.2789935  66.5482389  14.5469107  72.1907791  66.7809776  14.3716805
  70.7699582  67.1319433  13.9844186  69.8859517  71.5308207  21.9382689
  69.2568380  71.6953922  21.2358757  69.4985179  71.9449817  22.7093653
  73.7648749  72.4662645  19.2927052  73.0799787  72.8461547  18.7424086
  73.8492599  73.0757972  20.0259000  71.0199681  70.1122604  25.8922396
  71.2316576  70.7554364  25.2156777  70.9729429  69.2784921  25.4244326
  68.6225910  62.7240425  22.7958968  67.7610389  63.0221679  23.0875706
  68.6488344  62.9410824  21.8640001  65.4387479  71.2682616  19.2032774
  65.9025825  71.5470319  18.4137396  65.1744277  70.3666060  19.0205864
  64.3756365  67.3905768  16.0122339  65.0780409  67.8426812  16.4796265
  64.0436994  66.7489587  16.6402232  58.1181699  65.6489321  21.3139472
  57.3280753  65.9046849  20.8379583  58.6092947  66.4637658  21.4191513
  72.1345509  72.9894560  24.0644753  72.9562953  72.5874747  23.7827435
  72.1307912  72.8862794  25.0160869  60.0696445  66.0133900  18.2722949
  59.2727608  66.1252594  18.7906445  59.8422037  66.3520552  17.4063840
  56.4019402  65.9019811  23.7454463  56.6527441  66.7866821  24.0112039
  56.9378951  65.7224413  22.9729555  80.2251502  69.3333308  20.4129725
  79.4715210  68.7640706  20.2573729  80.3599043  69.2995973  21.3600359
  65.6150130  74.2046711  16.0884444  65.4795805  75.0498246  16.5169292
  66.1559942  74.4065988  15.3250378  59.0679527  71.7222149  16.6612369
  59.5804048  72.5165399  16.8117934  59.7202240  71.0248439  16.5945971
  60.8774412  74.8387905  18.7435122  61.0541040  75.7605870  18.5556106
  61.6731246  74.5246324  19.1729502  62.0005727  76.3566079  24.7445465
  62.5513153  76.2283142  23.9722459  61.1617203  76.6560968  24.3940358
  69.3399844  75.1073077  28.2466187  69.3218320  75.9281958  27.7546457
  70.2619764  74.9827152  28.4716329  57.0328444  70.0510803  17.4371940
  57.8703666  70.4607811  17.2205647  57.2106712  69.1110245  17.4072134
  68.9292876  67.7185884  13.1255773  68.4139500  68.4890488  13.3644160
  68.6570185  67.0451020  13.7488834  66.5139987  62.5635584  18.1841011
  65.6581584  62.1742435  18.0046650  66.9266939  62.6427545  17.3240797
  64.2882020  60.1820657  21.5898753  65.1535017  59.9863466  21.2304642
  64.3559529  59.9531009  22.5168109  73.9027150  70.4718238  15.0608946
  73.1256593  70.1329398  14.6164108  74.5818631  70.4770861  14.3863911
  68.7179179  65.5912976  14.9515554  68.4129315  65.9059125  15.8025697
  69.6709622  65.6694396  14.9942887  67.1625611  71.7503199  16.6008508
  66.6346973  71.0155959  16.2881745  66.6613114  72.5277875  16.3548476
  72.1418457  69.9452219  21.7175554  71.4842132  70.6351481  21.8055683
  72.9458856  70.3348651  22.0609541  61.8944339  62.4122865  18.9615119
  62.4688091  62.1898047  18.2288312  62.4815321  62.4811560  19.7143721
  70.9523916  68.2996592  19.7679496  71.4655798  68.9326584  20.2701206
  71.6025140  67.6997788  19.4022856  62.2213926  64.4427326  12.9811005
  61.3851238  64.7802013  13.3020279  62.0818696  64.3076306  12.0438142
  64.1967007  59.2864114  17.6890189  63.5431419  58.9713131  17.0646804
  64.1547481  58.6639855  18.4150012  65.3078211  69.5683409   9.6043481
  64.4005273  69.3372663   9.8034630  65.8049243  68.7721028   9.7917462
  68.2146290  78.2780916  12.5240167  67.5407989  78.5812613  13.1325125
  68.6012112  79.0809997  12.1745624  67.4304747  65.7746048  22.0137836
  66.5127308  65.9960995  21.8559524  67.8464891  65.8492358  21.1549544
  68.2139795  67.1737463  17.1440517  68.9611614  67.6858861  16.8347639
  68.4831384  66.8521516  18.0044910  66.4866445  69.6696004  14.1267471
  65.5777664  69.3855037  14.2239941  66.5161529  70.0895083  13.2670778
  71.7185712  73.2802594  17.8958639  71.2648039  72.4393503  17.9523829
  71.0879679  73.9163992  18.2333419  70.6618632  64.2094580  19.1259306
  69.9241389  63.6971966  19.4569549  70.9145405  63.7694961  18.3142583
  70.1618652  75.1179090  18.8308457  70.4541626  75.6784147  18.1120822
  70.6717272  75.4107651  19.5861616  70.7630259  56.9870832  19.7201075
  71.0689136  56.1268195  19.4326990  71.4882864  57.5788452  19.5200069
  57.0554615  67.3901518  18.1082673  56.8579015  66.7970879  17.3833740
  56.5001279  67.0853728  18.8258612  65.0351339  67.2824625  20.2277266
  65.0899949  66.3298461  20.1519743  64.2242541  67.4384064  20.7118565
  66.1842533  71.2104748  11.4655550  65.7461963  70.4940607  11.0061187
  66.9252974  71.4380863  10.9040641  62.9743699  65.9001684  17.9867645
  62.1611564  66.1995855  18.3932837  63.4702693  65.5057373  18.7042127
  65.1252277  75.8959441  19.9201910  65.0828455  76.1220288  18.9910442
  66.0414976  75.6622816  20.0687711  74.3015647  69.4861945  17.5231868
  74.1633546  69.6763541  16.5953057  73.9451866  70.2481328  17.9799919
  62.4657774  63.4720040  23.6028880  63.1057153  63.3308799  22.9051843
  61.6335304  63.1854553  23.2267482  74.3285027  71.5538472  22.5343140
  74.7621534  71.4613761  23.3826194  75.0416608  71.5295972  21.8963156
  63.2418077  72.7722470  19.7163873  64.0358676  72.2772790  19.5146448
  62.5309770  72.2440333  19.3531578  68.0612922  75.1540566  24.0676240
  68.1149944  75.7231502  24.8353956  67.1927703  75.3242451  23.7030277
  59.5500841  66.9165552  15.7923625  58.6198429  66.8550008  16.0093587
  59.6458313  66.3941505  14.9960267  59.4686390  63.4420365  18.3801867
  59.7293207  64.3565698  18.2711027  60.2903562  62.9744807  18.5298480
  75.1900577  71.5962172  25.0676025  75.3836467  72.5007983  25.3135300
  75.0901195  71.1369592  25.9014610  67.0201022  69.3200828  25.6263172
  67.9493082  69.4711988  25.4532139  66.5992052  69.4084849  24.7711819
  65.8189353  73.3451492  23.3961710  65.6800439  72.9770277  24.2687648
  65.0303950  73.8599132  23.2245667  66.4137505  78.4460589  14.7387246
  66.5889261  77.9748632  15.5532869  65.7270293  79.0726355  14.9668507
  67.3694569  72.7233095  20.7850547  67.0344401  72.6833865  21.6808197
  66.8698514  72.0577811  20.3120958  70.3053760  70.0689129  11.0587607
  69.6882931  69.3435958  10.9620660  69.8370249  70.8298490  10.7154681
  71.9607892  74.7788038  28.7193387  71.9020438  74.0947258  28.0523971
  72.3627410  75.5207028  28.2674013  60.9798591  81.5949952  21.5127106
  61.2195189  82.2268476  22.1906125  60.1367787  81.2437992  21.7992466
  62.0952306  64.2874554  10.1808911  61.2181772  64.1663354   9.8171158
  62.5710059  63.4960632   9.9287800  71.9625299  72.7427622  26.9507367
  71.0752078  72.4053543  27.0733766  72.5323850  72.0110653  27.1876133
  53.6154446  69.0751713  20.2750419  54.3025486  68.7613443  19.6871434
  53.4602575  69.9793078  20.0017670  65.4926453  77.4029074  23.9168610
  65.4196624  78.2084046  24.4287915  65.0503846  77.6021040  23.0916632
  65.2816232  76.6400844  17.4271432  64.4983754  77.1822524  17.5209656
  65.9808977  77.1574824  17.8265673  68.5912882  62.4495474  20.0705637
  69.0881582  61.6965436  19.7506708  67.8199864  62.4859790  19.5048847
  76.4442640  68.1535839  21.7123929  76.4332516  69.0360554  21.3417862
  75.5760019  67.8007390  21.5178466  67.9525136  77.3015908  26.0726769
  68.6653108  77.9363373  26.0002671  67.4615165  77.3979774  25.2566771
  69.6742663  71.2067161  17.6444061  68.7398942  71.3268623  17.4748765
  69.8519331  70.3039627  17.3804071  65.1747851  64.5912856  19.7977322
  64.8045639  64.0383897  20.4858227  65.6706944  63.9870990  19.2452322
  73.0615214  67.0484480  18.1794095  73.5275667  67.8812472  18.1054398
  73.5122715  66.5829462  18.8839353  63.0037050  75.0510352  26.8932340
  63.7046509  75.6846834  27.0461734  62.5332165  75.3925083  26.1327979
  71.1291445  73.3928301  15.1780247  71.4051289  73.2784896  16.0874121
  70.2595944  72.9945786  15.1392420  71.0331877  59.4165067  22.2184996
  70.1194957  59.6469294  22.3867203  71.4624979  59.5003511  23.0699029
  70.8038336  67.6054959  24.7184890  70.1509786  67.8530866  24.0637343
  71.1818716  66.7919097  24.3847368  67.7645509  77.6414652  18.8213061
  67.9467904  76.8236308  19.2840813  68.5878495  77.8582344  18.3837951
  68.0987675  76.5682837  16.0828109  68.6275441  76.0575292  15.4698271
  68.3615895  76.2525367  16.9473642  58.6004768  74.5846707  23.8263443
  59.1858205  73.8390394  23.9591347  58.4029606  74.8950663  24.7100106
  61.4543423  77.6197954  18.8425885  60.7853798  78.1044082  18.3589925
  61.3156293  77.8667174  19.7569263  53.1922422  67.1552307  22.5467886
  53.2306522  66.6215897  23.3405004  52.6862715  66.6287512  21.9278863
  65.5948692  79.6541697  25.4408543  66.1467000  79.8173319  26.2057629
  65.9354885  80.2446135  24.7688568  56.8231000  65.8816409  15.6221817
  57.1184441  64.9727087  15.5688871  55.9219036  65.8604148  15.3002819
  68.7317079  77.6023673  22.4272225  68.6068218  76.8013413  21.9183171
  69.3896170  78.0969866  21.9386195  60.3525247  63.9572405  21.6049366
  59.6311833  64.5708373  21.4656839  61.1418503  64.4930170  21.5266012
  70.7951987  75.4032693  24.0551776  69.8482323  75.2838044  23.9830102
  71.1434760  74.5155191  24.1378037  58.5518842  63.5630507  15.7461142
  58.2231548  62.6827885  15.5636248  58.9058212  63.5078175  16.6337531
  67.7998420  75.1985409  20.2556128  67.6523383  74.2702117  20.4363698
  68.6251914  75.2205500  19.7713203  61.6660665  63.8503476  16.1136620
  62.0056737  64.3789398  15.3915228  62.1132785  64.1883882  16.8895186
  71.4032542  76.0213968  21.3421001  72.3279090  75.8156829  21.2045452
  71.2347846  75.7730369  22.2510342  63.6528812  62.3478098  14.3129913
  64.3737174  62.7259351  13.8093630  63.0294116  63.0666975  14.4164891
  67.7959935  63.0523247  15.2488245  68.0123549  63.9347885  14.9477073
  67.3154002  62.6609460  14.5193887  64.3955539  63.0011508  21.8739879
  64.3817108  62.1052601  21.5372177  65.1127967  63.0082172  22.5078165
  71.1927859  76.5399635  16.6983092  71.3664736  75.9746058  15.9456944
  71.6856750  77.3400530  16.5162582  63.7992435  61.8825888  17.1427449
  63.9208346  60.9542535  17.3418337  63.5094477  61.8964574  16.2305765
  66.6683625  59.5680799  20.2794169  66.6905322  59.6320132  19.3246149
  67.0851684  58.7285308  20.4734675  77.0467250  69.3036058  18.3173392
  77.4898396  68.5543384  17.9192515  76.1693760  69.2946195  17.9347124
  72.1803031  75.8566400  13.7979990  72.8753936  76.4773093  14.0167305
  72.5226181  75.0061751  14.0732368  74.0794454  73.3066105  15.3267321
  74.6045778  73.6453378  14.6016641  73.9916807  72.3713121  15.1430456
  65.7414503  77.2200179  27.4557198  66.0501629  76.9749326  28.3279897
  66.5389985  77.4246818  26.9676068  65.7635115  79.3738089  19.6862574
  65.3240105  78.8814467  20.3795431  66.5143232  78.8311056  19.4454649
  58.2427454  75.5649630  19.6887202  59.0685474  75.2653401  19.3085846
  57.8921506  74.7957252  20.1376991  63.2108987  74.9176098  21.7584876
  62.5888996  74.2546803  21.4587104  63.8813854  74.9437230  21.0758524
  56.4436059  73.4835956  20.6476136  55.6067967  73.0558130  20.4660137
  56.4159704  73.6768399  21.5846927  73.8886235  70.7891475  27.9451248
  73.9384240  70.6241483  28.8866770  73.7800159  69.9218734  27.5549128
  62.7722494  73.4680021  15.2343336  62.9210614  74.1515486  14.5810009
  63.5788937  73.4485111  15.7492792  75.3904432  73.2088417  28.1893269
  75.0989240  73.5718397  29.0256730  74.7776563  72.4955425  28.0106601
  76.5900114  70.7741297  20.7095839  77.4247006  71.2131101  20.8733400
  76.7259243  70.2979950  19.8904085  73.6391620  68.3321032  26.6573327
  74.1145742  68.5248678  25.8492178  72.7157186  68.3880217  26.4116711
  60.5275127  69.4945199  16.2404405  60.2821169  68.5907529  16.4384615
  60.6971041  69.4962349  15.2983883  59.7970774  65.2273556  13.7390567
  59.1040019  65.3017911  13.0830603  59.5522526  64.4633900  14.2612084
  68.4684431  56.7869158  21.1430058  68.7486185  56.1192347  21.7690484
  69.2535038  56.9798253  20.6304721  66.2717899  75.9628152  12.7055084
  65.6991867  76.5818339  12.2525556  66.8450693  76.5127513  13.2395006
  72.3393289  65.2086792  24.8901633  73.2910712  65.3084889  24.9113857
  72.1696740  64.4165060  25.3999717  69.4915159  76.2465302  13.8363666
  70.4245832  76.1810863  14.0396542  69.4038372  77.0821569  13.3778199
  72.1203176  75.5631172  10.7967614  72.0416807  75.2291036  11.6903372
  72.9412843  76.0552940  10.7959086  74.8181367  68.4292911  24.0043932
  74.7857687  67.4908912  24.1903616  75.4281991  68.5076948  23.2709757
  66.6564698  67.2988964  10.0471136  67.6023803  67.1695172  10.1159554
  66.2778943  66.5603626  10.5240565  74.9675856  65.2203955  24.0502215
  74.4514904  64.4362411  23.8632144  75.8515804  64.8922671  24.2148735
  72.6286583  58.9644970  20.0098028  72.4311404  58.6560059  20.8941360
  73.2386288  59.6906609  20.1395958  80.6357917  69.4908918  23.1449969
  81.3661305  69.2294206  23.7057672  80.0264862  68.7537640  23.1852037
  78.7173214  67.6316781  23.7424420  77.9906378  67.4972746  23.1340912
  78.3020501  67.9393609  24.5481138  64.8407615  65.2238941   9.9826022
  63.9339071  64.9272053  10.0588735  65.1183596  64.9268759   9.1160308
  55.7585555  66.5445304  20.4325068  55.4388340  65.6910612  20.1399442
  55.2118984  66.7593882  21.1883035  66.4569681  59.7675830  16.1370263
  65.6470409  59.4222915  16.5125509  67.1454098  59.4583374  16.7257874
  68.3860229  58.8453877  17.7594560  68.9391268  59.2649331  18.4184583
  68.6230315  57.9189625  17.8017516  63.6106400  62.0825876  10.1238001
  64.4725564  62.4080774  10.3833818  63.7956744  61.2957372   9.6111067
  55.6273815  70.1648216  22.4018190  54.9337287  69.7502168  21.8888144
  56.3746806  70.2068752  21.8051608  71.7639036  60.9554402  17.2673224
  71.1837705  61.6139206  16.8851276  71.4974969  60.1331747  16.8560641
  70.2142603  60.3559460  19.4694544  70.7142381  60.4675995  18.6608863
  70.8578211  60.0520513  20.1095353  57.5410558  70.0966469  20.2784204
  57.5181246  70.1954157  19.3266088  57.8511195  70.9431620  20.6001371
  60.1997936  72.1542624  24.3930819  61.1541189  72.1226567  24.3260750
  60.0010459  71.6933248  25.2081045  70.5463914  63.1154493  16.3229572
  69.6589769  63.4004143  16.1049767  70.9617903  62.9548256  15.4756849
  73.8978450  63.1401014  20.0383911  74.6738840  63.6297466  20.3108528
  73.1726585  63.5659068  20.4955781  76.3351009  63.8528633  21.0957852
  76.9295500  63.6124369  20.3851160  76.4077593  63.1335764  21.7231388
  58.5548165  77.6962244  21.4101017  58.4202633  76.9362645  20.8439015
  58.1380227  78.4203144  20.9429806  69.6907128  72.8799167  10.4177592
  70.3942978  73.0849170  11.0335248  68.9669776  73.4475929  10.6826676
  70.5204938  68.6309029  16.5379862  70.4640139  69.0877580  15.6987495
  71.0733280  67.8699713  16.3602705  74.3309744  64.4198761  17.3629982
  74.0746678  64.0195396  18.1938189  73.7062612  65.1342555  17.2380121
  78.6422082  67.1594834  19.8701273  78.0821640  67.2288023  20.6432835
  78.0365585  66.9835818  19.1500769  61.7117291  78.5931561  21.6219459
  61.5949675  79.5376993  21.5198150  60.8909737  78.2905122  22.0105259
  71.5993825  73.3181697  12.4676052  72.4339429  72.8862895  12.2853527
  71.4378168  73.1463710  13.3952947  71.2539717  69.8213810  13.8332391
  71.1988521  69.6558081  12.8920835  70.6285773  70.5289843  13.9894581
  64.5635843  59.3221919  13.4117710  64.5514513  60.2663759  13.5685981
  65.4559265  59.1392064  13.1177171  62.7371805  79.2459823  24.8375388
  63.6399051  79.2783433  25.1541883  62.5109175  78.3160274  24.8521724
  64.4925407  77.9990809  21.4985466  63.5421038  77.9992671  21.3849839
  64.7957893  77.2523544  20.9821501  68.3787962  55.9164696  17.6663647
  67.6120358  55.3623182  17.8120329  68.7898667  55.9886564  18.5277798
  80.2278100  83.8351348  22.5631229  80.8656510  83.7158095  21.8594569
  80.1098943  84.7832192  22.6219181  77.0367806  83.7878776  22.4992754
  76.6986318  83.6719841  21.6113288  77.9057575  83.3869941  22.4793760
  72.8954622  85.6414252  18.4889644  72.3319487  85.5504189  17.7205932
  72.7807017  84.8214157  18.9692137  77.5187589  84.9413628  28.4578959
  77.5076230  84.5466426  27.5859463  77.6808229  84.2079700  29.0512730
  70.4419054  87.1365444  21.3273865  71.2340346  86.7956269  20.9120164
  70.6815704  87.2460419  22.2476018  78.4754181  89.3085220  13.8004109
  77.8242161  89.8939300  13.4138123  79.2698544  89.8391415  13.8599147
  72.4009808  86.3974357  14.1991244  73.1740684  85.8503344  14.0604120
  72.7535207  87.2618606  14.4105705  74.2394851  87.7250739  27.4058143
  73.9484717  88.6296370  27.2904809  74.8751835  87.7667267  28.1202213
  75.1651057  85.1027588  23.9959503  75.7614630  84.8783610  23.2816466
  75.2226029  84.3612333  24.5984951  74.7376086  82.5567023  11.8309694
  74.9901607  82.0348545  11.0693157  73.8000645  82.3933169  11.9336377
  79.7819369  81.5602802  19.6384437  80.5682458  81.1422225  19.2874854
  80.0458073  82.4648894  19.8066085  79.9529446  86.9975652  14.3373094
  79.3175279  87.0710278  15.0493998  79.6226852  87.5869251  13.6592173
  85.1827796  81.4978035  20.5417415  85.9152968  80.9277252  20.7755245
  84.4267152  81.1099635  20.9823921  74.4572375  84.4595129  14.0334069
  74.3408633  83.7840033  14.7015153  74.5674635  83.9727503  13.2166222
  76.8003916  83.9205276  17.7380758  76.4362123  83.3935897  18.4493679
  77.6571031  83.5303745  17.5647243  82.7053216  75.2099609  25.0012024
  82.3736541  76.0795020  24.7773239  82.1098830  74.8935893  25.6806054
  76.4409403  78.9495176  12.7342106  76.6083805  79.8175412  13.1012577
  76.2506572  79.1122458  11.8103396  79.1984736  87.4112155  24.4007937
  78.8985459  88.3137194  24.2923744  78.8535795  87.1444338  25.2529090
  72.6497217  83.8625952  20.4344641  71.7247714  83.7302166  20.6422333
  72.8981630  84.6420171  20.9314584  82.5981879  79.9294695  22.0805374
  81.6898757  79.8610104  21.7864135  82.5469475  80.4066640  22.9087200
  76.4198623  81.4052833  13.7188773  76.2998249  81.8509884  14.5574253
  75.7251212  81.7538151  13.1602311  70.0106028  83.5059225  21.2688430
  70.1398409  83.7593704  22.1827842  69.3303480  84.0986933  20.9493085
  74.1805516  94.1756475  17.3678904  74.1029545  95.1264300  17.4467385
  73.5767159  93.8302348  18.0253831  76.6722745  81.3484341  30.0240271
  75.8956079  81.9078261  30.0143136  77.3113308  81.8341124  30.5455141
  84.4643526  78.1311133  23.8583248  83.8217906  78.4243667  23.2123043
  83.9598454  78.0164054  24.6636445  82.1183690  81.8774307  14.5469107
  83.0301546  82.1101693  14.3716805  81.6093337  82.4611351  13.9844186
  74.9269118  84.1569794  29.5858238  75.6683802  84.6954838  29.3093062
  74.2206103  84.7836083  29.7429790  80.4024457  86.2998935  28.1830400
  80.8107813  85.8581345  27.4385032  79.6801719  85.7251562  28.4364593
  76.7555527  81.2371541  25.5563957  77.6016722  81.6610955  25.6998606
  76.6954165  80.5805166  26.2502520  80.7253272  86.8600125  21.9382689
  80.0962134  87.0245839  21.2358757  80.3378934  87.2741735  22.7093653
  84.6042504  87.7954563  19.2927052  83.9193542  88.1753464  18.7424086
  84.6886353  88.4049890  20.0259000  79.9054973  78.8975910  27.2145130
  79.6615904  79.6517970  26.6779406  80.1814903  79.2761257  28.0492377
  81.8593435  85.4414522  25.8922396  82.0710331  86.0846282  25.2156777
  81.8123184  84.6076839  25.4244326  79.4619664  78.0532343  22.7958968
  78.6004143  78.3513596  23.0875706  79.4882099  78.2702742  21.8640001
  76.2781234  86.5974533  19.2032774  76.7419579  86.8762236  18.4137396
  76.0138032  85.6957978  19.0205864  73.1705315  86.1446015  22.1412537
  73.7406672  86.5733283  21.5030022  73.7613427  85.8628599  22.8396723
  75.2150120  82.7197686  16.0122339  75.9174163  83.1718729  16.4796265
  74.8830748  82.0781504  16.6402232  73.6630481  81.3109442  30.3873548
  73.0329142  81.9925723  30.6208945  73.5566569  81.1992524  29.4426687
  68.9575454  80.9781238  21.3139472  68.1674508  81.2338767  20.8379583
  69.4486701  81.7929576  21.4191513  82.9739263  88.3186477  24.0644753
  83.7956707  87.9166665  23.7827435  82.9701666  88.2154712  25.0160869
  70.9090199  81.3425817  18.2722949  70.1121362  81.4544512  18.7906445
  70.6815791  81.6812470  17.4063840  76.7395867  87.8670521  26.2205464
  76.8040299  88.3290928  27.0563636  76.0306791  87.2367886  26.3487774
  67.2413157  81.2311729  23.7454463  67.4921195  82.1158739  24.0112039
  67.7772705  81.0516330  22.9729555  91.0645256  84.6625226  20.4129725
  90.3108965  84.0932624  20.2573729  91.1992798  84.6287890  21.3600359
  76.4543884  89.5338628  16.0884444  76.3189559  90.3790164  16.5169292
  76.9953697  89.7357906  15.3250378  69.9073282  87.0514066  16.6612369
  70.4197802  87.8457316  16.8117934  70.5595995  86.3540357  16.5945971
  71.7168167  90.1679823  18.7435122  71.8934795  91.0897787  18.5556106
  72.5125000  89.8538242  19.1729502  71.0020523  82.2144454  28.6197286
  70.8874038  81.3129712  28.9204385  70.1465041  82.4608151  28.2682102
  78.0812361  90.1562195  30.2184786  77.6376215  89.3698573  29.9005691
  78.7429574  90.3441345  29.5528677  72.8399482  91.6857996  24.7445465
  73.3906907  91.5575060  23.9722459  72.0010958  91.9852885  24.3940358
  80.1793599  90.4364995  28.2466187  80.1612074  91.2573876  27.7546457
  81.1013519  90.3119070  28.4716329  76.6366653  87.9509124  29.0889696
  77.1694990  87.1897412  28.8589004  76.1080734  87.6582776  29.8313850
  79.8036348  73.0569190  24.6183338  79.4600617  73.9470832  24.5422448
  80.1715311  72.8670848  23.7552923  67.8722199  85.3802721  17.4371940
  68.7097421  85.7899729  17.2205647  68.0500466  84.4402163  17.4072134
  79.7686631  83.0477801  13.1255773  79.2533254  83.8182406  13.3644160
  79.4963939  82.3742937  13.7488834  77.3533742  77.8927502  18.1841011
  76.4975338  77.5034352  18.0046650  77.7660694  77.9719463  17.3240797
  78.8832888  75.4273845  22.5832571  78.3797684  75.3903980  21.7700376
  79.1763495  76.3366588  22.6429227  75.1275774  75.5112575  21.5898753
  75.9928771  75.3155384  21.2304642  75.1953283  75.2822927  22.5168109
  84.7420905  85.8010156  15.0608946  83.9650348  85.4621315  14.6164108
  85.4212386  85.8062779  14.3863911  79.5572934  80.9204893  14.9515554
  79.2523069  81.2351042  15.8025697  80.5103376  80.9986313  14.9942887
  78.0019366  87.0795117  16.6008508  77.4740727  86.3447876  16.2881745
  77.5006868  87.8569793  16.3548476  82.9812212  85.2744137  21.7175554
  82.3235886  85.9643398  21.8055683  83.7852611  85.6640569  22.0609541
  72.7338093  77.7414783  18.9615119  73.3081845  77.5189964  18.2288312
  73.3209076  77.8103477  19.7143721  81.7917671  83.6288510  19.7679496
  82.3049552  84.2618502  20.2701206  82.4418894  83.0289705  19.4022856
  73.0607680  79.7719244  12.9811005  72.2244993  80.1093930  13.3020279
  72.9212450  79.6368224  12.0438142  75.0360761  74.6156032  17.6890189
  74.3825173  74.3005049  17.0646804  74.9941235  73.9931772  18.4150012
  76.1471966  84.8975327   9.6043481  75.2399028  84.6664580   9.8034630
  76.6442998  84.1012946   9.7917462  78.2698501  81.1037965  22.0137836
  77.3521063  81.3252912  21.8559524  78.6858645  81.1784276  21.1549544
  79.0533549  82.5029381  17.1440517  79.8005368  83.0150778  16.8347639
  79.3225139  82.1813434  18.0044910  77.3260199  84.9987922  14.1267471
  76.4171419  84.7146955  14.2239941  77.3555283  85.4187000  13.2670778
  82.5579467  88.6094511  17.8958639  82.1041794  87.7685421  17.9523829
  81.9273433  89.2455910  18.2333419  81.5012386  79.5386497  19.1259306
  80.7635143  79.0263883  19.4569549  81.7539160  79.0986879  18.3142583
  81.0012406  90.4471008  18.8308457  81.2935380  91.0076065  18.1120822
  81.5111027  90.7399569  19.5861616  81.6024014  72.3162749  19.7201075
  81.9082890  71.4560113  19.4326990  82.3276618  72.9080369  19.5200069
  67.8948370  82.7193436  18.1082673  67.6972770  82.1262797  17.3833740
  67.3395034  82.4145646  18.8258612  75.8745093  82.6116542  20.2277266
  75.9293703  81.6590379  20.1519743  75.0636295  82.7675981  20.7118565
  77.0236287  86.5396665  11.4655550  76.5855717  85.8232524  11.0061187
  77.7646728  86.7672780  10.9040641  73.8137453  81.2293602  17.9867645
  73.0005319  81.5287773  18.3932837  74.3096447  80.8349291  18.7042127
  75.9646031  91.2251359  19.9201910  75.9222210  91.4512205  18.9910442
  76.8808730  90.9914734  20.0687711  79.4111665  81.6935427  26.8182539
  79.7661053  81.9206900  27.6777005  80.0583796  82.0253803  26.1959794
  85.1409402  84.8153862  17.5231868  85.0027301  85.0055458  16.5953057
  84.7845621  85.5773245  17.9799919  73.3051528  78.8011958  23.6028880
  73.9450907  78.6600717  22.9051843  72.4729059  78.5146471  23.2267482
  85.1678782  86.8830389  22.5343140  85.6015288  86.7905679  23.3826194
  85.8810362  86.8587890  21.8963156  74.0811832  88.1014388  19.7163873
  74.8752430  87.6064708  19.5146448  73.3703524  87.5732251  19.3531578
  78.9006676  90.4832484  24.0676240  78.9543699  91.0523420  24.8353956
  78.0321458  90.6534369  23.7030277  70.3894595  82.2457470  15.7923625
  69.4592184  82.1841925  16.0093587  70.4852067  81.7233423  14.9960267
  70.3080144  78.7712283  18.3801867  70.5686962  79.6857616  18.2711027
  71.1297317  78.3036725  18.5298480  71.7805070  80.1850040  25.5500691
  72.4528123  79.9767402  24.9013340  70.9534856  79.9872126  25.1105924
  86.0294331  86.9254090  25.0676025  86.2230221  87.8299901  25.3135300
  85.9294949  86.4661509  25.9014610  77.6830642  76.8111981  27.5666352
  77.0358557  77.5101930  27.4730829  78.4531657  77.2448125  27.9342601
  81.0909440  87.0760833  30.6416906  80.9394946  86.8471385  29.7246989
  81.0814119  88.0331434  30.6548251  77.8594776  84.6492746  25.6263172
  78.7886836  84.8003905  25.4532139  77.4385806  84.7376766  24.7711819
  76.6583108  88.6743410  23.3961710  76.5194194  88.3062194  24.2687648
  75.8697704  89.1891049  23.2245667  77.2531260  93.7752506  14.7387246
  77.4283016  93.3040550  15.5532869  76.5664048  94.4018273  14.9668507
  78.2088323  88.0525013  20.7850547  77.8738156  88.0125783  21.6808197
  77.7092269  87.3869729  20.3120958  72.1832567  83.4592643  26.3103129
  72.0452365  82.7272882  26.9114668  73.0937491  83.3701543  26.0287316
  81.1447515  85.3981047  11.0587607  80.5276685  84.6727875  10.9620660
  80.6764003  86.1590407  10.7154681  74.8114868  83.1712602  25.7986808
  75.5214486  82.5305794  25.7573427  74.7684176  83.4225497  26.7212989
  82.8001646  90.1079955  28.7193387  82.7414193  89.4239176  28.0523971
  83.2021165  90.8498945  28.2674013  73.5243802  80.1577820  27.6182448
  72.9881159  79.7068558  28.2704044  72.9360510  80.2923729  26.8752912
  71.8192345  96.9241869  21.5127106  72.0588943  97.5560393  22.1906125
  70.9761542  96.5729909  21.7992466  72.9346061  79.6166471  10.1808911
  72.0575527  79.4955272   9.8171158  73.4103814  78.8252550   9.9287800
  82.8019054  88.0719539  26.9507367  81.9145832  87.7345461  27.0733766
  83.3717605  87.3402571  27.1876133  64.4548201  84.4043631  20.2750419
  65.1419241  84.0905361  19.6871434  64.2996329  85.3084996  20.0017670
  69.2582923  79.2933828  24.7035442  69.1741112  78.6859497  23.9685852
  68.4365629  79.7842846  24.7044939  76.3320207  92.7320992  23.9168610
  76.2590379  93.5375963  24.4287915  75.8897600  92.9312958  23.0916632
  76.1209987  91.9692762  17.4271432  75.3377509  92.5114442  17.5209656
  76.8202732  92.4866741  17.8265673  79.4306637  77.7787391  20.0705637
  79.9275336  77.0257354  19.7506708  78.6593618  77.8151708  19.5048847
  87.2836394  83.4827757  21.7123929  87.2726270  84.3652472  21.3417862
  86.4153774  83.1299308  21.5178466  78.7918891  92.6307826  26.0726769
  79.5046863  93.2655291  26.0002671  78.3008919  92.7271692  25.2566771
  80.5136418  86.5359078  17.6444061  79.5792696  86.6560541  17.4748765
  80.6913086  85.6331545  17.3804071  76.0141606  79.9204774  19.7977322
  75.6439393  79.3675815  20.4858227  76.5100698  79.3162908  19.2452322
  83.9008969  82.3776398  18.1794095  84.3669421  83.2104389  18.1054398
  84.3516469  81.9121379  18.8839353  73.8430804  90.3802269  26.8932340
  74.5440264  91.0138752  27.0461734  73.3725919  90.7217001  26.1327979
  81.9685200  88.7220219  15.1780247  82.2445044  88.6076814  16.0874121
  81.0989699  88.3237704  15.1392420  81.8725632  74.7456985  22.2184996
  80.9588711  74.9761212  22.3867203  82.3018733  74.8295429  23.0699029
  81.6432090  82.9346877  24.7184890  80.9903540  83.1822784  24.0637343
  82.0212470  82.1211015  24.3847368  78.6039264  92.9706570  18.8213061
  78.7861659  92.1528226  19.2840813  79.4272250  93.1874262  18.3837951
  78.9381429  91.8974755  16.0828109  79.4669196  91.3867210  15.4698271
  79.2009649  91.5817285  16.9473642  77.6919663  83.6766688  31.2050927
  77.0160300  83.5760817  31.8753303  78.5147297  83.5205901  31.6686925
  69.4398522  89.9138624  23.8263443  70.0251959  89.1682312  23.9591347
  69.2423361  90.2242581  24.7100106  72.2937177  92.9489872  18.8425885
  71.6247553  93.4335999  18.3589925  72.1550047  93.1959092  19.7569263
  64.0316177  82.4844224  22.5467886  64.0700276  81.9507815  23.3405004
  63.5256470  81.9579430  21.9278863  76.4342446  94.9833615  25.4408543
  76.9860754  95.1465237  26.2057629  76.7748639  95.5738053  24.7688568
  71.4106939  77.3308765  26.0430428  71.4748266  78.1923596  25.6307826
  71.3474059  76.7182767  25.3102787  70.8859212  79.4031897  29.6903462
  71.5131251  79.0208975  30.3040987  70.0287131  79.1846099  30.0559155
  81.2853320  89.8094873  31.2957198  81.8293224  90.4224831  30.8012153
  80.7040165  90.3674451  31.8124211  67.6624755  81.2108327  15.6221817
  67.9578196  80.3019005  15.5688871  66.7612790  81.1896066  15.3002819
  79.5710833  92.9315591  22.4272225  79.4461973  92.1305331  21.9183171
  80.2289924  93.4261784  21.9386195  71.1919002  79.2864323  21.6049366
  70.4705587  79.9000291  21.4656839  71.9812257  79.8222088  21.5266012
  81.6345742  90.7324611  24.0551776  80.6876077  90.6129962  23.9830102
  81.9828515  89.8447109  24.1378037  73.9945315  76.6218750  27.8790017
  74.5179717  76.8681046  28.6416327  73.7757648  77.4538784  27.4593155
  69.3912596  78.8922424  15.7461142  69.0625302  78.0119803  15.5636248
  69.7451967  78.8370093  16.6337531  78.6392175  90.5277327  20.2556128
  78.4917137  89.5994034  20.4363698  79.4645668  90.5497418  19.7713203
  72.5054419  79.1795394  16.1136620  72.8450492  79.7081315  15.3915228
  72.9526540  79.5175800  16.8895186  82.2426297  91.3505886  21.3421001
  83.1672844  91.1448747  21.2045452  82.0741600  91.1022287  22.2510342
  75.1997860  77.5632445  25.5639688  74.8594680  76.7640258  25.9660368
  74.4936866  77.8634156  24.9916521  75.8514332  74.6481757  24.0167011
  76.6740401  74.1742235  23.8945901  76.0952395  75.4272241  24.5165697
  74.4922566  77.6770016  14.3129913  75.2130929  78.0551268  13.8093630
  73.8687871  78.3958892  14.4164891  78.6353689  78.3815165  15.2488245
  78.8517304  79.2639802  14.9477073  78.1547756  77.9901378  14.5193887
  73.3752911  81.3400878  21.8258990  73.2297491  81.6541181  22.7183271
  72.8978114  81.9585778  21.2729888  75.2349294  78.3303426  21.8739879
  75.2210862  77.4344519  21.5372177  75.9521722  78.3374090  22.5078165
  77.0875424  78.7640766  23.9193007  76.8293202  79.6857837  23.9177337
  76.5560465  78.3671201  24.6093471  82.0321613  91.8691553  16.6983092
  82.2058491  91.3037976  15.9456944  82.5250504  92.6692448  16.5162582
  67.8498573  83.8806222  24.7646651  67.3052041  84.6566030  24.8966925
  68.7277923  84.2277027  24.6065772  74.6386189  77.2117806  17.1427449
  74.7602101  76.2834452  17.3418337  74.3488232  77.2256492  16.2305765
  77.5077380  74.8972717  20.2794169  77.5299077  74.9612050  19.3246149
  77.9245439  74.0577225  20.4734675  87.8861004  84.6327976  18.3173392
  88.3292150  83.8835301  17.9192515  87.0087514  84.6238112  17.9347124
  83.0196786  91.1858318  13.7979990  83.7147690  91.8065010  14.0167305
  83.3619936  90.3353669  14.0732368  68.6364595  83.0076119  27.6576808
  67.8946331  83.1558754  28.2441438  68.3157339  83.2684384  26.7943557
  84.9188209  88.6358023  15.3267321  85.4439533  88.9745296  14.6016641
  84.8310561  87.7005038  15.1430456  76.5808257  92.5492097  27.4557198
  76.8895384  92.3041243  28.3279897  77.3783739  92.7538735  26.9676068
  76.6028869  94.7030006  19.6862574  76.1633860  94.2106385  20.3795431
  77.3536986  94.1602974  19.4454649  69.0821208  90.8941547  19.6887202
  69.9079228  90.5945319  19.3085846  68.7315260  90.1249170  20.1376991
  74.0502742  90.2468015  21.7584876  73.4282751  89.5838720  21.4587104
  74.7207608  90.2729147  21.0758524  67.2829813  88.8127874  20.6476136
  66.4461722  88.3850048  20.4660137  67.2553459  89.0060317  21.5846927
  84.6082115  89.2690927  30.6318519  83.8177658  89.2515066  30.0923018
  84.3715469  89.8079220  31.3867556  84.7279990  86.1183393  27.9451248
  84.7777995  85.9533401  28.8866770  84.6193913  85.2510652  27.5549128
  73.6116248  88.7971939  15.2343336  73.7604369  89.4807403  14.5810009
  74.4182692  88.7777029  15.7492792  82.0183752  82.1014321  29.2610554
  82.9193615  81.9620786  28.9694552  82.0931727  82.2668776  30.2008732
  76.3526557  79.4781176  28.1063741  75.4829867  79.7714742  27.8346329
  76.5886038  80.0621621  28.8271004  86.2298187  88.5380335  28.1893269
  85.9382995  88.9010315  29.0256730  85.6170318  87.8247343  28.0106601
  87.4293869  86.1033214  20.7095839  88.2640760  86.5423018  20.8733400
  87.5652998  85.6271868  19.8904085  84.4785375  83.6612949  26.6573327
  84.9539496  83.8540596  25.8492178  83.5550940  83.7172135  26.4116711
  71.3668881  84.8237116  16.2404405  71.1214923  83.9199446  16.4384615
  71.5364796  84.8254267  15.2983883  79.0565591  75.6960793  25.6229161
  79.5747535  76.4321820  25.2975650  78.7020724  76.0024786  26.4575920
  70.6364529  80.5565474  13.7390567  69.9433774  80.6309829  13.0830603
  70.3916281  79.7925818  14.2612084  79.3078185  72.1161075  21.1430058
  79.5879939  71.4484264  21.7690484  80.0928792  72.3090171  20.6304721
  77.1111654  91.2920069  12.7055084  76.5385621  91.9110256  12.2525556
  77.6844448  91.8419431  13.2395006  83.1787044  80.5378709  24.8901633
  84.1304467  80.6376807  24.9113857  83.0090494  79.7456978  25.3999717
  81.2001423  77.6234293  25.0761034  80.6051355  77.9039305  24.3807522
  80.9151120  78.1128193  25.8477775  80.3308914  91.5757219  13.8363666
  81.2639587  91.5102781  14.0396542  80.2432127  92.4113486  13.3778199
  85.6575122  83.7584829  24.0043932  85.6251442  82.8200830  24.1903616
  86.2675745  83.8368866  23.2709757  77.4958452  82.6280882  10.0471136
  78.4417557  82.4987090  10.1159554  77.1172697  81.8895544  10.5240565
  85.8069610  80.5495872  24.0502215  85.2908659  79.7654329  23.8632144
  86.6909559  80.2214589  24.2148735  83.4680337  74.2936888  20.0098028
  83.2705158  73.9851976  20.8941360  84.0780043  75.0198527  20.1395958
  91.4751671  84.8200836  23.1449969  92.2055060  84.5586124  23.7057672
  90.8658617  84.0829558  23.1852037  89.5566969  82.9608698  23.7424420
  88.8300132  82.8264663  23.1340912  89.1414255  83.2685527  24.5481138
  77.3797145  86.6798628  31.5071793  78.3000154  86.8577227  31.7011840
  77.3446728  85.7354673  31.3551493  75.6801370  80.5530858   9.9826022
  74.7732825  80.2563971  10.0588735  75.9577351  80.2560676   9.1160308
  66.5979310  81.8737222  20.4325068  66.2782094  81.0202530  20.1399442
  66.0512738  82.0885800  21.1883035  70.3759218  84.5899663  24.1494574
  70.5945227  85.5216771  24.1682608  70.7884991  84.2307637  24.9349378
  77.2963435  75.0967748  16.1370263  76.4864164  74.7514833  16.5125509
  77.9847852  74.7875292  16.7257874  79.2253984  74.1745795  17.7594560
  79.7785022  74.5941248  18.4184583  79.4624070  73.2481543  17.8017516
  74.4500154  77.4117794  10.1238001  75.3119318  77.7372692  10.3833818
  74.6350498  76.6249289   9.6111067  66.4667570  85.4940133  22.4018190
  65.7731041  85.0794086  21.8888144  67.2140561  85.5360670  21.8051608
  82.6032791  76.2846320  17.2673224  82.0231460  76.9431124  16.8851276
  82.3368723  75.4623665  16.8560641  81.0536357  75.6851378  19.4694544
  81.5536135  75.7967912  18.6608863  81.6971965  75.3812431  20.1095353
  75.1118353  83.5930007  32.3562385  74.6285435  84.3930367  32.5626274
  75.1979292  83.6037952  31.4029829  68.3804313  85.4258387  20.2784204
  68.3575001  85.5246074  19.3266088  68.6904949  86.2723538  20.6001371
  71.0391690  87.4834542  24.3930819  71.9934944  87.4518484  24.3260750
  70.8404214  87.0225166  25.2081045  71.6291073  86.0535658  26.9601617
  72.4483962  86.5479737  26.9836454  71.9027880  85.1367626  26.9319184
  81.3857669  78.4446410  16.3229572  80.4983524  78.7296061  16.1049767
  81.8011658  78.2840174  15.4756849  84.7372205  78.4692931  20.0383911
  85.5132595  78.9589384  20.3108528  84.0120339  78.8950986  20.4955781
  87.1744763  79.1820551  21.0957852  87.7689254  78.9416287  20.3851160
  87.2471347  78.4627681  21.7231388  69.3941919  93.0254162  21.4101017
  69.2596387  92.2654562  20.8439015  68.9773981  93.7495061  20.9429806
  81.3598692  83.9600946  16.5379862  81.3033894  84.4169498  15.6987495
  81.9127035  83.1991631  16.3602705  85.1703498  79.7490678  17.3629982
  84.9140433  79.3487314  18.1938189  84.5456366  80.4634472  17.2380121
  89.4815836  82.4886751  19.8701273  88.9215394  82.5579941  20.6432835
  88.8759340  82.3127736  19.1500769  72.5511045  93.9223479  21.6219459
  72.4343429  94.8668911  21.5198150  71.7303491  93.6197040  22.0105259
  82.4387580  88.6473614  12.4676052  83.2733184  88.2154813  12.2853527
  82.2771923  88.4755628  13.3952947  82.0933472  85.1505728  13.8332391
  82.0382276  84.9849999  12.8920835  81.4679527  85.8581761  13.9894581
  66.8825987  80.3873792  27.6593814  67.5284850  79.8772746  28.1481039
  66.6743138  81.1242474  28.2337239  79.4079379  87.4554639  33.1585954
  80.2770539  87.6295292  32.7972589  78.9286130  88.2749056  33.0361683
  75.4029597  74.6513837  13.4117710  75.3908267  75.5955677  13.5685981
  76.2953019  74.4683982  13.1177171  73.5765559  94.5751740  24.8375388
  74.4792806  94.6075351  25.1541883  73.3502929  93.6452191  24.8521724
  75.3319161  93.3282727  21.4985466  74.3814792  93.3284589  21.3849839
  75.6351647  92.5815462  20.9821501  79.2181717  71.2456613  17.6663647
  78.4514113  70.6915100  17.8120329  79.6292422  71.3178482  18.5277798
  71.2223478  77.5341409  31.7568828  72.0854939  77.1778214  31.9672152
  70.6488888  77.1955304  32.4444232  91.0671855  99.1643265  22.5631229
  91.7050265  99.0450013  21.8594569  90.9492698 100.1124109  22.6219181
  87.8761561  99.1170694  22.4992754  87.5380072  99.0011758  21.6113288
  88.7451329  98.7161859  22.4793760  88.3581344 100.2705545  28.4578959
  88.3469985  99.8758344  27.5859463  88.5201983  99.5371618  29.0512730
  81.2812809 102.4657362  21.3273865  82.0734101 102.1248186  20.9120164
  81.5209459 102.5752337  22.2476018  85.0788605 103.0542657  27.4058143
  84.7878471 103.9588288  27.2904809  85.7145589 103.0959185  28.1202213
  86.0044812 100.4319506  23.9959503  86.6008384 100.2075528  23.2816466
  86.0619783  99.6904251  24.5984951  93.5446971  90.5391527  25.0012024
  93.2130295  91.4086938  24.7773239  92.9492584  90.2227811  25.6806054
  90.0378490 102.7404073  24.4007937  89.7379213 103.6429111  24.2923744
  89.6929550 102.4736256  25.2529090  83.4890972  99.1917869  20.4344641
  82.5641468  99.0594084  20.6422333  83.7375385  99.9712089  20.9314584
  93.4375634  95.2586613  22.0805374  92.5292511  95.1902021  21.7864135
  93.3863230  95.7358558  22.9087200  80.8499783  98.8351143  21.2688430
  80.9792164  99.0885622  22.1827842  80.1697234  99.4278851  20.9493085
  87.5116500  96.6776258  30.0240271  86.7349834  97.2370178  30.0143136
  88.1507063  97.1633041  30.5455141  95.3037280  93.4603051  23.8583248
  94.6611661  93.7535584  23.2123043  94.7992209  93.3455971  24.6636445
  85.7662872  99.4861712  29.5858238  86.5077556 100.0246756  29.3093062
  85.0599858 100.1128000  29.7429790  91.2418212 101.6290852  28.1830400
  91.6501568 101.1873263  27.4385032  90.5195473 101.0543480  28.4364593
  87.5949282  96.5663459  25.5563957  88.4410477  96.9902872  25.6998606
  87.5347919  95.9097083  26.2502520  90.7448727  94.2267827  27.2145130
  90.5009659  94.9809888  26.6779406  91.0208658  94.6053175  28.0492377
  92.6987190 100.7706440  25.8922396  92.9104085 101.4138200  25.2156777
  92.6516938  99.9368756  25.4244326  90.3013419  93.3824260  22.7958968
  89.4397898  93.6805514  23.0875706  90.3275853  93.5994659  21.8640001
  84.0099069 101.4737932  22.1412537  84.5800426 101.9025201  21.5030022
  84.6007181 101.1920517  22.8396723  84.5024236  96.6401360  30.3873548
  83.8722896  97.3217641  30.6208945  84.3960324  96.5284441  29.4426687
  79.7969208  96.3073156  21.3139472  79.0068262  96.5630684  20.8379583
  80.2880456  97.1221494  21.4191513  81.7483954  96.6717735  18.2722949
  80.9515117  96.7836429  18.7906445  81.5209546  97.0104387  17.4063840
  87.5789621 103.1962438  26.2205464  87.6434054 103.6582846  27.0563636
  86.8700545 102.5659803  26.3487774  78.0806911  96.5603646  23.7454463
  78.3314950  97.4450656  24.0112039  78.6166460  96.3808248  22.9729555
  83.7804979  90.9422126  32.7498799  83.3871924  90.3888324  33.4246444
  84.5971119  91.2532704  33.1405317  86.6972940  92.3580005  30.3419056
  87.4382653  92.9587158  30.2623518  86.9290862  91.6157643  29.7837098
  81.8414278  97.5436372  28.6197286  81.7267793  96.6421629  28.9204385
  80.9858795  97.7900069  28.2682102  88.9206115 105.4854112  30.2184786
  88.4769969 104.6990491  29.9005691  89.5823329 105.6733263  29.5528677
  83.6793236 107.0149914  24.7445465  84.2300662 106.8866977  23.9722459
  82.8404712 107.3144803  24.3940358  91.0187353 105.7656912  28.2466187
  91.0005829 106.5865793  27.7546457  91.9407273 105.6410988  28.4716329
  87.4760408 103.2801042  29.0889696  88.0088744 102.5189330  28.8589004
  86.9474489 102.9874694  29.8313850  90.6430102  88.3861108  24.6183338
  90.2994372  89.2762749  24.5422448  91.0109065  88.1962765  23.7552923
  88.1927496  93.2219420  18.1841011  87.3369093  92.8326270  18.0046650
  88.6054448  93.3011380  17.3240797  89.7226643  90.7565763  22.5832571
  89.2191438  90.7195898  21.7700376  90.0157250  91.6658506  22.6429227
  85.9669529  90.8404493  21.5898753  86.8322526  90.6447301  21.2304642
  86.0347038  90.6114844  22.5168109  83.5731848  93.0706701  18.9615119
  84.1475600  92.8481882  18.2288312  84.1602830  93.1395395  19.7143721
  85.8754516  89.9447949  17.6890189  85.2218928  89.6296967  17.0646804
  85.8334990  89.3223690  18.4150012  89.1092256  96.4329883  22.0137836
  88.1914817  96.6544830  21.8559524  89.5252400  96.5076193  21.1549544
  92.4417768  87.6454667  19.7201075  92.7476645  86.7852030  19.4326990
  93.1670373  88.2372287  19.5200069  78.7342124  98.0485354  18.1082673
  78.5366524  97.4554714  17.3833740  78.1788788  97.7437564  18.8258612
  86.7138848  97.9408460  20.2277266  86.7687458  96.9882296  20.1519743
  85.9030050  98.0967899  20.7118565  84.6531208  96.5585520  17.9867645
  83.8399073  96.8579690  18.3932837  85.1490202  96.1641209  18.7042127
  90.2505419  97.0227344  26.8182539  90.6054807  97.2498817  27.6777005
  90.8977551  97.3545721  26.1959794  84.1445283  94.1303875  23.6028880
  84.7844662  93.9892634  22.9051843  83.3122813  93.8438389  23.2267482
  81.1473899  94.1004200  18.3801867  81.4080716  95.0149534  18.2711027
  81.9691071  93.6328643  18.5298480  82.6198824  95.5141957  25.5500691
  83.2921878  95.3059320  24.9013340  81.7928611  95.3164043  25.1105924
  88.5224396  92.1403898  27.5666352  87.8752311  92.8393848  27.4730829
  89.2925412  92.5740042  27.9342601  91.9303194 102.4052751  30.6416906
  91.7788701 102.1763302  29.7246989  91.9207874 103.3623352  30.6548251
  88.6988531  99.9784663  25.6263172  89.6280591 100.1295823  25.4532139
  88.2779561 100.0668684  24.7711819  87.4976862 104.0035328  23.3961710
  87.3587948 103.6354112  24.2687648  86.7091459 104.5182967  23.2245667
  83.0226322  98.7884560  26.3103129  82.8846119  98.0564799  26.9114668
  83.9331245  98.6993461  26.0287316  85.6508622  98.5004520  25.7986808
  86.3608241  97.8597712  25.7573427  85.6077930  98.7517415  26.7212989
  93.6395401 105.4371873  28.7193387  93.5807947 104.7531093  28.0523971
  94.0414919 106.1790863  28.2674013  84.3637556  95.4869738  27.6182448
  83.8274913  95.0360476  28.2704044  83.7754265  95.6215646  26.8752912
  93.6412808 103.4011457  26.9507367  92.7539587 103.0637379  27.0733766
  94.2111359 102.6694488  27.1876133  75.2941955  99.7335549  20.2750419
  75.9812995  99.4197279  19.6871434  75.1390084 100.6376913  20.0017670
  80.0976677  94.6225745  24.7035442  80.0134866  94.0151415  23.9685852
  79.2759384  95.1134764  24.7044939  90.2700391  93.1079309  20.0705637
  90.7669091  92.3549271  19.7506708  89.4987373  93.1443626  19.5048847
  86.8535360  95.2496692  19.7977322  86.4833148  94.6967732  20.4858227
  87.3494453  94.6454825  19.2452322  84.6824559 105.7094187  26.8932340
  85.3834018 106.3430670  27.0461734  84.2119674 106.0508918  26.1327979
  92.7119386  90.0748902  22.2184996  91.7982466  90.3053129  22.3867203
  93.1412488  90.1587346  23.0699029  92.4825845  98.2638794  24.7184890
  91.8297295  98.5114702  24.0637343  92.8606224  97.4502932  24.3847368
  88.5313418  99.0058605  31.2050927  87.8554055  98.9052735  31.8753303
  89.3541051  98.8497819  31.6686925  80.2792277 105.2430542  23.8263443
  80.8645714 104.4974230  23.9591347  80.0817115 105.5534499  24.7100106
  74.8709931  97.8136142  22.5467886  74.9094031  97.2799733  23.3405004
  74.3650224  97.2871348  21.9278863  82.2500694  92.6600683  26.0430428
  82.3142020  93.5215514  25.6307826  82.1867814  92.0474684  25.3102787
  81.7252966  94.7323815  29.6903462  82.3525005  94.3500892  30.3040987
  80.8680885  94.5138017  30.0559155  92.1247075 105.1386790  31.2957198
  92.6686979 105.7516749  30.8012153  91.5433920 105.6966369  31.8124211
  78.5018509  96.5400244  15.6221817  78.7971950  95.6310923  15.5688871
  77.6006545  96.5187984  15.3002819  82.0312756  94.6156241  21.6049366
  81.3099342  95.2292209  21.4656839  82.8206012  95.1514006  21.5266012
  84.8339070  91.9510667  27.8790017  85.3573471  92.1972964  28.6416327
  84.6151403  92.7830702  27.4593155  80.2306351  94.2214342  15.7461142
  79.9019057  93.3411721  15.5636248  80.5845721  94.1662011  16.6337531
  86.0391615  92.8924362  25.5639688  85.6988435  92.0932176  25.9660368
  85.3330621  93.1926073  24.9916521  86.6908086  89.9773675  24.0167011
  87.5134156  89.5034153  23.8945901  86.9346150  90.7564159  24.5165697
  84.2146665  96.6692796  21.8258990  84.0691246  96.9833099  22.7183271
  83.7371869  97.2877696  21.2729888  86.0743048  93.6595344  21.8739879
  86.0604617  92.7636437  21.5372177  86.7915476  93.6666007  22.5078165
  87.9269179  94.0932684  23.9193007  87.6686957  95.0149754  23.9177337
  87.3954219  93.6963118  24.6093471  78.6892327  99.2098140  24.7646651
  78.1445795  99.9857948  24.8966925  79.5671677  99.5568944  24.6065772
  85.4779944  92.5409724  17.1427449  85.5995855  91.6126370  17.3418337
  85.1881986  92.5548410  16.2305765  88.3471134  90.2264634  20.2794169
  88.3692831  90.2903967  19.3246149  88.7639193  89.3869143  20.4734675
  79.4758349  98.3368036  27.6576808  78.7340085  98.4850672  28.2441438
  79.1551093  98.5976302  26.7943557  87.4202012 107.8784014  27.4557198
  87.7289138 107.6333161  28.3279897  88.2177494 108.0830653  26.9676068
  78.1223568 104.1419791  20.6476136  77.2855476 103.7141966  20.4660137
  78.0947213 104.3352235  21.5846927  84.9621024  94.0541721  31.3517382
  85.0109179  94.9303844  30.9695152  85.5043538  93.5119114  30.7789025
  95.4475869 104.5982844  30.6318519  94.6571413 104.5806983  30.0923018
  95.2109224 105.1371138  31.3867556  95.5673744 101.4475311  27.9451248
  95.6171749 101.2825318  28.8866770  95.4587668 100.5802570  27.5549128
  92.8577507  97.4306239  29.2610554  93.7587369  97.2912704  28.9694552
  92.9325481  97.5960694  30.2008732  87.1920312  94.8073094  28.1063741
  86.3223621  95.1006660  27.8346329  87.4279792  95.3913539  28.8271004
  97.0691941 103.8672252  28.1893269  96.7776749 104.2302233  29.0256730
  96.4564072 103.1539261  28.0106601  95.3179129  98.9904867  26.6573327
  95.7933251  99.1832513  25.8492178  94.3944695  99.0464053  26.4116711
  89.8959346  91.0252710  25.6229161  90.4141290  91.7613737  25.2975650
  89.5414479  91.3316704  26.4575920  90.1471940  87.4452993  21.1430058
  90.4273694  86.7776182  21.7690484  90.9322547  87.6382089  20.6304721
  94.0180798  95.8670627  24.8901633  94.9698221  95.9668725  24.9113857
  93.8484249  95.0748896  25.3999717  92.0395178  92.9526210  25.0761034
  91.4445110  93.2331223  24.3807522  91.7544874  93.4420111  25.8477775
  96.6463365  95.8787790  24.0502215  96.1302413  95.0946247  23.8632144
  97.5303313  95.5506507  24.2148735  94.3074091  89.6228806  20.0098028
  94.1098913  89.3143894  20.8941360  94.9173797  90.3490445  20.1395958
  88.2190899 102.0090546  31.5071793  89.1393909 102.1869145  31.7011840
  88.1840483 101.0646591  31.3551493  77.4373064  97.2029139  20.4325068
  77.1175849  96.3494448  20.1399442  76.8906493  97.4177718  21.1883035
  81.2152972  99.9191580  24.1494574  81.4338982 100.8508688  24.1682608
  81.6278746  99.5599555  24.9349378  88.1357190  90.4259666  16.1370263
  87.3257918  90.0806751  16.5125509  88.8241607  90.1167210  16.7257874
  90.0647738  89.5037713  17.7594560  90.6178777  89.9233166  18.4184583
  90.3017824  88.5773461  17.8017516  86.0880837  95.4924786  33.5397323
  85.9877564  96.4419143  33.4709415  85.8702379  95.1643025  32.6673394
  77.3061324 100.8232051  22.4018190  76.6124796 100.4086004  21.8888144
  78.0534315 100.8652587  21.8051608  91.8930112  91.0143295  19.4694544
  92.3929890  91.1259830  18.6608863  92.5365719  90.7104348  20.1095353
  85.9512107  98.9221925  32.3562385  85.4679189  99.7222285  32.5626274
  86.0373046  98.9329870  31.4029829  79.2198067 100.7550305  20.2784204
  79.1968755 100.8537992  19.3266088  79.5298704 101.6015456  20.6001371
  81.8785445 102.8126460  24.3930819  82.8328698 102.7810402  24.3260750
  81.6797968 102.3517084  25.2081045  82.4684827 101.3827576  26.9601617
  83.2877716 101.8771654  26.9836454  82.7421635 100.4659544  26.9319184
  77.7219741  95.7165710  27.6593814  78.3678605  95.2064664  28.1481039
  77.5136892  96.4534391  28.2337239  90.2473133 102.7846557  33.1585954
  91.1164293 102.9587209  32.7972589  89.7679885 103.6040974  33.0361683
  84.4159314 109.9043658  24.8375388  85.3186560 109.9367268  25.1541883
  84.1896684 108.9744109  24.8521724  90.0575471  86.5748531  17.6663647
  89.2907867  86.0207018  17.8120329  90.4686176  86.6470400  18.5277798
  82.0617232  92.8633327  31.7568828  82.9248694  92.5070132  31.9672152
  81.4882643  92.5247222  32.4444232  94.6198733 106.2714043  32.7498799
  94.2265679 105.7180242  33.4246444  95.4364873 106.5824622  33.1405317
  97.5366694 107.6871922  30.3419056  98.2776407 108.2879076  30.2623518
  97.7684617 106.9449560  29.7837098  92.5646721 110.0615733  29.6903462
  93.1918760 109.6792810  30.3040987  91.7074640 109.8429935  30.0559155
  95.8014778 109.3833639  31.3517382  95.8502933 110.2595762  30.9695152
  96.3437292 108.8411032  30.7789025  96.9274592 110.8216704  33.5397323
  96.8271319 111.7711061  33.4709415  96.7096134 110.4934943  32.6673394
  88.5613496 111.0457627  27.6593814  89.2072359 110.5356581  28.1481039
  88.3530647 111.7826309  28.2337239  92.9010987 108.1925244  31.7568828
  93.7642448 107.8362049  31.9672152  92.3276397 107.8539139  32.4444232
  50.2820384  21.1266325  15.4438694  50.2232930  20.4425545  14.7769277
  50.6839903  21.8685315  14.9919320  48.7672058  20.8281242  18.0202504
  49.3111962  21.4411200  17.5257459  48.1858903  21.3860821  18.5369517
  52.0900852  20.2877296  17.3563826  51.2996396  20.2701435  16.8168325
  51.8534207  20.8265590  18.1112862  53.7116924  19.5566704  14.9138576
  53.4201733  19.9196685  15.7502037  53.0989056  18.8433712  14.7351908
  46.8898117  18.4741009  19.8831261  47.7589276  18.6481661  19.5217896
  46.4104868  19.2935426  19.7606990  58.5490592  30.1829635   9.2876535
  59.1869002  30.0636382   8.5839876  58.4311435  31.1310479   9.3464488
  55.3580299  30.1357063   9.2238060  55.0198810  30.0198128   8.3358595
  56.2270067  29.7348228   9.2039066  55.8400082  31.2891915  15.1824266
  55.8288723  30.8944713  14.3104769  56.0020721  30.5557987  15.7758037
  48.7631546  33.4843731   8.0519172  49.5552838  33.1434556   7.6365471
  49.0028197  33.5938706   8.9721325  52.5607343  34.0729027  14.1303450
  52.2697209  34.9774657  14.0150116  53.1964327  34.1145554  14.8447519
  53.4863550  31.4505875  10.7204809  54.0827122  31.2261898  10.0061772
  53.5438521  30.7090621  11.3230257  63.5040288  27.8456322   7.2662722
  64.2365460  27.2755539   7.5000551  62.7479644  27.4577922   7.7069228
  61.0265708  21.5577896  11.7257331  60.6949033  22.4273307  11.5018546
  60.4311322  21.2414180  12.4051361  57.5197228  33.7590442  11.1253243
  57.2197951  34.6615481  11.0169051  57.1748287  33.4922625  11.9774396
  60.9194372  26.2772982   8.8050681  60.0111249  26.2088391   8.5109442
  60.8681968  26.7544927   9.6332506  52.5018008  40.5234762   4.0924211
  52.4242037  41.4742588   4.1712692  51.8979651  40.1780635   4.7499137
  54.9935238  27.6962628  16.7485578  54.2168572  28.2556548  16.7388443
  55.6325801  28.1819411  17.2700448  62.7856018  24.4789421  10.5828555
  62.1430398  24.7721954   9.9368349  62.2810947  24.3642341  11.3881751
  53.2481610  30.5048081  16.3103545  53.9896294  31.0433125  16.0338369
  52.5418595  31.1314370  16.4675097  58.7236949  32.6477222  14.9075706
  59.1320306  32.2059632  14.1630339  58.0014211  32.0729849  15.1609899
  55.0768020  27.5849829  12.2809263  55.9229215  28.0089242  12.4243912
  55.0166657  26.9283453  12.9747826  59.0465764  33.2078412   8.6627995
  58.4174627  33.3724126   7.9604063  58.6591426  33.6220022   9.4338959
  62.9254996  34.1432850   6.0172359  62.2406034  34.5231752   5.4669392
  63.0098845  34.7528177   6.7504307  58.2267465  25.2454197  13.9390437
  57.9828397  25.9996257  13.4024713  58.5027395  25.6239544  14.7737684
  60.1805928  31.7892809  12.6167703  60.3922823  32.4324569  11.9402084
  60.1335676  30.9555126  12.1489633  51.4917807  32.4924302   8.8657844
  52.0619164  32.9211570   8.2275328  52.0825919  32.2106887   9.5642029
  51.9842974  27.6587729  17.1118855  51.3541634  28.3404010  17.3454252
  51.8779061  27.5470811  16.1671993  61.2951756  34.6664765  10.7890060
  62.1169199  34.2644952  10.5072742  61.2914158  34.5632999  11.7406176
  55.0608359  34.2148808  12.9450770  55.1252792  34.6769215  13.7808942
  54.3519283  33.5846173  13.0733080  69.3857749  31.0103513   7.1375031
  68.6321457  30.4410911   6.9819036  69.5205290  30.9766178   8.0845666
  51.2623716  21.9608495  19.4744106  50.8690662  21.4074694  20.1491750
  52.0789857  22.2719074  19.8650624  50.0380659  36.5158110   5.4680429
  50.2147287  37.4376074   5.2801413  50.8337492  36.2016529   5.8974809
  54.1791677  23.3766374  17.0664363  54.9201391  23.9773528  16.9868825
  54.4109600  22.6344012  16.5082405  49.3233015  28.5622742  15.3442592
  49.2086530  27.6607999  15.6449691  48.4677533  28.8086438  14.9927409
  56.4024853  36.5040482  16.9430093  55.9588707  35.7176861  16.6250997
  57.0642067  36.6919632  16.2773984  51.1611974  38.0336284  11.4690771
  51.7119399  37.9053347  10.6967765  50.3223450  38.3331173  11.1185664
  58.5006091  36.7843282  14.9711494  58.4824566  37.6052163  14.4791763
  59.4226011  36.6597357  15.1961635  54.9579145  34.2987411  15.8135002
  55.4907482  33.5375700  15.5834310  54.4293226  34.0061063  16.5559157
  61.3024704  31.6222424   8.4420861  60.6448378  32.3121686   8.5300989
  62.1065103  32.0118856   8.7854847  60.1130163  29.9766797   6.4924803
  60.6262045  30.6096789   6.9946512  60.7631387  29.3767993   6.1268163
  56.5910994  27.4516253   8.7383143  55.6733555  27.6731200   8.5804831
  57.0071137  27.5262563   7.8794850  60.8791959  34.9572798   4.6203945
  60.4254286  34.1163708   4.6769136  60.2485926  35.5934197   4.9578725
  59.3224898  36.7949295   5.5553763  59.6147873  37.3554352   4.8366129
  59.8323519  37.0877856   6.3106922  54.2858523  37.5729646   6.6447217
  54.2434702  37.7990493   5.7155749  55.2021222  37.3393021   6.7933018
  57.7324157  28.0413714  13.5427846  58.0873545  28.2685187  14.4022311
  58.3796288  28.3732091  12.9205101  63.4621894  31.1632150   4.2477175
  63.3239793  31.3533746   3.3198364  63.1058113  31.9251533   4.7045226
  63.4891274  33.2308677   9.2588446  63.9227780  33.1383966  10.1071500
  64.2022855  33.2066177   8.6208462  57.2219169  36.8310771  10.7921547
  57.2756191  37.4001707  11.5599263  56.3533950  37.0012656  10.4275584
  50.1017562  26.5328327  12.2745998  50.7740616  26.3245689  11.6258647
  49.2747349  26.3350413  11.8351230  64.3506823  33.2732377  11.7921332
  64.5442713  34.1778188  12.0380607  64.2507442  32.8139796  12.6259917
  56.0043134  23.1590268  14.2911659  55.3571049  23.8580218  14.1976135
  56.7744150  23.5926412  14.6587907  59.4121932  33.4239120  17.3662212
  59.2607438  33.1949672  16.4492296  59.4026612  34.3809722  17.3793557
  56.1807268  30.9971033  12.3508479  57.1099328  31.1482192  12.1777446
  55.7598298  31.0855054  11.4957125  54.9795600  35.0221697  10.1207016
  54.8406686  34.6540482  10.9932954  54.1910196  35.5369337   9.9490974
  55.5743752  40.1230794   1.4632553  55.7495508  39.6518837   2.2778176
  54.8876540  40.7496560   1.6913814  56.5300815  34.4003300   7.5095854
  56.1950648  34.3604070   8.4053504  56.0304761  33.7348016   7.0366264
  50.5045059  29.8070930  13.0348435  50.3664857  29.0751169  13.6359974
  51.4149983  29.7179830  12.7532623  53.1327360  29.5190889  12.5232115
  53.8426979  28.8784082  12.4818733  53.0896668  29.7703784  13.4458296
  61.1214139  36.4558243  15.4438694  61.0626685  35.7717463  14.7769277
  61.5233657  37.1977233  14.9919320  51.8456294  26.5056107  14.3427754
  51.3093651  26.0546846  14.9949351  51.2573002  26.6402016  13.5998219
  50.1404837  43.2720156   8.2372413  50.3801436  43.9038681   8.9151432
  49.2974034  42.9208197   8.5237772  61.1231546  34.4197827  13.6752674
  60.2358325  34.0823748  13.7979073  61.6930097  33.6880858  13.9121439
  54.6532699  39.0799279  10.6413917  54.5802871  39.8854250  11.1533222
  54.2110092  39.2791245   9.8161938  54.4422479  38.3171049   4.1516739
  53.6590001  38.8592729   4.2454963  55.1415224  38.8345029   4.5510980
  65.6048886  29.8306044   8.4369235  65.5938763  30.7130759   8.0663169
  64.7366266  29.4777595   8.2423773  57.1131383  38.9786113  12.7972076
  57.8259355  39.6133578  12.7247977  56.6221412  39.0749979  11.9812078
  52.1643296  36.7280556  13.6177647  52.8652756  37.3617039  13.7707041
  51.6938411  37.0695288  12.8573286  59.9644582  29.2825164  11.4430197
  59.3116033  29.5301071  10.7882650  60.3424962  28.4689302  11.1092674
  56.9251756  39.3184857   5.5458367  57.1074151  38.5006513   6.0086119
  57.7484742  39.5352549   5.1083257  57.2593922  38.2453042   2.8073416
  57.7881688  37.7345497   2.1943578  57.5222141  37.9295572   3.6718949
  56.0132155  30.0244975  17.9296234  55.3372792  29.9239104  18.5998609
  56.8359789  29.8684189  18.3932231  47.7611014  36.2616911  10.5508749
  48.3464451  35.5160599  10.6836653  47.5635853  36.5720868  11.4345413
  50.6149670  39.2968159   5.5671192  49.9460045  39.7814286   5.0835232
  50.4762539  39.5437379   6.4814570  54.7554938  41.3311902  12.1653850
  55.3073246  41.4943524  12.9302935  55.0961132  41.9216340  11.4933875
  49.2071704  25.7510185  16.4148769  49.8343743  25.3687262  17.0286293
  48.3499623  25.5324387  16.7804461  59.6065813  36.1573160  18.0202504
  60.1505717  36.7703118  17.5257459  59.0252657  36.7152738  18.5369517
  57.8923326  39.2793878   9.1517532  57.7674465  38.4783618   8.6428478
  58.5502417  39.7740071   8.6631502  59.9558234  37.0802898  10.7797082
  59.0088569  36.9608249  10.7075409  60.3041007  36.1925396  10.8623344
  52.3157807  22.9697037  14.6035324  52.8392209  23.2159333  15.3661633
  52.0970141  23.8017072  14.1838461  56.9604667  36.8755614   6.9801434
  56.8129630  35.9472322   7.1609004  57.7858161  36.8975705   6.4958510
  60.5638789  37.6984173   8.0666307  61.4885337  37.4927034   7.9290758
  60.3954092  37.4500574   8.9755649  53.5210352  23.9110732  12.2884995
  53.1807173  23.1118545  12.6905674  52.8149359  24.2112443  11.7161828
  55.4087917  25.1119053  10.6438313  55.1505694  26.0336124  10.6422644
  54.8772957  24.7149488  11.3338777  60.3534105  38.2169840   3.4228399
  60.5270983  37.6516263   2.6702251  60.8462997  39.0170735   3.2407889
  46.1711065  30.2284509  11.4891957  45.6264533  31.0044317  11.6212232
  47.0490415  30.5755314  11.3311079  66.2073496  30.9806263   5.0418698
  66.6504642  30.2313589   4.6437822  65.3300007  30.9716400   4.6592430
  61.3409278  37.5336605   0.5225297  62.0360182  38.1543297   0.7412612
  61.6832428  36.6831956   0.7977675  46.9577087  29.3554406  14.3822114
  46.2158823  29.5037041  14.9686745  46.6369831  29.6162671  13.5188864
  63.2400701  34.9836310   2.0512628  63.7652025  35.3223583   1.3261948
  63.1523053  34.0483326   1.8675762  54.9020750  38.8970384  14.1802504
  55.2107876  38.6519531  15.0525204  55.6996232  39.1017022  13.6921375
  54.9241362  41.0508294   6.4107881  54.4846352  40.5584672   7.1040738
  55.6749479  40.5081261   6.1699956  47.4033701  37.2419834   6.4132509
  48.2291721  36.9423606   6.0331152  47.0527753  36.4727457   6.8622298
  52.3715234  36.5946303   8.4830183  51.7495243  35.9317008   8.1832410
  53.0420101  36.6207435   7.8003830  52.4439761  25.0728091  18.0762689
  52.4927917  25.9490214  17.6940458  52.9862275  24.5305484  17.5034332
  62.9294607  35.6169214  17.3563826  62.1390151  35.5993353  16.8168325
  62.6927962  36.1557508  18.1112862  63.0492482  32.4661680  14.6696554
  63.0990487  32.3011688  15.6112077  62.9406405  31.5988939  14.2794435
  60.3396244  28.4492608  15.9855861  61.2406107  28.3099073  15.6939859
  60.4144219  28.6147063  16.9254038  54.6739050  25.8259463  14.8309047
  53.8042359  26.1193029  14.5591636  54.9098530  26.4099908  15.5516311
  64.5510679  34.8858622  14.9138576  64.2595487  35.2488602  15.7502037
  63.9382810  34.1725630  14.7351908  65.7506361  32.4511502   7.4341146
  66.5853253  32.8901306   7.5978706  65.8865490  31.9750155   6.6149392
  62.7997867  30.0091236  13.3818634  63.2751989  30.2018883  12.5737485
  61.8763432  30.0650422  13.1362017  57.3778084  22.0439080  12.3474468
  57.8960027  22.7800107  12.0220956  57.0233216  22.3503073  13.1821227
  61.4999536  26.8856997  11.6146939  62.4516959  26.9855094  11.6359163
  61.3302986  26.0935265  12.1245024  59.5213916  23.9712580  11.8006340
  58.9263848  24.2517593  11.1052829  59.2363612  24.4606481  12.5723081
  63.9787614  30.1063116  10.7289239  63.9463934  29.1679117  10.9148923
  64.5888238  30.1847153   9.9955064  64.1282102  26.8974160  10.7747522
  63.6121151  26.1132616  10.5877451  65.0122051  26.5692876  10.9394042
  69.7964164  31.1679123   9.8695276  70.5267552  30.9064411  10.4302979
  69.1871109  30.4307845   9.9097344  67.8779461  29.3086986  10.4669727
  67.1512624  29.1742951   9.8586219  67.4626748  29.6163814  11.2726445
  55.7009637  33.0276915  18.2317100  56.6212647  33.2055514  18.4257146
  55.6659220  32.0832961  18.0796799  48.6971710  30.9377950  10.8739881
  48.9157720  31.8695058  10.8927915  49.1097484  30.5785924  11.6594685
  53.5699575  26.5111156  20.2642630  53.4696302  27.4605513  20.1954721
  53.3521117  26.1829395  19.3918700  53.4330845  29.9408295  19.0807692
  52.9497927  30.7408655  19.2871581  53.5191784  29.9516239  18.1275136
  49.3604183  33.8312829  11.1176125  50.3147436  33.7996772  11.0506057
  49.1616706  33.3703453  11.9326351  49.9503565  32.4013945  13.6846923
  50.7696454  32.8958024  13.7081760  50.2240373  31.4845914  13.6564491
  65.4957256  25.5298838   7.8203159  66.0901747  25.2894574   7.1096467
  65.5683839  24.8105968   8.4476695  47.7154411  39.3732449   8.1346323
  47.5808879  38.6132850   7.5684321  47.2986474  40.0973349   7.6675112
  67.8028329  28.8365039   6.5946580  67.2427886  28.9058228   7.3678142
  67.1971832  28.6606023   5.8746076  50.8723537  40.2701766   8.3464766
  50.7555921  41.2147198   8.2443456  50.0515984  39.9675327   8.7350565
  45.2038479  26.7352079  14.3839120  45.8497343  26.2251033  14.8726345
  44.9955630  27.4720761  14.9582545  57.7291871  33.8032927  19.8831261
  58.5983031  33.9773579  19.5217896  57.2498623  34.6227344  19.7606990
  51.8978051  40.9230028  11.5620694  52.8005298  40.9553638  11.8787189
  51.6715422  39.9930479  11.5767030  53.6531653  39.6761014   8.2230773
  52.7027284  39.6762876   8.1095145  53.9564140  38.9293749   7.7066808
  49.5435970  23.8819696  18.4814134  50.4067432  23.5256501  18.6917459
  48.9701381  23.5433591  19.1689539  69.3884347  45.5121553   9.2876535
  70.0262757  45.3928300   8.5839876  69.2705190  46.4602397   9.3464488
  66.1974053  45.4648981   9.2238060  65.8592565  45.3490045   8.3358595
  67.0663821  45.0640146   9.2039066  62.0560869  47.3184457   5.2134951
  61.4925734  47.2274394   4.4451239  61.9413264  46.4984362   5.6937444
  66.6793836  46.6183832  15.1824266  66.6682477  46.2236631  14.3104769
  66.8414476  45.8849905  15.7758037  59.6025301  48.8135649   8.0519172
  60.3946593  48.4726473   7.6365471  59.8421951  48.9230624   8.9721325
  67.6360428  50.9855425   0.5249416  66.9848407  51.5709505   0.1383430
  68.4304790  51.5161620   0.5844453  61.5616055  48.0744562   0.9236550
  62.3346931  47.5273549   0.7849426  61.9141454  48.9388811   1.1351012
  63.4001097  49.4020944  14.1303450  63.1090963  50.3066575  14.0150116
  64.0358082  49.4437472  14.8447519  64.3257304  46.7797793  10.7204809
  64.9220876  46.5553815  10.0061772  64.3832276  46.0382538  11.3230257
  63.8982333  44.2337228  -1.4445000  64.1507853  43.7118749  -2.2061537
  62.9606892  44.0703374  -1.3418316  68.9425615  43.2373007   6.3629743
  69.7288705  42.8192430   6.0120160  69.2064320  44.1419099   6.5311392
  69.1135693  48.6745857   1.0618400  68.4781526  48.7480483   1.7739305
  68.7833099  49.2639456   0.3837480  74.3434043  43.1748240   7.2662722
  75.0759215  42.6047457   7.5000551  73.5873398  42.7869840   7.7069228
  63.6178621  46.1365334   0.7579375  63.5014879  45.4610237   1.4260460
  63.7280881  45.6497708  -0.0588472  65.9610162  45.5975481   4.4626064
  65.5968370  45.0706102   5.1738986  66.8177278  45.2073950   4.2892550
  71.8659463  36.8869814  11.7257331  71.5342788  37.7565225  11.5018546
  71.2705076  36.5706098  12.4051361  65.6015649  40.6265381  -0.5412587
  65.7690052  41.4945617  -0.1742116  65.4112818  40.7892663  -1.4651298
  68.3590982  49.0882360  11.1253243  68.0591706  49.9907399  11.0169051
  68.0142042  48.8214543  11.9774396  61.8103464  45.5396157   7.1589948
  60.8853960  45.4072371   7.3667640  62.0587877  46.3190376   7.6559890
  71.7588126  41.6064900   8.8050681  70.8505004  41.5380308   8.5109442
  71.7075722  42.0836845   9.6332506  65.5804870  43.0823038   0.4434080
  65.4604495  43.5280089   1.2819560  64.8857459  43.4308356  -0.1152382
  59.1712275  45.1829430   7.9933737  59.3004656  45.4363909   8.9073149
  58.4909726  45.7757138   7.6738392  63.3411762  55.8526680   4.0924211
  63.2635792  56.8034505   4.1712692  62.7373406  55.5072553   4.7499137
  65.8328992  43.0254546  16.7485578  65.0562326  43.5848466  16.7388443
  66.4719555  43.5111329  17.2700448  73.6249773  39.8081338  10.5828555
  72.9824153  40.1013872   9.9368349  73.1204701  39.6934259  11.3881751
  71.2789936  43.5544512   1.2714414  72.1907792  43.7871898   1.0962111
  70.7699583  44.1381556   0.7089492  64.0875364  45.8339999  16.3103545
  64.8290049  46.3725043  16.0338369  63.3812350  46.4606288  16.4675097
  69.5630704  47.9769139  14.9075706  69.9714060  47.5351550  14.1630339
  68.8407965  47.4021767  15.1609899  65.9161774  42.9141746  12.2809263
  66.7622969  43.3381160  12.4243912  65.8560412  42.2575371  12.9747826
  69.8859519  48.5370330   8.6627995  69.2568381  48.7016044   7.9604063
  69.4985181  48.9511940   9.4338959  73.7648751  49.4724768   6.0172359
  73.0799789  49.8523669   5.4669392  73.8492600  50.0820095   6.7504307
  69.0661219  40.5746115  13.9390437  68.8222151  41.3288175  13.4024713
  69.3421150  40.9531462  14.7737684  71.0199682  47.1184727  12.6167703
  71.2316577  47.7616487  11.9402084  70.9729430  46.2847043  12.1489633
  68.6225911  39.7302548   9.5204275  67.7610390  40.0283801   9.8121012
  68.6488346  39.9472946   8.5885307  65.4387481  48.2744738   5.9278080
  65.9025826  48.5532441   5.1382703  65.1744279  47.3728183   5.7451171
  62.3311562  47.8216220   8.8657844  62.9012919  48.2503488   8.2275328
  62.9219673  47.5398804   9.5642029  64.3756367  44.3967891   2.7367646
  65.0780410  44.8488934   3.2041572  64.0436995  43.7551709   3.3647539
  62.8236728  42.9879647  17.1118855  62.1935389  43.6695928  17.3454252
  62.7172816  42.8762729  16.1671993  58.1181701  42.6551443   8.0384779
  57.3280755  42.9108972   7.5624890  58.6092948  43.4699781   8.1436820
  72.1345510  49.9956682  10.7890060  72.9562954  49.5936870  10.5072742
  72.1307913  49.8924917  11.7406176  60.0696446  43.0196022   4.9968256
  59.2727609  43.1314717   5.5151751  59.8422038  43.3582675   4.1309146
  65.9002114  49.5440726  12.9450770  65.9646546  50.0061133  13.7808942
  65.1913037  48.9138091  13.0733080  56.4019404  42.9081934  10.4699770
  56.6527442  43.7928944  10.7357346  56.9378952  42.7286535   9.6974862
  80.2251503  46.3395431   7.1375031  79.4715212  45.7702829   6.9819036
  80.3599044  46.3058095   8.0845666  65.6150131  51.2108833   2.8129751
  65.4795806  52.0560369   3.2414599  66.1559944  51.4128111   2.0495685
  62.1017471  37.2900413  19.4744106  61.7084416  36.7366612  20.1491750
  62.9183611  37.6010991  19.8650624  59.0679529  48.7284271   3.3857676
  59.5804049  49.5227521   3.5363241  59.7202241  48.0310562   3.3191277
  60.8774413  51.8450027   5.4680429  61.0541042  52.7667992   5.2801413
  61.6731247  51.5308447   5.8974809  65.0185432  38.7058292  17.0664363
  65.7595145  39.3065445  16.9868825  65.2503355  37.9635930  16.5082405
  60.1626770  43.8914659  15.3442592  60.0480285  42.9899917  15.6449691
  59.3071288  44.1378356  14.9927409  67.2418608  51.8332400  16.9430093
  66.7982462  51.0468778  16.6250997  67.9035821  52.0211550  16.2773984
  62.0005729  53.3628201  11.4690771  62.5513154  53.2345265  10.6967765
  61.1617205  53.6623090  11.1185664  69.3399846  52.1135200  14.9711494
  69.3218321  52.9344081  14.4791763  70.2619766  51.9889275  15.1961635
  65.7972900  49.6279329  15.8135002  66.3301237  48.8667617  15.5834310
  65.2686981  49.3352981  16.5559157  68.9642595  34.7339395  11.3428644
  68.6206864  35.6241037  11.2667755  69.3321557  34.5441053  10.4798229
  57.0328445  47.0572925   4.1617246  57.8703667  47.4669934   3.9450954
  57.2106713  46.1172368   4.1317440  68.9292877  44.7248006  -0.1498921
  68.4139501  45.4952611   0.0889467  68.6570186  44.0513142   0.4734141
  66.5139989  39.5697707   4.9086318  65.6581585  39.1804557   4.7291956
  66.9266940  39.6489668   4.0486103  68.0439135  37.1044050   9.3077877
  67.5403931  37.0674185   8.4945683  68.3369742  38.0136793   9.3674534
  64.2882021  37.1882780   8.3144059  65.1535018  36.9925589   7.9549949
  64.3559530  36.9593132   9.2413416  73.9027152  47.4780361   1.7854253
  73.1256594  47.1391520   1.3409415  74.5818633  47.4832984   1.1109218
  68.7179181  42.5975098   1.6760861  68.4129316  42.9121247   2.5271004
  69.6709623  42.6756518   1.7188193  67.1625612  48.7565322   3.3253814
  66.6346974  48.0218081   3.0127052  66.6613115  49.5339998   3.0793783
  72.1418459  46.9514342   8.4420861  71.4842133  47.6413603   8.5300989
  72.9458858  47.3410774   8.7854847  61.8944340  39.4184988   5.6860426
  62.4688092  39.1960169   4.9533619  62.4815323  39.4873682   6.4389027
  70.9523917  45.3058715   6.4924803  71.4655799  45.9388707   6.9946512
  71.6025141  44.7059910   6.1268163  62.2213927  41.4489449  -0.2943689
  61.3851239  41.7864135   0.0265586  62.0818697  41.3138429  -1.2316552
  64.1967008  36.2926237   4.4135495  63.5431420  35.9775254   3.7892110
  64.1547482  35.6701977   5.1395318  65.3078213  46.5745532  -3.6711212
  64.4005274  46.3434785  -3.4720064  65.8049245  45.7783151  -3.4837231
  68.2146292  55.2843039  -0.7514526  67.5407990  55.5874736  -0.1429568
  68.6012114  56.0872119  -1.1009069  67.4304748  42.7808170   8.7383143
  66.5127310  43.0023117   8.5804831  67.8464892  42.8554481   7.8794850
  68.2139796  44.1799586   3.8685823  68.9611615  44.6920983   3.5592945
  68.4831385  43.8583639   4.7290217  66.4866446  46.6758127   0.8512778
  65.5777665  46.3917159   0.9485247  66.5161530  47.0957205  -0.0083916
  71.7185714  50.2864716   4.6203945  71.2648041  49.4455626   4.6769136
  71.0879680  50.9226115   4.9578725  70.6618633  41.2156702   5.8504613
  69.9241390  40.7034088   6.1814855  70.9145407  40.7757084   5.0387889
  70.1618653  52.1241213   5.5553763  70.4541627  52.6846270   4.8366129
  70.6717273  52.4169774   6.3106922  70.7630260  33.9932954   6.4446382
  71.0689137  33.1330318   6.1572297  71.4882865  34.5850574   6.2445376
  57.0554616  44.3963641   4.8327980  56.8579016  43.8033001   4.1079046
  56.5001280  44.0915851   5.5503919  65.0351340  44.2886747   6.9522573
  65.0899950  43.3360584   6.8765050  64.2242542  44.4446186   7.4363871
  66.1842534  48.2166870  -1.8099144  65.7461964  47.5002729  -2.2693506
  66.9252975  48.4442985  -2.3714052  62.9743700  42.9063807   4.7112952
  62.1611566  43.2057978   5.1178144  63.4702694  42.5119496   5.4287434
  65.1252278  52.9021564   6.6447217  65.0828457  53.1282410   5.7155749
  66.0414977  52.6684939   6.7933018  68.5717912  43.3705631  13.5427846
  68.9267299  43.5977105  14.4022311  69.2190043  43.7024008  12.9205101
  74.3015649  46.4924067   4.2477175  74.1633547  46.6825663   3.3198364
  73.9451868  47.2543450   4.7045226  62.4657775  40.4782163  10.3274187
  63.1057154  40.3370922   9.6297150  61.6335305  40.1916676   9.9512789
  74.3285028  48.5600594   9.2588446  74.7621535  48.4675883  10.1071500
  75.0416609  48.5358095   8.6208462  63.2418079  49.7784593   6.4409179
  64.0358677  49.2834913   6.2391754  62.5309771  49.2502456   6.0776885
  68.0612923  52.1602688  10.7921547  68.1149945  52.7293625  11.5599263
  67.1927705  52.3304574  10.4275584  59.5500842  43.9227675   2.5168932
  58.6198430  43.8612130   2.7338894  59.6458314  43.4003627   1.7205573
  59.4686391  40.4482488   5.1047174  59.7293209  41.3627821   4.9956334
  60.2903564  39.9806930   5.2543786  60.9411317  41.8620245  12.2745998
  61.6134370  41.6537607  11.6258647  60.1141103  41.6642331  11.8351230
  75.1900578  48.6024295  11.7921332  75.3836468  49.5070106  12.0380607
  75.0901196  48.1431714  12.6259917  66.8436889  38.4882186  14.2911659
  66.1964804  39.1872135  14.1976135  67.6137904  38.9218330  14.6587907
  70.2515687  48.7531038  17.3662212  70.1001193  48.5241589  16.4492296
  70.2420366  49.7101639  17.3793557  67.0201023  46.3262951  12.3508479
  67.9493083  46.4774110  12.1777446  66.5992053  46.4146971  11.4957125
  65.8189355  50.3513615  10.1207016  65.6800440  49.9832399  10.9932954
  65.0303951  50.8661254   9.9490974  66.4137507  55.4522711   1.4632553
  66.5889262  54.9810755   2.2778176  65.7270295  56.0788478   1.6913814
  67.3694570  49.7295218   7.5095854  67.0344402  49.6895988   8.4053504
  66.8698516  49.0639934   7.0366264  61.3438814  45.1362848  13.0348435
  61.2058612  44.4043086  13.6359974  62.2543737  45.0471748  12.7532623
  70.3053762  47.0751252  -2.2167086  69.6882932  46.3498080  -2.3134034
  69.8370250  47.8360612  -2.5600012  63.9721114  44.8482807  12.5232115
  64.6820733  44.2075999  12.4818733  63.9290423  45.0995702  13.4458296
  71.9607893  51.7850160  15.4438694  71.9020439  51.1009380  14.7769277
  72.3627412  52.5269150  14.9919320  62.6850048  41.8348025  14.3427754
  62.1487405  41.3838763  14.9949351  62.0966757  41.9693934  13.5998219
  60.9798592  58.6012074   8.2372413  61.2195190  59.2330598   8.9151432
  60.1367788  58.2500114   8.5237772  71.9625300  49.7489744  13.6752674
  71.0752079  49.4115666  13.7979073  72.5323852  49.0172775  13.9121439
  53.6154448  46.0813836   6.9995725  54.3025487  45.7675566   6.4116741
  53.4602576  46.9855201   6.7262977  58.4189170  40.9704033  11.4280749
  58.3347358  40.3629702  10.6931159  57.5971876  41.4613051  11.4290245
  65.4926454  54.4091197  10.6413917  65.4196625  55.2146168  11.1533222
  65.0503847  54.6083162   9.8161938  65.2816233  53.6462967   4.1516739
  64.4983755  54.1884647   4.2454963  65.9808979  54.1636946   4.5510980
  68.5912884  39.4557596   6.7950944  69.0881583  38.7027558   6.4752014
  67.8199865  39.4921913   6.2294153  76.4442641  45.1597962   8.4369235
  76.4332517  46.0422677   8.0663169  75.5760020  44.8069512   8.2423773
  67.9525137  54.3078031  12.7972076  68.6653110  54.9425495  12.7247977
  67.4615166  54.4041897  11.9812078  69.6742664  48.2129283   4.3689367
  68.7398943  48.3330746   4.1994072  69.8519333  47.3101750   4.1049377
  65.1747852  41.5974979   6.5222629  64.8045640  41.0446019   7.2103534
  65.6706945  40.9933113   5.9697629  73.0615216  44.0546603   4.9039401
  73.5275668  44.8874594   4.8299704  73.5122716  43.5891584   5.6084660
  63.0037051  52.0572474  13.6177647  63.7046510  52.6908957  13.7707041
  62.5332166  52.3987206  12.8573286  71.1291447  50.3990424   1.9025554
  71.4051291  50.2847018   2.8119428  70.2595945  50.0007909   1.8637727
  71.0331878  36.4227190   8.9430303  70.1194958  36.6531416   9.1112510
  71.4624980  36.5065634   9.7944335  70.8038337  44.6117082  11.4430197
  70.1509787  44.8592989  10.7882650  71.1818717  43.7981220  11.1092674
  67.7645511  54.6476775   5.5458367  67.9467905  53.8298431   6.0086119
  68.5878497  54.8644467   5.1083257  68.0987676  53.5744960   2.8073416
  68.6275443  53.0637414   2.1943578  68.3615896  53.2587490   3.6718949
  66.8525910  45.3536893  17.9296234  66.1766547  45.2531022  18.5998609
  67.6753544  45.1976106  18.3932231  58.6004769  51.5908829  10.5508749
  59.1858206  50.8452517  10.6836653  58.4029607  51.9012786  11.4345413
  61.4543424  54.6260077   5.5671192  60.7853799  55.1106204   5.0835232
  61.3156294  54.8729297   6.4814570  53.1922424  44.1614429   9.2713192
  53.2306523  43.6278020  10.0650310  52.6862717  43.6349635   8.6524170
  65.5948693  56.6603820  12.1653850  66.1467001  56.8235442  12.9302935
  65.9354886  57.2508258  11.4933875  60.5713186  39.0078970  12.7675735
  60.6354512  39.8693801  12.3553132  60.5080306  38.3952972  12.0348093
  60.0465459  41.0802102  16.4148769  60.6737497  40.6979180  17.0286293
  59.1893377  40.8616304  16.7804461  70.4459567  51.4865078  18.0202504
  70.9899471  52.0995036  17.5257459  69.8646412  52.0444656  18.5369517
  56.8231001  42.8878532   2.3467124  57.1184442  41.9789210   2.2934177
  55.9219037  42.8666271   2.0248126  68.7317080  54.6085796   9.1517532
  68.6068219  53.8075535   8.6428478  69.3896171  55.1031989   8.6631502
  60.3525248  40.9634528   8.3294672  59.6311834  41.5770496   8.1902146
  61.1418504  41.4992293   8.2511318  70.7951988  52.4094816  10.7797082
  69.8482324  52.2900167  10.7075409  71.1434762  51.5217314  10.8623344
  63.1551562  38.2988955  14.6035324  63.6785964  38.5451251  15.3661633
  62.9363895  39.1308989  14.1838461  58.5518843  40.5692629   2.4706449
  58.2231549  39.6890008   2.2881555  58.9058214  40.5140298   3.3582838
  67.7998422  52.2047532   6.9801434  67.6523384  51.2764239   7.1609004
  68.6251915  52.2267623   6.4958510  61.6660666  40.8565599   2.8381927
  62.0056739  41.3851520   2.1160535  62.1132786  41.1946005   3.6140493
  71.4032544  53.0276091   8.0666307  72.3279091  52.8218952   7.9290758
  71.2347847  52.7792492   8.9755649  64.3604107  39.2402650  12.2884995
  64.0200927  38.4410463  12.6905674  63.6543113  39.5404361  11.7161828
  65.0120579  36.3251962  10.7412318  65.8346648  35.8512440  10.6191208
  65.2558642  37.1042446  11.2411004  63.6528813  39.3540221   1.0375219
  64.3737176  39.7321473   0.5338936  63.0294117  40.0729097   1.1410197
  67.7959936  40.0585370   1.9733552  68.0123550  40.9410007   1.6722380
  67.3154003  39.6671583   1.2439194  62.5359157  43.0171083   8.5504296
  62.3903738  43.3311386   9.4428578  62.0584361  43.6355983   7.9975195
  64.3955540  40.0073631   8.5985186  64.3817109  39.1114724   8.2617484
  65.1127968  40.0144294   9.2323472  66.2481671  40.4410971  10.6438313
  65.9899449  41.3628042  10.6422644  65.7166711  40.0441405  11.3338777
  71.1927860  53.5461758   3.4228399  71.3664737  52.9808181   2.6702251
  71.6856751  54.3462653   3.2407889  57.0104820  45.5576427  11.4891957
  56.4658288  46.3336235  11.6212232  57.8884169  45.9047232  11.3311079
  63.7992436  38.8888011   3.8672756  63.9208347  37.9604657   4.0663643
  63.5094479  38.9026697   2.9551071  66.6683627  36.5742921   7.0039476
  66.6905323  36.6382255   6.0491455  67.0851686  35.7347430   7.1979982
  77.0467251  46.3098181   5.0418698  77.4898397  45.5605506   4.6437822
  76.1693761  46.3008317   4.6592430  72.1803032  52.8628522   0.5225297
  72.8753937  53.4835215   0.7412612  72.5226182  52.0123874   0.7977675
  57.7970841  44.6846323  14.3822114  57.0552577  44.8328959  14.9686745
  57.4763586  44.9454589  13.5188864  74.0794455  50.3128228   2.0512628
  74.6045779  50.6515501   1.3261948  73.9916808  49.3775243   1.8675762
  65.7414504  54.2262302  14.1802504  66.0501631  53.9811448  15.0525204
  66.5389986  54.4308940  13.6921375  65.7635116  56.3800211   6.4107881
  65.3240106  55.8876590   7.1040738  66.5143233  55.8373179   6.1699956
  58.2427455  52.5711752   6.4132509  59.0685475  52.2715524   6.0331152
  57.8921507  51.8019375   6.8622298  63.2108988  51.9238220   8.4830183
  62.5888998  51.2608925   8.1832410  63.8813855  51.9499352   7.8003830
  56.4436060  50.4898079   7.3721443  55.6067968  50.0620253   7.1905444
  56.4159706  50.6830522   8.3092234  63.2833516  40.4020008  18.0762689
  63.3321671  41.2782131  17.6940458  63.8256030  39.8597401  17.5034332
  73.7688361  50.9461132  17.3563826  72.9783905  50.9285270  16.8168325
  73.5321716  51.4849425  18.1112862  73.8886237  47.7953598  14.6696554
  73.9384241  47.6303605  15.6112077  73.7800160  46.9280857  14.2794435
  62.7722495  50.4742144   1.9588643  62.9210616  51.1577608   1.3055316
  63.5788939  50.4547234   2.4738099  71.1789999  43.7784526  15.9855861
  72.0799862  43.6390991  15.6939859  71.2537973  43.9438981  16.9254038
  65.5132804  41.1551381  14.8309047  64.6436114  41.4484947  14.5591636
  65.7492285  41.7391826  15.5516311  75.3904433  50.2150540  14.9138576
  75.0989242  50.5780520  15.7502037  74.7776565  49.5017548  14.7351908
  76.5900116  47.7803419   7.4341146  77.4247007  48.2193223   7.5978706
  76.7259244  47.3042073   6.6149392  73.6391622  45.3383154  13.3818634
  74.1145743  45.5310800  12.5737485  72.7157187  45.3942340  13.1362017
  60.5275128  46.5007321   2.9649712  60.2821170  45.5969651   3.1629922
  60.6971043  46.5024472   2.0229190  68.2171838  37.3730998  12.3474468
  68.7353782  38.1092025  12.0220956  67.8626971  37.6794991  13.1821227
  59.7970776  42.2335679   0.4635873  59.1040021  42.3080034  -0.1924091
  59.5522528  41.4696023   0.9857390  68.4684432  33.7931280   7.8675364
  68.7486186  33.1254469   8.4935791  69.2535039  33.9860376   7.3550028
  66.2717901  52.9690274  -0.5699610  65.6991868  53.5880461  -1.0229138
  66.8450694  53.5189636  -0.0359688  72.3393291  42.2148914  11.6146939
  73.2910713  42.3147012  11.6359163  72.1696741  41.4227183  12.1245024
  70.3607670  39.3004497  11.8006340  69.7657602  39.5809510  11.1052829
  70.0757367  39.7898398  12.5723081  69.4915161  53.2527424   0.5608973
  70.4245834  53.1872986   0.7641848  69.4038373  54.0883691   0.1023505
  72.1203177  52.5693295  -2.4787080  72.0416809  52.2353158  -1.5851322
  72.9412844  53.0615063  -2.4795607  74.8181368  45.4355034  10.7289239
  74.7857688  44.4971035  10.9148923  75.4281992  45.5139071   9.9955064
  66.6564699  44.3051087  -3.2283557  67.6023804  44.1757295  -3.1595139
  66.2778944  43.5665749  -2.7514129  74.9675857  42.2266077  10.7747522
  74.4514905  41.4424534  10.5877451  75.8515805  41.8984794  10.9394042
  72.6286584  35.9707093   6.7343335  72.4311405  35.6622181   7.6186667
  73.2386289  36.6968732   6.8641265  80.6357918  46.4971041   9.8695276
  81.3661307  46.2356329  10.4302979  80.0264864  45.7599763   9.9097344
  78.7173215  44.6378903  10.4669727  77.9906379  44.5034868   9.8586219
  78.3020502  44.9455732  11.2726445  66.5403392  48.3568833  18.2317100
  67.4606401  48.5347432  18.4257146  66.5052975  47.4124878  18.0796799
  55.7585557  43.5507427   7.1570375  55.4388341  42.6972735   6.8644749
  55.2118985  43.7656005   7.9128342  59.5365464  46.2669868  10.8739881
  59.7551474  47.1986976  10.8927915  59.9491238  45.9077842  11.6594685
  66.4569682  36.7737953   2.8615570  65.6470410  36.4285038   3.2370816
  67.1454099  36.4645497   3.4503181  68.3860230  35.8516000   4.4839866
  68.9391269  36.2711453   5.1429889  68.6230317  34.9251748   4.5262822
  64.4093330  41.8403073  20.2642630  64.3090057  42.7897430  20.1954721
  64.1914872  41.5121312  19.3918700  55.6273817  47.1710338   9.1263496
  54.9337288  46.7564291   8.6133451  56.3746808  47.2130875   8.5296915
  71.7639037  37.9616525   3.9918530  71.1837707  38.6201329   3.6096583
  71.4974970  37.1393870   3.5805948  70.2142604  37.3621583   6.1939851
  70.7142382  37.4738117   5.3854170  70.8578212  37.0582636   6.8340659
  64.2724600  45.2700212  19.0807692  63.7891681  46.0700572  19.2871581
  64.3585539  45.2808157  18.1275136  57.5410559  47.1028592   7.0029511
  57.5181247  47.2016279   6.0511394  57.8511196  47.9493743   7.3246677
  60.1997937  49.1604747  11.1176125  61.1541191  49.1288689  11.0506057
  60.0010461  48.6995371  11.9326351  60.7897319  47.7305863  13.6846923
  61.6090208  48.2249942  13.7081760  61.0634127  46.8137831  13.6564491
  70.5463915  40.1216615   3.0474879  69.6589771  40.4066266   2.8295073
  70.9617905  39.9610379   2.2002156  73.8978452  40.1463136   6.7629218
  74.6738842  40.6359589   7.0353835  73.1726586  40.5721191   7.2201087
  76.3351010  40.8590756   7.8203159  76.9295501  40.6186492   7.1096467
  76.4077594  40.1397886   8.4476695  58.5548166  54.7024367   8.1346323
  58.4202634  53.9424767   7.5684321  58.1380228  55.4265266   7.6675112
  69.6907129  49.8861290  -2.8577101  70.3942979  50.0911293  -2.2419446
  68.9669778  50.4538052  -2.5928018  70.5204939  45.6371151   3.2625169
  70.4640141  46.0939703   2.4232801  71.0733282  44.8761836   3.0848012
  74.3309745  41.4260883   4.0875288  74.0746679  41.0257519   4.9183496
  73.7062613  42.1404677   3.9625427  78.6422083  44.1656956   6.5946580
  78.0821641  44.2350146   7.3678142  78.0365586  43.9897941   5.8746076
  61.7117292  55.5993684   8.3464766  61.5949676  56.5439116   8.2443456
  60.8909738  55.2967245   8.7350565  71.5993826  50.3243819  -0.8078641
  72.4339430  49.8925018  -0.9901167  71.4378169  50.1525833   0.1198253
  71.2539719  46.8275933   0.5577698  71.1988522  46.6620204  -0.3833858
  70.6285774  47.5351965   0.7139888  56.0432234  42.0643997  14.3839120
  56.6891097  41.5542951  14.8726345  55.8349385  42.8012679  14.9582545
  68.5685626  49.1324844  19.8831261  69.4376785  49.3065497  19.5217896
  68.0892377  49.9519261  19.7606990  64.5635844  36.3284042   0.1363016
  64.5514514  37.2725881   0.2931287  65.4559266  36.1454187  -0.1577522
  62.7371806  56.2521945  11.5620694  63.6399053  56.2845556  11.8787189
  62.5109176  55.3222396  11.5767030  64.4925408  55.0052932   8.2230773
  63.5421039  55.0054794   8.1095145  64.7957894  54.2585667   7.7066808
  68.3787963  32.9226818   4.3908953  67.6120359  32.3685305   4.5365636
  68.7898668  32.9948687   5.2523105  60.3829725  39.2111614  18.4814134
  61.2461186  38.8548419  18.6917459  59.8095135  38.8725509  19.1689539
  80.2278101  60.8413470   9.2876535  80.8656511  60.7220218   8.5839876
  80.1098944  61.7894314   9.3464488  77.0367808  60.7940898   9.2238060
  76.6986319  60.6781963   8.3358595  77.9057576  60.3932064   9.2039066
  72.8954623  62.6476375   5.2134951  72.3319489  62.5566312   4.4451239
  72.7807018  61.8276279   5.6937444  77.5187591  61.9475750  15.1824266
  77.5076231  61.5528548  14.3104769  77.6808230  61.2141823  15.7758037
  70.4419055  64.1427566   8.0519172  71.2340347  63.8018391   7.6365471
  70.6815706  64.2522542   8.9721325  78.4754182  66.3147343   0.5249416
  77.8242162  66.9001423   0.1383430  79.2698545  66.8453537   0.5844453
  72.4009809  63.4036480   0.9236550  73.1740685  62.8565467   0.7849426
  72.7535208  64.2680729   1.1351012  74.2394852  64.7312862  14.1303450
  73.9484718  65.6358493  14.0150116  74.8751836  64.7729390  14.8447519
  75.1651059  62.1089711  10.7204809  75.7614631  61.8845733  10.0061772
  75.2226030  61.3674456  11.3230257  74.7376087  59.5629146  -1.4445000
  74.9901608  59.0410667  -2.2061537  73.8000646  59.3995291  -1.3418316
  79.7819370  58.5664924   6.3629743  80.5682459  58.1484347   6.0120160
  80.0458074  59.4711016   6.5311392  79.9529447  64.0037775   1.0618400
  79.3175280  64.0772401   1.7739305  79.6226854  64.5931373   0.3837480
  85.1827797  58.5040157   7.2662722  85.9152969  57.9339374   7.5000551
  84.4267153  58.1161758   7.7069228  74.4572376  61.4657252   0.7579375
  74.3408634  60.7902155   1.4260460  74.5674636  60.9789626  -0.0588472
  76.8003917  60.9267399   4.4626064  76.4362124  60.3998020   5.1738986
  77.6571033  60.5365868   4.2892550  82.7053217  52.2161732  11.7257331
  82.3736542  53.0857142  11.5018546  82.1098831  51.8998016  12.4051361
  76.4409404  55.9557299  -0.5412587  76.6083806  56.8237535  -0.1742116
  76.2506573  56.1184580  -1.4651298  79.1984737  64.4174277  11.1253243
  78.8985460  65.3199316  11.0169051  78.8535796  64.1506461  11.9774396
  72.6497218  60.8688074   7.1589948  71.7247715  60.7364288   7.3667640
  72.8981632  61.6482294   7.6559890  82.5981881  56.9356818   8.8050681
  81.6898758  56.8672226   8.5109442  82.5469477  57.4128763   9.6332506
  76.4198625  58.4114956   0.4434080  76.2998250  58.8572007   1.2819560
  75.7251213  58.7600274  -0.1152382  70.0106029  60.5121348   7.9933737
  70.1398411  60.7655827   8.9073149  69.3303481  61.1049056   7.6738392
  74.1805517  71.1818598   4.0924211  74.1029546  72.1326423   4.1712692
  73.5767160  70.8364470   4.7499137  76.6722747  58.3546463  16.7485578
  75.8956081  58.9140383  16.7388443  77.3113310  58.8403246  17.2700448
  84.4643527  55.1373256  10.5828555  83.8217907  55.4305789   9.9368349
  83.9598456  55.0226176  11.3881751  82.1183691  58.8836429   1.2714414
  83.0301547  59.1163816   1.0962111  81.6093338  59.4673473   0.7089492
  74.9269119  61.1631917  16.3103545  75.6683803  61.7016961  16.0338369
  74.2206104  61.7898205  16.4675097  80.4024458  63.3061057  14.9075706
  80.8107815  62.8643468  14.1630339  79.6801720  62.7313685  15.1609899
  76.7555529  58.2433664  12.2809263  77.6016724  58.6673077  12.4243912
  76.6954166  57.5867288  12.9747826  80.7253273  63.8662248   8.6627995
  80.0962136  64.0307962   7.9604063  80.3378935  64.2803857   9.4338959
  84.6042505  64.8016686   6.0172359  83.9193543  65.1815587   5.4669392
  84.6886354  65.4112012   6.7504307  79.9054974  55.9038032  13.9390437
  79.6615906  56.6580093  13.4024713  80.1814904  56.2823380  14.7737684
  81.8593437  62.4476645  12.6167703  82.0710332  63.0908404  11.9402084
  81.8123185  61.6138961  12.1489633  79.4619666  55.0594465   9.5204275
  78.6004145  55.3575719   9.8121012  79.4882100  55.2764864   8.5885307
  76.2781235  63.6036656   5.9278080  76.7419581  63.8824359   5.1382703
  76.0138033  62.7020100   5.7451171  73.1705316  63.1508137   8.8657844
  73.7406673  63.5795406   8.2275328  73.7613428  62.8690722   9.5642029
  75.2150121  59.7259808   2.7367646  75.9174164  60.1780852   3.2041572
  74.8830750  59.0843627   3.3647539  73.6630483  58.3171565  17.1118855
  73.0329143  58.9987846  17.3454252  73.5566570  58.2054646  16.1671993
  68.9575455  57.9843361   8.0384779  68.1674509  58.2400889   7.5624890
  69.4486702  58.7991699   8.1436820  82.9739265  65.3248600  10.7890060
  83.7956708  64.9228787  10.5072742  82.9701667  65.2216834  11.7406176
  70.9090200  58.3487940   4.9968256  70.1121364  58.4606634   5.5151751
  70.6815793  58.6874592   4.1309146  76.7395868  64.8732643  12.9450770
  76.8040301  65.3353051  13.7808942  76.0306792  64.2430008  13.0733080
  67.2413158  58.2373851  10.4699770  67.4921196  59.1220861  10.7357346
  67.7772706  58.0578453   9.6974862  91.0645258  61.6687348   7.1375031
  90.3108966  61.0994747   6.9819036  91.1992799  61.6350013   8.0845666
  76.4543886  66.5400751   2.8129751  76.3189560  67.3852287   3.2414599
  76.9953698  66.7420028   2.0495685  72.9411225  52.6192331  19.4744106
  72.5478171  52.0658529  20.1491750  73.7577366  52.9302909  19.8650624
  69.9073283  64.0576189   3.3857676  70.4197804  64.8519439   3.5363241
  70.5595996  63.3602479   3.3191277  71.7168168  67.1741945   5.4680429
  71.8934796  68.0959910   5.2801413  72.5125001  66.8600364   5.8974809
  75.8579186  54.0350210  17.0664363  76.5988900  54.6357363  16.9868825
  76.0897109  53.2927848  16.5082405  71.0020524  59.2206577  15.3442592
  70.8874039  58.3191834  15.6449691  70.1465042  59.4670274  14.9927409
  78.0812362  67.1624317  16.9430093  77.6376216  66.3760696  16.6250997
  78.7429576  67.3503468  16.2773984  72.8399483  68.6920119  11.4690771
  73.3906908  68.5637182  10.6967765  72.0010959  68.9915008  11.1185664
  80.1793600  67.4427117  14.9711494  80.1612075  68.2635998  14.4791763
  81.1013520  67.3181192  15.1961635  76.6366654  64.9571247  15.8135002
  77.1694991  64.1959535  15.5834310  76.1080735  64.6644899  16.5559157
  79.8036349  50.0631313  11.3428644  79.4600619  50.9532954  11.2667755
  80.1715312  49.8732970  10.4798229  67.8722200  62.3864843   4.1617246
  68.7097422  62.7961852   3.9450954  68.0500468  61.4464285   4.1317440
  79.7686632  60.0539924  -0.1498921  79.2533255  60.8244528   0.0889467
  79.4963940  59.3805060   0.4734141  77.3533743  54.8989625   4.9086318
  76.4975339  54.5096475   4.7291956  77.7660695  54.9781585   4.0486103
  78.8832890  52.4335968   9.3077877  78.3797685  52.3966103   8.4945683
  79.1763496  53.3428711   9.3674534  75.1275776  52.5174698   8.3144059
  75.9928772  52.3217506   7.9549949  75.1953284  52.2885049   9.2413416
  84.7420906  62.8072278   1.7854253  83.9650349  62.4683438   1.3409415
  85.4212387  62.8124902   1.1109218  79.5572935  57.9267016   1.6760861
  79.2523071  58.2413165   2.5271004  80.5103377  58.0048436   1.7188193
  78.0019367  64.0857239   3.3253814  77.4740729  63.3509999   3.0127052
  77.5006870  64.8631916   3.0793783  82.9812213  62.2806260   8.4420861
  82.3235887  62.9705521   8.5300989  83.7852612  62.6702692   8.7854847
  72.7338095  54.7476905   5.6860426  73.3081846  54.5252087   4.9533619
  73.3209077  54.8165600   6.4389027  81.7917672  60.6350632   6.4924803
  82.3049554  61.2680624   6.9946512  82.4418896  60.0351828   6.1268163
  73.0607682  56.7781367  -0.2943689  72.2244994  57.1156053   0.0265586
  72.9212451  56.6430346  -1.2316552  75.0360762  51.6218154   4.4135495
  74.3825175  51.3067172   3.7892110  74.9941236  50.9993895   5.1395318
  76.1471967  61.9037449  -3.6711212  75.2399029  61.6726703  -3.4720064
  76.6442999  61.1075069  -3.4837231  78.2698503  58.1100088   8.7383143
  77.3521064  58.3315035   8.5804831  78.6858646  58.1846398   7.8794850
  79.0533550  59.5091504   3.8685823  79.8005369  60.0212901   3.5592945
  79.3225140  59.1875556   4.7290217  77.3260201  62.0050044   0.8512778
  76.4171420  61.7209077   0.9485247  77.3555284  62.4249123  -0.0083916
  82.5579468  65.6156634   4.6203945  82.1041795  64.7747544   4.6769136
  81.9273435  66.2518032   4.9578725  81.5012388  56.5448620   5.8504613
  80.7635144  56.0326006   6.1814855  81.7539161  56.1049001   5.0387889
  81.0012407  67.4533131   5.5553763  81.2935382  68.0138188   4.8366129
  81.5111028  67.7461692   6.3106922  81.6024015  49.3224872   6.4446382
  81.9082892  48.4622235   6.1572297  82.3276620  49.9142492   6.2445376
  67.8948371  59.7255558   4.8327980  67.6972771  59.1324919   4.1079046
  67.3395035  59.4207769   5.5503919  75.8745095  59.6178665   6.9522573
  75.9293704  58.6652501   6.8765050  75.0636297  59.7738104   7.4363871
  77.0236288  63.5458788  -1.8099144  76.5855718  62.8294647  -2.2693506
  77.7646729  63.7734903  -2.3714052  73.8137455  58.2355725   4.7112952
  73.0005320  58.5349895   5.1178144  74.3096449  57.8411413   5.4287434
  75.9646032  68.2313482   6.6447217  75.9222211  68.4574328   5.7155749
  76.8808731  67.9976856   6.7933018  79.4111666  58.6997549  13.5427846
  79.7661054  58.9269022  14.4022311  80.0583797  59.0315926  12.9205101
  85.1409403  61.8215985   4.2477175  85.0027302  62.0117581   3.3198364
  84.7845622  62.5835368   4.7045226  73.3051529  55.8074080  10.3274187
  73.9450909  55.6662839   9.6297150  72.4729060  55.5208594   9.9512789
  85.1678783  63.8892512   9.2588446  85.6015289  63.7967801  10.1071500
  85.8810363  63.8650013   8.6208462  74.0811833  65.1076511   6.4409179
  74.8752432  64.6126831   6.2391754  73.3703526  64.5794374   6.0776885
  78.9006678  67.4894606  10.7921547  78.9543700  68.0585542  11.5599263
  78.0321459  67.6596491  10.4275584  70.3894597  59.2519592   2.5168932
  69.4592185  59.1904048   2.7338894  70.4852069  58.7295545   1.7205573
  70.3080146  55.7774405   5.1047174  70.5686963  56.6919738   4.9956334
  71.1297318  55.3098848   5.2543786  71.7805071  57.1912162  12.2745998
  72.4528124  56.9829524  11.6258647  70.9534858  56.9934248  11.8351230
  86.0294332  63.9316213  11.7921332  86.2230222  64.8362023  12.0380607
  85.9294951  63.4723632  12.6259917  77.6830643  53.8174103  14.2911659
  77.0358558  54.5164053  14.1976135  78.4531658  54.2510247  14.6587907
  81.0909441  64.0822955  17.3662212  80.9394947  63.8533507  16.4492296
  81.0814120  65.0393557  17.3793557  77.8594777  61.6554868  12.3508479
  78.7886837  61.8066028  12.1777446  77.4385807  61.7438889  11.4957125
  76.6583109  65.6805533  10.1207016  76.5194195  65.3124317  10.9932954
  75.8697705  66.1953172   9.9490974  77.2531261  70.7814629   1.4632553
  77.4283017  70.3102672   2.2778176  76.5664049  71.4080395   1.6913814
  78.2088324  65.0587135   7.5095854  77.8738157  65.0187905   8.4053504
  77.7092270  64.3931851   7.0366264  72.1832568  60.4654765  13.0348435
  72.0452366  59.7335004  13.6359974  73.0937492  60.3763665  12.7532623
  81.1447516  62.4043170  -2.2167086  80.5276687  61.6789998  -2.3134034
  80.6764004  63.1652530  -2.5600012  74.8114869  60.1774725  12.5232115
  75.5214488  59.5367917  12.4818733  74.7684177  60.4287620  13.4458296
  82.8001648  67.1142078  15.4438694  82.7414194  66.4301298  14.7769277
  83.2021166  67.8561068  14.9919320  73.5243803  57.1639943  14.3427754
  72.9881160  56.7130681  14.9949351  72.9360511  57.2985851  13.5998219
  71.8192346  73.9303992   8.2372413  72.0588945  74.5622516   8.9151432
  70.9761543  73.5792032   8.5237772  72.9346062  56.6228594  -3.0945782
  72.0575528  56.5017395  -3.4583535  73.4103815  55.8314672  -3.3466893
  82.8019055  65.0781662  13.6752674  81.9145834  64.7407584  13.7979073
  83.3717606  64.3464693  13.9121439  64.4548202  61.4105754   6.9995725
  65.1419242  61.0967484   6.4116741  64.2996331  62.3147118   6.7262977
  69.2582924  56.2995950  11.4280749  69.1741113  55.6921620  10.6931159
  68.4365631  56.7904969  11.4290245  76.3320208  69.7383114  10.6413917
  76.2590380  70.5438086  11.1533222  75.8897601  69.9375080   9.8161938
  76.1209988  68.9754884   4.1516739  75.3377510  69.5176564   4.2454963
  76.8202733  69.4928864   4.5510980  79.4306638  54.7849514   6.7950944
  79.9275338  54.0319476   6.4752014  78.6593620  54.8213830   6.2294153
  87.2836395  60.4889879   8.4369235  87.2726272  61.3714595   8.0663169
  86.4153775  60.1361430   8.2423773  78.7918892  69.6369948  12.7972076
  79.5046864  70.2717413  12.7247977  78.3008920  69.7333814  11.9812078
  80.5136419  63.5421201   4.3689367  79.5792697  63.6622663   4.1994072
  80.6913087  62.6393668   4.1049377  76.0141607  56.9266897   6.5222629
  75.6439394  56.3737937   7.2103534  76.5100699  56.3225030   5.9697629
  83.9008970  59.3838520   4.9039401  84.3669422  60.2166512   4.8299704
  84.3516471  58.9183502   5.6084660  73.8430805  67.3864392  13.6177647
  74.5440265  68.0200875  13.7707041  73.3725920  67.7279123  12.8573286
  81.9685201  65.7282342   1.9025554  82.2445045  65.6138936   2.8119428
  81.0989700  65.3299826   1.8637727  81.8725633  51.7519107   8.9430303
  80.9588713  51.9823334   9.1112510  82.3018734  51.8357551   9.7944335
  81.6432091  59.9408999  11.4430197  80.9903542  60.1884907  10.7882650
  82.0212471  59.1273137  11.1092674  78.6039265  69.9768692   5.5458367
  78.7861660  69.1590348   6.0086119  79.4272251  70.1936385   5.1083257
  78.9381431  68.9036878   2.8073416  79.4669197  68.3929332   2.1943578
  79.2009650  68.5879408   3.6718949  77.6919664  60.6828810  17.9296234
  77.0160301  60.5822940  18.5998609  78.5147298  60.5268024  18.3932231
  69.4398523  66.9200747  10.5508749  70.0251960  66.1744435  10.6836653
  69.2423362  67.2304704  11.4345413  72.2937179  69.9551994   5.5671192
  71.6247554  70.4398122   5.0835232  72.1550048  70.2021215   6.4814570
  64.0316178  59.4906347   9.2713192  64.0700278  58.9569938  10.0650310
  63.5256471  58.9641553   8.6524170  76.4342447  71.9895738  12.1653850
  76.9860755  72.1527359  12.9302935  76.7748641  72.5800176  11.4933875
  71.4106940  54.3370888  12.7675735  71.4748267  55.1985718  12.3553132
  71.3474061  53.7244889  12.0348093  70.8859213  56.4094020  16.4148769
  71.5131252  56.0271097  17.0286293  70.0287132  56.1908222  16.7804461
  81.2853322  66.8156995  18.0202504  81.8293226  67.4286954  17.5257459
  80.7040166  67.3736574  18.5369517  67.6624756  58.2170449   2.3467124
  67.9578197  57.3081128   2.2934177  66.7612792  58.1958189   2.0248126
  79.5710835  69.9377713   9.1517532  79.4461974  69.1367453   8.6428478
  80.2289926  70.4323907   8.6631502  71.1919003  56.2926446   8.3294672
  70.4705589  56.9062413   8.1902146  71.9812259  56.8284211   8.2511318
  81.6345743  67.7386733  10.7797082  80.6876078  67.6192085  10.7075409
  81.9828516  66.8509231  10.8623344  73.9945316  53.6280872  14.6035324
  74.5179718  53.8743169  15.3661633  73.7757650  54.4600907  14.1838461
  69.3912597  55.8984547   2.4706449  69.0625304  55.0181926   2.2881555
  69.7451968  55.8432216   3.3582838  78.6392176  67.5339450   6.9801434
  78.4917139  66.6056157   7.1609004  79.4645670  67.5559540   6.4958510
  72.5054421  56.1857517   2.8381927  72.8450493  56.7143438   2.1160535
  72.9526541  56.5237923   3.6140493  82.2426298  68.3568008   8.0666307
  83.1672846  68.1510870   7.9290758  82.0741601  68.1084409   8.9755649
  75.1997861  54.5694567  12.2884995  74.8594682  53.7702380  12.6905674
  74.4936868  54.8696278  11.7161828  75.8514333  51.6543880  10.7412318
  76.6740402  51.1804358  10.6191208  76.0952397  52.4334364  11.2411004
  74.4922568  54.6832138   1.0375219  75.2130930  55.0613391   0.5338936
  73.8687872  55.4021015   1.1410197  78.6353691  55.3877287   1.9733552
  78.8517305  56.2701925   1.6722380  78.1547758  54.9963501   1.2439194
  73.3752912  58.3463000   8.5504296  73.2297493  58.6603304   9.4428578
  72.8978116  58.9647901   7.9975195  75.2349295  55.3365548   8.5985186
  75.2210864  54.4406642   8.2617484  75.9521723  55.3436212   9.2323472
  77.0875426  55.7702889  10.6438313  76.8293203  56.6919959  10.6422644
  76.5560466  55.3733323  11.3338777  82.0321614  68.8753676   3.4228399
  82.2058492  68.3100098   2.6702251  82.5250506  69.6754571   3.2407889
  67.8498574  60.8868345  11.4891957  67.3052042  61.6628153  11.6212232
  68.7277924  61.2339149  11.3311079  74.6386191  54.2179929   3.8672756
  74.7602102  53.2896575   4.0663643  74.3488233  54.2318615   2.9551071
  77.5077381  51.9034839   7.0039476  77.5299078  51.9674172   6.0491455
  77.9245440  51.0639348   7.1979982  87.8861005  61.6390099   5.0418698
  88.3292151  60.8897424   4.6437822  87.0087516  61.6300235   4.6592430
  83.0196787  68.1920440   0.5225297  83.7147691  68.8127133   0.7412612
  83.3619937  67.3415791   0.7977675  68.6364596  60.0138241  14.3822114
  67.8946332  60.1620876  14.9686745  68.3157340  60.2746507  13.5188864
  84.9188210  65.6420146   2.0512628  85.4439534  65.9807418   1.3261948
  84.8310562  64.7067161   1.8675762  76.5808259  69.5554219  14.1802504
  76.8895385  69.3103366  15.0525204  77.3783741  69.7600858  13.6921375
  76.6028871  71.7092129   6.4107881  76.1633861  71.2168508   7.1040738
  77.3536988  71.1665097   6.1699956  69.0821210  67.9003670   6.4132509
  69.9079230  67.6007442   6.0331152  68.7315262  67.1311292   6.8622298
  74.0502743  67.2530138   8.4830183  73.4282752  66.5900843   8.1832410
  74.7207610  67.2791270   7.8003830  67.2829815  65.8189996   7.3721443
  66.4461723  65.3912171   7.1905444  67.2553460  66.0122440   8.3092234
  74.1227270  55.7311926  18.0762689  74.1715426  56.6074049  17.6940458
  74.6649784  55.1889319  17.5034332  84.6082116  66.2753049  17.3563826
  83.8177660  66.2577188  16.8168325  84.3715471  66.8141343  18.1112862
  84.7279991  63.1245516  14.6696554  84.7777996  62.9595523  15.6112077
  84.6193914  62.2572775  14.2794435  73.6116250  65.8034061   1.9588643
  73.7604370  66.4869526   1.3055316  74.4182693  65.7839151   2.4738099
  82.0183753  59.1076444  15.9855861  82.9193616  58.9682909  15.6939859
  82.0931728  59.2730899  16.9254038  76.3526559  56.4843298  14.8309047
  75.4829868  56.7776865  14.5591636  76.5886039  57.0683743  15.5516311
  86.2298188  65.5442457  14.9138576  85.9382996  65.9072438  15.7502037
  85.6170319  64.8309465  14.7351908  87.4293870  63.1095337   7.4341146
  88.2640762  63.5485141   7.5978706  87.5652999  62.6333990   6.6149392
  84.4785376  60.6675072  13.3818634  84.9539498  60.8602718  12.5737485
  83.5550941  60.7234258  13.1362017  71.3668883  61.8299239   2.9649712
  71.1214925  60.9261569   3.1629922  71.5364797  61.8316389   2.0229190
  79.0565593  52.7022915  12.3474468  79.5747536  53.4383942  12.0220956
  78.7020725  53.0086909  13.1821227  70.6364530  57.5627597   0.4635873
  69.9433775  57.6371952  -0.1924091  70.3916282  56.7987940   0.9857390
  79.3078187  49.1223198   7.8675364  79.5879940  48.4546387   8.4935791
  80.0928794  49.3152294   7.3550028  77.1111655  68.2982192  -0.5699610
  76.5385622  68.9172379  -1.0229138  77.6844449  68.8481554  -0.0359688
  83.1787045  57.5440832  11.6146939  84.1304468  57.6438930  11.6359163
  83.0090495  56.7519100  12.1245024  81.2001425  54.6296415  11.8006340
  80.6051357  54.9101428  11.1052829  80.9151121  55.1190316  12.5723081
  80.3308915  68.5819342   0.5608973  81.2639588  68.5164904   0.7641848
  80.2432128  69.4175609   0.1023505  85.6575123  60.7646952  10.7289239
  85.6251443  59.8262952  10.9148923  86.2675747  60.8430988   9.9955064
  77.4958454  59.6343005  -3.2283557  78.4417558  59.5049213  -3.1595139
  77.1172699  58.8957666  -2.7514129  85.8069611  57.5557995  10.7747522
  85.2908660  56.7716452  10.5877451  86.6909560  57.2276712  10.9394042
  83.4680338  51.2999011   6.7343335  83.2705159  50.9914099   7.6186667
  84.0780044  52.0260650   6.8641265  91.4751673  61.8262958   9.8695276
  92.2055061  61.5648247  10.4302979  90.8658618  61.0891680   9.9097344
  89.5566970  59.9670821  10.4669727  88.8300133  59.8326786   9.8586219
  89.1414257  60.2747650  11.2726445  77.3797146  63.6860751  18.2317100
  78.3000156  63.8639350  18.4257146  77.3446729  62.7416796  18.0796799
  75.6801371  57.5592981  -3.2928672  74.7732826  57.2626094  -3.2165958
  75.9577352  57.2622799  -4.1594386  66.5979311  58.8799344   7.1570375
  66.2782096  58.0264653   6.8644749  66.0512739  59.0947923   7.9128342
  70.3759219  61.5961785  10.8739881  70.5945229  62.5278893  10.8927915
  70.7884993  61.2369760  11.6594685  77.2963437  52.1029871   2.8615570
  76.4864165  51.7576956   3.2370816  77.9847854  51.7937414   3.4503181
  79.2253985  51.1807918   4.4839866  79.7785023  51.6003371   5.1429889
  79.4624071  50.2543666   4.5262822  75.2487084  57.1694991  20.2642630
  75.1483811  58.1189348  20.1954721  75.0308626  56.8413230  19.3918700
  74.4500155  54.4179916  -3.1516693  75.3119319  54.7434815  -2.8920875
  74.6350500  53.6311412  -3.6643627  66.4667571  62.5002256   9.1263496
  65.7731043  62.0856209   8.6133451  67.2140562  62.5422792   8.5296915
  82.6032792  53.2908443   3.9918530  82.0231461  53.9493247   3.6096583
  82.3368725  52.4685787   3.5805948  81.0536358  52.6913500   6.1939851
  81.5536137  52.8030035   5.3854170  81.6971966  52.3874553   6.8340659
  75.1118354  60.5992130  19.0807692  74.6285436  61.3992490  19.2871581
  75.1979293  60.6100075  18.1275136  68.3804314  62.4320510   7.0029511
  68.3575002  62.5308197   6.0511394  68.6904950  63.2785660   7.3246677
  71.0391692  64.4896665  11.1176125  71.9934945  64.4580607  11.0506057
  70.8404215  64.0287288  11.9326351  71.6291074  63.0597781  13.6846923
  72.4483963  63.5541859  13.7081760  71.9027881  62.1429749  13.6564491
  81.3857670  55.4508533   3.0474879  80.4983525  55.7358184   2.8295073
  81.8011659  55.2902296   2.2002156  84.7372206  55.4755054   6.7629218
  85.5132596  55.9651506   7.0353835  84.0120340  55.9013108   7.2201087
  87.1744765  56.1882673   7.8203159  87.7689256  55.9478409   7.1096467
  87.2471348  55.4689804   8.4476695  69.3941920  70.0316284   8.1346323
  69.2596388  69.2716685   7.5684321  68.9773983  70.7557184   7.6675112
  81.3598694  60.9663069   3.2625169  81.3033895  61.4231620   2.4232801
  81.9127036  60.2053754   3.0848012  85.1703500  56.7552801   4.0875288
  84.9140434  56.3549437   4.9183496  84.5456368  57.4696595   3.9625427
  89.4815837  59.4948874   6.5946580  88.9215395  59.5642063   7.3678142
  88.8759341  59.3189859   5.8746076  72.5511046  70.9285601   8.3464766
  72.4343430  71.8731034   8.2443456  71.7303493  70.6259163   8.7350565
  82.4387581  65.6535737  -0.8078641  83.2733185  65.2216935  -0.9901167
  82.2771924  65.4817751   0.1198253  82.0933473  62.1567850   0.5577698
  82.0382277  61.9912122  -0.3833858  81.4679528  62.8643883   0.7139888
  66.8825988  57.3935915  14.3839120  67.5284852  56.8834869  14.8726345
  66.6743139  58.1304596  14.9582545  79.4079380  64.4616762  19.8831261
  80.2770540  64.6357414  19.5217896  78.9286132  65.2811179  19.7606990
  75.4029599  51.6575959   0.1363016  75.3908268  52.6017799   0.2931287
  76.2953020  51.4746105  -0.1577522  73.5765560  71.5813863  11.5620694
  74.4792807  71.6137473  11.8787189  73.3502931  70.6514314  11.5767030
  75.3319162  70.3344850   8.2230773  74.3814793  70.3346711   8.1095145
  75.6351649  69.5877584   7.7066808  79.2181718  48.2518736   4.3908953
  78.4514114  47.6977223   4.5365636  79.6292423  48.3240605   5.2523105
  71.2223479  54.5403532  18.4814134  72.0854941  54.1840337  18.6917459
  70.6488890  54.2017426  19.1689539  91.0671856  76.1705388   9.2876535
  91.7050266  76.0512135   8.5839876  90.9492699  77.1186232   9.3464488
  87.8761562  76.1232816   9.2238060  87.5380074  76.0073881   8.3358595
  88.7451330  75.7223981   9.2039066  88.3581345  77.2767668  15.1824266
  88.3469986  76.8820466  14.3104769  88.5201985  76.5433740  15.7758037
  81.2812810  79.4719484   8.0519172  82.0734102  79.1310309   7.6365471
  81.5209460  79.5814459   8.9721325  85.0788606  80.0604780  14.1303450
  84.7878472  80.9650411  14.0150116  85.7145591  80.1021307  14.8447519
  86.0044813  77.4381628  10.7204809  86.6008385  77.2137651  10.0061772
  86.0619785  76.6966374  11.3230257  93.5446972  67.5453649  11.7257331
  93.2130297  68.4149060  11.5018546  92.9492585  67.2289933  12.4051361
  90.0378491  79.7466195  11.1253243  89.7379215  80.6491234  11.0169051
  89.6929551  79.4798378  11.9774396  83.4890973  76.1979992   7.1589948
  82.5641469  76.0656206   7.3667640  83.7375386  76.9774211   7.6559890
  93.4375635  72.2648735   8.8050681  92.5292513  72.1964144   8.5109442
  93.3863231  72.7420680   9.6332506  80.8499784  75.8413266   7.9933737
  80.9792165  76.0947744   8.9073149  80.1697235  76.4340974   7.6738392
  87.5116501  73.6838381  16.7485578  86.7349835  74.2432301  16.7388443
  88.1507064  74.1695164  17.2700448  95.3037282  70.4665174  10.5828555
  94.6611662  70.7597707   9.9368349  94.7992210  70.3518094  11.3881751
  85.7662873  76.4923834  16.3103545  86.5077558  77.0308878  16.0338369
  85.0599859  77.1190123  16.4675097  91.2418213  78.6352975  14.9075706
  91.6501569  78.1935385  14.1630339  90.5195474  78.0605602  15.1609899
  87.5949283  73.5725582  12.2809263  88.4410478  73.9964995  12.4243912
  87.5347921  72.9159206  12.9747826  90.7448728  71.2329950  13.9390437
  90.5009660  71.9872010  13.4024713  91.0208659  71.6115298  14.7737684
  92.6987191  77.7768562  12.6167703  92.9104086  78.4200322  11.9402084
  92.6516939  76.9430879  12.1489633  90.3013420  70.3886383   9.5204275
  89.4397899  70.6867636   9.8121012  90.3275855  70.6056782   8.5885307
  84.0099071  78.4800055   8.8657844  84.5800428  78.9087323   8.2275328
  84.6007182  78.1982640   9.5642029  84.5024237  73.6463482  17.1118855
  83.8722898  74.3279763  17.3454252  84.3960325  73.5346564  16.1671993
  79.7969209  73.3135279   8.0384779  79.0068263  73.5692807   7.5624890
  80.2880457  74.1283616   8.1436820  81.7483955  73.6779858   4.9968256
  80.9515118  73.7898552   5.5151751  81.5209547  74.0166510   4.1309146
  87.5789623  80.2024561  12.9450770  87.6434055  80.6644968  13.7808942
  86.8700546  79.5721926  13.0733080  78.0806912  73.5665769  10.4699770
  78.3314951  74.4512779  10.7357346  78.6166461  73.3870370   9.6974862
  83.7804980  67.9484248  19.4744106  83.3871925  67.3950447  20.1491750
  84.5971120  68.2594827  19.8650624  86.6972941  69.3642127  17.0664363
  87.4382654  69.9649281  16.9868825  86.9290864  68.6219765  16.5082405
  81.8414279  74.5498495  15.3442592  81.7267794  73.6483752  15.6449691
  80.9858797  74.7962191  14.9927409  88.9206117  82.4916235  16.9430093
  88.4769971  81.7052614  16.6250997  89.5823330  82.6795385  16.2773984
  83.6793238  84.0212037  11.4690771  84.2300663  83.8929100  10.6967765
  82.8404714  84.3206926  11.1185664  91.0187355  82.7719035  14.9711494
  91.0005830  83.5927916  14.4791763  91.9407275  82.6473110  15.1961635
  87.4760409  80.2863164  15.8135002  88.0088746  79.5251453  15.5834310
  86.9474490  79.9936816  16.5559157  90.6430104  65.3923230  11.3428644
  90.2994373  66.2824872  11.2667755  91.0109066  65.2024888  10.4798229
  88.1927497  70.2281542   4.9086318  87.3369094  69.8388393   4.7291956
  88.6054449  70.3073503   4.0486103  89.7226644  67.7627886   9.3077877
  89.2191440  67.7258021   8.4945683  90.0157251  68.6720628   9.3674534
  85.9669530  67.8466615   8.3144059  86.8322527  67.6509424   7.9549949
  86.0347039  67.6176967   9.2413416  83.5731849  70.0768823   5.6860426
  84.1475601  69.8544005   4.9533619  84.1602832  70.1457518   6.4389027
  85.8754517  66.9510072   4.4135495  85.2218929  66.6359089   3.7892110
  85.8334991  66.3285813   5.1395318  89.1092257  73.4392006   8.7383143
  88.1914819  73.6606953   8.5804831  89.5252401  73.5138316   7.8794850
  92.4417769  64.6516790   6.4446382  92.7476646  63.7914153   6.1572297
  93.1670374  65.2434410   6.2445376  78.7342125  75.0547476   4.8327980
  78.5366525  74.4616837   4.1079046  78.1788789  74.7499686   5.5503919
  86.7138849  74.9470583   6.9522573  86.7687459  73.9944419   6.8765050
  85.9030051  75.1030022   7.4363871  84.6531209  73.5647642   4.7112952
  83.8399075  73.8641813   5.1178144  85.1490203  73.1703331   5.4287434
  90.2505421  74.0289467  13.5427846  90.6054808  74.2560940  14.4022311
  90.8977552  74.3607844  12.9205101  84.1445284  71.1365998  10.3274187
  84.7844663  70.9954757   9.6297150  83.3122814  70.8500511   9.9512789
  81.1473900  71.1066323   5.1047174  81.4080718  72.0211656   4.9956334
  81.9691073  70.6390765   5.2543786  82.6198826  72.5204080  12.2745998
  83.2921879  72.3121442  11.6258647  81.7928612  72.3226166  11.8351230
  88.5224398  69.1466021  14.2911659  87.8752313  69.8455971  14.1976135
  89.2925413  69.5802165  14.6587907  91.9303196  79.4114873  17.3662212
  91.7788702  79.1825425  16.4492296  91.9207875  80.3685475  17.3793557
  88.6988532  76.9846786  12.3508479  89.6280592  77.1357945  12.1777446
  88.2779562  77.0730807  11.4957125  87.4976864  81.0097450  10.1207016
  87.3587949  80.6416235  10.9932954  86.7091460  81.5245090   9.9490974
  83.0226323  75.7946683  13.0348435  82.8846121  75.0626922  13.6359974
  83.9331246  75.7055583  12.7532623  85.6508623  75.5066642  12.5232115
  86.3608242  74.8659835  12.4818733  85.6077932  75.7579537  13.4458296
  93.6395402  82.4433996  15.4438694  93.5807948  81.7593216  14.7769277
  94.0414921  83.1852986  14.9919320  84.3637557  72.4931860  14.3427754
  83.8274914  72.0422599  14.9949351  83.7754266  72.6277769  13.5998219
  93.6412809  80.4073580  13.6752674  92.7539588  80.0699501  13.7979073
  94.2111360  79.6756611  13.9121439  75.2941957  76.7397671   6.9995725
  75.9812996  76.4259401   6.4116741  75.1390085  77.6439036   6.7262977
  80.0976679  71.6287868  11.4280749  80.0134867  71.0213537  10.6931159
  79.2759385  72.1196886  11.4290245  90.2700393  70.1141431   6.7950944
  90.7669092  69.3611394   6.4752014  89.4987374  70.1505748   6.2294153
  86.8535361  72.2558814   6.5222629  86.4833149  71.7029855   7.2103534
  87.3494454  71.6516948   5.9697629  84.6824560  82.7156309  13.6177647
  85.3834019  83.3492792  13.7707041  84.2119675  83.0571041  12.8573286
  92.7119387  67.0811025   8.9430303  91.7982467  67.3115252   9.1112510
  93.1412489  67.1649469   9.7944335  92.4825846  75.2700917  11.4430197
  91.8297296  75.5176824  10.7882650  92.8606226  74.4565055  11.1092674
  88.5313419  76.0120728  17.9296234  87.8554056  75.9114857  18.5998609
  89.3541053  75.8559942  18.3932231  80.2792278  82.2492664  10.5508749
  80.8645715  81.5036352  10.6836653  80.0817116  82.5596621  11.4345413
  74.8709933  74.8198265   9.2713192  74.9094032  74.2861855  10.0650310
  74.3650225  74.2933470   8.6524170  82.2500695  69.6662805  12.7675735
  82.3142021  70.5277636  12.3553132  82.1867815  69.0536807  12.0348093
  81.7252967  71.7385938  16.4148769  82.3525006  71.3563015  17.0286293
  80.8680886  71.5200140  16.7804461  92.1247076  82.1448913  18.0202504
  92.6686980  82.7578871  17.5257459  91.5433921  82.7028491  18.5369517
  78.5018510  73.5462367   2.3467124  78.7971951  72.6373045   2.2934177
  77.6006546  73.5250106   2.0248126  82.0312757  71.6218363   8.3294672
  81.3099343  72.2354331   8.1902146  82.8206013  72.1576128   8.2511318
  84.8339071  68.9572790  14.6035324  85.3573473  69.2035086  15.3661633
  84.6151404  69.7892825  14.1838461  80.2306352  71.2276465   2.4706449
  79.9019058  70.3473843   2.2881555  80.5845723  71.1724133   3.3582838
  86.0391616  69.8986485  12.2884995  85.6988436  69.0994298  12.6905674
  85.3330622  70.1988196  11.7161828  86.6908088  66.9835797  10.7412318
  87.5134157  66.5096276  10.6191208  86.9346151  67.7626281  11.2411004
  84.2146666  73.6754918   8.5504296  84.0691247  73.9895221   9.4428578
  83.7371870  74.2939818   7.9975195  86.0743049  70.6657466   8.5985186
  86.0604618  69.7698559   8.2617484  86.7915477  70.6728130   9.2323472
  87.9269180  71.0994806  10.6438313  87.6686958  72.0211877  10.6422644
  87.3954220  70.7025241  11.3338777  78.6892329  76.2160263  11.4891957
  78.1445797  76.9920070  11.6212232  79.5671678  76.5631067  11.3311079
  85.4779945  69.5471846   3.8672756  85.5995856  68.6188493   4.0663643
  85.1881988  69.5610532   2.9551071  88.3471136  67.2326757   7.0039476
  88.3692832  67.2966090   6.0491455  88.7639195  66.3931265   7.1979982
  79.4758350  75.3430159  14.3822114  78.7340086  75.4912794  14.9686745
  79.1551095  75.6038424  13.5188864  87.4202013  84.8846137  14.1802504
  87.7289140  84.6395284  15.0525204  88.2177495  85.0892775  13.6921375
  78.1223569  81.1481914   7.3721443  77.2855477  80.7204088   7.1905444
  78.0947215  81.3414357   8.3092234  84.9621025  71.0603844  18.0762689
  85.0109180  71.9365967  17.6940458  85.5043539  70.5181237  17.5034332
  95.4475870  81.6044967  17.3563826  94.6571414  81.5869106  16.8168325
  95.2109225  82.1433261  18.1112862  95.5673745  78.4537433  14.6696554
  95.6171750  78.2887441  15.6112077  95.4587669  77.5864692  14.2794435
  92.8577508  74.4368361  15.9855861  93.7587371  74.2974826  15.6939859
  92.9325482  74.6022816  16.9254038  87.1920313  71.8135216  14.8309047
  86.3223623  72.1068782  14.5591636  87.4279794  72.3975661  15.5516311
  97.0691942  80.8734375  14.9138576  96.7776751  81.2364355  15.7502037
  96.4564074  80.1601383  14.7351908  95.3179131  75.9966990  13.3818634
  95.7933252  76.1894636  12.5737485  94.3944696  76.0526175  13.1362017
  89.8959347  68.0314833  12.3474468  90.4141291  68.7675860  12.0220956
  89.5414480  68.3378826  13.1821227  90.1471941  64.4515116   7.8675364
  90.4273695  63.7838305   8.4935791  90.9322548  64.6444211   7.3550028
  94.0180800  72.8732750  11.6146939  94.9698222  72.9730847  11.6359163
  93.8484250  72.0811018  12.1245024  92.0395179  69.9588333  11.8006340
  91.4445111  70.2393346  11.1052829  91.7544876  70.4482234  12.5723081
  96.6463366  72.8849913  10.7747522  96.1302414  72.1008369  10.5877451
  97.5303314  72.5568629  10.9394042  94.3074093  66.6290928   6.7343335
  94.1098914  66.3206016   7.6186667  94.9173798  67.3552567   6.8641265
  88.2190901  79.0152668  18.2317100  89.1393910  79.1931267  18.4257146
  88.1840484  78.0708714  18.0796799  77.4373066  74.2091262   7.1570375
  77.1175850  73.3556570   6.8644749  76.8906494  74.4239840   7.9128342
  81.2152973  76.9253703  10.8739881  81.4338983  77.8570811  10.8927915
  81.6278747  76.5661677  11.6594685  88.1357191  67.4321788   2.8615570
  87.3257919  67.0868873   3.2370816  88.8241608  67.1229332   3.4503181
  90.0647739  66.5099835   4.4839866  90.6178778  66.9295289   5.1429889
  90.3017826  65.5835583   4.5262822  86.0880839  72.4986909  20.2642630
  85.9877565  73.4481266  20.1954721  85.8702381  72.1705148  19.3918700
  77.3061326  77.8294174   9.1263496  76.6124797  77.4148126   8.6133451
  78.0534317  77.8714710   8.5296915  91.8930113  68.0205418   6.1939851
  92.3929891  68.1321953   5.3854170  92.5365721  67.7166471   6.8340659
  85.9512109  75.9284048  19.0807692  85.4679190  76.7284408  19.2871581
  86.0373048  75.9391993  18.1275136  79.2198068  77.7612427   7.0029511
  79.1968756  77.8600115   6.0511394  79.5298705  78.6077578   7.3246677
  81.8785446  79.8188582  11.1176125  82.8328700  79.7872525  11.0506057
  81.6797970  79.3579206  11.9326351  82.4684828  78.3889698  13.6846923
  83.2877717  78.8833777  13.7081760  82.7421636  77.4721667  13.6564491
  77.7219743  72.7227832  14.3839120  78.3678606  72.2126786  14.8726345
  77.5136894  73.4596514  14.9582545  90.2473135  79.7908680  19.8831261
  91.1164294  79.9649332  19.5217896  89.7679886  80.6103097  19.7606990
  84.4159315  86.9105781  11.5620694  85.3186562  86.9429391  11.8787189
  84.1896685  85.9806232  11.5767030  90.0575472  63.5810654   4.3908953
  89.2907868  63.0269140   4.5365636  90.4686177  63.6532522   5.2523105
  82.0617234  69.8695449  18.4814134  82.9248695  69.5132254  18.6917459
  81.4882644  69.5309344  19.1689539  94.6198734  83.2776166  19.4744106
  94.2265680  82.7242365  20.1491750  95.4364875  83.5886744  19.8650624
  97.5366695  84.6934045  17.0664363  98.2776409  85.2941198  16.9868825
  97.7684618  83.9511683  16.5082405  92.5646722  87.0677855  16.4148769
  93.1918761  86.6854933  17.0286293  91.7074641  86.8492057  16.7804461
  95.8014779  86.3895761  18.0762689  95.8502935  87.2657884  17.6940458
  96.3437293  85.8473154  17.5034332  96.9274593  87.8278826  20.2642630
  96.8271320  88.7773183  20.1954721  96.7096135  87.4997065  19.3918700
  88.5613497  88.0519750  14.3839120  89.2072361  87.5418704  14.8726345
  88.3530648  88.7888432  14.9582545  92.9010988  85.1987367  18.4814134
  93.7642450  84.8424172  18.6917459  92.3276399  84.8601262  19.1689539
  71.9607894  28.7912283   2.1684001  71.9020441  28.1071503   1.5014584
  72.3627413  29.5331273   1.7164627  70.4459568  28.4927200   4.7447811
  70.9899472  29.1057158   4.2502766  69.8646413  29.0506779   5.2614824
  73.7688363  27.9523254   4.0809132  72.9783906  27.9347393   3.5413632
  73.5321717  28.4911548   4.8358169  75.3904435  27.2212662   1.6383882
  75.0989243  27.5842643   2.4747343  74.7776566  26.5079670   1.4597214
  68.5685627  26.1386967   6.6076567  69.4376787  26.3127619   6.2463202
  68.0892378  26.9581384   6.4852297  80.2278103  37.8475593  -3.9878158
  80.8656513  37.7282340  -4.6914818  80.1098946  38.7956437  -3.9290206
  77.0367809  37.8003021  -4.0516633  76.6986321  37.6844086  -4.9396098
  77.9057577  37.3994186  -4.0715627  77.5187592  38.9537873   1.9069572
  77.5076233  38.5590671   1.0350076  77.6808231  38.2203945   2.5003344
  70.4419057  41.1489689  -5.2235522  71.2340349  40.8080514  -5.6389223
  70.6815707  41.2584664  -4.3033369  74.2394853  41.7374985   0.8548756
  73.9484719  42.6420615   0.7395423  74.8751837  41.7791512   1.5692826
  75.1651060  39.1151833  -2.5549884  75.7614632  38.8907855  -3.2692921
  75.2226032  38.3736579  -1.9524436  82.7053219  29.2223854  -1.5497363
  82.3736543  30.0919265  -1.7736148  82.1098832  28.9060138  -0.8703332
  79.1984738  41.4236400  -2.1501450  78.8985461  42.3261439  -2.2585643
  78.8535798  41.1568583  -1.2980297  82.5981882  33.9418940  -4.4704013
  81.6898759  33.8734349  -4.7645252  82.5469478  34.4190885  -3.6422187
  74.1805518  48.1880720  -9.1830482  74.1029548  49.1388546  -9.1042002
  73.5767162  47.8426593  -8.5255556  76.6722748  35.3608586   3.4730885
  75.8956082  35.9202506   3.4633749  77.3113311  35.8465369   3.9945755
  74.9269120  38.1694039   3.0348852  75.6683804  38.7079083   2.7583675
  74.2206106  38.7960328   3.1920403  80.4024460  40.3123180   1.6321013
  80.8107816  39.8705590   0.8875645  79.6801721  39.7375807   1.8855206
  76.7555530  35.2495786  -0.9945430  77.6016725  35.6735200  -0.8510781
  76.6954167  34.5929411  -0.3006867  80.7253274  40.8724370  -4.6126698
  80.0962137  41.0370084  -5.3150630  80.3378936  41.2865980  -3.8415734
  84.6042506  41.8078808  -7.2582334  83.9193544  42.1877710  -7.8085301
  84.6886356  42.4174135  -6.5250387  79.9054975  32.9100155   0.6635744
  79.6615907  33.6642215   0.1270019  80.1814906  33.2885502   1.4982991
  81.8593438  39.4538767  -0.6586991  82.0710333  40.0970527  -1.3352610
  81.8123186  38.6201084  -1.1265061  73.1705317  40.1570260  -4.4096850
  73.7406674  40.5857528  -5.0479365  73.7613429  39.8752845  -3.7112664
  73.6630484  35.3233687   3.8364162  73.0329144  36.0049968   4.0699558
  73.5566572  35.2116769   2.8917300  82.9739266  42.3310723  -2.4864633
  83.7956710  41.9290910  -2.7681952  82.9701669  42.2278957  -1.5348518
  76.7395869  41.8794766  -0.3303923  76.8040302  42.3415173   0.5054249
  76.0306793  41.2492131  -0.2021613  72.9411227  29.6254453   6.1989413
  72.5478172  29.0720652   6.8737057  73.7577367  29.9365032   6.5895930
  71.7168169  44.1804068  -7.8074264  71.8934797  45.1022032  -7.9953280
  72.5125003  43.8662487  -7.3779885  75.8579188  31.0412332   3.7909669
  76.5988901  31.6419485   3.7114132  76.0897110  30.2989970   3.2327712
  71.0020526  36.2268700   2.0687899  70.8874041  35.3253957   2.3694998
  70.1465043  36.4732396   1.7172715  78.0812363  44.1686440   3.6675399
  77.6376217  43.3822818   3.3496304  78.7429577  44.3565590   3.0019290
  72.8399484  45.6982241  -1.8063922  73.3906910  45.5699305  -2.5786928
  72.0010960  45.9977131  -2.1569029  80.1793601  44.4489240   1.6956801
  80.1612077  45.2698121   1.2037070  81.1013521  44.3243315   1.9206942
  76.6366656  41.9633369   2.5380309  77.1694992  41.2021657   2.3079617
  76.1080737  41.6707021   3.2804464  82.9812214  39.2868382  -4.8333833
  82.3235889  39.9767644  -4.7453704  83.7852613  39.6764814  -4.4899846
  78.2698504  35.1162211  -4.5371550  77.3521065  35.3377158  -4.6949862
  78.6858648  35.1908521  -5.3959843  82.5579469  42.6218756  -8.6550748
  82.1041796  41.7809666  -8.5985558  81.9273436  43.2580155  -8.3175968
  81.0012409  44.4595253  -7.7200930  81.2935383  45.0200310  -8.4388564
  81.5111029  44.7523814  -6.9647771  75.9646034  45.2375604  -6.6307477
  75.9222212  45.4636451  -7.5598945  76.8808733  45.0038979  -6.4821676
  79.4111668  35.7059672   0.2673152  79.7661055  35.9331145   1.1267618
  80.0583799  36.0378049  -0.3549592  85.1678784  40.8954635  -4.0166247
  85.6015291  40.8029924  -3.1683193  85.8810365  40.8712135  -4.6546231
  78.9006679  44.4956729  -2.4833147  78.9543701  45.0647665  -1.7155431
  78.0321460  44.6658614  -2.8479109  71.7805072  34.1974285  -1.0008695
  72.4528126  33.9891647  -1.6496046  70.9534859  33.9996371  -1.4403463
  86.0294334  40.9378335  -1.4833362  86.2230224  41.8424146  -1.2374087
  85.9294952  40.4785754  -0.6494777  77.6830644  30.8236226   1.0156966
  77.0358559  31.5226176   0.9221442  78.4531660  31.2572370   1.3833214
  81.0909442  41.0885078   4.0907519  80.9394949  40.8595630   3.1737603
  81.0814122  42.0455679   4.1038864  77.8594779  38.6616991  -0.9246215
  78.7886839  38.8128150  -1.0977247  77.4385809  38.7501012  -1.7797568
  76.6583110  42.6867655  -3.1547677  76.5194196  42.3186440  -2.2821739
  75.8697707  43.2015295  -3.3263719  77.2531262  47.7876752 -11.8122141
  77.4283018  47.3164795 -10.9976518  76.5664050  48.4142518 -11.5840880
  78.2088326  42.0649258  -5.7658839  77.8738158  42.0250028  -4.8701189
  77.7092271  41.3993974  -6.2388429  72.1832570  37.4716888  -0.2406258
  72.0452368  36.7397127   0.3605281  73.0937493  37.3825788  -0.5222070
  74.8114870  37.1836847  -0.7522578  75.5214489  36.5430039  -0.7935960
  74.7684178  37.4349742   0.1703602  82.8001649  44.1204201   2.1684001
  82.7414195  43.4363421   1.5014584  83.2021167  44.8623191   1.7164627
  73.5243804  34.1702065   1.0673061  72.9881161  33.7192804   1.7194657
  72.9360513  34.3047974   0.3243525  71.8192348  50.9366114  -5.0382280
  72.0588946  51.5684639  -4.3603262  70.9761544  50.5854154  -4.7516921
  82.8019056  42.0843785   0.3997980  81.9145835  41.7469706   0.5224379
  83.3717607  41.3526816   0.6366746  76.3320210  46.7445237  -2.6340776
  76.2590381  47.5500208  -2.1221472  75.8897603  46.9437203  -3.4592755
  76.1209989  45.9817007  -9.1237955  75.3377511  46.5238687  -9.0299730
  76.8202734  46.4990987  -8.7243714  78.7918893  46.6432071  -0.4782618
  79.5046865  47.2779536  -0.5506716  78.3008922  46.7395937  -1.2942616
  73.8430807  44.3926514   0.3422953  74.5440266  45.0262997   0.4952347
  73.3725922  44.7341246  -0.4181408  81.6432093  36.9471122  -1.8324497
  80.9903543  37.1947029  -2.4872044  82.0212473  36.1335260  -2.1662019
  78.6039266  46.9830815  -7.7296326  78.7861661  46.1652471  -7.2668574
  79.4272253  47.1998507  -8.1671436  78.9381432  45.9099000 -10.4681278
  79.4669198  45.3991455 -11.0811116  79.2009652  45.5941530  -9.6035745
  77.6919666  37.6890933   4.6541541  77.0160303  37.5885062   5.3243916
  78.5147300  37.5330147   5.1177538  69.4398525  43.9262869  -2.7245944
  70.0251962  43.1806557  -2.5918040  69.2423363  44.2366826  -1.8409280
  72.2937180  46.9614117  -7.7083502  71.6247555  47.4460244  -8.1919462
  72.1550050  47.2083337  -6.7940123  76.4342449  48.9957860  -1.1100843
  76.9860757  49.1589482  -0.3451758  76.7748642  49.5862298  -1.7820819
  70.8859214  33.4156143   3.1394076  71.5131253  33.0333220   3.7531600
  70.0287133  33.1970345   3.5049768  81.2853323  43.8219118   4.7447811
  81.8293227  44.4349076   4.2502766  80.7040168  44.3798696   5.2614824
  79.5710836  46.9439836  -4.1237161  79.4461975  46.1429576  -4.6326216
  80.2289927  47.4386029  -4.6123191  81.6345744  44.7448856  -2.4957611
  80.6876080  44.6254207  -2.5679284  81.9828517  43.8571354  -2.4131350
  73.9945318  30.6342995   1.3280631  74.5179719  30.8805291   2.0906940
  73.7757651  31.4663030   0.9083768  78.6392177  44.5401572  -6.2953259
  78.4917140  43.6118280  -6.1145689  79.4645671  44.5621663  -6.7796184
  82.2426299  45.3630131  -5.2088386  83.1672847  45.1572992  -5.3463935
  82.0741603  45.1146532  -4.2999045  75.1997863  31.5756690  -0.9869699
  74.8594683  30.7764503  -0.5849019  74.4936869  31.8758401  -1.5592866
  77.0875427  32.7765011  -2.6316380  76.8293205  33.6982082  -2.6332050
  76.5560467  32.3795446  -1.9415916  82.0321616  45.8815798  -9.8526295
  82.2058493  45.3162221 -10.6052442  82.5250507  46.6816693 -10.0346805
  67.8498575  37.8930467  -1.7862736  67.3052043  38.6690275  -1.6542462
  68.7277925  38.2401272  -1.9443615  68.6364597  37.0200364   1.1067421
  67.8946333  37.1682999   1.6932051  68.3157341  37.2808629   0.2434170
  76.5808260  46.5616342   0.9047811  76.8895386  46.3165489   1.7770511
  77.3783742  46.7662980   0.4166681  76.6028872  48.7154252  -6.8646813
  76.1633862  48.2230630  -6.1713956  77.3536989  48.1727219  -7.1054737
  69.0821211  44.9065792  -6.8622184  69.9079231  44.6069564  -7.2423541
  68.7315263  44.1373415  -6.4132396  74.0502744  44.2592261  -4.7924511
  73.4282753  43.5962966  -5.0922283  74.7207611  44.2853393  -5.4750863
  74.1227272  32.7374049   4.8007995  74.1715427  33.6136171   4.4185765
  74.6649786  32.1951442   4.2279638  84.6082117  43.2815172   4.0809132
  83.8177661  43.2639311   3.5413632  84.3715472  43.8203466   4.8358169
  84.7279992  40.1307638   1.3941861  84.7777997  39.9657646   2.3357384
  84.6193916  39.2634897   1.0039742  82.0183755  36.1138566   2.7101167
  82.9193617  35.9745031   2.4185165  82.0931729  36.2793021   3.6499345
  76.3526560  33.4905421   1.5554354  75.4829869  33.7838987   1.2836942
  76.5886040  34.0745866   2.2761617  86.2298189  42.5504580   1.6383882
  85.9382997  42.9134560   2.4747343  85.6170320  41.8371588   1.4597214
  84.4785377  37.6737194   0.1063940  84.9539499  37.8664841  -0.7017208
  83.5550943  37.7296380  -0.1392676  79.0565594  29.7085038  -0.9280226
  79.5747538  30.4446065  -1.2533737  78.7020727  30.0149031  -0.0933467
  83.1787046  34.5502955  -1.6607754  84.1304469  34.6501052  -1.6395530
  83.0090497  33.7581223  -1.1509670  81.2001426  31.6358538  -1.4748353
  80.6051358  31.9163550  -2.1701865  80.9151122  32.1252439  -0.7031612
  85.6575124  37.7709074  -2.5465454  85.6251444  36.8325075  -2.3605771
  86.2675748  37.8493111  -3.2799630  77.3797148  40.6922873   4.9562407
  78.3000157  40.8701472   5.1502453  77.3446731  39.7478919   4.8042106
  70.3759220  38.6023908  -2.4014812  70.5945230  39.5341016  -2.3826778
  70.7884994  38.2431882  -1.6160008  75.2487085  34.1757114   6.9887937
  75.1483812  35.1251471   6.9200028  75.0308627  33.8475353   6.1164007
  75.1118355  37.6054253   5.8052998  74.6285437  38.4054613   6.0116887
  75.1979294  37.6162197   4.8520442  71.0391693  41.4958787  -2.1578568
  71.9934946  41.4642730  -2.2248636  70.8404216  41.0349411  -1.3428342
  71.6291075  40.0659903   0.4092230  72.4483964  40.5603982   0.4327067
  71.9027883  39.1491871   0.3809797  69.3941922  47.0378407  -5.1408370
  69.2596390  46.2778808  -5.7070372  68.9773984  47.7619307  -5.6079581
  72.5511048  47.9347724  -4.9289927  72.4343432  48.8793156  -5.0311237
  71.7303494  47.6321285  -4.5404128  66.8825989  34.3998037   1.1084427
  67.5284853  33.8896991   1.5971652  66.6743140  35.1366719   1.6827852
  79.4079381  41.4678885   6.6076567  80.2770541  41.6419537   6.2463202
  78.9286133  42.2873302   6.4852297  73.5765562  48.5875986  -1.7133999
  74.4792808  48.6199596  -1.3967504  73.3502932  47.6576437  -1.6987663
  75.3319164  47.3406972  -5.0523920  74.3814795  47.3408834  -5.1659548
  75.6351650  46.5939707  -5.5687886  71.2223480  31.5465654   5.2059441
  72.0854942  31.1902459   5.4162766  70.6488891  31.2079549   5.8934845
  91.0671857  53.1767511  -3.9878158  91.7050267  53.0574258  -4.6914818
  90.9492700  54.1248355  -3.9290206  87.8761563  53.1294939  -4.0516633
  87.5380075  53.0136003  -4.9396098  88.7451332  52.7286104  -4.0715627
  88.3581346  54.2829790   1.9069572  88.3469987  53.8882589   1.0350076
  88.5201986  53.5495863   2.5003344  81.2812811  56.4781607  -5.2235522
  82.0734103  56.1372431  -5.6389223  81.5209461  56.5876582  -4.3033369
  85.0788608  57.0666902   0.8548756  84.7878474  57.9712533   0.7395423
  85.7145592  57.1083430   1.5692826  86.0044814  54.4443751  -2.5549884
  86.6008387  54.2199773  -3.2692921  86.0619786  53.7028496  -1.9524436
  93.5446973  44.5515772  -1.5497363  93.2130298  45.4211183  -1.7736148
  92.9492587  44.2352056  -0.8703332  90.0378493  56.7528318  -2.1501450
  89.7379216  57.6553357  -2.2585643  89.6929552  56.4860501  -1.2980297
  83.4890974  53.2042115  -6.1164746  82.5641471  53.0718329  -5.9087054
  83.7375387  53.9836334  -5.6194803  93.4375637  49.2710858  -4.4704013
  92.5292514  49.2026266  -4.7645252  93.3863232  49.7482803  -3.6422187
  80.8499785  52.8475388  -5.2820957  80.9792166  53.1009867  -4.3681545
  80.1697237  53.4403096  -5.6016301  87.5116502  50.6900504   3.4730885
  86.7349836  51.2494424   3.4633749  88.1507065  51.1757287   3.9945755
  85.7662875  53.4985957   3.0348852  86.5077559  54.0371001   2.7583675
  85.0599860  54.1252246   3.1920403  91.2418214  55.6415097   1.6321013
  91.6501570  55.1997508   0.8875645  90.5195476  55.0667725   1.8855206
  87.5949284  50.5787704  -0.9945430  88.4410479  51.0027118  -0.8510781
  87.5347922  49.9221328  -0.3006867  90.7448730  48.2392072   0.6635744
  90.5009661  48.9934133   0.1270019  91.0208660  48.6177420   1.4982991
  92.6987192  54.7830685  -0.6586991  92.9104088  55.4262445  -1.3352610
  92.6516941  53.9493001  -1.1265061  90.3013421  47.3948506  -3.7550419
  89.4397900  47.6929759  -3.4633681  90.3275856  47.6118904  -4.6869386
  84.0099072  55.4862178  -4.4096850  84.5800429  55.9149446  -5.0479365
  84.6007184  55.2044762  -3.7112664  84.5024238  50.6525605   3.8364162
  83.8722899  51.3341886   4.0699558  84.3960326  50.5408687   2.8917300
  79.7969211  50.3197401  -5.2369914  79.0068265  50.5754930  -5.7129804
  80.2880458  51.1345739  -5.1317874  81.7483956  50.6841980  -8.2786438
  80.9515119  50.7960675  -7.7602942  81.5209548  51.0228633  -9.1445547
  87.5789624  57.2086684  -0.3303923  87.6434056  57.6707091   0.5054249
  86.8700548  56.5784049  -0.2021613  78.0806914  50.5727892  -2.8054923
  78.3314952  51.4574901  -2.5397348  78.6166462  50.3932493  -3.5779832
  83.7804981  44.9546371   6.1989413  83.3871927  44.4012569   6.8737057
  84.5971121  45.2656949   6.5895930  86.6972942  46.3704250   3.7909669
  87.4382655  46.9711403   3.7114132  86.9290865  45.6281888   3.2327712
  81.8414280  51.5560617   2.0687899  81.7267795  50.6545875   2.3694998
  80.9858798  51.8024314   1.7172715  88.9206118  59.4978358   3.6675399
  88.4769972  58.7114736   3.3496304  89.5823331  59.6857508   3.0019290
  83.6793239  61.0274159  -1.8063922  84.2300664  60.8991223  -2.5786928
  82.8404715  61.3269048  -2.1569029  91.0187356  59.7781158   1.6956801
  91.0005831  60.5990039   1.2037070  91.9407276  59.6535233   1.9206942
  87.4760410  57.2925287   2.5380309  88.0088747  56.5313575   2.3079617
  86.9474491  56.9998939   3.2804464  89.7226645  44.7690008  -3.9676816
  89.2191441  44.7320143  -4.7809011  90.0157252  45.6782751  -3.9080159
  85.9669531  44.8528738  -4.9610634  86.8322528  44.6571547  -5.3204745
  86.0347040  44.6239090  -4.0341277  83.5731850  47.0830946  -7.5894267
  84.1475602  46.8606127  -8.3221074  84.1602833  47.1519640  -6.8365666
  89.1092258  50.4454128  -4.5371550  88.1914820  50.6669075  -4.6949862
  89.5252402  50.5200439  -5.3959843  78.7342127  52.0609599  -8.4426714
  78.5366527  51.4678959  -9.1675647  78.1788791  51.7561809  -7.7250775
  86.7138850  51.9532705  -6.3232120  86.7687460  51.0006542  -6.3989644
  85.9030052  52.1092144  -5.8390822  84.6531210  50.5709765  -8.5641742
  83.8399076  50.8703936  -8.1576549  85.1490204  50.1765454  -7.8467259
  90.2505422  51.0351589   0.2673152  90.6054810  51.2623063   1.1267618
  90.8977553  51.3669966  -0.3549592  84.1445285  48.1428120  -2.9480507
  84.7844664  48.0016880  -3.6457543  83.3122816  47.8562634  -3.3241905
  81.1473901  48.1128445  -8.1707520  81.4080719  49.0273779  -8.2798359
  81.9691074  47.6452888  -8.0210907  82.6198827  49.5266203  -1.0008695
  83.2921880  49.3183565  -1.6496046  81.7928613  49.3288289  -1.4403463
  88.5224399  46.1528144   1.0156966  87.8752314  46.8518093   0.9221442
  89.2925414  46.5864287   1.3833214  91.9303197  56.4176996   4.0907519
  91.7788703  56.1887547   3.1737603  91.9207876  57.3747597   4.1038864
  88.6988533  53.9908908  -0.9246215  89.6280593  54.1420068  -1.0977247
  88.2779563  54.0792929  -1.7797568  87.4976865  58.0159573  -3.1547677
  87.3587951  57.6478357  -2.2821739  86.7091461  58.5307212  -3.3263719
  83.0226324  52.8008806  -0.2406258  82.8846122  52.0689044   0.3605281
  83.9331248  52.7117706  -0.5222070  85.6508625  52.5128765  -0.7522578
  86.3608243  51.8721957  -0.7935960  85.6077933  52.7641660   0.1703602
  93.6395403  59.4496118   2.1684001  93.5807950  58.7655338   1.5014584
  94.0414922  60.1915108   1.7164627  84.3637559  49.4993983   1.0673061
  83.8274916  49.0484721   1.7194657  83.7754267  49.6339892   0.3243525
  93.6412811  57.4135702   0.3997980  92.7539589  57.0761624   0.5224379
  94.2111362  56.6818733   0.6366746  75.2941958  53.7459794  -6.2758968
  75.9812998  53.4321524  -6.8637953  75.1390086  54.6501159  -6.5491717
  80.0976680  48.6349991  -1.8473944  80.0134869  48.0275660  -2.5823535
  79.2759386  49.1259009  -1.8464448  86.8535363  49.2620937  -6.7532065
  86.4833150  48.7091977  -6.0651159  87.3494455  48.6579071  -7.3057065
  84.6824561  59.7218432   0.3422953  85.3834021  60.3554915   0.4952347
  84.2119676  60.0633164  -0.4181408  92.4825847  52.2763040  -1.8324497
  91.8297297  52.5238947  -2.4872044  92.8606227  51.4627178  -2.1662019
  88.5313420  53.0182851   4.6541541  87.8554057  52.9176980   5.3243916
  89.3541054  52.8622064   5.1177538  80.2792279  59.2554787  -2.7245944
  80.8645716  58.5098475  -2.5918040  80.0817118  59.5658744  -1.8409280
  74.8709934  51.8260387  -4.0041501  74.9094033  51.2923978  -3.2104383
  74.3650227  51.2995593  -4.6230524  82.2500696  46.6724928  -0.5078959
  82.3142023  47.5339759  -0.9201561  82.1867816  46.0598929  -1.2406600
  81.7252969  48.7448060   3.1394076  82.3525008  48.3625138   3.7531600
  80.8680888  48.5262262   3.5049768  92.1247077  59.1511036   4.7447811
  92.6686981  59.7640994   4.2502766  91.5433922  59.7090614   5.2614824
  78.5018512  50.5524489 -10.9287570  78.7971953  49.6435168 -10.9820516
  77.6006547  50.5312229 -11.2506567  82.0312759  48.6280486  -4.9460021
  81.3099344  49.2416454  -5.0852548  82.8206014  49.1638251  -5.0243375
  84.8339072  45.9634913   1.3280631  85.3573474  46.2097209   2.0906940
  84.6151405  46.7954947   0.9083768  80.2306353  48.2338587 -10.8048244
  79.9019059  47.3535966 -10.9873139  80.5845724  48.1786256  -9.9171855
  86.0391617  46.9048608  -0.9869699  85.6988437  46.1056421  -0.5849019
  85.3330623  47.2050318  -1.5592866  86.6908089  43.9897920  -2.5342376
  87.5134158  43.5158398  -2.6563485  86.9346152  44.7688404  -2.0343689
  84.2146668  50.6817041  -4.7250397  84.0691248  50.9957344  -3.8326116
  83.7371871  51.3001941  -5.2779498  86.0743051  47.6719589  -4.6769508
  86.0604619  46.7760682  -5.0137210  86.7915479  47.6790252  -4.0431222
  87.9269181  48.1056929  -2.6316380  87.6686959  49.0274000  -2.6332050
  87.3954222  47.7087363  -1.9415916  78.6892330  53.2222385  -1.7862736
  78.1445798  53.9982193  -1.6542462  79.5671680  53.5693190  -1.9443615
  79.4758352  52.3492281   1.1067421  78.7340088  52.4974917   1.6932051
  79.1551096  52.6100547   0.2434170  87.4202014  61.8908260   0.9047811
  87.7289141  61.6457406   1.7770511  88.2177496  62.0954898   0.4166681
  78.1223570  58.1544037  -5.9033251  77.2855479  57.7266211  -6.0849250
  78.0947216  58.3476480  -4.9662460  84.9621026  48.0665966   4.8007995
  85.0109181  48.9428089   4.4185765  85.5043540  47.5243359   4.2279638
  95.4475872  58.6107090   4.0809132  94.6571415  58.5931228   3.5413632
  95.2109226  59.1495383   4.8358169  95.5673747  55.4599556   1.3941861
  95.6171752  55.2949563   2.3357384  95.4587670  54.5926815   1.0039742
  92.8577509  51.4430484   2.7101167  93.7587372  51.3036949   2.4185165
  92.9325484  51.6084939   3.6499345  87.1920314  48.8197339   1.5554354
  86.3223624  49.1130905   1.2836942  87.4279795  49.4037784   2.2761617
  97.0691944  57.8796497   1.6383882  96.7776752  58.2426478   2.4747343
  96.4564075  57.1663506   1.4597214  95.3179132  53.0029112   0.1063940
  95.7933253  53.1956758  -0.7017208  94.3944697  53.0588298  -0.1392676
  89.8959348  45.0376956  -0.9280226  90.4141292  45.7737983  -1.2533737
  89.5414481  45.3440949  -0.0933467  94.0180801  49.8794872  -1.6607754
  94.9698224  49.9792970  -1.6395530  93.8484251  49.0873141  -1.1509670
  92.0395180  46.9650455  -1.4748353  91.4445112  47.2455468  -2.1701865
  91.7544877  47.4544356  -0.7031612  88.2190902  56.0214791   4.9562407
  89.1393911  56.1993390   5.1502453  88.1840485  55.0770836   4.8042106
  77.4373067  51.2153385  -6.1184319  77.1175851  50.3618693  -6.4109945
  76.8906495  51.4301963  -5.3626351  81.2152975  53.9315826  -2.4014812
  81.4338984  54.8632933  -2.3826778  81.6278748  53.5723800  -1.6160008
  86.0880840  49.5049031   6.9887937  85.9877567  50.4543388   6.9200028
  85.8702382  49.1767270   6.1164007  77.3061327  54.8356296  -4.1491197
  76.6124798  54.4210249  -4.6621243  78.0534318  54.8776833  -4.7457778
  85.9512110  52.9346170   5.8052998  85.4679192  53.7346530   6.0116887
  86.0373049  52.9454115   4.8520442  79.2198070  54.7674550  -6.2725182
  79.1968758  54.8662237  -7.2243299  79.5298706  55.6139701  -5.9508016
  81.8785447  56.8250705  -2.1578568  82.8328701  56.7934647  -2.2248636
  81.6797971  56.3641329  -1.3428342  82.4684830  55.3951821   0.4092230
  83.2877719  55.8895900   0.4327067  82.7421637  54.4783789   0.3809797
  77.7219744  49.7289955   1.1084427  78.3678607  49.2188909   1.5971652
  77.5136895  50.4658637   1.6827852  90.2473136  56.7970802   6.6076567
  91.1164296  56.9711455   6.2463202  89.7679887  57.6165219   6.4852297
  84.4159316  63.9167903  -1.7133999  85.3186563  63.9491514  -1.3967504
  84.1896686  62.9868354  -1.6987663  82.0617235  46.8757572   5.2059441
  82.9248696  46.5194377   5.4162766  81.4882645  46.5371467   5.8934845
  94.6198736  60.2838289   6.1989413  94.2265681  59.7304487   6.8737057
  95.4364876  60.5948867   6.5895930  97.5366697  61.6996168   3.7909669
  98.2776410  62.3003321   3.7114132  97.7684619  60.9573805   3.2327712
  92.5646723  64.0739978   3.1394076  93.1918762  63.6917055   3.7531600
  91.7074642  63.8554180   3.5049768  95.8014781  63.3957884   4.8007995
  95.8502936  64.2720007   4.4185765  96.3437295  62.8535277   4.2279638
  96.9274594  64.8340949   6.9887937  96.8271321  65.7835306   6.9200028
  96.7096136  64.5059188   6.1164007  88.5613498  65.0581873   1.1084427
  89.2072362  64.5480827   1.5971652  88.3530649  65.7950554   1.6827852
  92.9010989  62.2049490   5.2059441  93.7642451  61.8486294   5.4162766
  92.3276400  61.8663384   5.8934845   4.3495215  99.9917147  73.5148495
   3.5958924  99.4224545  73.3592500   4.4842757  99.9579812  74.4619130
   0.7143828 101.4325136  73.8114610   1.5490719 101.8714940  73.9752170
   0.8502957 100.9563789  72.9922855   4.7601630 100.1492757  76.2468739
   5.4905019  99.8878045  76.8076443   4.1508576  99.4121479  76.2870807
   2.8416928  98.2900620  76.8443191   2.1150091  98.1556585  76.2359682
   2.4264214  98.5977448  77.6499909   0.4594723  94.5112472  74.1976622
   1.0539213  94.2708208  73.4869930   0.5321306  93.7919602  74.8250159
   2.7665795  97.8178673  72.9720043   2.2065353  97.8871862  73.7451605
   2.1609299  97.6419657  72.2519540   3.9280062 103.7153029  77.7202108
   3.5844331 104.6054671  77.6441219   4.2959024 103.5254687  76.8571693
   5.7267727 102.9746588  72.8219846   6.0326604 102.1143952  72.5345761
   6.4520332 103.5664208  72.6218840   3.4321899 102.7744914  74.2448828
   3.7123653 102.1068103  74.8709254   4.2172506 102.9674010  73.7323492
   7.5924051 104.9520727  73.1116799   7.3948872 104.6435815  73.9960130
   8.2023756 105.6782366  73.2414728   3.3425430 101.9040452  70.7682417
   2.5757826 101.3498939  70.9139099   3.7536135 101.9762321  71.6296569
   4.3495217  76.9979270  60.2393802   3.5958925  76.4286668  60.0837806
   4.4842758  76.9641934  61.1864436   0.7143829  78.4387258  60.5359916
   1.5490721  78.8777062  60.6997477   0.8502958  77.9625911  59.7168162
   4.7601632  77.1554880  62.9714046   5.4905020  76.8940168  63.5321749
   4.1508577  76.4183602  63.0116114   2.8416929  75.2962742  63.5688497
   2.1150092  75.1618707  62.9604989   2.4264216  75.6039571  64.3745215
   0.4594724  71.5174594  60.9221929   1.0539215  71.2770330  60.2115237
   0.5321307  70.7981725  61.5495465   2.7665797  74.8240795  59.6965350
   2.2065355  74.8933985  60.4696912   2.1609300  74.6481780  58.9764846
   4.3521815  91.4997309  62.3895306   4.9900225  91.3804057  61.6858646
   4.2342658  92.4478153  62.4483258   1.1611521  91.4524737  62.3256831
   0.8230033  91.3365802  61.4377365   2.0301289  91.0515902  62.3057837
   1.6431304  92.6059589  68.2843036   1.6319945  92.2112387  67.4123540
   1.8051944  91.8725662  68.8776807   2.5997896  96.9731181  53.6268186
   1.9485875  97.5585262  53.2402200   3.3942258  97.5037376  53.6863224
   3.9063083  89.2248763  59.4648514   4.6926173  88.8068186  59.1138931
   4.1701788  90.1294855  59.6330162   4.0773161  94.6621613  54.1637171
   3.4418994  94.7356240  54.8758075   3.7470567  95.2515212  53.4856250
   9.3071511  89.1623996  60.3681492  10.0396683  88.5923213  60.6019322
   8.5510866  88.7745597  60.8087998   0.9247630  91.5851238  57.5644835
   0.5605838  91.0581859  58.2757756   1.7814746  91.1949707  57.3911320
   6.8296931  82.8745570  64.8276101   6.4980256  83.7440981  64.6037316
   6.2342544  82.5581854  65.5070131   3.3228450  95.0758116  64.2272014
   3.0229174  95.9783155  64.1187821   2.9779510  94.8090300  65.0793167
   6.7225594  87.5940657  61.9069451   5.8142472  87.5256065  61.6128212
   6.6713190  88.0712602  62.7351277   8.5887241  85.7957095  63.6847325
   7.9461621  86.0889628  63.0387120   8.0842169  85.6810015  64.4900522
   6.2427404  89.5420268  54.3733184   7.1545260  89.7747655  54.1980882
   5.7337051  90.1257312  53.8108263   4.5268172  93.9644896  68.0094477
   4.9351528  93.5227307  67.2649109   3.8045434  93.3897524  68.2628670
   0.8799242  88.9017503  65.3828034   1.7260437  89.3256916  65.5262683
   0.8197880  88.2451127  66.0766597   4.8496987  94.5246087  61.7646766
   4.2205849  94.6891801  61.0622834   4.4622649  94.9387696  62.5357730
   8.7286219  95.4600524  59.1191129   8.0437257  95.8399426  58.5688163
   8.8130068  96.0695851  59.8523077   4.0298687  86.5621871  67.0409207
   3.7859619  87.3163932  66.5043483   4.3058618  86.9407219  67.8756454
   5.9837150  93.1060484  65.7186473   6.1954045  93.7492243  65.0420854
   5.9366898  92.2722800  65.2508403   3.5863379  85.7178304  62.6223045
   2.7247858  86.0159558  62.9139783   3.6125814  85.9348703  61.6904078
   7.0982978  95.9832439  63.8908830   7.9200422  95.5812626  63.6091512
   7.0945381  95.8800673  64.8424946  15.1888971  92.3271187  60.2393802
  14.4352680  91.7578585  60.0837806  15.3236512  92.2933852  61.1864436
   0.5787599  97.1984590  55.9148521   0.4433274  98.0436125  56.3433369
   1.1197412  97.4003867  55.1514455   2.2056076  97.8208156  70.0448863
   1.7619930  97.0344535  69.7269768   2.8673289  98.0087307  69.3792754
   4.3037314  98.1010956  68.0730264   4.2855789  98.9219837  67.5810534
   5.2257234  97.9765031  68.2980406   3.9280063  80.7215152  64.4447415
   3.5844332  81.6116793  64.3686525   4.2959025  80.5316809  63.5817000
   3.8930345  90.7123763  52.9519850   3.3776969  91.4828367  53.1908237
   3.6207654  90.0388899  53.5752911   1.4777457  85.5573463  58.0105088
   0.6219053  85.1680314  57.8310727   1.8904408  85.6365424  57.1504874
   3.0076603  83.0919807  62.4096648   2.5041399  83.0549942  61.5964453
   3.3007210  84.0012549  62.4693305   8.8664620  93.4656117  54.8873023
   8.0894062  93.1267277  54.4428185   9.5456101  93.4708741  54.2127988
   3.6816649  88.5850855  54.7779631   3.3766784  88.8997004  55.6289774
   4.6347091  88.6632275  54.8206964   2.1263081  94.7441078  56.4272585
   1.5984442  94.0093838  56.1145822   1.6250583  95.5215754  56.1812553
   7.1055927  92.9390099  61.5439631   6.4479601  93.6289360  61.6319760
   7.9096326  93.3286531  61.8873618   5.9161385  91.2934471  59.5943573
   6.4293267  91.9264463  60.0965283   6.5662609  90.6935667  59.2286933
   3.1783760 101.2718796  52.3504244   2.5045458 101.5750492  52.9589202
   3.5649582 102.0747876  52.0009701   2.3942216  88.7683927  61.8401913
   1.4764778  88.9898874  61.6823601   2.8102360  88.8430237  60.9813621
   3.1777264  90.1675343  56.9704594   3.9249083  90.6796740  56.6611716
   3.4468854  89.8459395  57.8308987   1.4503914  92.6633883  53.9531548
   0.5415133  92.3792916  54.0504018   1.4798998  93.0832962  53.0934855
   6.6823182  96.2740473  57.7222716   6.2285509  95.4331383  57.7787906
   6.0517148  96.9101871  58.0597496   5.6256101  87.2032459  58.9523383
   4.8878858  86.6909845  59.2833626   5.8782875  86.7632840  58.1406660
   5.1256121  98.1116969  58.6572534   5.4179095  98.6722027  57.9384899
   5.6354741  98.4045530  59.4125693   5.7267728  79.9808711  59.5465152
   6.0326605  79.1206074  59.2591067   6.4520333  80.5726331  59.3464146
   1.1480002  94.2042627  51.2919627   0.7099432  93.4878486  50.8325264
   1.8890443  94.4318742  50.7304718   3.5355380  89.3581388  66.6446616
   3.8904767  89.5852861  67.5041082   4.1827511  89.6899765  66.0223871
   9.2653117  92.4799824  57.3495945   9.1271015  92.6701420  56.4217134
   8.9089336  93.2419207  57.8063996   9.2922496  94.5476351  62.3607217
   9.7259003  94.4551640  63.2090271  10.0054077  94.5233851  61.7227233
   3.0250391  98.1478445  63.8940317   3.0787414  98.7169381  64.6618033
   2.1565173  98.3180330  63.5294354  10.1538046  94.5900052  64.8940102
  10.3473936  95.4945862  65.1399377  10.0538664  94.1307471  65.7278687
   1.8074357  84.4757942  67.3930429   1.1602272  85.1747892  67.2994906
   2.5775372  84.9094086  67.7606678   5.2153155  94.7406794  70.4680983
   5.0638661  94.5117346  69.5511066   5.2057834  95.6977396  70.4812328
   1.9838491  92.3138707  65.4527249   2.9130551  92.4649867  65.2796216
   1.5629521  92.4022728  64.5975896   1.3774975 101.4398468  54.5651323
   1.5526730 100.9686511  55.3796946   0.6907763 102.0664234  54.7932584
   2.3332038  95.7170974  60.6114624   1.9981871  95.6771744  61.5072274
   1.8335984  95.0515690  60.1385035   5.2691230  93.0627009  50.8851684
   4.6520400  92.3373837  50.7884737   4.8007718  93.8236369  50.5418758
   6.9245361  97.7725917  68.5457465   6.8657907  97.0885137  67.8788048
   7.3264880  98.5144907  68.0938090   6.9262768  95.7365501  66.7771444
   6.0389547  95.3991423  66.8997843   7.4961320  95.0048532  67.0140210
   3.5550352  85.4433353  59.8969714   4.0519051  84.6903315  59.5770785
   2.7837333  85.4797669  59.3312924  11.4080109  91.1473718  61.5388006
  11.3969985  92.0298434  61.1681939  10.5397488  90.7945269  61.3442543
   2.9162605 100.2953787  65.8990846   3.6290578 100.9301252  65.8266748
   2.4252634 100.3917653  65.0830848   4.6380132  94.2005040  57.4708138
   3.7036411  94.3206502  57.3012842   4.8156801  93.2977507  57.2068148
   8.0252684  90.0422359  58.0058172   8.4913136  90.8750351  57.9318475
   8.4760184  89.5767341  58.7103430   6.0928915  96.3866180  55.0044324
   6.3688759  96.2722775  55.9138198   5.2233413  95.9883665  54.9656497
   5.9969346  82.4102946  62.0449073   5.0832426  82.6407173  62.2131280
   6.4262448  82.4941390  62.8963106   5.7675805  90.5992838  64.5448967
   5.1147255  90.8468746  63.8901420   6.1456185  89.7856976  64.2111445
   2.7282979 100.6352531  58.6477138   2.9105373  99.8174187  59.1104890
   3.5515965 100.8520224  58.2102028   3.0625144  99.5620716  55.9092186
   3.5912911  99.0513171  55.2962348   3.3253364  99.2463247  56.7737719
   1.8163378  91.3412649  71.0315004   1.1404015  91.2406779  71.7017380
   2.6391012  91.1851863  71.4951002   0.5586161 102.6479577  65.2672620
   1.1104469 102.8111198  66.0321706   0.8992354 103.2384014  64.5952645
   5.4097035  97.4740834  71.1221275   5.9536939  98.0870792  70.6276230
   4.8283880  98.0320413  71.6388288   3.6954548 100.5961552  62.2536302
   3.5705688  99.7951292  61.7447248   4.3533639 101.0907746  61.7650272
   5.7589456  98.3970572  63.8815853   4.8119792  98.2775923  63.8094179
   6.1072230  97.5093070  63.9642114   2.7635890  98.1923288  60.0820205
   2.6160852  97.2639996  60.2627775   3.5889383  98.2143379  59.5977280
   6.3670012  99.0151847  61.1685078   7.2916559  98.8094709  61.0309529
   6.1985315  98.7668248  62.0774419   2.7597404  86.0461126  55.0752322
   2.9761018  86.9285764  54.7741150   2.2791471  85.6547340  54.3457964
   1.2119139  86.4286728  63.7457084   0.9536917  87.3503798  63.7441414
   0.6804179  86.0317162  64.4357548   6.1565328  99.5337515  56.5247169
   6.3302205  98.9683937  55.7721021   6.6494219 100.3338410  56.3426659
   1.6321095  82.5618678  60.1058246   1.6542791  82.6258011  59.1510226
   2.0489154  81.7223187  60.2998752  12.0104719  92.2973938  58.1437469
  12.4535865  91.5481263  57.7456592  11.1331229  92.2884074  57.7611201
   7.1440500  98.8504279  53.6244067   7.8391405  99.4710972  53.8431382
   7.4863650  97.9999630  53.8996445   9.0431923  96.3003985  55.1531398
   9.5683248  96.6391257  54.4280718   8.9554276  95.3651000  54.9694533
   0.7051972 100.2138058  67.2821275   1.0139099  99.9687205  68.1543974
   1.5027454 100.4184697  66.7940145   8.7325829  96.9336888  70.4582596
   7.9421373  96.9161027  69.9187095   8.4959184  97.4725182  71.2131633
   8.8523705  93.7829355  67.7715325   8.9021709  93.6179362  68.7130847
   8.7437628  92.9156614  67.3813205   6.1427467  89.7660283  69.0874631
   7.0437330  89.6266747  68.7958629   6.2175441  89.9314737  70.0272809
  10.3541901  96.2026296  68.0157346  10.0626710  96.5656277  68.8520807
   9.7414033  95.4893304  67.8370678  11.5537584  93.7679176  60.5359916
  12.3884475  94.2068980  60.6997477  11.6896712  93.2917829  59.7168162
   8.6029090  91.3258911  66.4837404   9.0783211  91.5186557  65.6756255
   7.6794655  91.3818097  66.2380788   3.1809306  83.3606754  65.4493238
   3.6991250  84.0967781  65.1239727   2.8264439  83.6670748  66.2839997
   3.4321900  79.7807037  60.9694135   3.7123654  79.1130226  61.5954561
   4.2172507  79.9736132  60.4568798   1.2355369  98.9566031  52.5319161
   0.6629336  99.5756218  52.0789633   1.8088162  99.5065392  53.0659083
   7.3030759  88.2024671  64.7165710   8.2548181  88.3022769  64.7377934
   7.1334209  87.4102939  65.2263794   5.3245138  85.2880254  64.9025111
   4.7295070  85.5685267  64.2071599   5.0394835  85.7774155  65.6741852
   4.4552629  99.2403181  53.6627743   5.3883302  99.1748743  53.8660619
   4.3675841 100.0759448  53.2042276   7.0840645  98.5569051  50.6231691
   7.0054277  98.2228915  51.5167449   7.9050312  99.0490819  50.6223163
   9.7818836  91.4230791  63.8308009   9.7495156  90.4846791  64.0167693
  10.3919460  91.5014827  63.0973834   1.6202167  90.2926844  49.8735213
   2.5661272  90.1633052  49.9423631   1.2416412  89.5541505  50.3504642
   9.9313325  88.2141834  63.8766292   9.4152374  87.4300291  63.6896221
  10.8153273  87.8860551  64.0412812   7.5924052  81.9582850  59.8362105
   7.3948873  81.6497938  60.7205437   8.2023757  82.6844488  59.9660035
  15.5995386  92.4846797  62.9714046  16.3298775  92.2232085  63.5321749
  14.9902332  91.7475519  63.0116114  13.6810683  90.6254660  63.5688497
  12.9543847  90.4910625  62.9604989  13.2657970  90.9331489  64.3745215
   1.5040860  94.3444590  71.3335870   2.4243869  94.5223189  71.5275917
   1.4690443  93.4000635  71.1815570   1.4207150  82.7613710  55.9634340
   0.6107878  82.4160795  56.3389586   2.1091567  82.4521253  56.5521951
   3.3497698  81.8391756  57.5858637   3.9028737  82.2587210  58.2448660
   3.5867785  80.9127505  57.6281593   6.7276505  83.9492282  57.0937301
   6.1475175  84.6077086  56.7115353   6.4612438  83.1269626  56.6824718
   5.1780072  83.3497339  59.2958621   5.6779850  83.4613874  58.4872940
   5.8215680  83.0458392  59.9359430   5.5101384  86.1092372  56.1493649
   4.6227239  86.3942023  55.9313844   5.9255373  85.9486135  55.3020926
   8.8615920  86.1338893  59.8647988   9.6376310  86.6235345  60.1372605
   8.1364054  86.5596947  60.3219858  11.2988478  86.8466512  60.9221929
  11.8932969  86.6062248  60.2115237  11.3715062  86.1273643  61.5495465
   4.6544597  95.8737047  50.2441669   5.3580447  96.0787049  50.8599325
   3.9307246  96.4413809  50.5090753   5.4842407  91.6246908  56.3643939
   5.4277609  92.0815459  55.5251572   6.0370750  90.8637592  56.1866782
   9.2947213  87.4136640  57.1894059   9.0384147  87.0133275  58.0202266
   8.6700081  88.1280434  57.0644198  13.6059551  90.1532713  59.6965350
  13.0459109  90.2225902  60.4696912  13.0003054  89.9773698  58.9764846
   6.5631294  96.3119576  52.2940129   7.3976898  95.8800774  52.1117604
   6.4015637  96.1401590  53.2217024   6.2177187  92.8151689  53.6596468
   6.1625990  92.6495961  52.7184912   5.5923242  93.5227722  53.8158658
   3.5323094  95.1200601  72.9850031   4.4014253  95.2941253  72.6236666
   3.0529845  95.9395018  72.8625760   3.3425431  78.9102575  57.4927724
   2.5757827  78.3561061  57.6384406   3.7536136  78.9824444  58.3541875
  15.1915569 106.8289227  62.3895306  15.8293979 106.7095974  61.6858646
  15.0736412 107.7770071  62.4483258  12.0005276 106.7816655  62.3256831
  11.6623787 106.6657720  61.4377365  12.8695044 106.3807820  62.3057837
  12.4825059 107.9351507  68.2843036  12.4713700 107.5404305  67.4123540
  12.6445698 107.2017579  68.8776807   9.7013555 105.5504902  51.6573771
   9.9539076 105.0286424  50.8957234   8.7638114 105.3871048  51.7600454
  14.7456838 104.5540681  59.4648514  15.5319927 104.1360104  59.1138931
  15.0095542 105.4586773  59.6330162  20.1465265 104.4915914  60.3681492
  20.8790437 103.9215131  60.6019322  19.3904621 104.1037514  60.8087998
  11.7641385 106.9143155  57.5644835  11.3999592 106.3873776  58.2757756
  12.6208501 106.5241625  57.3911320  17.6690685  98.2037488  64.8276101
  17.3374010  99.0732899  64.6037316  17.0736299  97.8873772  65.5070131
  11.4046872 101.9433055  52.5606183  11.5721274 102.8113292  52.9276654
  11.2144041 102.1060337  51.6367473  17.5619349 102.9232574  61.9069451
  16.6536226 102.8547983  61.6128212  17.5106945 103.4004519  62.7351277
  11.3836093 104.3990713  53.5452850  11.2635718 104.8447763  54.3838330
  10.6888681 104.7476030  52.9866388  11.6360215 104.3422220  69.8504348
  10.8593549 104.9016140  69.8407213  12.2750778 104.8279003  70.3719218
  19.4280995 101.1249013  63.6847325  18.7855375 101.4181546  63.0387120
  18.9235924 101.0101933  64.4900522  17.0821159 104.8712186  54.3733184
  17.9939015 105.1039573  54.1980882  16.5730806 105.4549230  53.8108263
  11.7192997 104.2309420  65.3828034  12.5654192 104.6548834  65.5262683
  11.6591634 103.5743045  66.0766597  14.8692442 101.8913789  67.0409207
  14.6253374 102.6455849  66.5043483  15.1452372 102.2699136  67.8756454
  16.8230905 108.4352401  65.7186473  17.0347800 109.0784161  65.0420854
  16.7760653 107.6014718  65.2508403  14.4257134 101.0470222  62.6223045
  13.5641613 101.3451475  62.9139783  14.4519568 101.2640621  61.6904078
  10.1787589 105.7135565  55.8386416  10.8811632 106.1656608  56.3060342
   9.8468218 105.0719384  56.4666309   8.6267951 104.3047321  70.2137625
   7.9966611 104.9863602  70.4473022   8.5204038 104.1930403  69.2690764
   3.9212923 103.9719117  61.1403549   3.1311977 104.2276646  60.6643660
   4.4124170 104.7867455  61.2455590   5.8727668 104.3363697  58.0987026
   5.0758832 104.4482391  58.6170522   5.6453261 104.6750349  57.2327917
  26.0282726 107.6563105  60.2393802  25.2746434 107.0870503  60.0837806
  26.1630267 107.6225770  61.1864436   7.9048693  98.6068087  72.5762876
   7.5115639  98.0534286  73.2510521   8.7214834  98.9178666  72.9669394
  10.8216654 100.0225966  70.1683133  11.5626368 100.6233119  70.0887595
  11.0534577  99.2803604  69.6101175  14.7673817  96.0507069  64.4447415
  14.4238087  96.9408711  64.3686525  15.1352780  95.8608727  63.5817000
  14.7324100 106.0415680  52.9519850  14.2170723 106.8120285  53.1908237
  14.4601408 105.3680817  53.5752911  12.3171211 100.8865381  58.0105088
  11.4612807 100.4972232  57.8310727  12.7298163 100.9657342  57.1504874
  13.8470358  98.4211724  62.4096648  13.3435153  98.3841860  61.5964453
  14.1400965  99.3304467  62.4693305  10.0913244  98.5050454  61.4162830
  10.9566240  98.3093263  61.0568719  10.1590752  98.2760806  62.3432186
  19.7058374 108.7948035  54.8873023  18.9287817 108.4559195  54.4428185
  20.3849855 108.8000658  54.2127988  14.5210403 103.9142772  54.7779631
  14.2160539 104.2288922  55.6289774  15.4740845 103.9924192  54.8206964
  17.9449681 108.2682016  61.5439631  17.2873355 108.9581278  61.6319760
  18.7490080 108.6578448  61.8873618   7.6975563 100.7352662  58.7879196
   8.2719315 100.5127844  58.0552389   8.2846545 100.8041357  59.5407798
  16.7555140 106.6226389  59.5943573  17.2687022 107.2556381  60.0965283
  17.4056364 106.0227584  59.2286933   8.0245150 102.7657123  52.8075082
   7.1882462 103.1031810  53.1284356   7.8849919 102.6306103  51.8702219
   9.9998230  97.6093911  57.5154266   9.3462643  97.2942928  56.8910881
   9.9578704  96.9869651  58.2414089  13.2335971 104.0975845  61.8401913
  12.3158532 104.3190792  61.6823601  13.6496114 104.1722155  60.9813621
  14.0171018 105.4967260  56.9704594  14.7642837 106.0088657  56.6611716
  14.2862608 105.1751313  57.8308987  16.4649856 102.5324376  58.9523383
  15.7272612 102.0201763  59.2833626  16.7176629 102.0924758  58.1406660
  16.5661483  95.3100628  59.5465152  16.8720360  94.4497992  59.2591067
  17.2914088  95.9018249  59.3464146  10.8382563 105.6054422  60.0541343
  10.8931172 104.6528258  59.9783820  10.0273765 105.7613861  60.5382642
   8.7774923 104.2231481  57.8131722   7.9642788 104.5225652  58.2196914
   9.2733917 103.8287170  58.5306204  14.3749134 104.6873306  66.6446616
  14.7298522 104.9144779  67.5041082  15.0221265 105.0191683  66.0223871
  20.1046871 107.8091742  57.3495945  19.9664770 107.9993338  56.4217134
  19.7483090 108.5711124  57.8063996   8.2688997 101.7949837  63.4292957
   8.9088377 101.6538596  62.7315920   7.4366528 101.5084350  63.0531559
  20.1316251 109.8768269  62.3607217  20.5652757 109.7843558  63.2090271
  20.8447832 109.8525769  61.7227233   5.3532065 105.2395349  55.6187702
   4.4229653 105.1779804  55.8357664   5.4489537 104.7171302  54.8224344
   5.2717614 101.7650162  58.2065944   5.5324431 102.6795495  58.0975104
   6.0934786 101.2974604  58.3562557   6.7442539 103.1787919  65.3764768
   7.4165593 102.9705281  64.7277417   5.9172326 102.9810005  64.9370001
  20.9931800 109.9191969  64.8940102  21.1867690 110.8237780  65.1399377
  20.8932419 109.4599388  65.7278687  12.6468111  99.8049860  67.3930429
  11.9996026 100.5039810  67.2994906  13.4169127 100.2386004  67.7606678
  12.8232245 107.6430625  65.4527249  13.7524305 107.7941784  65.2796216
  12.4023275 107.7314646  64.5975896  16.1084984 108.3918926  50.8851684
  15.4914155 107.6665754  50.7884737  15.6401472 109.1528287  50.5418758
   9.7752337 106.1650481  65.6250885  10.4851956 105.5243673  65.5837504
   9.7321645 106.4163376  66.5477066   8.4881271 103.1515699  67.4446525
   7.9518628 102.7006438  68.0968121   7.8997979 103.2861608  66.7016989
   7.8983530 102.6104351  50.0072988   7.0212996 102.4893151  49.6435235
   8.3741283 101.8190429  49.7551877   4.2220392 102.2871707  64.5299519
   4.1378581 101.6797376  63.7949929   3.4003099 102.7780725  64.5309016
  14.3944106 100.7725270  59.8969714  14.8912806 100.0195233  59.5770785
  13.6231088 100.8089587  59.3312924  22.2473864 106.4765636  61.5388006
  22.2363740 107.3590351  61.1681939  21.3791243 106.1237187  61.3442543
  10.9779075 102.9142653  59.6241399  10.6076862 102.3613694  60.3122304
  11.4738167 102.3100787  59.0716399  18.8646438 105.3714277  58.0058172
  19.3306890 106.2042268  57.9318475  19.3153939 104.9059258  58.7103430
  16.8363101  97.7394864  62.0449073  15.9226181  97.9699091  62.2131280
  17.2656202  97.8233308  62.8963106  16.6069559 105.9284756  64.5448967
  15.9541010 106.1760663  63.8901420  16.9849939 105.1148894  64.2111445
  12.6557132 106.6704567  71.0315004  11.9797769 106.5698696  71.7017380
  13.4784766 106.5143781  71.4951002   6.3744409 100.3246644  65.8694505
   6.4385735 101.1861475  65.4571903   6.3111529  99.7120646  65.1366864
   5.8496681 102.3969777  69.5167539   6.4768720 102.0146854  70.1305064
   4.9924600 102.1783979  69.8823232   2.6262224 104.2046206  55.4485894
   2.9215665 103.2956884  55.3952948   1.7250260 104.1833945  55.1266896
   6.1556471 102.2802202  61.4313443   5.4343057 102.8938170  61.2920916
   6.9449727 102.8159967  61.3530089   8.9582784  99.6156629  67.7054094
   9.4817186  99.8618925  68.4680404   8.7395118 100.4476664  67.2857232
   4.3550065 101.8860303  55.5725219   4.0262772 101.0057682  55.3900325
   4.7089436 101.8307972  56.4601608   7.4691889 102.1733273  55.9400697
   7.8087961 102.7019194  55.2179305   7.9164009 102.5113679  56.7159263
  10.1635329 100.5570324  65.3903765   9.8232150  99.7578137  65.7924445
   9.4574336 100.8572035  64.8180598  10.8151801  97.6419636  63.8431088
  11.6377871  97.1680115  63.7209978  11.0589865  98.4210120  64.3429774
   9.4560036 100.6707895  54.1393990  10.1768398 101.0489148  53.6357707
   8.8325340 101.3896772  54.2428968  13.5991159 101.3753044  55.0752322
  13.8154773 102.2577682  54.7741150  13.1185226 100.9839257  54.3457964
   8.3390380 104.3338757  61.6523067   8.1934961 104.6479060  62.5447348
   7.8615584 104.9523657  61.0993965  10.1986763 101.3241305  61.7003956
  10.1848332 100.4282398  61.3636254  10.9159191 101.3311969  62.3342242
  12.0512894 101.7578645  63.7457084  11.7930671 102.6795716  63.7441414
  11.5197934 101.3609080  64.4357548   9.6023659 100.2055685  56.9691526
   9.7239570  99.2772331  57.1682414   9.3125701 100.2194371  56.0569842
  12.4714849  97.8910596  60.1058246  12.4936546  97.9549929  59.1510226
  12.8882908  97.0515104  60.2998752  22.8498473 107.6265855  58.1437469
  23.2929620 106.8773180  57.7456592  21.9724984 107.6175992  57.7611201
   9.0864738 101.7187683  71.1781459   9.1352894 102.5949805  70.7959229
   9.6287253 101.1765076  70.6053102  19.6917459 109.1121272  67.7715325
  19.7415464 108.9471280  68.7130847  19.5831382 108.2448531  67.3813205
  16.9821221 105.0952200  69.0874631  17.8831084 104.9558665  68.7958629
  17.0569196 105.2606655  70.0272809  11.3164027 102.4719055  67.9327818
  10.4467336 102.7652621  67.6610406  11.5523507 103.0559500  68.6535081
  22.3931338 109.0971094  60.5359916  23.2278230 109.5360898  60.6997477
  22.5290467 108.6209747  59.7168162  19.4422844 106.6550828  66.4837404
  19.9176966 106.8478475  65.6756255  18.5188409 106.7110014  66.2380788
  14.0203061  98.6898672  65.4493238  14.5385004  99.4259699  65.1239727
  13.6658193  98.9962665  66.2839997   5.6001998 103.5503353  53.5654644
   4.9071243 103.6247708  52.9094680   5.3553750 102.7863697  54.0876161
  14.2715655  95.1098955  60.9694135  14.5517409  94.4422144  61.5954561
  15.0566262  95.3028050  60.4568798  18.1424513 103.5316589  64.7165710
  19.0941936 103.6314686  64.7377934  17.9727964 102.7394857  65.2263794
  16.1638893 100.6172172  64.9025111  15.5688825 100.8977184  64.2071599
  15.8788589 101.1066073  65.6741852  20.6212591 106.7522708  63.8308009
  20.5888911 105.8138709  64.0167693  21.2313215 106.8306745  63.0973834
  12.4595922 105.6218761  49.8735213  13.4055026 105.4924969  49.9423631
  12.0810167 104.8833423  50.3504642  20.7707079 103.5433752  63.8766292
  20.2546128 102.7592208  63.6896221  21.6547028 103.2152468  64.0412812
  18.4317806  97.2874767  59.8362105  18.2342627  96.9789855  60.7205437
  19.0417512  98.0136406  59.9660035  26.4389141 107.8138715  62.9714046
  27.1692529 107.5524003  63.5321749  25.8296086 107.0767437  63.0116114
  24.5204438 105.9546578  63.5688497  23.7937601 105.8202543  62.9604989
  24.1051725 106.2623406  64.3745215  10.6438839 103.5468738  49.8090099
   9.7370294 103.2501850  49.8852812  10.9214820 103.2498556  48.9424385
  12.2600905  98.0905627  55.9634340  11.4501633  97.7452712  56.3389586
  12.9485322  97.7813171  56.5521951  14.1891453  97.1683674  57.5858637
  14.7422492  97.5879128  58.2448660  14.4261539  96.2419422  57.6281593
  10.2124552 103.1570748  73.3661400  10.1121279 104.1065105  73.2973492
   9.9946094 102.8288987  72.4937471   9.4137624 100.4055673  49.9502078
  10.2756788 100.7310571  50.2097895   9.5987968  99.6187169  49.4375144
  17.5670260  99.2784199  57.0937301  16.9868929  99.9369003  56.7115353
  17.3006193  98.4561544  56.6824718  16.0173826  98.6789257  59.2958621
  16.5173605  98.7905791  58.4872940  16.6609434  98.3750310  59.9359430
  16.3495138 101.4384290  56.1493649  15.4620993 101.7233940  55.9313844
  16.7649127 101.2778053  55.3020926  19.7009674 101.4630811  59.8647988
  20.4770064 101.9527263  60.1372605  18.9757808 101.8888865  60.3219858
  22.1382233 102.1758430  60.9221929  22.7326724 101.9354166  60.2115237
  22.2108816 101.4565560  61.5495465  16.3236162 106.9538826  56.3643939
  16.2671363 107.4107377  55.5251572  16.8764504 106.1929510  56.1866782
  20.1340968 102.7428557  57.1894059  19.8777902 102.3425193  58.0202266
  19.5093836 103.4572351  57.0644198  24.4453306 105.4824631  59.6965350
  23.8852864 105.5517820  60.4696912  23.8396809 105.3065615  58.9764846
  17.0570941 108.1443607  53.6596468  17.0019745 107.9787878  52.7184912
  16.4316996 108.8519640  53.8158658   1.8463456 103.3811671  67.4857891
   2.4922320 102.8710625  67.9745116   1.6380607 104.1180353  68.0601316
  10.3667067  97.6451716  53.2381787  10.3545736  98.5893556  53.3950058
  11.2590488  97.4621861  52.9441248  14.1819186  94.2394492  57.4927724
  13.4151582  93.6852979  57.6384406  14.5929891  94.3116361  58.3541875
   6.1860947 100.5279288  71.5832905   7.0492409 100.1716093  71.7936229
   5.6126358 100.1893183  72.2708309  25.6067572 111.3798987  64.4447415
  25.2631841 112.2700629  64.3686525  25.9746534 111.1900645  63.5817000
  27.4055237 110.6392546  59.5465152  27.7114114 109.7789910  59.2591067
  28.1307842 111.2310166  59.3464146  25.1109409 110.4390872  60.9694135
  25.3911163 109.7714061  61.5954561  25.8960016 110.6319968  60.4568798
  29.2711561 112.6166685  59.8362105  29.0736382 112.3081773  60.7205437
  29.8811266 113.3428324  59.9660035  25.0212940 109.5686410  57.4927724
  24.2545336 109.0144897  57.6384406  25.4323645 109.6408279  58.3541875
   4.3495218  54.0041392  46.9639108   3.5958926  53.4348790  46.8083113
   4.4842759  53.9704057  47.9109743   0.7143830  55.4449381  47.2605223
   1.5490722  55.8839185  47.4242783   0.8502959  54.9688034  46.4413469
   4.7601633  54.1617002  49.6959353   5.4905021  53.9002290  50.2567056
   4.1508578  53.4245724  49.7361421   2.8416930  52.3024865  50.2933804
   2.1150094  52.1680830  49.6850296   2.4264217  52.6101693  51.0990522
   0.4594725  48.5236717  47.6467236   1.0539216  48.2832453  46.9360544
   0.5321309  47.8043848  48.2740772   2.7665798  51.8302918  46.4210657
   2.2065356  51.8996107  47.1942219   2.1609301  51.6543903  45.7010153
   4.3521816  68.5059432  49.1140612   4.9900226  68.3866179  48.4103953
   4.2342659  69.4540276  49.1728565   1.1611523  68.4586860  49.0502137
   0.8230034  68.3427925  48.1622672   2.0301291  68.0578025  49.0303143
   1.6431306  69.6121712  55.0088343   1.6319946  69.2174510  54.1368846
   1.8051945  68.8787784  55.6022114   2.5997897  73.9793304  40.3513493
   1.9485877  74.5647384  39.9647507   3.3942260  74.5099499  40.4108530
   3.9063085  66.2310886  46.1893820   4.6926174  65.8130309  45.8384238
   4.1701789  67.1356978  46.3575469   4.0773162  71.6683736  40.8882477
   3.4418995  71.7418363  41.6003382   3.7470569  72.2577335  40.2101557
   9.3071512  66.1686119  47.0926799  10.0396684  65.5985336  47.3264628
   8.5510868  65.7807719  47.5333305   0.9247632  68.5913360  44.2890141
   0.5605839  68.0643981  45.0003063   1.7814748  68.2011829  44.1156627
   6.8296932  59.8807693  51.5521408   6.4980257  60.7503104  51.3282623
   6.2342546  59.5643977  52.2315438   3.3228452  72.0820239  50.9517320
   3.0229175  72.9845278  50.8433128   2.9779511  71.8152422  51.8038473
   6.7225596  64.6002779  48.6314758   5.8142473  64.5318188  48.3373519
   6.6713191  65.0774724  49.4596583   8.5887242  62.8019218  50.4092632
   7.9461622  63.0951751  49.7632426   8.0842170  62.6872138  51.2145828
   6.2427406  66.5482391  41.0978491   7.1545262  66.7809778  40.9226188
   5.7337053  67.1319435  40.5353569   4.5268173  70.9707019  54.7339783
   4.9351529  70.5289429  53.9894416   3.8045435  70.3959646  54.9873976
   0.8799243  65.9079625  52.1073340   1.7260439  66.3319039  52.2507989
   0.8197881  65.2513250  52.8011903   4.8496988  71.5308209  48.4892072
   4.2205850  71.6953923  47.7868140   4.4622650  71.9449819  49.2603036
   8.7286220  72.4662647  45.8436436   8.0437258  72.8461548  45.2933469
   8.8130069  73.0757974  46.5768384   4.0298689  63.5683994  53.7654514
   3.7859621  64.3226054  53.2288790   4.3058619  63.9469341  54.6001761
   5.9837151  70.1122606  52.4431780   6.1954047  70.7554366  51.7666161
   5.9366900  69.2784923  51.9753710   3.5863380  62.7240427  49.3468352
   2.7247859  63.0221680  49.6385089   3.6125815  62.9410826  48.4149384
   7.0982979  72.9894562  50.6154137   7.9200423  72.5874749  50.3336819
   7.0945382  72.8862796  51.5670253  15.1888972  69.3333310  46.9639108
  14.4352681  68.7640708  46.8083113  15.3236514  69.2995975  47.9109743
   0.5787600  74.2046712  42.6393828   0.4433275  75.0498248  43.0678676
   1.1197413  74.4065990  41.8759762   2.2056077  74.8270279  56.7694170
   1.7619931  74.0406657  56.4515074   2.8673290  75.0149429  56.1038061
   4.3037315  75.1073079  54.7975571   4.2855790  75.9281960  54.3055840
   5.2257235  74.9827154  55.0225712   3.9280064  57.7277274  51.1692721
   3.5844333  58.6178916  51.0931832   4.2959027  57.5378932  50.3062306
   3.8930347  67.7185885  39.6765156   3.3776970  68.4890490  39.9153544
   3.6207655  67.0451021  40.2998218   1.4777458  62.5635586  44.7350395
   0.6219054  62.1742436  44.5556033   1.8904410  62.6427547  43.8750180
   3.0076604  60.0981929  49.1341954   2.5041400  60.0612065  48.3209760
   3.3007211  61.0074672  49.1938611   8.8664621  70.4718240  41.6118330
   8.0894064  70.1329399  41.1673492   9.5456102  70.4770863  40.9373295
   3.6816650  65.5912977  41.5024938   3.3766785  65.9059127  42.3535081
   4.6347092  65.6694397  41.5452271   2.1263082  71.7503201  43.1517891
   1.5984443  71.0155960  42.8391129   1.6250584  72.5277877  42.9057860
   7.1055928  69.9452221  48.2684938   6.4479602  70.6351483  48.3565066
   7.9096327  70.3348653  48.6118924   5.9161387  68.2996594  46.3188880
   6.4293268  68.9326586  46.8210589   6.5662610  67.6997789  45.9532240
   3.1783761  78.2780918  39.0749551   2.5045460  78.5812615  39.6834509
   3.5649583  79.0809999  38.7255008   2.3942217  65.7746049  48.5647220
   1.4764779  65.9960996  48.4068908   2.8102361  65.8492360  47.7058927
   3.1777265  67.1737465  43.6949900   3.9249084  67.6858862  43.3857022
   3.4468855  66.8521518  44.5554294   1.4503915  69.6696006  40.6776855
   0.5415135  69.3855039  40.7749324   1.4798999  70.0895084  39.8180161
   6.6823183  73.2802595  44.4468022   6.2285510  72.4393505  44.5033213
   6.0517150  73.9163994  44.7842802   5.6256102  64.2094581  45.6768690
   4.8878859  63.6971968  46.0078932   5.8782876  63.7694963  44.8651967
   5.1256122  75.1179092  45.3817840   5.4179096  75.6784149  44.6630206
   5.6354743  75.4107653  46.1370999   5.7267730  56.9870833  46.2710459
   6.0326606  56.1268197  45.9836374   6.4520335  57.5788454  46.0709453
   1.1480003  71.2104750  38.0164933   0.7099433  70.4940608  37.5570571
   1.8890444  71.4380864  37.4550025   3.5355381  66.3643511  53.3691923
   3.8904769  66.5914984  54.2286388   4.1827512  66.6961887  52.7469178
   9.2653118  69.4861947  44.0741252   9.1271017  69.6763543  43.1462441
   8.9089337  70.2481329  44.5309303   9.2922498  71.5538474  49.0852523
   9.7259004  71.4613763  49.9335577  10.0054078  71.5295974  48.4472539
   3.0250392  75.1540568  50.6185624   3.0787415  75.7231504  51.3863340
   2.1565174  75.3242453  50.2539661  10.1538047  71.5962174  51.6185409
  10.3473937  72.5007985  51.8644684  10.0538665  71.1369593  52.4523994
   1.8074358  61.4820065  54.1175736   1.1602273  62.1810014  54.0240212
   2.5775373  61.9156209  54.4851984   5.2153156  71.7468917  57.1926289
   5.0638662  71.5179469  56.2756373   5.2057835  72.7039518  57.2057634
   1.9838492  69.3200830  52.1772556   2.9130552  69.4711989  52.0041523
   1.5629522  69.4084850  51.3221202   1.3774976  78.4460591  41.2896630
   1.5526732  77.9748634  42.1042253   0.6907764  79.0726357  41.5177891
   2.3332039  72.7233097  47.3359931   1.9981872  72.6833867  48.2317581
   1.8335985  72.0577813  46.8630341   5.2691231  70.0689131  37.6096991
   4.6520401  69.3435959  37.5130043   4.8007719  70.8298491  37.2664065
   6.9245362  74.7788040  55.2702771   6.8657909  74.0947260  54.6033354
   7.3264881  75.5207030  54.8183397   6.9262770  72.7427623  53.5016751
   6.0389548  72.4053545  53.6243150   7.4961321  72.0110655  53.7385516
   3.5550353  62.4495475  46.6215021   4.0519052  61.6965438  46.3016091
   2.7837334  62.4859792  46.0558230  11.4080110  68.1535841  48.2633312
  11.3969987  69.0360556  47.8927246  10.5397490  67.8007392  48.0687850
   2.9162607  77.3015910  52.6236153   3.6290579  77.9363375  52.5512054
   2.4252635  77.3979776  51.8076155   4.6380134  71.2067163  44.1953444
   3.7036412  71.3268625  44.0258149   4.8156802  70.3039629  43.9313454
   8.0252685  67.0484482  44.7303478   8.4913137  67.8812473  44.6563781
   8.4760185  66.5829463  45.4348737   6.0928916  73.3928303  41.7289631
   6.3688760  73.2784898  42.6383505   5.2233415  72.9945788  41.6901804
   5.9969348  59.4165069  48.7694380   5.0832427  59.6469296  48.9376587
   6.4262449  59.5003513  49.6208412   5.7675806  67.6054961  51.2694274
   5.1147256  67.8530868  50.6146727   6.1456186  66.7919099  50.9356751
   2.7282980  77.6414654  45.3722444   2.9105375  76.8236310  45.8350196
   3.5515966  77.8582346  44.9347334   3.0625146  76.5682839  42.6337493
   3.5912912  76.0575294  42.0207655   3.3253365  76.2525369  43.4983026
   1.8163379  68.3474772  57.7560311   1.1404016  68.2468901  58.4262686
   2.6391013  68.1913986  58.2196308   0.5586162  79.6541699  51.9917927
   1.1104470  79.8173321  52.7567012   0.8992356  80.2446137  51.3197952
   5.4097036  74.4802957  57.8466581   5.9536940  75.0932915  57.3521536
   4.8283881  75.0382535  58.3633594   3.6954549  77.6023675  48.9781609
   3.5705689  76.8013415  48.4692555   4.3533640  78.0969868  48.4895579
   5.7589458  75.4032695  50.6061159   4.8119793  75.2838046  50.5339486
   6.1072231  74.5155193  50.6887421   2.7635891  75.1985411  46.8065511
   2.6160853  74.2702118  46.9873081   3.5889385  75.2205502  46.3222587
   6.3670013  76.0213970  47.8930384   7.2916560  75.8156831  47.7554835
   6.1985316  75.7730371  48.8019726   2.7597405  63.0523249  41.7997629
   2.9761020  63.9347887  41.4986457   2.2791472  62.6609462  41.0703271
   1.2119140  63.4348850  50.4702390   0.9536918  64.3565921  50.4686721
   0.6804181  63.0379285  51.1602854   6.1565329  76.5399637  43.2492476
   6.3302207  75.9746060  42.4966328   6.6494220  77.3400532  43.0671966
   1.6321096  59.5680801  46.8303553   1.6542793  59.6320134  45.8755532
   2.0489155  58.7285309  47.0244059  12.0104720  69.3036060  44.8682775
  12.4535866  68.5543385  44.4701899  11.1331231  69.2946197  44.4856507
   7.1440502  75.8566402  40.3489374   7.8391406  76.4773094  40.5676689
   7.4863652  75.0061753  40.6241752   9.0431925  73.3066107  41.8776705
   9.5683249  73.6453380  41.1526025   8.9554277  72.3713123  41.6939839
   0.7051973  77.2200181  54.0066581   1.0139100  76.9749328  54.8789281
   1.5027455  77.4246819  53.5185452   8.7325831  73.9399011  57.1827903
   7.9421374  73.9223150  56.6432402   8.4959185  74.4787305  57.9376939
   8.8523706  70.7891477  54.4960631   8.9021711  70.6241485  55.4376154
   8.7437629  69.9218736  54.1058512   6.1427468  66.7722405  55.8119938
   7.0437331  66.6328870  55.5203936   6.2175443  66.9376860  56.7518115
  10.3541903  73.2088419  54.7402653  10.0626711  73.5718399  55.5766114
   9.7414034  72.4955427  54.5615985  11.5537585  70.7741299  47.2605223
  12.3884476  71.2131103  47.4242783  11.6896714  70.2979952  46.4413469
   8.6029091  68.3321033  53.2082711   9.0783212  68.5248680  52.4001562
   7.6794656  68.3880219  52.9626094   3.1809307  60.3668877  52.1738545
   3.6991251  61.1029904  51.8485033   2.8264440  60.6732870  53.0085304
   3.4321902  56.7869159  47.6939441   3.7123655  56.1192349  48.3199868
   4.2172508  56.9798255  47.1814105   1.2355370  75.9628153  39.2564467
   0.6629337  76.5818340  38.8034939   1.8088164  76.5127515  39.7904389
   7.3030760  65.2086793  51.4411016   8.2548183  65.3084891  51.4623240
   7.1334210  64.4165062  51.9509101   5.3245139  62.2942377  51.6270417
   4.7295071  62.5747389  50.9316906   5.0394836  62.7836278  52.3987158
   4.4552630  76.2465303  40.3873050   5.3883303  76.1810865  40.5905925
   4.3675843  77.0821570  39.9287582   7.0840646  75.5631174  37.3476997
   7.0054278  75.2291037  38.2412755   7.9050313  76.0552942  37.3468470
   9.7818838  68.4292913  50.5553316   9.7495158  67.4908914  50.7413000
  10.3919461  68.5076950  49.8219141   1.6202168  67.2988966  36.5980520
   2.5661273  67.1695174  36.6668938   1.2416413  66.5603628  37.0749948
   9.9313326  65.2203957  50.6011599   9.4152375  64.4362413  50.4141528
  10.8153275  64.8922673  50.7658119   7.5924053  58.9644972  46.5607412
   7.3948874  58.6560060  47.4450744   8.2023759  59.6906611  46.6905342
  15.5995387  69.4908920  49.6959353  16.3298776  69.2294208  50.2567056
  14.9902333  68.7537642  49.7361421  13.6810685  67.6316783  50.2933804
  12.9543848  67.4972747  49.6850296  13.2657971  67.9393611  51.0990522
   1.5040861  71.3506712  58.0581177   2.4243871  71.5285311  58.2521223
   1.4690444  70.4062758  57.9060876   1.4207151  59.7675832  42.6879647
   0.6107880  59.4222917  43.0634893   2.1091568  59.4583376  43.2767258
   3.3497700  58.8453879  44.3103943   3.9028738  59.2649332  44.9693966
   3.5867786  57.9189627  44.3526899   6.7276507  60.9554404  43.8182607
   6.1475176  61.6139208  43.4360660   6.4612439  60.1331749  43.4070025
   5.1780073  60.3559462  46.0203928   5.6779851  60.4675996  45.2118247
   5.8215681  60.0520515  46.6604736   5.5101385  63.1154495  42.8738956
   4.6227240  63.4004145  42.6559150   5.9255374  62.9548258  42.0266233
   8.8615921  63.1401016  46.5893295   9.6376311  63.6297468  46.8617912
   8.1364055  63.5659070  47.0465164  11.2988480  63.8528635  47.6467236
  11.8932970  63.6124371  46.9360544  11.3715063  63.1335765  48.2740772
   4.6544598  72.8799169  36.9686976   5.3580448  73.0849172  37.5844631
   3.9307247  73.4475931  37.2336059   5.4842409  68.6309030  43.0889246
   5.4277610  69.0877582  42.2496878   6.0370751  67.8699715  42.9112089
   9.2947214  64.4198762  43.9139365   9.0384149  64.0195398  44.7447573
   8.6700082  65.1342556  43.7889504  13.6059552  67.1594836  46.4210657
  13.0459110  67.2288025  47.1942219  13.0003056  66.9835820  45.7010153
   6.5631296  73.3181698  39.0185436   7.3976900  72.8862897  38.8362910
   6.4015639  73.1463712  39.9462330   6.2177188  69.8213812  40.3841775
   6.1625992  69.6558083  39.4430219   5.5923243  70.5289845  40.5403965
   3.5323095  72.1262724  59.7095338   4.4014255  72.3003376  59.3481973
   3.0529846  72.9457140  59.5871067   3.3425433  55.9164697  44.2173030
   2.5757829  55.3623184  44.3629713   3.7536138  55.9886566  45.0787182
  15.1915571  83.8351350  49.1140612  15.8293981  83.7158097  48.4103953
  15.0736414  84.7832193  49.1728565  12.0005277  83.7878778  49.0502137
  11.6623789  83.6719842  48.1622672  12.8695045  83.3869943  49.0303143
   7.8592093  85.6414254  45.0399028   7.2956958  85.5504191  44.2715316
   7.7444488  84.8214159  45.5201521  12.4825060  84.9413629  55.0088343
  12.4713701  84.5466428  54.1368846  12.6445699  84.2079702  55.6022114
   5.4056525  87.1365446  47.8783249   6.1977817  86.7956270  47.4629548
   5.6453175  87.2460421  48.7985402  13.4391651  89.3085222  40.3513493
  12.7879631  89.8939302  39.9647507  14.2336014  89.8391417  40.4108530
   7.3647279  86.3974359  40.7500627   8.1378155  85.8503346  40.6113503
   7.7172677  87.2618608  40.9615089   9.2032321  87.7250741  53.9567527
   8.9122187  88.6296372  53.8414193   9.8389306  87.7667269  54.6711596
  10.1288528  85.1027590  50.5468886  10.7252100  84.8783612  49.8325849
  10.1863500  84.3612335  51.1494334   9.7013556  82.5567025  38.3819077
   9.9539077  82.0348546  37.6202540   8.7638115  82.3933170  38.4845761
  14.7456839  81.5602803  46.1893820  15.5319928  81.1422227  45.8384238
  15.0095544  82.4648896  46.3575469  14.9166917  86.9975654  40.8882477
  14.2812750  87.0710280  41.6003382  14.5864323  87.5869253  40.2101557
  20.1465266  81.4978037  47.0926799  20.8790438  80.9277253  47.3264628
  19.3904622  81.1099637  47.5333305   9.4209845  84.4595131  40.5843452
   9.3046103  83.7840034  41.2524537   9.5312105  83.9727505  39.7675605
  11.7641386  83.9205278  44.2890141  11.3999593  83.3935899  45.0003063
  12.6208502  83.5303747  44.1156627  17.6690687  75.2099611  51.5521408
  17.3374011  76.0795022  51.3282623  17.0736300  74.8935895  52.2315438
  11.4046873  78.9495178  39.2851490  11.5721275  79.8175414  39.6521961
  11.2144042  79.1122459  38.3612779  14.1622206  87.4112157  50.9517320
  13.8622929  88.3137195  50.8433128  13.8173266  87.1444340  51.8038473
   7.6134688  83.8625954  46.9854025   6.6885184  83.7302168  47.1931717
   7.8619101  84.6420173  47.4823967  17.5619350  79.9294697  48.6314758
  16.6536227  79.8610105  48.3373519  17.5106946  80.4066642  49.4596583
  11.3836094  81.4052835  40.2698157  11.2635719  81.8509886  41.1083637
  10.6888682  81.7538153  39.7111695   4.9743499  83.5059227  47.8197814
   5.1035880  83.7593706  48.7337226   4.2940950  84.0986935  47.5002469
   9.1442986  94.1756477  43.9188288   9.0667016  95.1264302  43.9976769
   8.5404630  93.8302350  44.5763214  11.6360216  81.3484342  56.5749655
  10.8593550  81.9078263  56.5652520  12.2750779  81.8341125  57.0964525
  19.4280996  78.1311135  50.4092632  18.7855377  78.4243668  49.7632426
  18.9235925  78.0164056  51.2145828  17.0821160  81.8774308  41.0978491
  17.9939016  82.1101695  40.9226188  16.5730807  82.4611353  40.5353569
   9.8906588  84.1569796  56.1367622  10.6321272  84.6954840  55.8602446
   9.1843574  84.7836085  56.2939174  15.3661928  86.2998936  54.7339783
  15.7745284  85.8581347  53.9894416  14.6439189  85.7251564  54.9873976
  11.7192998  81.2371543  52.1073340  12.5654193  81.6610957  52.2507989
  11.6591635  80.5805167  52.8011903  15.6890742  86.8600127  48.4892072
  15.0599605  87.0245841  47.7868140  15.3016404  87.2741736  49.2603036
  19.5679974  87.7954565  45.8436436  18.8831012  88.1753466  45.2933469
  19.6523824  88.4049891  46.5768384  14.8692443  78.8975911  53.7654514
  14.6253375  79.6517972  53.2288790  15.1452374  79.2761259  54.6001761
  16.8230906  85.4414524  52.4431780  17.0347801  86.0846284  51.7666161
  16.7760654  84.6076840  51.9753710  14.4257135  78.0532344  49.3468352
  13.5641614  78.3513598  49.6385089  14.4519570  78.2702743  48.4149384
  11.2418704  86.5974535  45.7542157  11.7057050  86.8762238  44.9646780
  10.9775502  85.6957980  45.5715248   8.1342785  86.1446017  48.6921921
   8.7044142  86.5733285  48.0539405   8.7250897  85.8628601  49.3906106
  10.1787590  82.7197687  42.5631723  10.8811634  83.1718731  43.0305649
   9.8468219  82.0781506  43.1911616   8.6267952  81.3109444  56.9382932
   7.9966612  81.9925725  57.1718329   8.5204040  81.1992526  55.9936070
   3.9212924  80.9781240  47.8648856   3.1311978  81.2338769  47.3888967
   4.4124172  81.7929578  47.9700897  17.9376734  88.3186479  50.6154137
  18.7594178  87.9166666  50.3336819  17.9339137  88.2154713  51.5670253
   5.8727670  81.3425819  44.8232333   5.0758833  81.4544514  45.3415828
   5.6453262  81.6812471  43.9573223  11.7033337  87.8670522  52.7714847
  11.7677770  88.3290930  53.6073019  10.9944261  87.2367887  52.8997157
   2.2050627  81.2311730  50.2963847   2.4558666  82.1158740  50.5621423
   2.7410176  81.0516332  49.5238939  26.0282727  84.6625228  46.9639108
  25.2746435  84.0932626  46.8083113  26.1630268  84.6287892  47.9109743
  11.4181355  89.5338630  42.6393828  11.2827030  90.3790166  43.0678676
  11.9591167  89.7357908  41.8759762   7.9048695  75.6130210  59.3008183
   7.5115640  75.0596408  59.9755827   8.7214835  75.9240788  59.6914701
   4.8710752  87.0514068  43.2121753   5.3835273  87.8457318  43.3627318
   5.5233465  86.3540358  43.1455354   6.6805637  90.1679824  45.2944506
   6.8572265  91.0897789  45.1065490   7.4762471  89.8538244  45.7238886
  10.8216656  77.0288089  56.8928440  11.5626369  77.6295242  56.8132902
  11.0534578  76.2865727  56.3346482   5.9657994  82.2144456  55.1706669
   5.8511509  81.3129713  55.4713768   5.1102511  82.4608153  54.8191486
  13.0449831  90.1562196  56.7694170  12.6013686  89.3698575  56.4515074
  13.7067045  90.3441347  56.1038061   7.8036953  91.6857998  51.2954848
   8.3544378  91.5575061  50.5231842   6.9648428  91.9852887  50.9449741
  15.1431069  90.4364996  54.7975571  15.1249545  91.2573877  54.3055840
  16.0650989  90.3119072  55.0225712  11.6004124  87.9509126  55.6399079
  12.1332460  87.1897414  55.4098387  11.0718205  87.6582778  56.3823234
  14.7673819  73.0569192  51.1692721  14.4238088  73.9470834  51.0931832
  15.1352781  72.8670850  50.3062306   2.8359669  85.3802722  43.9881323
   3.6734891  85.7899731  43.7715031   3.0137937  84.4402164  43.9581517
  14.7324101  83.0477803  39.6765156  14.2170725  83.8182408  39.9153544
  14.4601410  82.3742939  40.2998218  12.3171212  77.8927504  44.7350395
  11.4612809  77.5034354  44.5556033  12.7298164  77.9719465  43.8750180
  13.8470359  75.4273847  49.1341954  13.3435155  75.3903982  48.3209760
  14.1400966  76.3366590  49.1938611  10.0913245  75.5112577  48.1408136
  10.9566242  75.3155385  47.7814026  10.1590754  75.2822929  49.0677493
  19.7058375  85.8010158  41.6118330  18.9287818  85.4621317  41.1673492
  20.3849856  85.8062781  40.9373295  14.5210404  80.9204895  41.5024938
  14.2160540  81.2351044  42.3535081  15.4740847  80.9986315  41.5452271
  12.9656836  87.0795118  43.1517891  12.4378198  86.3447878  42.8391129
  12.4644339  87.8569795  42.9057860  17.9449682  85.2744139  48.2684938
  17.2873357  85.9643400  48.3565066  18.7490081  85.6640571  48.6118924
   7.6975564  77.7414785  45.5124503   8.2719316  77.5189966  44.7797696
   8.2846546  77.8103479  46.2653104  16.7555141  83.6288512  46.3188880
  17.2687023  84.2618503  46.8210589  17.4056365  83.0289707  45.9532240
   8.0245151  79.7719246  39.5320388   7.1882463  80.1093932  39.8529663
   7.8849921  79.6368225  38.5947525   9.9998232  74.6156034  44.2399572
   9.3462644  74.3005051  43.6156187   9.9578706  73.9931774  44.9659395
  11.1109436  84.8975329  36.1552865  10.2036498  84.6664582  36.3544014
  11.6080468  84.1012948  36.3426846  14.0177515  93.6072836  39.0749551
  13.3439214  93.9104533  39.6834509  14.4043337  94.4101916  38.7255008
  13.2335972  81.1037967  48.5647220  12.3158533  81.3252914  48.4068908
  13.6496116  81.1784278  47.7058927  14.0171020  82.5029383  43.6949900
  14.7642839  83.0150780  43.3857022  14.2862609  82.1813436  44.5554294
  12.2897670  84.9987924  40.6776855  11.3808889  84.7146956  40.7749324
  12.3192754  85.4187002  39.8180161  17.5216937  88.6094513  44.4468022
  17.0679264  87.7685423  44.5033213  16.8910904  89.2455911  44.7842802
  16.4649857  79.5386499  45.6768690  15.7272614  79.0263885  46.0078932
  16.7176630  79.0986881  44.8651967  15.9649877  90.4471010  45.3817840
  16.2572851  91.0076067  44.6630206  16.4748497  90.7399571  46.1370999
  16.5661484  72.3162751  46.2710459  16.8720361  71.4560114  45.9836374
  17.2914089  72.9080371  46.0709453   2.8585840  82.7193438  44.6592057
   2.6610240  82.1262798  43.9343123   2.3032504  82.4145648  45.3767996
  10.8382564  82.6116544  46.7786650  10.8931174  81.6590381  46.7029127
  10.0273766  82.7675983  47.2627948  11.9873758  86.5396667  38.0164933
  11.5493188  85.8232526  37.5570571  12.7284199  86.7672782  37.4550025
   8.7774924  81.2293604  44.5377029   7.9642789  81.5287774  44.9442221
   9.2733918  80.8349293  45.2551511  10.9283502  91.2251361  46.4711294
  10.8859681  91.4512207  45.5419826  11.8446201  90.9914735  46.6197095
  14.3749136  81.6935428  53.3691923  14.7298523  81.9206901  54.2286388
  15.0221267  82.0253805  52.7469178  20.1046872  84.8153864  44.0741252
  19.9664771  85.0055460  43.1462441  19.7483091  85.5773247  44.5309303
   8.2688999  78.8011959  50.1538264   8.9088378  78.6600718  49.4561227
   7.4366529  78.5146473  49.7776866  20.1316252  86.8830391  49.0852523
  20.5652759  86.7905680  49.9335577  20.8447833  86.8587892  48.4472539
   9.0449303  88.1014390  46.2673256   9.8389901  87.6064710  46.0655831
   8.3340995  87.5732253  45.9040962  13.8644147  90.4832485  50.6185624
  13.9181169  91.0523422  51.3863340  12.9958928  90.6534370  50.2539661
   5.3532066  82.2457472  42.3433009   4.4229654  82.1841927  42.5602971
   5.4489538  81.7233424  41.5469650   5.2717615  78.7712284  44.9311251
   5.5324432  79.6857618  44.8220411   6.0934787  78.3036727  45.0807863
   6.7442540  80.1850042  52.1010075   7.4165594  79.9767404  51.4522724
   5.9172327  79.9872128  51.6615307  20.9931802  86.9254092  51.6185409
  21.1867692  87.8299902  51.8644684  20.8932420  86.4661511  52.4523994
  12.6468112  76.8111982  54.1175736  11.9996027  77.5101932  54.0240212
  13.4169128  77.2448126  54.4851984  16.0546910  87.0760835  57.1926289
  15.9032417  86.8471386  56.2756373  16.0451590  88.0331436  57.2057634
  12.8232247  84.6492747  52.1772556  13.7524307  84.8003907  52.0041523
  12.4023277  84.7376768  51.3221202  11.6220578  88.6743412  49.9471093
  11.4831664  88.3062196  50.8197031  10.8335175  89.1891051  49.7755051
  12.2168730  93.7752508  41.2896630  12.3920486  93.3040551  42.1042253
  11.5301518  94.4018274  41.5177891  13.1725794  88.0525014  47.3359931
  12.8375626  88.0125784  48.2317581  12.6729739  87.3869730  46.8630341
   7.1470038  83.4592645  52.8612512   7.0089836  82.7272883  53.4624051
   8.0574961  83.3701545  52.5796700  16.1084985  85.3981049  37.6096991
  15.4914156  84.6727877  37.5130043  15.6401474  86.1590409  37.2664065
   9.7752338  83.1712604  52.3496192  10.4851957  82.5305796  52.3082810
   9.7321646  83.4225499  53.2722373  17.7639117  90.1079957  55.2702771
  17.7051663  89.4239177  54.6033354  18.1658635  90.8498947  54.8183397
   8.4881272  80.1577822  54.1691831   7.9518629  79.7068560  54.8213428
   7.8997981  80.2923731  53.4262296   6.7829816  96.9241871  48.0636490
   7.0226414  97.5560395  48.7415509   5.9399012  96.5729911  48.3501849
   7.8983531  79.6166473  36.7318295   7.0212998  79.4955274  36.3680542
   8.3741284  78.8252551  36.4797184  17.7656524  88.0719541  53.5016751
  16.8783303  87.7345463  53.6243150  18.3355075  87.3402572  53.7385516
   4.2220393  79.2933829  51.2544826   4.1378582  78.6859499  50.5195236
   3.4003100  79.7842848  51.2554322  11.2957678  92.7320993  50.4677994
  11.2227849  93.5375965  50.9797299  10.8535071  92.9312959  49.6426015
  11.0847457  91.9692763  43.9780816  10.3014979  92.5114444  44.0719040
  11.7840202  92.4866743  44.3775057  14.3944107  77.7787393  46.6215021
  14.8912807  77.0257355  46.3016091  13.6231089  77.8151710  46.0558230
  22.2473865  83.4827758  48.2633312  22.2363741  84.3652474  47.8927246
  21.3791244  83.1299309  48.0687850  13.7556361  92.6307827  52.6236153
  14.4684333  93.2655292  52.5512054  13.2646390  92.7271693  51.8076155
  15.4773888  86.5359080  44.1953444  14.5430167  86.6560543  44.0258149
  15.6550557  85.6331547  43.9313454  10.9779076  79.9204776  46.3486706
  10.6076864  79.3675816  47.0367611  11.4738169  79.3162909  45.7961706
  18.8646439  82.3776399  44.7303478  19.3306892  83.2104391  44.6563781
  19.3153940  81.9121381  45.4348737   8.8068275  90.3802271  53.4441724
   9.5077734  91.0138754  53.5971118   8.3363390  90.7217003  52.6837363
  16.9322671  88.7220221  41.7289631  17.2082514  88.6076815  42.6383505
  16.0627169  88.3237706  41.6901804  16.8363102  74.7456986  48.7694380
  15.9226182  74.9761213  48.9376587  17.2656204  74.8295431  49.6208412
  16.6069561  82.9346878  51.2694274  15.9541011  83.1822786  50.6146727
  16.9849941  82.1211017  50.9356751  13.5676735  92.9706572  45.3722444
  13.7499129  92.1528228  45.8350196  14.3909721  93.1874264  44.9347334
  13.9018900  91.8974757  42.6337493  14.4306666  91.3867211  42.0207655
  14.1647120  91.5817287  43.4983026  12.6557134  83.6766689  57.7560311
  11.9797771  83.5760819  58.4262686  13.4784768  83.5205903  58.2196308
   4.4035993  89.9138626  50.3772826   4.9889430  89.1682314  50.5100730
   4.2060831  90.2242583  51.2609490   7.2574648  92.9489873  45.3935269
   6.5885023  93.4336001  44.9099309   7.1187518  93.1959094  46.3078647
  11.3979917  94.9833617  51.9917927  11.9498225  95.1465238  52.7567012
  11.7386110  95.5738055  51.3197952   6.3744410  77.3308767  52.5939812
   6.4385736  78.1923598  52.1817209   6.3111530  76.7182768  51.8612170
   5.8496682  79.4031899  56.2412846   6.4768721  79.0208977  56.8550370
   4.9924601  79.1846101  56.6068538  16.2490791  89.8094874  57.8466581
  16.7930695  90.4224833  57.3521536  15.6677636  90.3674453  58.3633594
   2.6262225  81.2108328  42.1731201   2.9215666  80.3019007  42.1198254
   1.7250261  81.1896068  41.8512203  14.5348304  92.9315592  48.9781609
  14.4099443  92.1305332  48.4692555  15.1927395  93.4261786  48.4895579
   6.1556472  79.2864325  48.1558749   5.4343058  79.9000293  48.0166223
   6.9449728  79.8222090  48.0775395  16.5983212  90.7324613  50.6061159
  15.6513548  90.6129964  50.5339486  16.9465985  89.8447111  50.6887421
   8.9582786  76.6218751  54.4299401   9.4817187  76.8681048  55.1925710
   8.7395119  77.4538786  54.0102538   4.3550067  78.8922426  42.2970526
   4.0262773  78.0119805  42.1145632   4.7089437  78.8370095  43.1846915
  13.6029646  90.5277329  46.8065511  13.4554608  89.5994036  46.9873081
  14.4283139  90.5497419  46.3222587   7.4691890  79.1795396  42.6646004
   7.8087962  79.7081317  41.9424612   7.9164010  79.5175802  43.4404570
  17.2063767  91.3505887  47.8930384  18.1310315  91.1448749  47.7554835
  17.0379071  91.1022289  48.8019726  10.1635331  77.5632447  52.1149072
   9.8232151  76.7640260  52.5169751   9.4574337  77.8634157  51.5425905
  10.8151802  74.6481759  50.5676395  11.6377872  74.1742237  50.4455285
  11.0589866  75.4272243  51.0675081   9.4560037  77.6770017  40.8639296
  10.1768399  78.0551270  40.3603013   8.8325341  78.3958894  40.9674274
  13.5991160  78.3815166  41.7997629  13.8154774  79.2639804  41.4986457
  13.1185227  77.9901380  41.0703271   8.3390381  81.3400880  48.3768373
   8.1934962  81.6541183  49.2692655   7.8615585  81.9585780  47.8239272
  10.1986764  78.3303428  48.4249263  10.1848333  77.4344521  48.0881561
  10.9159192  78.3374091  49.0587549  12.0512895  78.7640768  50.4702390
  11.7930673  79.6857838  50.4686721  11.5197935  78.3671202  51.1602854
  16.9959084  91.8691555  43.2492476  17.1695961  91.3037977  42.4966328
  17.4887975  92.6692450  43.0671966   2.8136043  83.8806224  51.3156034
   2.2689511  84.6566032  51.4476309   3.6915393  84.2277028  51.1575156
   9.6023660  77.2117808  43.6936833   9.7239571  76.2834454  43.8927720
   9.3125702  77.2256494  42.7815148  12.4714850  74.8972718  46.8303553
  12.4936547  74.9612051  45.8755532  12.8882909  74.0577227  47.0244059
  22.8498475  84.6327978  44.8682775  23.2929621  83.8835303  44.4701899
  21.9724985  84.6238114  44.4856507  17.9834256  91.1858319  40.3489374
  18.6785161  91.8065012  40.5676689  18.3257406  90.3353671  40.6241752
   3.6002065  83.0076120  54.2086191   2.8583801  83.1558756  54.7950822
   3.2794810  83.2684386  53.3452941  19.8825679  88.6358025  41.8776705
  20.4077003  88.9745298  41.1526025  19.7948032  87.7005040  41.6939839
  11.5445728  92.5492099  54.0066581  11.8532854  92.3041245  54.8789281
  12.3421210  92.7538737  53.5185452  11.5666340  94.7030008  46.2371958
  11.1271330  94.2106387  46.9304815  12.3174457  94.1602976  45.9964033
   4.0458679  90.8941549  46.2396586   4.8716699  90.5945321  45.8595229
   3.6952731  90.1249171  46.6886375   9.0140212  90.2468017  48.3094260
   8.3920221  89.5838722  48.0096487   9.6845079  90.2729149  47.6267907
   2.2467284  88.8127875  47.1985520   1.4099192  88.3850050  47.0169521
   2.2190929  89.0060319  48.1356311   9.0864740  78.7249805  57.9026766
   9.1352895  79.6011928  57.5204535   9.6287254  78.1827198  57.3298409
  19.5719585  89.2690929  57.1827903  18.7815129  89.2515067  56.6432402
  19.3352940  89.8079222  57.9376939  19.6917460  86.1183395  54.4960631
  19.7415465  85.9533402  55.4376154  19.5831384  85.2510654  54.1058512
   8.5753719  88.7971941  41.7852720   8.7241839  89.4807405  41.1319393
   9.3820162  88.7777031  42.3002176  16.9821223  82.1014323  55.8119938
  17.8831085  81.9620788  55.5203936  17.0569197  82.2668778  56.7518115
  11.3164028  79.4781178  54.6573124  10.4467337  79.7714744  54.3855713
  11.5523508  80.0621623  55.3780388  21.1935657  88.5380336  54.7402653
  20.9020465  88.9010317  55.5766114  20.5807788  87.8247345  54.5615985
  22.3931339  86.1033216  47.2605223  23.2278231  86.5423020  47.4242783
  22.5290468  85.6271869  46.4413469  19.4422845  83.6612951  53.2082711
  19.9176967  83.8540597  52.4001562  18.5188411  83.7172137  52.9626094
   6.3306352  84.8237118  42.7913789   6.0852394  83.9199448  42.9893999
   6.5002266  84.8254269  41.8493267  14.0203062  75.6960795  52.1738545
  14.5385006  76.4321822  51.8485033  13.6658195  76.0024788  53.0085304
   5.6001999  80.5565476  40.2899950   4.9071244  80.6309831  39.6339986
   5.3553751  79.7925819  40.8121467  14.2715656  72.1161077  47.6939441
  14.5517410  71.4484266  48.3199868  15.0566263  72.3090173  47.1814105
  12.0749124  91.2920071  39.2564467  11.5023092  91.9110258  38.8034939
  12.6481918  91.8419433  39.7904389  18.1424514  80.5378711  51.4411016
  19.0941937  80.6376809  51.4623240  17.9727965  79.7456980  51.9509101
  16.1638894  77.6234294  51.6270417  15.5688826  77.9039307  50.9316906
  15.8788591  78.1128195  52.3987158  15.2946384  91.5757221  40.3873050
  16.2277057  91.5102783  40.5905925  15.2069597  92.4113488  39.9287582
  17.9234401  90.8923091  37.3476997  17.8448032  90.5582955  38.2412755
  18.7444068  91.3844859  37.3468470  20.6212592  83.7584831  50.5553316
  20.5888912  82.8200832  50.7413000  21.2313216  83.8368868  49.8219141
  12.4595923  82.6280884  36.5980520  13.4055028  82.4987092  36.6668938
  12.0810168  81.8895546  37.0749948  20.7707081  80.5495874  50.6011599
  20.2546129  79.7654331  50.4141528  21.6547029  80.2214591  50.7658119
  18.4317808  74.2936890  46.5607412  18.2342629  73.9851978  47.4450744
  19.0417513  75.0198529  46.6905342  26.4389142  84.8200838  49.6959353
  27.1692530  84.5586126  50.2567056  25.8296087  84.0829560  49.7361421
  24.5204439  82.9608700  50.2933804  23.7937603  82.8264665  49.6850296
  24.1051726  83.2685529  51.0990522  12.3434616  86.6798630  58.0581177
  13.2637625  86.8577229  58.2521223  12.3084199  85.7354675  57.9060876
  10.6438840  80.5530860  36.5335405   9.7370296  80.2563973  36.6098119
  10.9214821  80.2560678  35.6669691   1.5616781  81.8737224  46.9834452
   1.2419565  81.0202532  46.6908826   1.0150209  82.0885802  47.7392419
   5.3396688  84.5899665  50.7003958   5.5582698  85.5216772  50.7191992
   5.7522462  84.2307639  51.4858762  12.2600906  75.0967750  42.6879647
  11.4501634  74.7514835  43.0634893  12.9485323  74.7875294  43.2767258
  14.1891454  74.1745797  44.3103943  14.7422493  74.5941250  44.9693966
  14.4261541  73.2481545  44.3526899  10.2124553  80.1632870  60.0906707
  10.1121280  81.1127227  60.0218798   9.9946095  79.8351109  59.2182777
   9.4137625  77.4117795  36.6747384  10.2756789  77.7372694  36.9343202
   9.5987969  76.6249291  36.1620450   1.4305041  85.4940135  48.9527573
   0.7368512  85.0794088  48.4397528   2.1778032  85.5360672  48.3560992
  17.5670261  76.2846322  43.8182607  16.9868930  76.9431126  43.4360660
  17.3006194  75.4623666  43.4070025  16.0173828  75.6851380  46.0203928
  16.5173606  75.7967914  45.2118247  16.6609436  75.3812432  46.6604736
  10.0755823  83.5930009  58.9071769   9.5922905  84.3930369  59.1135658
  10.1616762  83.6037954  57.9539213   3.3441783  85.4258389  46.8293588
   3.3212471  85.5246076  45.8775471   3.6542420  86.2723540  47.1510754
   6.0029161  87.4834544  50.9440202   6.9572414  87.4518486  50.8770134
   5.8041685  87.0225168  51.7590428   6.5928543  86.0535660  53.5111000
   7.4121432  86.5479739  53.5345837   6.8665351  85.1367628  53.4828568
  16.3495139  78.4446412  42.8738956  15.4620994  78.7296063  42.6559150
  16.7649128  78.2840176  42.0266233  19.7009675  78.4692933  46.5893295
  20.4770066  78.9589386  46.8617912  18.9757810  78.8950987  47.0465164
  22.1382234  79.1820552  47.6467236  22.7326725  78.9416288  46.9360544
  22.2108818  78.4627683  48.2740772   4.3579390  93.0254163  47.9610400
   4.2233858  92.2654564  47.3948398   3.9411452  93.7495063  47.4939189
  15.4938353  88.2091087  36.9686976  16.1974203  88.4141089  37.5844631
  14.7701002  88.7767849  37.2336059  16.3236163  83.9600948  43.0889246
  16.2671364  84.4169500  42.2496878  16.8764505  83.1991633  42.9112089
  20.1340969  79.7490680  43.9139365  19.8777903  79.3487316  44.7447573
  19.5093837  80.4634474  43.7889504  24.4453307  82.4886753  46.4210657
  23.8852865  82.5579943  47.1942219  23.8396810  82.3127738  45.7010153
   7.5148516  93.9223480  48.1728843   7.3980900  94.8668913  48.0707533
   6.6940962  93.6197042  48.5614642  17.4025050  88.6473616  39.0185436
  18.2370654  88.2154815  38.8362910  17.2409393  88.4755630  39.9462330
  17.0570942  85.1505729  40.3841775  17.0019746  84.9850001  39.4430219
  16.4316998  85.8581762  40.5403965   1.8463457  80.3873794  54.2103197
   2.4922321  79.8772748  54.6990422   1.6380608  81.1242475  54.7846622
  14.3716850  87.4554641  59.7095338  15.2408009  87.6295294  59.3481973
  13.8923601  88.2749058  59.5871067  10.3667068  74.6513838  39.9627093
  10.3545738  75.5955678  40.1195364  11.2590490  74.4683984  39.6686555
   8.5403030  94.5751742  51.3884771   9.4430276  94.6075353  51.7051266
   8.3140400  93.6452193  51.4031107  10.2956632  93.3282729  48.0494850
   9.3452263  93.3284590  47.9359222  10.5989118  92.5815463  47.5330885
  14.1819187  71.2456615  44.2173030  13.4151583  70.6915102  44.3629713
  14.5929892  71.3178484  45.0787182   6.1860948  77.5341411  58.3078211
   7.0492410  77.1778216  58.5181536   5.6126359  77.1955306  58.9953616
  26.0309325  99.1643267  49.1140612  26.6687735  99.0450015  48.4103953
  25.9130168 100.1124111  49.1728565  22.8399032  99.1170695  49.0502137
  22.5017543  99.0011760  48.1622672  23.7088800  98.7161860  49.0303143
  18.6985847 100.9706172  45.0399028  18.1350712 100.8796109  44.2715316
  18.5838242 100.1506076  45.5201521  23.3218815 100.2705547  55.0088343
  23.3107455  99.8758345  54.1368846  23.4839454  99.5371620  55.6022114
  16.2450279 102.4657363  47.8783249  17.0371571 102.1248188  47.4629548
  16.4846929 102.5752338  48.7985402  24.2785406 104.6377139  40.3513493
  23.6273386 105.2231220  39.9647507  25.0729769 105.1683334  40.4108530
  18.2041033 101.7266277  40.7500627  18.9771909 101.1795264  40.6113503
  18.5566432 102.5910526  40.9615089  20.0426076 103.0542659  53.9567527
  19.7515942 103.9588290  53.8414193  20.6783060 103.0959186  54.6711596
  20.9682283 100.4319507  50.5468886  21.5645855 100.2075530  49.8325849
  21.0257254  99.6904253  51.1494334  20.5407311  97.8858943  38.3819077
  20.7932832  97.3640464  37.6202540  19.6031870  97.7225088  38.4845761
  25.5850594  96.8894721  46.1893820  26.3713683  96.4714144  45.8384238
  25.8489298  97.7940813  46.3575469  25.7560671 102.3267571  40.8882477
  25.1206504 102.4002198  41.6003382  25.4258077 102.9161170  40.2101557
  30.9859021  96.8269954  47.0926799  31.7184193  96.2569171  47.3264628
  30.2298377  96.4391555  47.5333305  20.2603600  99.7887049  40.5843452
  20.1439858  99.1131952  41.2524537  20.3705860  99.3019423  39.7675605
  22.6035141  99.2497196  44.2890141  22.2393348  98.7227817  45.0003063
  23.4602256  98.8595665  44.1156627  28.5084441  90.5391528  51.5521408
  28.1767766  91.4086939  51.3282623  27.9130055  90.2227812  52.2315438
  22.2440628  94.2787095  39.2851490  22.4115030  95.1467332  39.6521961
  22.0537797  94.4414377  38.3612779  25.0015961 102.7404074  50.9517320
  24.7016684 103.6429113  50.8433128  24.6567020 102.4736258  51.8038473
  18.4528442  99.1917871  46.9854025  17.5278939  99.0594085  47.1931717
  18.7012855  99.9712090  47.4823967  28.4013105  95.2586615  48.6314758
  27.4929982  95.1902023  48.3373519  28.3500700  95.7358559  49.4596583
  22.2229848  96.7344753  40.2698157  22.1029474  97.1801804  41.1083637
  21.5282437  97.0830071  39.7111695  15.8137253  98.8351145  47.8197814
  15.9429634  99.0885624  48.7337226  15.1334705  99.4278853  47.5002469
  19.9836741 109.5048395  43.9188288  19.9060770 110.4556220  43.9976769
  19.3798384 109.1594267  44.5763214  22.4753970  96.6776260  56.5749655
  21.6987304  97.2370180  56.5652520  23.1144533  97.1633043  57.0964525
  30.2674751  93.4603053  50.4092632  29.6249131  93.7535586  49.7632426
  29.7629679  93.3455973  51.2145828  27.9214915  97.2066226  41.0978491
  28.8332771  97.4393613  40.9226188  27.4124562  97.7903270  40.5353569
  20.7300343  99.4861713  56.1367622  21.4715027 100.0246757  55.8602446
  20.0237328 100.1128002  56.2939174  26.2055682 101.6290854  54.7339783
  26.6139038 101.1873264  53.9894416  25.4832944 101.0543481  54.9873976
  22.5586752  96.5663461  52.1073340  23.4047947  96.9902874  52.2507989
  22.4985390  95.9097085  52.8011903  26.5284497 102.1892045  48.4892072
  25.8993359 102.3537759  47.7868140  26.1410159 102.6033654  49.2603036
  30.4073729 103.1246482  45.8436436  29.7224767 103.5045384  45.2933469
  30.4917578 103.7341809  46.5768384  25.7086198  94.2267829  53.7654514
  25.4647130  94.9809890  53.2288790  25.9846128  94.6053177  54.6001761
  27.6624660 100.7706441  52.4431780  27.8741556 101.4138201  51.7666161
  27.6154409  99.9368758  51.9753710  25.2650889  93.3824262  49.3468352
  24.4035368  93.6805516  49.6385089  25.2913324  93.5994661  48.4149384
  22.0812459 101.9266453  45.7542157  22.5450804 102.2054156  44.9646780
  21.8169257 101.0249897  45.5715248  18.9736540 101.4737934  48.6921921
  19.5437897 101.9025203  48.0539405  19.5644652 101.1920519  49.3906106
  21.0181345  98.0489605  42.5631723  21.7205388  98.5010649  43.0305649
  20.6861973  97.4073424  43.1911616  19.4661706  96.6401362  56.9382932
  18.8360367  97.3217643  57.1718329  19.3597794  96.5284443  55.9936070
  14.7606679  96.3073158  47.8648856  13.9705733  96.5630686  47.3888967
  15.2517926  97.1221496  47.9700897  28.7770488 103.6478397  50.6154137
  29.5987932 103.2458584  50.3336819  28.7732891 103.5446631  51.5670253
  16.7121424  96.6717737  44.8232333  15.9152587  96.7836431  45.3415828
  16.4847016  97.0104389  43.9573223  22.5427092 103.1962440  52.7714847
  22.6071524 103.6582847  53.6073019  21.8338016 102.5659805  52.8997157
  13.0444382  96.5603648  50.2963847  13.2952420  97.4450658  50.5621423
  13.5803930  96.3808250  49.5238939  36.8676481  99.9917145  46.9639108
  36.1140190  99.4224543  46.8083113  37.0024023  99.9579810  47.9109743
  22.2575109 104.8630548  42.6393828  22.1220784 105.7082083  43.0678676
  22.7984922 105.0649825  41.8759762  18.7442449  90.9422128  59.3008183
  18.3509395  90.3888326  59.9755827  19.5608589  91.2532706  59.6914701
  15.7104507 102.3805986  43.2121753  16.2229027 103.1749236  43.3627318
  16.3627220 101.6832276  43.1455354  17.5199392 105.4971742  45.2944506
  17.6966020 106.4189707  45.1065490  18.3156225 105.1830161  45.7238886
  21.6610410  92.3580007  56.8928440  22.4020123  92.9587160  56.8132902
  21.8928333  91.6157644  56.3346482  16.8051748  97.5436374  55.1706669
  16.6905263  96.6421631  55.4713768  15.9496266  97.7900071  54.8191486
  23.8843586 105.4854114  56.7694170  23.4407440 104.6990493  56.4515074
  24.5460799 105.6733265  56.1038061  18.6430707 107.0149916  51.2954848
  19.1938132 106.8866979  50.5231842  17.8042183 107.3144805  50.9449741
  25.9824824 105.7656914  54.7975571  25.9643299 106.5865795  54.3055840
  26.9044744 105.6410989  55.0225712  22.4397878 103.2801044  55.6399079
  22.9726215 102.5189332  55.4098387  21.9111959 102.9874695  56.3823234
  25.6067573  88.3861110  51.1692721  25.2631842  89.2762751  51.0931832
  25.9746536  88.1962767  50.3062306  13.6753424 100.7094640  43.9881323
  14.5128646 101.1191648  43.7715031  13.8531691  99.7694082  43.9581517
  25.5717856  98.3769721  39.6765156  25.0564479  99.1474325  39.9153544
  25.2995164  97.7034857  40.2998218  23.1564967  93.2219421  44.7350395
  22.3006563  92.8326272  44.5556033  23.5691919  93.3011382  43.8750180
  24.6864113  90.7565765  49.1341954  24.1828909  90.7195900  48.3209760
  24.9794720  91.6658507  49.1938611  20.9306999  90.8404494  48.1408136
  21.7959996  90.6447303  47.7814026  20.9984508  90.6114846  49.0677493
  30.5452130 101.1302075  41.6118330  29.7681573 100.7913235  41.1673492
  31.2243611 101.1354698  40.9373295  25.3604159  96.2496813  41.5024938
  25.0554294  96.5642962  42.3535081  26.3134601  96.3278233  41.5452271
  23.8050591 102.4087036  43.1517891  23.2771952 101.6739796  42.8391129
  23.3038093 103.1861712  42.9057860  28.7843437 100.6036057  48.2684938
  28.1267111 101.2935318  48.3565066  29.5883836 100.9932488  48.6118924
  18.5369318  93.0706702  45.5124503  19.1113070  92.8481884  44.7797696
  19.1240301  93.1395397  46.2653104  27.5948896  98.9580429  46.3188880
  28.1080777  99.5910421  46.8210589  28.2450119  98.3581625  45.9532240
  18.8638905  95.1011163  39.5320388  18.0276218  95.4385850  39.8529663
  18.7243675  94.9660143  38.5947525  20.8391986  89.9447951  44.2399572
  20.1856398  89.6296968  43.6156187  20.7972460  89.3223692  44.9659395
  21.9503191 100.2267246  36.1552865  21.0430253  99.9956500  36.3544014
  22.4474223  99.4304866  36.3426846  24.8571270 108.9364754  39.0749551
  24.1832969 109.2396450  39.6834509  25.2437092 109.7393834  38.7255008
  24.0729726  96.4329885  48.5647220  23.1552288  96.6544832  48.4068908
  24.4889870  96.5076195  47.7058927  24.8564774  97.8321300  43.6949900
  25.6036593  98.3442698  43.3857022  25.1256364  97.5105353  44.5554294
  23.1291424 100.3279841  40.6776855  22.2202644 100.0438874  40.7749324
  23.1586508 100.7478920  39.8180161  28.3610692 103.9386431  44.4468022
  27.9073019 103.0977341  44.5033213  27.7304658 104.5747829  44.7842802
  27.3043611  94.8678417  45.6768690  26.5666368  94.3555803  46.0078932
  27.5570385  94.4278798  44.8651967  26.8043631 105.7762927  45.3817840
  27.0966605 106.3367984  44.6630206  27.3142252 106.0691488  46.1370999
  27.4055239  87.6454669  46.2710459  27.7114115  86.7852032  45.9836374
  28.1307843  88.2372289  46.0709453  13.6979595  98.0485355  44.6592057
  13.5003995  97.4554716  43.9343123  13.1426259  97.7437566  45.3767996
  21.6776318  97.9408462  46.7786650  21.7324928  96.9882298  46.7029127
  20.8667520  98.0967901  47.2627948  22.8267512 101.8688585  38.0164933
  22.3886942 101.1524444  37.5570571  23.5677953 102.0964700  37.4550025
  19.6168678  96.5585522  44.5377029  18.8036544  96.8579692  44.9442221
  20.1127673  96.1641210  45.2551511  21.7677256 106.5543278  46.4711294
  21.7253435 106.7804125  45.5419826  22.6839955 106.3206653  46.6197095
  25.2142890  97.0227346  53.3691923  25.5692278  97.2498819  54.2286388
  25.8615021  97.3545723  52.7469178  30.9440627 100.1445782  44.0741252
  30.8058526 100.3347378  43.1462441  30.5876846 100.9065165  44.5309303
  19.1082753  94.1303877  50.1538264  19.7482132  93.9892636  49.4561227
  18.2760284  93.8438390  49.7776866  30.9710007 102.2122309  49.0852523
  31.4046513 102.1197598  49.9335577  31.6841587 102.1879809  48.4472539
  19.8843057 103.4306307  46.2673256  20.6783655 102.9356628  46.0655831
  19.1734749 102.9024171  45.9040962  24.7037901 105.8124403  50.6185624
  24.7574924 106.3815339  51.3863340  23.8352683 105.9826288  50.2539661
  16.1925820  97.5749389  42.3433009  15.2623409  97.5133845  42.5602971
  16.2883292  97.0525342  41.5469650  16.1111370  94.1004202  44.9311251
  16.3718187  95.0149535  44.8220411  16.9328542  93.6328645  45.0807863
  17.5836295  95.5141959  52.1010075  18.2559348  95.3059321  51.4522724
  16.7566081  95.3164045  51.6615307  31.8325556 102.2546010  51.6185409
  32.0261446 103.1591820  51.8644684  31.7326174 101.7953429  52.4523994
  23.4861867  92.1403900  54.1175736  22.8389782  92.8393850  54.0240212
  24.2562882  92.5740044  54.4851984  26.8940665 102.4052752  57.1926289
  26.7426171 102.1763304  56.2756373  26.8845344 103.3623354  57.2057634
  23.6626001  99.9784665  52.1772556  24.5918061 100.1295825  52.0041523
  23.2417031 100.0668686  51.3221202  22.4614333 104.0035329  49.9471093
  22.3225419 103.6354114  50.8197031  21.6728929 104.5182969  49.7755051
  23.0562485 109.1044426  41.2896630  23.2314241 108.6332469  42.1042253
  22.3695273 109.7310192  41.5177891  24.0119548 103.3816932  47.3359931
  23.6769381 103.3417702  48.2317581  23.5123494 102.7161648  46.8630341
  17.9863792  98.7884562  52.8612512  17.8483590  98.0564801  53.4624051
  18.8968716  98.6993462  52.5796700  26.9478740 100.7272967  37.6096991
  26.3307910 100.0019795  37.5130043  26.4795228 101.4882327  37.2664065
  20.6146093  98.5004522  52.3496192  21.3245711  97.8597714  52.3082810
  20.5715401  98.7517416  53.2722373  28.6032871 105.4371875  55.2702771
  28.5445418 104.7531095  54.6033354  29.0052390 106.1790865  54.8183397
  19.3275027  95.4869739  54.1691831  18.7912384  95.0360478  54.8213428
  18.7391735  95.6215648  53.4262296  18.7377286  94.9458391  36.7318295
  17.8606752  94.8247192  36.3680542  19.2135039  94.1544469  36.4797184
  28.6050279 103.4011459  53.5016751  27.7177057 103.0637381  53.6243150
  29.1748830 102.6694490  53.7385516  10.2579426  99.7335551  46.8259802
  10.9450466  99.4197281  46.2380818  10.1027555 100.6376915  46.5527054
  15.0614148  94.6225747  51.2544826  14.9772337  94.0151417  50.5195236
  14.2396854  95.1134765  51.2554322  22.1351432 108.0612911  50.4677994
  22.0621604 108.8667883  50.9797299  21.6928825 108.2604877  49.6426015
  21.9241212 107.2984681  43.9780816  21.1408734 107.8406361  44.0719040
  22.6233957 107.8158661  44.3775057  25.2337862  93.1079311  46.6215021
  25.7306561  92.3549273  46.3016091  24.4624843  93.1443627  46.0558230
  33.0867619  98.8119676  48.2633312  33.0757495  99.6944392  47.8927246
  32.2184999  98.4591227  48.0687850  24.5950116 107.9599745  52.6236153
  25.3078088 108.5947210  52.5512054  24.1040144 108.0563611  51.8076155
  26.3167643 101.8650998  44.1953444  25.3823921 101.9852460  44.0258149
  26.4944311 100.9623465  43.9313454  21.8172831  95.2496694  46.3486706
  21.4470618  94.6967734  47.0367611  22.3131923  94.6454827  45.7961706
  29.7040194  97.7068317  44.7303478  30.1700646  98.5396309  44.6563781
  30.1547694  97.2413299  45.4348737  19.6462029 105.7094189  53.4441724
  20.3471489 106.3430672  53.5971118  19.1757144 106.0508920  52.6837363
  27.7716425 104.0512138  41.7289631  28.0476269 103.9368733  42.6383505
  26.9020924 103.6529623  41.6901804  27.6756857  90.0748904  48.7694380
  26.7619936  90.3053131  48.9376587  28.1049958  90.1587348  49.6208412
  27.4463315  98.2638796  51.2694274  26.7934765  98.5114704  50.6146727
  27.8243695  97.4502934  50.9356751  24.4070489 108.2998489  45.3722444
  24.5892884 107.4820145  45.8350196  25.2303475 108.5166182  44.9347334
  24.7412655 107.2266674  42.6337493  25.2700421 106.7159129  42.0207655
  25.0040874 106.9109205  43.4983026  23.4950888  99.0058607  57.7560311
  22.8191525  98.9052736  58.4262686  24.3178522  98.8497821  58.2196308
  15.2429747 105.2430544  50.3772826  15.8283184 104.4974232  50.5100730
  15.0454586 105.5534500  51.2609490  18.0968402 108.2781791  45.3935269
  17.4278778 108.7627919  44.9099309  17.9581272 108.5251012  46.3078647
   9.8347402  97.8136144  49.0977269   9.8731501  97.2799735  49.8914387
   9.3287695  97.2871349  48.4788247  22.2373671 110.3125535  51.9917927
  22.7891979 110.4757156  52.7567012  22.5779864 110.9029972  51.3197952
  17.2138164  92.6600684  52.5939812  17.2779491  93.5215515  52.1817209
  17.1505285  92.0474686  51.8612170  16.6890437  94.7323817  56.2412846
  17.3162476  94.3500894  56.8550370  15.8318356  94.5138019  56.6068538
  27.0884545 105.1386792  57.8466581  27.6324449 105.7516750  57.3521536
  26.5071390 105.6966371  58.3633594  13.4655980  96.5400246  42.1731201
  13.7609421  95.6310924  42.1198254  12.5644015  96.5187985  41.8512203
  25.3742058 108.2607510  48.9781609  25.2493198 107.4597250  48.4692555
  26.0321149 108.7553703  48.4895579  16.9950227  94.6156243  48.1558749
  16.2736812  95.2292210  48.0166223  17.7843482  95.1514007  48.0775395
  27.4376967 106.0616530  50.6061159  26.4907302 105.9421881  50.5339486
  27.7859740 105.1739028  50.6887421  19.7976540  91.9510669  54.4299401
  20.3210942  92.1972966  55.1925710  19.5788873  92.7830704  54.0102538
  15.1943821  94.2214344  42.2970526  14.8656527  93.3411723  42.1145632
  15.5483192  94.1662012  43.1846915  24.4423400 105.8569246  46.8065511
  24.2948362 104.9285954  46.9873081  25.2676893 105.8789337  46.3222587
  18.3085644  94.5087314  42.6646004  18.6481717  95.0373235  41.9424612
  18.7557765  94.8467720  43.4404570  28.0457522 106.6797805  47.8930384
  28.9704069 106.4740666  47.7554835  27.8772825 106.4314206  48.8019726
  21.0029085  92.8924364  52.1149072  20.6625905  92.0932177  52.5169751
  20.2968091  93.1926075  51.5425905  21.6545557  89.9773677  50.5676395
  22.4771626  89.5034155  50.4455285  21.8983620  90.7564160  51.0675081
  20.2953791  93.0061935  40.8639296  21.0162154  93.3843188  40.3603013
  19.6719096  93.7250812  40.9674274  24.4384914  93.7107084  41.7997629
  24.6548529  94.5931722  41.4986457  23.9578981  93.3193297  41.0703271
  19.1784136  96.6692797  48.3768373  19.0328716  96.9833100  49.2692655
  18.7009339  97.2877698  47.8239272  21.0380519  93.6595345  48.4249263
  21.0242087  92.7636439  48.0881561  21.7552947  93.6666009  49.0587549
  22.8906649  94.0932685  50.4702390  22.6324427  95.0149756  50.4686721
  22.3591690  93.6963120  51.1602854  27.8352838 107.1983473  43.2492476
  28.0089716 106.6329895  42.4966328  28.3281729 107.9984367  43.0671966
  13.6529798  99.2098142  51.3156034  13.1083266  99.9857950  51.4476309
  14.5309148  99.5568946  51.1575156  20.4417415  92.5409726  43.6936833
  20.5633326  91.6126372  43.8927720  20.1519457  92.5548412  42.7815148
  23.3108605  90.2264636  46.8303553  23.3330302  90.2903969  45.8755532
  23.7276664  89.3869145  47.0244059  33.6892229  99.9619896  44.8682775
  34.1323375  99.2127221  44.4701899  32.8118740  99.9530032  44.4856507
  28.8228011 106.5150237  40.3489374  29.5178915 107.1356930  40.5676689
  29.1651161 105.6645588  40.6241752  14.4395820  98.3368038  54.2086191
  13.6977556  98.4850673  54.7950822  14.1188564  98.5976304  53.3452941
  30.7219434 103.9649943  41.8776705  31.2470758 104.3037215  41.1526025
  30.6341786 103.0296958  41.6939839  22.3839482 107.8784016  54.0066581
  22.6926609 107.6333163  54.8789281  23.1814964 108.0830655  53.5185452
  22.4060094 110.0321926  46.2371958  21.9665085 109.5398305  46.9304815
  23.1568211 109.4894893  45.9964033  14.8852433 106.2233467  46.2396586
  15.7110453 105.9237239  45.8595229  14.5346485 105.4541089  46.6886375
  19.8533967 105.5759935  48.3094260  19.2313976 104.9130640  48.0096487
  20.5238833 105.6021067  47.6267907  13.0861038 104.1419793  47.1985520
  12.2492947 103.7141967  47.0169521  13.0584684 104.3352236  48.1356311
  19.9258494  94.0541723  57.9026766  19.9746650  94.9303846  57.5204535
  20.4681008  93.5119116  57.3298409  30.4113340 104.5982846  57.1827903
  29.6208883 104.5806985  56.6432402  30.1746694 105.1371140  57.9376939
  30.5311215 101.4475313  54.4960631  30.5809220 101.2825320  55.4376154
  30.4225138 100.5802572  54.1058512  19.4147473 104.1263858  41.7852720
  19.5635594 104.8099323  41.1319393  20.2213917 104.1068948  42.3002176
  27.8214977  97.4306241  55.8119938  28.7224840  97.2912705  55.5203936
  27.8962952  97.5960695  56.7518115  22.1557782  94.8073095  54.6573124
  21.2861092  95.1006661  54.3855713  22.3917263  95.3913540  55.3780388
  32.0329412 103.8672254  54.7402653  31.7414220 104.2302235  55.5766114
  31.4201543 103.1539262  54.5615985  33.2325094 101.4325134  47.2605223
  34.0671985 101.8714938  47.4242783  33.3684223 100.9563787  46.4413469
  30.2816600  98.9904869  53.2082711  30.7570721  99.1832515  52.4001562
  29.3582165  99.0464055  52.9626094  17.1700106 100.1529036  42.7913789
  16.9246148  99.2491366  42.9893999  17.3396021 100.1546186  41.8493267
  24.8596816  91.0252712  52.1738545  25.3778760  91.7613739  51.8485033
  24.5051949  91.3316706  53.0085304  16.4395754  95.8857393  40.2899950
  15.7464999  95.9601748  39.6339986  16.1947506  95.1217737  40.8121467
  25.1109410  87.4452995  47.6939441  25.3911164  86.7776184  48.3199868
  25.8960017  87.6382090  47.1814105  22.9142879 106.6211989  39.2564467
  22.3416846 107.2402176  38.8034939  23.4875673 107.1711350  39.7904389
  28.9818269  95.8670629  51.4411016  29.9335692  95.9668726  51.4623240
  28.8121719  95.0748897  51.9509101  27.0032648  92.9526212  51.6270417
  26.4082580  93.2331225  50.9316906  26.7182345  93.4420113  52.3987158
  26.1340139 106.9049139  40.3873050  27.0670812 106.8394701  40.5905925
  26.0463352 107.7405406  39.9287582  28.7628155 106.2215009  37.3476997
  28.6841787 105.8874873  38.2412755  29.5837822 106.7136777  37.3468470
  31.4606347  99.0876748  50.5553316  31.4282667  98.1492749  50.7413000
  32.0706970  99.1660785  49.8219141  23.2989677  97.9572801  36.5980520
  24.2448782  97.8279010  36.6668938  22.9203922  97.2187463  37.0749948
  31.6100835  95.8787792  50.6011599  31.0939884  95.0946249  50.4141528
  32.4940784  95.5506509  50.7658119  29.2711562  89.6228807  46.5607412
  29.0736383  89.3143896  47.4450744  29.8811268  90.3490446  46.6905342
  37.2782896 100.1492755  49.6959353  38.0086285  99.8878043  50.2567056
  36.6689842  99.4121477  49.7361421  35.3598194  98.2900618  50.2933804
  34.6331357  98.1556583  49.6850296  34.9445480  98.5977447  51.0990522
  23.1828370 102.0090548  58.0581177  24.1031379 102.1869147  58.2521223
  23.1477953 101.0646593  57.9060876  21.4832595  95.8822778  36.5335405
  20.5764050  95.5855891  36.6098119  21.7608576  95.5852596  35.6669691
  12.4010535  97.2029141  46.9834452  12.0813319  96.3494449  46.6908826
  11.8543963  97.4177719  47.7392419  16.1790443  99.9191582  50.7003958
  16.3976452 100.8508690  50.7191992  16.5916216  99.5599557  51.4858762
  23.0994660  90.4259668  42.6879647  22.2895389  90.0806753  43.0634893
  23.7879077  90.1167211  43.2767258  25.0285209  89.5037714  44.3103943
  25.5816247  89.9233168  44.9693966  25.2655295  88.5773462  44.3526899
  21.0518308  95.4924788  60.0906707  20.9515035  96.4419145  60.0218798
  20.8339850  95.1643027  59.2182777  20.2531379  92.7409713  36.6747384
  21.1150543  93.0664611  36.9343202  20.4381723  91.9541209  36.1620450
  12.2698795 100.8232053  48.9527573  11.5762266 100.4086006  48.4397528
  13.0171786 100.8652589  48.3560992  28.4064016  91.6138240  43.8182607
  27.8262685  92.2723044  43.4360660  28.1399948  90.7915584  43.4070025
  26.8567582  91.0143297  46.0203928  27.3567360  91.1259832  45.2118247
  27.5003190  90.7104350  46.6604736  20.9149578  98.9221927  58.9071769
  20.4316660  99.7222287  59.1135658  21.0010517  98.9329872  57.9539213
  14.1835538 100.7550307  46.8293588  14.1606226 100.8537994  45.8775471
  14.4936174 101.6015457  47.1510754  16.8422915 102.8126462  50.9440202
  17.7966169 102.7810404  50.8770134  16.6435439 102.3517085  51.7590428
  17.4322298 101.3827578  53.5111000  18.2515187 101.8771656  53.5345837
  17.7059105 100.4659546  53.4828568  27.1888894  93.7738330  42.8738956
  26.3014749  94.0587981  42.6559150  27.6042883  93.6132093  42.0266233
  30.5403430  93.7984851  46.5893295  31.3163820  94.2881303  46.8617912
  29.8151564  94.2242905  47.0465164  32.9775989  94.5112470  47.6467236
  33.5720479  94.2708206  46.9360544  33.0502572  93.7919601  48.2740772
  26.3332107 103.5383005  36.9686976  27.0367957 103.7433007  37.5844631
  25.6094756 104.1059766  37.2336059  27.1629918  99.2892866  43.0889246
  27.1065119  99.7461417  42.2496878  27.7158260  98.5283550  42.9112089
  30.9734723  95.0782598  43.9139365  30.7171658  94.6779233  44.7447573
  30.3487591  95.7926392  43.7889504  35.2847061  97.8178671  46.4210657
  34.7246619  97.8871860  47.1942219  34.6790565  97.6419656  45.7010153
  28.2418805 103.9765534  39.0185436  29.0764409 103.5446732  38.8362910
  28.0803148 103.8047547  39.9462330  27.8964697 100.4797647  40.3841775
  27.8413501 100.3141919  39.4430219  27.2710752 101.1873680  40.5403965
  12.6857212  95.7165711  54.2103197  13.3316075  95.2064665  54.6990422
  12.4774363  96.4534393  54.7846622  25.2110604 102.7846559  59.7095338
  26.0801764 102.9587211  59.3481973  24.7317355 103.6040976  59.5871067
  21.2060822  89.9805756  39.9627093  21.1939492  90.9247596  40.1195364
  22.0984244  89.7975901  39.6686555  19.3796784 109.9043660  51.3884771
  20.2824031 109.9367270  51.7051266  19.1534154 108.9744111  51.4031107
  21.1350386 108.6574646  48.0494850  20.1846017 108.6576508  47.9359222
  21.4382872 107.9107381  47.5330885  25.0212942  86.5748533  44.2173030
  24.2545338  86.0207019  44.3629713  25.4323647  86.6470401  45.0787182
  17.0254703  92.8633329  58.3078211  17.8886164  92.5070133  58.5181536
  16.4520113  92.5247223  58.9953616  36.8703080 114.4935185  49.1140612
  37.5081490 114.3741932  48.4103953  36.7523923 115.4416029  49.1728565
  33.6792786 114.4462613  49.0502137  33.3411298 114.3303678  48.1622672
  34.5482554 114.0453778  49.0303143  34.1612569 115.5997465  55.0088343
  34.1501210 115.2050263  54.1368846  34.3233208 114.8663537  55.6022114
  31.3801065 113.2150860  38.3819077  31.6326586 112.6932382  37.6202540
  30.4425624 113.0517006  38.4845761  36.4244348 112.2186639  46.1893820
  37.2107437 111.8006062  45.8384238  36.6883053 113.1232731  46.3575469
  41.8252775 112.1561872  47.0926799  42.5577947 111.5861089  47.3264628
  41.0692131 111.7683472  47.5333305  33.4428895 114.5789113  44.2890141
  33.0787102 114.0519734  45.0003063  34.2996011 114.1887582  44.1156627
  39.3478196 105.8683446  51.5521408  39.0161520 106.7378857  51.3282623
  38.7523809 105.5519730  52.2315438  33.0834382 109.6079013  39.2851490
  33.2508784 110.4759250  39.6521961  32.8931551 109.7706295  38.3612779
  39.2406859 110.5878532  48.6314758  38.3323736 110.5193941  48.3373519
  39.1894455 111.0650477  49.4596583  33.0623603 112.0636671  40.2698157
  32.9423228 112.5093721  41.1083637  32.3676191 112.4121988  39.7111695
  33.3147725 112.0068178  56.5749655  32.5381059 112.5662098  56.5652520
  33.9538288 112.4924961  57.0964525  41.1068505 108.7894971  50.4092632
  40.4642886 109.0827504  49.7632426  40.6023434 108.6747891  51.2145828
  38.7608669 112.5358144  41.0978491  39.6726525 112.7685531  40.9226188
  38.2518316 113.1195188  40.5353569  33.3980507 111.8955378  52.1073340
  34.2441702 112.3194792  52.2507989  33.3379144 111.2389003  52.8011903
  36.5479952 109.5559747  53.7654514  36.3040884 110.3101807  53.2288790
  36.8239883 109.9345094  54.6001761  38.5018415 116.0998359  52.4431780
  38.7135310 116.7430119  51.7666161  38.4548163 115.2660676  51.9753710
  36.1044644 108.7116180  49.3468352  35.2429123 109.0097433  49.6385089
  36.1307078 108.9286579  48.4149384  31.8575099 113.3781523  42.5631723
  32.5599143 113.8302566  43.0305649  31.5255728 112.7365342  43.1911616
  30.3055461 111.9693279  56.9382932  29.6754121 112.6509560  57.1718329
  30.1991549 111.8576361  55.9936070  25.6000433 111.6365075  47.8648856
  24.8099487 111.8922604  47.3888967  26.0911681 112.4513413  47.9700897
  27.5515179 112.0009655  44.8232333  26.7546342 112.1128349  45.3415828
  27.3240771 112.3396307  43.9573223  47.7070236 115.3209063  46.9639108
  46.9533944 114.7516461  46.8083113  47.8417777 115.2871728  47.9109743
  29.5836204 106.2714045  59.3008183  29.1903149 105.7180244  59.9755827
  30.4002344 106.5824624  59.6914701  32.5004165 107.6871924  56.8928440
  33.2413878 108.2879077  56.8132902  32.7322087 106.9449562  56.3346482
  36.4461328 103.7153027  51.1692721  36.1025597 104.6054669  51.0931832
  36.8140290 103.5254685  50.3062306  36.4111610 113.7061638  39.6765156
  35.8958234 114.4766243  39.9153544  36.1388919 113.0326774  40.2998218
  33.9958721 108.5511339  44.7350395  33.1400318 108.1618189  44.5556033
  34.4085673 108.6303300  43.8750180  35.5257868 106.0857682  49.1341954
  35.0222663 106.0487818  48.3209760  35.8188475 106.9950425  49.1938611
  31.7700754 106.1696412  48.1408136  32.6353751 105.9739221  47.7814026
  31.8378263 105.9406764  49.0677493  41.3845884 116.4593993  41.6118330
  40.6075327 116.1205152  41.1673492  42.0637365 116.4646616  40.9373295
  36.1997913 111.5788730  41.5024938  35.8948049 111.8934880  42.3535081
  37.1528356 111.6570150  41.5452271  39.6237191 115.9327974  48.2684938
  38.9660866 116.6227236  48.3565066  40.4277590 116.3224406  48.6118924
  29.3763073 108.3998620  45.5124503  29.9506825 108.1773802  44.7797696
  29.9634055 108.4687315  46.2653104  38.4342650 114.2872347  46.3188880
  38.9474532 114.9202339  46.8210589  39.0843874 113.6873542  45.9532240
  29.7032660 110.4303081  39.5320388  28.8669972 110.7677768  39.8529663
  29.5637430 110.2952061  38.5947525  31.6785741 105.2739869  44.2399572
  31.0250153 104.9588886  43.6156187  31.6366215 104.6515609  44.9659395
  34.9123481 111.7621802  48.5647220  33.9946042 111.9836749  48.4068908
  35.3283625 111.8368113  47.7058927  35.6958529 113.1613218  43.6949900
  36.4430348 113.6734615  43.3857022  35.9650118 112.8397271  44.5554294
  38.1437366 110.1970334  45.6768690  37.4060123 109.6847721  46.0078932
  38.3964139 109.7570716  44.8651967  38.2448993 102.9746586  46.2710459
  38.5507870 102.1143950  45.9836374  38.9701598 103.5664207  46.0709453
  32.5170073 113.2700379  46.7786650  32.5718683 112.3174216  46.7029127
  31.7061275 113.4259819  47.2627948  30.4562433 111.8877439  44.5377029
  29.6430298 112.1871610  44.9442221  30.9521427 111.4933128  45.2551511
  36.0536645 112.3519264  53.3691923  36.4086032 112.5790737  54.2286388
  36.7008776 112.6837640  52.7469178  41.7834381 115.4737700  44.0741252
  41.6452280 115.6639296  43.1462441  41.4270600 116.2357082  44.5309303
  29.9476508 109.4595795  50.1538264  30.5875887 109.3184554  49.4561227
  29.1154038 109.1730308  49.7776866  41.8103761 117.5414227  49.0852523
  42.2440268 117.4489516  49.9335577  42.5235342 117.5171727  48.4472539
  27.0319575 112.9041307  42.3433009  26.1017163 112.8425762  42.5602971
  27.1277047 112.3817260  41.5469650  26.9505124 109.4296120  44.9311251
  27.2111941 110.3441453  44.8220411  27.7722296 108.9620562  45.0807863
  28.4230049 110.8433877  52.1010075  29.0953103 110.6351239  51.4522724
  27.5959836 110.6455963  51.6615307  42.6719311 117.5837927  51.6185409
  42.8655201 118.4883738  51.8644684  42.5719929 117.1245346  52.4523994
  34.3255621 107.4695818  54.1175736  33.6783536 108.1685767  54.0240212
  35.0956637 107.9031962  54.4851984  34.5019756 115.3076583  52.1772556
  35.4311816 115.4587742  52.0041523  34.0810786 115.3960604  51.3221202
  37.7872494 116.0564884  37.6096991  37.1701665 115.3311712  37.5130043
  37.3188983 116.8174244  37.2664065  31.4539847 113.8296439  52.3496192
  32.1639466 113.1889631  52.3082810  31.4109155 114.0809334  53.2722373
  30.1668781 110.8161657  54.1691831  29.6306138 110.3652396  54.8213428
  29.5785490 110.9507566  53.4262296  29.5771040 110.2750308  36.7318295
  28.7000507 110.1539109  36.3680542  30.0528793 109.4836387  36.4797184
  25.9007902 109.9517665  51.2544826  25.8166091 109.3443334  50.5195236
  25.0790609 110.4426683  51.2554322  36.0731616 108.4371228  46.6215021
  36.5700316 107.6841191  46.3016091  35.3018598 108.4735545  46.0558230
  43.9261374 114.1411594  48.2633312  43.9151250 115.0236309  47.8927246
  43.0578753 113.7883145  48.0687850  32.6566585 110.5788611  46.3486706
  32.2864373 110.0259652  47.0367611  33.1525678 109.9746745  45.7961706
  40.5433948 113.0360235  44.7303478  41.0094401 113.8688226  44.6563781
  40.9941449 112.5705216  45.4348737  38.5150611 105.4040822  48.7694380
  37.6013691 105.6345049  48.9376587  38.9443713 105.4879266  49.6208412
  38.2857070 113.5930714  51.2694274  37.6328520 113.8406621  50.6146727
  38.6637450 112.7794852  50.9356751  34.3344643 114.3350525  57.7560311
  33.6585280 114.2344654  58.4262686  35.1572277 114.1789739  58.2196308
  28.0531919 107.9892602  52.5939812  28.1173245 108.8507433  52.1817209
  27.9899039 107.3766604  51.8612170  27.5284191 110.0615735  56.2412846
  28.1556230 109.6792812  56.8550370  26.6712110 109.8429937  56.6068538
  24.3049734 111.8692164  42.1731201  24.6003175 110.9602842  42.1198254
  23.4037770 111.8479903  41.8512203  27.8343981 109.9448160  48.1558749
  27.1130567 110.5584128  48.0166223  28.6237237 110.4805925  48.0775395
  30.6370295 107.2802587  54.4299401  31.1604696 107.5264883  55.1925710
  30.4182628 108.1122622  54.0102538  26.0337576 109.5506261  42.2970526
  25.7050282 108.6703640  42.1145632  26.3876946 109.4953930  43.1846915
  29.1479399 109.8379231  42.6646004  29.4875471 110.3665152  41.9424612
  29.5951519 110.1759637  43.4404570  31.8422840 108.2216282  52.1149072
  31.5019660 107.4224095  52.5169751  31.1361846 108.5217993  51.5425905
  32.4939311 105.3065594  50.5676395  33.3165381 104.8326073  50.4455285
  32.7377375 106.0856078  51.0675081  31.1347546 108.3353853  40.8639296
  31.8555908 108.7135106  40.3603013  30.5112850 109.0542730  40.9674274
  35.2778669 109.0399002  41.7997629  35.4942283 109.9223640  41.4986457
  34.7972736 108.6485215  41.0703271  30.0177890 111.9984715  48.3768373
  29.8722471 112.3125018  49.2692655  29.5403094 112.6169615  47.8239272
  31.8774273 108.9887263  48.4249263  31.8635842 108.0928356  48.0881561
  32.5946701 108.9957927  49.0587549  33.7300404 109.4224603  50.4702390
  33.4718182 110.3441674  50.4686721  33.1985444 109.0255038  51.1602854
  31.2811169 107.8701643  43.6936833  31.4027080 106.9418289  43.8927720
  30.9913211 107.8840329  42.7815148  34.1502359 105.5556554  46.8303553
  34.1724056 105.6195887  45.8755532  34.5670418 104.7161062  47.0244059
  44.5285984 115.2911813  44.8682775  44.9717130 114.5419138  44.4701899
  43.6512494 115.2821950  44.4856507  30.7652249 109.3833641  57.9026766
  30.8140404 110.2595763  57.5204535  31.3074763 108.8411034  57.3298409
  41.3704969 116.7767230  54.4960631  41.4202974 116.6117238  55.4376154
  41.2618893 115.9094489  54.1058512  38.6608732 112.7598158  55.8119938
  39.5618594 112.6204623  55.5203936  38.7356706 112.9252613  56.7518115
  32.9951537 110.1365013  54.6573124  32.1254846 110.4298579  54.3855713
  33.2311017 110.7205458  55.3780388  44.0718848 116.7617052  47.2605223
  44.9065740 117.2006856  47.4242783  44.2077977 116.2855705  46.4413469
  41.1210354 114.3196786  53.2082711  41.5964476 114.5124433  52.4001562
  40.1975920 114.3755972  52.9626094  35.6990571 106.3544630  52.1738545
  36.2172515 107.0905657  51.8485033  35.3445704 106.6608623  53.0085304
  27.2789508 111.2149311  40.2899950  26.5858753 111.2893666  39.6339986
  27.0341260 110.4509655  40.8121467  35.9503165 102.7744912  47.6939441
  36.2304919 102.1068102  48.3199868  36.7353772 102.9674008  47.1814105
  39.8212023 111.1962546  51.4411016  40.7729446 111.2960644  51.4623240
  39.6515474 110.4040815  51.9509101  37.8426403 108.2818130  51.6270417
  37.2476335 108.5623142  50.9316906  37.5576099 108.7712031  52.3987158
  42.3000101 114.4168666  50.5553316  42.2676421 113.4784667  50.7413000
  42.9100725 114.4952703  49.8219141  34.1383432 113.2864719  36.5980520
  35.0842537 113.1570927  36.6668938  33.7597677 112.5479381  37.0749948
  42.4494590 111.2079710  50.6011599  41.9333638 110.4238166  50.4141528
  43.3334538 110.8798426  50.7658119  40.1105317 104.9520725  46.5607412
  39.9130138 104.6435813  47.4450744  40.7205022 105.6782364  46.6905342
  48.1176651 115.4784673  49.6959353  48.8480039 115.2169961  50.2567056
  47.5083596 114.7413395  49.7361421  46.1991948 113.6192536  50.2933804
  45.4725112 113.4848501  49.6850296  45.7839235 113.9269364  51.0990522
  32.3226349 111.2114696  36.5335405  31.4157805 110.9147808  36.6098119
  32.6002330 110.9144514  35.6669691  33.9388415 105.7551585  42.6879647
  33.1289143 105.4098670  43.0634893  34.6272832 105.4459129  43.2767258
  35.8678963 104.8329632  44.3103943  36.4210002 105.2525085  44.9693966
  36.1049050 103.9065380  44.3526899  31.8912062 110.8216706  60.0906707
  31.7908789 111.7711063  60.0218798  31.6733604 110.4934945  59.2182777
  31.0925134 108.0701631  36.6747384  31.9544298 108.3956529  36.9343202
  31.2775478 107.2833127  36.1620450  39.2457770 106.9430157  43.8182607
  38.6656439 107.6014961  43.4360660  38.9793703 106.1207502  43.4070025
  37.6961337 106.3435215  46.0203928  38.1961115 106.4551749  45.2118247
  38.3396945 106.0396268  46.6604736  38.0282648 109.1030248  42.8738956
  37.1408503 109.3879898  42.6559150  38.4436637 108.9424011  42.0266233
  41.3797184 109.1276769  46.5893295  42.1557575 109.6173221  46.8617912
  40.6545319 109.5534823  47.0465164  43.8169743 109.8404388  47.6467236
  44.4114234 109.6000124  46.9360544  43.8896327 109.1211518  48.2740772
  38.0023672 114.6184784  43.0889246  37.9458873 115.0753335  42.2496878
  38.5552014 113.8575468  42.9112089  41.8128478 110.4074515  43.9139365
  41.5565412 110.0071151  44.7447573  41.1881346 111.1218309  43.7889504
  46.1240816 113.1470589  46.4210657  45.5640374 113.2163778  47.1942219
  45.5184319 112.9711573  45.7010153  38.7358451 115.8089565  40.3841775
  38.6807255 115.6433836  39.4430219  38.1104507 116.5165598  40.5403965
  23.5250966 111.0457629  54.2103197  24.1709830 110.5356583  54.6990422
  23.3168117 111.7826311  54.7846622  32.0454577 105.3097674  39.9627093
  32.0333247 106.2539514  40.1195364  32.9377999 105.1267819  39.6686555
  35.8606696 101.9040450  44.2173030  35.0939092 101.3498937  44.3629713
  36.2717401 101.9762319  45.0787182  27.8648457 108.1925246  58.3078211
  28.7279919 107.8362051  58.5181536  27.2913868 107.8539141  58.9953616
  47.2855082 119.0444945  51.1692721  46.9419351 119.9346587  51.0931832
  47.6534045 118.8546603  50.3062306  49.0842748 118.3038504  46.2710459
  49.3901624 117.4435868  45.9836374  49.8095352 118.8956124  46.0709453
  46.7896919 118.1036830  47.6939441  47.0698673 117.4360019  48.3199868
  47.5747526 118.2965926  47.1814105  50.9499071 120.2812643  46.5607412
  50.7523892 119.9727731  47.4450744  51.5598777 121.0074282  46.6905342
  46.7000451 117.2332368  44.2173030  45.9332847 116.6790855  44.3629713
  47.1111156 117.3054237  45.0787182   4.3495219  31.0103515  33.6884415
   3.5958928  30.4410913  33.5328419   4.4842760  30.9766179  34.6355050
   0.7143832  32.4511503  33.9850530   1.5490723  32.8901307  34.1488090
   0.8502960  31.9750157  33.1658775   4.7601634  31.1679125  36.4204659
   5.4905023  30.9064413  36.9812363   4.1508580  30.4307847  36.4606727
   2.8416931  29.3086987  37.0179111   2.1150095  29.1742952  36.4095602
   2.4264218  29.6163816  37.8235829   0.4594726  25.5298840  34.3712542
   1.0539217  25.2894576  33.6605850   0.5321310  24.8105970  34.9986078
   2.7665799  28.8365041  33.1455963   2.2065357  28.9058230  33.9187525
   2.1609302  28.6606025  32.4255460   4.3521818  45.5121554  35.8385919
   4.9900227  45.3928302  35.1349259   4.2342660  46.4602398  35.8973871
   1.1611524  45.4648983  35.7747444   0.8230035  45.3490047  34.8867979
   2.0301292  45.0640148  35.7548450   1.6431307  46.6183834  41.7333649
   1.6319948  46.2236633  40.8614153   1.8051946  45.8849907  42.3267421
   2.5997898  50.9855427  27.0758800   1.9485878  51.5709507  26.6892813
   3.3942261  51.5161622  27.1353837   3.9063086  43.2373008  32.9139127
   4.6926175  42.8192431  32.5629544   4.1701790  44.1419100  33.0820776
   4.0773163  48.6745859  27.6127784   3.4418996  48.7480485  28.3248689
   3.7470570  49.2639457  26.9346863   9.3071513  43.1748241  33.8172106
  10.0396685  42.6047458  34.0509935   8.5510869  42.7869842  34.2578611
   0.9247633  45.5975483  31.0135448   0.5605840  45.0706104  31.7248370
   1.7814749  45.2073952  30.8401934   6.8296933  36.8869816  38.2766714
   6.4980258  37.7565227  38.0527929   6.2342547  36.5706100  38.9560745
   3.3228453  49.0882362  37.6762627   3.0229176  49.9907400  37.5678434
   2.9779513  48.8214545  38.5283780   6.7225597  41.6064902  35.3560064
   5.8142474  41.5380310  35.0618825   6.6713193  42.0836847  36.1841890
   8.5887243  39.8081340  37.1337938   7.9461623  40.1013873  36.4877733
   8.0842172  39.6934261  37.9391135   6.2427407  43.5544513  27.8223797
   7.1545263  43.7871900  27.6471495   5.7337054  44.1381558  27.2598876
   4.5268175  47.9769141  41.4585090   4.9351531  47.5351552  40.7139722
   3.8045436  47.4021769  41.7119283   0.8799245  42.9141748  38.8318647
   1.7260440  43.3381162  38.9753296   0.8197882  42.2575372  39.5257210
   4.8496989  48.5370332  35.2137379   4.2205852  48.7016046  34.5113447
   4.4622651  48.9511941  35.9848343   8.7286221  49.4724770  32.5681743
   8.0437259  49.8523671  32.0178776   8.8130070  50.0820096  33.3013690
   4.0298690  40.5746116  40.4899821   3.7859622  41.3288177  39.9534096
   4.3058620  40.9531464  41.3247068   5.9837153  47.1184729  39.1677086
   6.1954048  47.7616489  38.4911467   5.9366901  46.2847045  38.6999016
   3.5863382  39.7302549  36.0713658   2.7247861  40.0283803  36.3630396
   3.6125816  39.9472948  35.1394691   7.0982981  49.9956684  37.3399444
   7.9200424  49.5936871  37.0582125   7.0945383  49.8924918  38.2915559
  15.1888974  46.3395433  33.6884415  14.4352682  45.7702831  33.5328419
  15.3236515  46.3058097  34.6355050   0.5787602  51.2108835  29.3639134
   0.4433277  52.0560371  29.7923982   1.1197414  51.4128113  28.6005068
   2.2056078  51.8332401  43.4939476   1.7619932  51.0468780  43.1760381
   2.8673292  52.0211552  42.8283367   4.3037316  52.1135201  41.5220878
   4.2855792  52.9344082  41.0301147   5.2257236  51.9889277  41.7471019
   3.9280065  34.7339397  37.8938028   3.5844335  35.6241038  37.8177138
   4.2959028  34.5441054  37.0307613   3.8930348  44.7248008  26.4010463
   3.3776971  45.4952613  26.6398850   3.6207656  44.0513144  27.0243524
   1.4777459  39.5697709  31.4595701   0.6219055  39.1804559  31.2801340
   1.8904411  39.6489669  30.5995487   3.0076606  37.1044052  35.8587261
   2.5041401  37.0674187  35.0455066   3.3007213  38.0136795  35.9183918
   8.8664622  47.4780363  28.3363636   8.0894065  47.1391522  27.8918799
   9.5456103  47.4832986  27.6618601   3.6816651  42.5975100  28.2270244
   3.3766787  42.9121249  29.0780387   4.6347093  42.6756520  28.2697577
   2.1263083  48.7565323  29.8763198   1.5984445  48.0218083  29.5636436
   1.6250586  49.5340000  29.6303166   7.1055929  46.9514344  34.9930244
   6.4479603  47.6413605  35.0810373   7.9096328  47.3410776  35.3364231
   5.9161388  45.3058716  33.0434186   6.4293270  45.9388708  33.5455896
   6.5662612  44.7059912  32.6777546   3.1783762  55.2843041  25.7994857
   2.5045461  55.5874738  26.4079815   3.5649584  56.0872121  25.4500314
   2.3942219  42.7808172  35.2892527   1.4764780  43.0023119  35.1314215
   2.8102362  42.8554483  34.4304234   3.1777266  44.1799588  30.4195207
   3.9249085  44.6920985  30.1102329   3.4468856  43.8583640  31.2799601
   1.4503917  46.6758128  27.4022161   0.5415136  46.3917161  27.4994631
   1.4799000  47.0957207  26.5425468   6.6823184  50.2864718  31.1713329
   6.2285511  49.4455628  31.2278519   6.0517151  50.9226116  31.5088109
   5.6256104  41.2156704  32.4013996   4.8878860  40.7034090  32.7324239
   5.8782877  40.7757086  31.5897273   5.1256123  52.1241215  32.1063147
   5.4179098  52.6846272  31.3875513   5.6354744  52.4169776  32.8616306
   5.7267731  33.9932956  32.9955766   6.0326608  33.1330319  32.7081681
   6.4520336  34.5850576  32.7954759   1.1480004  48.2166872  24.7410240
   0.7099434  47.5002731  24.2815877   1.8890445  48.4442987  24.1795331
   3.5355382  43.3705633  40.0937229   3.8904770  43.5977106  40.9531695
   4.1827514  43.7024010  39.4714485   9.2653119  46.4924069  30.7986558
   9.1271018  46.6825665  29.8707748   8.9089338  47.2543452  31.2554610
   9.2922499  48.5600596  35.8097830   9.7259006  48.4675885  36.6580884
  10.0054080  48.5358097  35.1717846   3.0250394  52.1602690  37.3430931
   3.0787416  52.7293627  38.1108646   2.1565175  52.3304575  36.9784968
  10.1538048  48.6024297  38.3430715  10.3473938  49.5070107  38.5889990
  10.0538667  48.1431716  39.1769300   1.8074359  38.4882187  40.8421043
   1.1602274  39.1872137  40.7485519   2.5775375  38.9218331  41.2097291
   5.2153157  48.7531040  43.9171596   5.0638663  48.5241591  43.0001680
   5.2057837  49.7101641  43.9302941   1.9838493  46.3262952  38.9017862
   2.9130553  46.4774112  38.7286830   1.5629523  46.4146973  38.0466509
   1.3774977  55.4522713  28.0141937   1.5526733  54.9810756  28.8287559
   0.6907765  56.0788479  28.2423197   2.3332040  49.7295219  34.0605238
   1.9981873  49.6895989  34.9562888   1.8335986  49.0639935  33.5875648
   5.2691232  47.0751254  24.3342297   4.6520403  46.3498082  24.2375350
   4.8007721  47.8360614  23.9909372   6.9245364  51.7850162  41.9948078
   6.8657910  51.1009382  41.3278661   7.3264882  52.5269152  41.5428704
   6.9262771  49.7489746  40.2262057   6.0389550  49.4115668  40.3488456
   7.4961322  49.0172777  40.4630823   3.5550354  39.4557598  33.3460328
   4.0519054  38.7027560  33.0261398   2.7837336  39.4921915  32.7803537
  11.4080112  45.1597963  34.9878619  11.3969988  46.0422679  34.6172552
  10.5397491  44.8069514  34.7933156   2.9162608  54.3078032  39.3481459
   3.6290580  54.9425497  39.2757361   2.4252637  54.4041898  38.5321461
   4.6380135  48.2129285  30.9198751   3.7036414  48.3330748  30.7503455
   4.8156803  47.3101752  30.6558761   8.0252686  44.0546604  31.4548785
   8.4913138  44.8874596  31.3809088   8.4760187  43.5891586  32.1594044
   6.0928917  50.3990426  28.4534937   6.3688761  50.2847020  29.3628811
   5.2233416  50.0007911  28.4147110   5.9969349  36.4227191  35.4939686
   5.0832429  36.6531418  35.6621893   6.4262450  36.5065635  36.3453719
   5.7675807  44.6117083  37.9939580   5.1147258  44.8592991  37.3392033
   6.1456187  43.7981222  37.6602058   2.7282981  54.6476777  32.0967751
   2.9105376  53.8298432  32.5595503   3.5515967  54.8644469  31.6592641
   3.0625147  53.5744962  29.3582799   3.5912913  53.0637416  28.7452961
   3.3253366  53.2587492  30.2228332   1.8163380  45.3536894  44.4805618
   1.1404017  45.2531024  45.1507993   2.6391014  45.1976108  44.9441615
   0.5586163  56.6603822  38.7163234   1.1104471  56.8235443  39.4812319
   0.8992357  57.2508260  38.0443258   5.4097038  51.4865079  44.5711888
   5.9536942  52.0995038  44.0766843   4.8283882  52.0444658  45.0878901
   3.6954551  54.6085797  35.7026916   3.5705690  53.8075537  35.1937861
   4.3533642  55.1031991  35.2140886   5.7589459  52.4094817  37.3306466
   4.8119795  52.2900169  37.2584793   6.1072232  51.5217315  37.4132727
   2.7635892  52.2047534  33.5310818   2.6160855  51.2764241  33.7118388
   3.5889386  52.2267624  33.0467893   6.3670014  53.0276092  34.6175691
   7.2916562  52.8218954  34.4800142   6.1985317  52.7792494  35.5265032
   2.7597407  40.0585371  28.5242935   2.9761021  40.9410009  28.2231763
   2.2791474  39.6671585  27.7948577   1.2119142  40.4410973  37.1947697
   0.9536919  41.3628043  37.1932027   0.6804182  40.0441407  37.8848161
   6.1565330  53.5461760  29.9737782   6.3302208  52.9808182  29.2211635
   6.6494222  54.3462655  29.7917272   1.6321097  36.5742923  33.5548859
   1.6542794  36.6382256  32.6000839   2.0489156  35.7347432  33.7489366
  12.0104721  46.3098183  31.5928082  12.4535868  45.5605508  31.1947205
  11.1331232  46.3008319  31.2101814   7.1440503  52.8628524  27.0734681
   7.8391407  53.4835217  27.2921995   7.4863653  52.0123875  27.3487058
   9.0431926  50.3128230  28.6022011   9.5683250  50.6515503  27.8771331
   8.9554278  49.3775245  28.4185146   0.7051975  54.2262303  40.7311888
   1.0139101  53.9811450  41.6034588   1.5027457  54.4308942  40.2430758
   8.7325832  50.9461133  43.9073209   7.9421376  50.9285272  43.3677709
   8.4959187  51.4849427  44.6622246   8.8523707  47.7953600  41.2205938
   8.9021712  47.6303607  42.1621461   8.7437630  46.9280859  40.8303819
   6.1427469  43.7784528  42.5365245   7.0437332  43.6390993  42.2449242
   6.2175444  43.9438983  43.4763422  10.3541904  50.2150541  41.4647959
  10.0626712  50.5780522  42.3011420   9.7414035  49.5017550  41.2861291
  11.5537586  47.7803421  33.9850530  12.3884478  48.2193225  34.1488090
  11.6896715  47.3042074  33.1658775   8.6029092  45.3383156  39.9328017
   9.0783214  45.5310802  39.1246869   7.6794657  45.3942342  39.6871401
   3.1809309  37.3731000  38.8983851   3.6991252  38.1092026  38.5730340
   2.8264441  37.6794993  39.7330610   3.4321903  33.7931282  34.4184748
   3.7123657  33.1254471  35.0445174   4.2172510  33.9860378  33.9059412
   1.2355371  52.9690276  25.9809774   0.6629338  53.5880463  25.5280246
   1.8088165  53.5189638  26.5149696   7.3030761  42.2148916  38.1656323
   8.2548184  42.3147014  38.1868547   7.1334212  41.4227185  38.6754407
   5.3245141  39.3004499  38.3515724   4.7295073  39.5809512  37.6562212
   5.0394837  39.7898400  39.1232465   4.4552631  53.2527426  27.1118356
   5.3883304  53.1872988  27.3151232   4.3675844  54.0883693  26.6532889
   7.0840648  52.5693296  24.0722304   7.0054279  52.2353160  24.9658062
   7.9050315  53.0615064  24.0713776   9.7818839  45.4355036  37.2798623
   9.7495159  44.4971036  37.4658306  10.3919463  45.5139072  36.5464447
   1.6202170  44.3051089  23.3225827   2.5661274  44.1757297  23.3914245
   1.2416415  43.5665751  23.7995255   9.9313327  42.2266079  37.3256906
   9.4152376  41.4424536  37.1386835  10.8153276  41.8984796  37.4903425
   7.5924054  35.9707095  33.2852718   7.3948875  35.6622183  34.1696050
   8.2023760  36.6968734  33.4150648  15.5995389  46.4971043  36.4204659
  16.3298777  46.2356331  36.9812363  14.9902334  45.7599765  36.4606727
  13.6810686  44.6378905  37.0179111  12.9543849  44.5034870  36.4095602
  13.2657973  44.9455734  37.8235829   1.5040862  48.3568835  44.7826484
   2.4243872  48.5347434  44.9766530   1.4690445  47.4124880  44.6306183
   1.4207153  36.7737955  29.4124953   0.6107881  36.4285040  29.7880199
   2.1091570  36.4645499  30.0012565   3.3497701  35.8516002  31.0349250
   3.9028740  36.2711455  31.6939273   3.5867787  34.9251750  31.0772206
   6.7276508  37.9616527  30.5427914   6.1475177  38.6201331  30.1605966
   6.4612441  37.1393871  30.1315332   5.1780074  37.3621584  32.7449234
   5.6779853  37.4738119  31.9363553   5.8215682  37.0582637  33.3850043
   5.5101386  40.1216617  29.5984262   4.6227241  40.4066268  29.3804457
   5.9255375  39.9610381  28.7511539   8.8615922  40.1463138  33.3138602
   9.6376312  40.6359591  33.5863218   8.1364056  40.5721192  33.7710471
  11.2988481  40.8590757  34.3712542  11.8932972  40.6186493  33.6605850
  11.3715064  40.1397888  34.9986078   4.6544599  49.8861292  23.6932282
   5.3580450  50.0911294  24.3089938   3.9307248  50.4538054  23.9581366
   5.4842410  45.6371153  29.8134552   5.4277611  46.0939705  28.9742185
   6.0370752  44.8761838  29.6357395   9.2947216  41.4260885  30.6384672
   9.0384150  41.0257521  31.4692880   8.6700084  42.1404679  30.5134811
  13.6059554  44.1656958  33.1455963  13.0459112  44.2350148  33.9187525
  13.0003057  43.9897943  32.4255460   6.5631297  50.3243821  25.7430742
   7.3976901  49.8925019  25.5608217   6.4015640  50.1525835  26.6707637
   6.2177189  46.8275934  27.1087082   6.1625993  46.6620206  26.1675526
   5.5923244  47.5351967  27.2649271   3.5323096  49.1324846  46.4340644
   4.4014256  49.3065498  46.0727279   3.0529848  49.9519263  46.3116374
   3.3425434  32.9226820  30.9418337   2.5757830  32.3685307  31.0875019
   3.7536139  32.9948689  31.8032488  15.1915572  60.8413472  35.8385919
  15.8293982  60.7220219  35.1349259  15.0736415  61.7894316  35.8973871
  12.0005278  60.7940900  35.7747444  11.6623790  60.6781965  34.8867979
  12.8695046  60.3932065  35.7548450   7.8592094  62.6476377  31.7644335
   7.2956959  62.5566314  30.9960622   7.7444489  61.8276281  32.2446827
  12.4825061  61.9475752  41.7333649  12.4713702  61.5528550  40.8614153
  12.6445701  61.2141825  42.3267421   5.4056526  64.1427568  34.6028555
   6.1977818  63.8018393  34.1874854   5.6453176  64.2522543  35.5230709
  13.4391653  66.3147344  27.0758800  12.7879632  66.9001425  26.6892813
  14.2336015  66.8453539  27.1353837   7.3647280  63.4036481  27.4745934
   8.1378156  62.8565469  27.3358810   7.7172679  64.2680731  27.6860395
   9.2032322  64.7312864  40.6812833   8.9122188  65.6358495  40.5659500
   9.8389307  64.7729391  41.3956903  10.1288529  62.1089712  37.2714193
  10.7252102  61.8845735  36.5571156  10.1863501  61.3674458  37.8739641
   9.7013558  59.5629148  25.1064384   9.9539078  59.0410669  24.3447847
   8.7638117  59.3995293  25.2091068  14.7456840  58.5664926  32.9139127
  15.5319930  58.1484349  32.5629544  15.0095545  59.4711018  33.0820776
  14.9166918  64.0037776  27.6127784  14.2812751  64.0772403  28.3248689
  14.5864324  64.5931375  26.9346863  20.1465268  58.5040159  33.8172106
  20.8790440  57.9339376  34.0509935  19.3904623  58.1161760  34.2578611
   9.4209846  61.4657254  27.3088759   9.3046105  60.7902157  27.9769843
   9.5312106  60.9789627  26.4920912  11.7641387  60.9267401  31.0135448
  11.3999595  60.3998022  31.7248370  12.6208503  60.5365870  30.8401934
  17.6690688  52.2161733  38.2766714  17.3374013  53.0857144  38.0527929
  17.0736301  51.8998017  38.9560745  11.4046874  55.9557300  26.0096797
  11.5721277  56.8237537  26.3767268  11.2144043  56.1184582  25.0858086
  14.1622207  64.4174279  37.6762627  13.8622931  65.3199318  37.5678434
  13.8173267  64.1506462  38.5283780   7.6134689  60.8688076  33.7099331
   6.6885185  60.7364290  33.9177023   7.8619102  61.6482295  34.2069274
  17.5619351  56.9356819  35.3560064  16.6536229  56.8672228  35.0618825
  17.5106947  57.4128764  36.1841890  11.3836095  58.4114958  26.9943463
  11.2635720  58.8572009  27.8328944  10.6888684  58.7600276  26.4357002
   4.9743500  60.5121350  34.5443120   5.1035881  60.7655829  35.4582532
   4.2940951  61.1049058  34.2247776   9.1442987  71.1818600  30.6433595
   9.0667017  72.1326425  30.7222075   8.5404631  70.8364472  31.3008521
  11.6360217  58.3546465  43.2994962  10.8593551  58.9140385  43.2897826
  12.2750780  58.8403248  43.8209832  19.4280998  55.1373258  37.1337938
  18.7855378  55.4305791  36.4877733  18.9235926  55.0226178  37.9391135
  17.0821161  58.8836431  27.8223797  17.9939017  59.1163818  27.6471495
  16.5730808  59.4673475  27.2598876   9.8906589  61.1631918  42.8612929
  10.6321274  61.7016962  42.5847752   9.1843575  61.7898207  43.0184480
  15.3661929  63.3061059  41.4585090  15.7745285  62.8643469  40.7139722
  14.6439191  62.7313686  41.7119283  11.7192999  58.2433666  38.8318647
  12.5654194  58.6673079  38.9753296  11.6591637  57.5867290  39.5257210
  15.6890744  63.8662249  35.2137379  15.0599606  64.0307964  34.5113447
  15.3016406  64.2803859  35.9848343  19.5679976  64.8016687  32.5681743
  18.8831014  65.1815589  32.0178776  19.6523825  65.4112014  33.3013690
  14.8692444  55.9038034  40.4899821  14.6253376  56.6580095  39.9534096
  15.1452375  56.2823382  41.3247068  16.8230907  62.4476646  39.1677086
  17.0347802  63.0908406  38.4911467  16.7760655  61.6138963  38.6999016
  14.4257136  55.0594467  36.0713658  13.5641615  55.3575721  36.3630396
  14.4519571  55.2764866  35.1394691  11.2418706  63.6036658  32.4787464
  11.7057051  63.8824361  31.6892087  10.9775504  62.7020102  32.2960555
   8.1342787  63.1508139  35.4167227   8.7044144  63.5795407  34.7784712
   8.7250898  62.8690724  36.1151413  10.1787592  59.7259810  29.2877029
  10.8811635  60.1780854  29.7550956   9.8468220  59.0843629  29.9156922
   8.6267953  58.3171567  43.6628239   7.9966614  58.9987847  43.8963635
   8.5204041  58.2054648  42.7181377   3.9212926  57.9843363  34.5894163
   3.1311980  58.2400891  34.1134273   4.4124173  58.7991700  34.6946203
  17.9376735  65.3248602  37.3399444  18.7594179  64.9228789  37.0582125
  17.9339138  65.2216836  38.2915559   5.8727671  58.3487942  31.5477639
   5.0758834  58.4606636  32.0661135   5.6453263  58.6874594  30.6818530
  11.7033339  64.8732645  39.4960154  11.7677771  65.3353052  40.3318326
  10.9944262  64.2430010  39.6242464   2.2050629  58.2373853  37.0209154
   2.4558667  59.1220863  37.2866729   2.7410177  58.0578455  36.2484245
  26.0282728  61.6687350  33.6884415  25.2746437  61.0994748  33.5328419
  26.1630269  61.6350015  34.6355050  11.4181356  66.5400753  29.3639134
  11.2827031  67.3852288  29.7923982  11.9591169  66.7420030  28.6005068
   7.9048696  52.6192332  46.0253490   7.5115641  52.0658531  46.7001134
   8.7214836  52.9302911  46.4160007   4.8710754  64.0576191  29.9367059
   5.3835274  64.8519441  30.0872624   5.5233466  63.3602481  29.8700661
   6.6805638  67.1741947  32.0189813   6.8572267  68.0959912  31.8310797
   7.4762472  66.8600366  32.4484192  10.8216657  54.0350212  43.6173746
  11.5626370  54.6357365  43.5378209  11.0534580  53.2927849  43.0591789
   5.9657995  59.2206579  41.8951976   5.8511510  58.3191836  42.1959075
   5.1102513  59.4670276  41.5436792  13.0449833  67.1624319  43.4939476
  12.6013687  66.3760698  43.1760381  13.7067046  67.3503470  42.8283367
   7.8036954  68.6920121  38.0200155   8.3544379  68.5637184  37.2477149
   6.9648430  68.9915010  37.6695048  15.1431071  67.4427119  41.5220878
  15.1249546  68.2636000  41.0301147  16.0650991  67.3181194  41.7471019
  11.6004125  64.9571249  42.3644386  12.1332462  64.1959537  42.1343694
  11.0718206  64.6644900  43.1068541  14.7673820  50.0631314  37.8938028
  14.4238089  50.9532956  37.8177138  15.1352782  49.8732972  37.0307613
   2.8359670  62.3864845  30.7126630   3.6734892  62.7961853  30.4960338
   3.0137938  61.4464287  30.6826824  14.7324102  60.0539926  26.4010463
  14.2170726  60.8244530  26.6398850  14.4601411  59.3805062  27.0243524
  12.3171214  54.8989626  31.4595701  11.4612810  54.5096477  31.2801340
  12.7298165  54.9781587  30.5995487  13.8470360  52.4335970  35.8587261
  13.3435156  52.3966105  35.0455066  14.1400967  53.3428712  35.9183918
  10.0913246  52.5174699  34.8653443  10.9566243  52.3217508  34.5059332
  10.1590755  52.2885051  35.7922800  19.7058377  62.8072280  28.3363636
  18.9287819  62.4683440  27.8918799  20.3849858  62.8124903  27.6618601
  14.5210406  57.9267018  28.2270244  14.2160541  58.2413167  29.0780387
  15.4740848  58.0048438  28.2697577  12.9656838  64.0857241  29.8763198
  12.4378199  63.3510001  29.5636436  12.4644340  64.8631917  29.6303166
  17.9449684  62.2806261  34.9930244  17.2873358  62.9705523  35.0810373
  18.7490083  62.6702693  35.3364231   7.6975565  54.7476907  32.2369810
   8.2719317  54.5252089  31.5043003   8.2846548  54.8165602  32.9898411
  16.7555142  60.6350634  33.0434186  17.2687024  61.2680626  33.5455896
  17.4056366  60.0351830  32.6777546   8.0245152  56.7781368  26.2565695
   7.1882464  57.1156055  26.5774970   7.8849922  56.6430348  25.3192832
   9.9998233  51.6218156  30.9644879   9.3462645  51.3067173  30.3401494
   9.9578707  50.9993897  31.6904702  11.1109438  61.9037451  22.8798171
  10.2036499  61.6726705  23.0789320  11.6080470  61.1075070  23.0672153
  14.0177517  70.6134958  25.7994857  13.3439215  70.9166655  26.4079815
  14.4043339  71.4164039  25.4500314  13.2335973  58.1100090  35.2892527
  12.3158535  58.3315037  35.1314215  13.6496117  58.1846400  34.4304234
  14.0171021  59.5091505  30.4195207  14.7642840  60.0212903  30.1102329
  14.2862611  59.1875558  31.2799601  12.2897671  62.0050046  27.4022161
  11.3808890  61.7209079  27.4994631  12.3192755  62.4249125  26.5425468
  17.5216939  65.6156636  31.1713329  17.0679266  64.7747545  31.2278519
  16.8910905  66.2518034  31.5088109  16.4649858  56.5448622  32.4013996
  15.7272615  56.0326008  32.7324239  16.7176632  56.1049003  31.5897273
  15.9649878  67.4533132  32.1063147  16.2572852  68.0138189  31.3875513
  16.4748498  67.7461693  32.8616306  16.5661485  49.3224874  32.9955766
  16.8720362  48.4622237  32.7081681  17.2914090  49.9142494  32.7954759
   2.8585842  59.7255560  31.3837363   2.6610241  59.1324921  30.6588430
   2.3032506  59.4207770  32.1013302  10.8382565  59.6178667  33.5031957
  10.8931175  58.6652503  33.4274433  10.0273767  59.7738106  33.9873255
  11.9873759  63.5458790  24.7410240  11.5493189  62.8294649  24.2815877
  12.7284200  63.7734905  24.1795331   8.7774925  58.2355726  31.2622335
   7.9642791  58.5349897  31.6687528   9.2733919  57.8411415  31.9796818
  10.9283503  68.2313483  33.1956600  10.8859682  68.4574330  32.2665132
  11.8446202  67.9976858  33.3442401  14.3749137  58.6997551  40.0937229
  14.7298525  58.9269024  40.9531695  15.0221268  59.0315928  39.4714485
  20.1046874  61.8215987  30.7986558  19.9664772  62.0117583  29.8707748
  19.7483093  62.5835370  31.2554610   8.2689000  55.8074082  36.8783570
   8.9088379  55.6662841  36.1806534   7.4366530  55.5208595  36.5022172
  20.1316253  63.8892514  35.8097830  20.5652760  63.7967803  36.6580884
  20.8447834  63.8650014  35.1717846   9.0449304  65.1076512  32.9918563
   9.8389902  64.6126833  32.7901138   8.3340996  64.5794376  32.6286268
  13.8644148  67.4894608  37.3430931  13.9181171  68.0585544  38.1108646
  12.9958930  67.6596493  36.9784968   5.3532067  59.2519594  29.0678316
   4.4229655  59.1904050  29.2848278   5.4489539  58.7295547  28.2714957
   5.2717616  55.7774407  31.6556557   5.5324434  56.6919740  31.5465718
   6.0934789  55.3098850  31.8053170   6.7442542  57.1912164  38.8255382
   7.4165595  56.9829526  38.1768031   5.9172328  56.9934250  38.3860614
  20.9931803  63.9316214  38.3430715  21.1867693  64.8362025  38.5889990
  20.8932421  63.4723634  39.1769300  12.6468114  53.8174105  40.8421043
  11.9996029  54.5164055  40.7485519  13.4169129  54.2510249  41.2097291
  16.0546912  64.0822957  43.9171596  15.9032418  63.8533509  43.0001680
  16.0451591  65.0393559  43.9302941  12.8232248  61.6554870  38.9017862
  13.7524308  61.8066030  38.7286830  12.4023278  61.7438891  38.0466509
  11.6220580  65.6805534  36.6716400  11.4831665  65.3124319  37.5442338
  10.8335176  66.1953174  36.5000358  12.2168732  70.7814631  28.0141937
  12.3920487  70.3102674  28.8287559  11.5301520  71.4080397  28.2423197
  13.1725795  65.0587137  34.0605238  12.8375628  65.0187907  34.9562888
  12.6729741  64.3931853  33.5875648   7.1470039  60.4654767  39.5857819
   7.0089837  59.7335006  40.1869358   8.0574962  60.3763667  39.3042007
  16.1084987  62.4043171  24.3342297  15.4914157  61.6790000  24.2375350
  15.6401475  63.1652532  23.9909372   9.7752340  60.1774726  39.0741499
  10.4851958  59.5367919  39.0328117   9.7321648  60.4287621  39.9967679
  17.7639118  67.1142080  41.9948078  17.7051664  66.4301300  41.3278661
  18.1658637  67.8561070  41.5428704   8.4881274  57.1639944  40.8937138
   7.9518631  56.7130683  41.5458734   7.8997982  57.2985853  40.1507602
   6.7829817  73.9303994  34.7881797   7.0226415  74.5622518  35.4660815
   5.9399013  73.5792034  35.0747156   7.8983532  56.6228596  23.4563602
   7.0212999  56.5017397  23.0925848   8.3741286  55.8314674  23.2042490
  17.7656525  65.0781664  40.2262057  16.8783304  64.7407586  40.3488456
  18.3355077  64.3464695  40.4630823   4.2220395  56.2995952  37.9790133
   4.1378583  55.6921622  37.2440542   3.4003101  56.7904970  37.9799629
  11.2957679  69.7383116  37.1923301  11.2227850  70.5438088  37.7042605
  10.8535072  69.9375082  36.3671322  11.0847458  68.9754886  30.7026122
  10.3014980  69.5176566  30.7964347  11.7840204  69.4928866  31.1020363
  14.3944109  54.7849516  33.3460328  14.8912808  54.0319478  33.0261398
  13.6231090  54.8213832  32.7803537  22.2473866  60.4889881  34.9878619
  22.2363742  61.3714597  34.6172552  21.3791245  60.1361432  34.7933156
  13.7556362  69.6369950  39.3481459  14.4684335  70.2717415  39.2757361
  13.2646391  69.7333816  38.5321461  15.4773889  63.5421203  30.9198751
  14.5430168  63.6622665  30.7503455  15.6550558  62.6393670  30.6558761
  10.9779077  56.9266899  33.0732012  10.6076865  56.3737939  33.7612918
  11.4738170  56.3225032  32.5207012  18.8646441  59.3838522  31.4548785
  19.3306893  60.2166514  31.3809088  19.3153941  58.9183504  32.1594044
   8.8068276  67.3864394  40.1687030   9.5077735  68.0200877  40.3216424
   8.3363391  67.7279125  39.4082669  16.9322672  65.7282343  28.4534937
  17.2082516  65.6138938  29.3628811  16.0627170  65.3299828  28.4147110
  16.8363103  51.7519109  35.4939686  15.9226183  51.9823336  35.6621893
  17.2656205  51.8357553  36.3453719  16.6069562  59.9409001  37.9939580
  15.9541012  60.1884908  37.3392033  16.9849942  59.1273139  37.6602058
  13.5676736  69.9768694  32.0967751  13.7499130  69.1590350  32.5595503
  14.3909722  70.1936386  31.6592641  13.9018901  68.9036879  29.3582799
  14.4306668  68.3929334  28.7452961  14.1647121  68.5879410  30.2228332
  12.6557135  60.6828812  44.4805618  11.9797772  60.5822941  45.1507993
  13.4784769  60.5268026  44.9441615   4.4035994  66.9200749  37.1018133
   4.9889431  66.1744437  37.2346037   4.2060832  67.2304705  37.9854797
   7.2574649  69.9551996  32.1180575   6.5885024  70.4398124  31.6344615
   7.1187519  70.2021216  33.0323954  11.3979918  71.9895740  38.7163234
  11.9498226  72.1527361  39.4812319  11.7386111  72.5800177  38.0443258
   6.3744411  54.3370889  39.3185118   6.4385738  55.1985720  38.9062516
   6.3111531  53.7244891  38.5857477   5.8496684  56.4094022  42.9658153
   6.4768722  56.0271099  43.5795677   4.9924602  56.1908224  43.3313845
  16.2490792  66.8156997  44.5711888  16.7930696  67.4286955  44.0766843
  15.6677637  67.3736575  45.0878901   2.6262226  58.2170451  28.8976507
   2.9215667  57.3081129  28.8443561   1.7250262  58.1958190  28.5757510
  14.5348305  69.9377715  35.7026916  14.4099445  69.1367455  35.1937861
  15.1927396  70.4323908  35.2140886   6.1556473  56.2926448  34.8804056
   5.4343059  56.9062415  34.7411529   6.9449729  56.8284212  34.8020702
  16.5983213  67.7386735  37.3306466  15.6513549  67.6192086  37.2584793
  16.9465987  66.8509233  37.4132727   8.9582787  53.6280874  41.1544708
   9.4817189  53.8743171  41.9171017   8.7395120  54.4600909  40.7347845
   4.3550068  55.8984549  29.0215833   4.0262774  55.0181928  28.8390938
   4.7089439  55.8432217  29.9092222  13.6029647  67.5339451  33.5310818
  13.4554609  66.6056159  33.7118388  14.4283140  67.5559542  33.0467893
   7.4691891  56.1857518  29.3891310   7.8087964  56.7143440  28.6669919
   7.9164012  56.5237925  30.1649877  17.2063769  68.3568010  34.6175691
  18.1310316  68.1510871  34.4800142  17.0379072  68.1084411  35.5265032
  10.1635332  54.5694569  38.8394378   9.8232152  53.7702382  39.2415058
   9.4574338  54.8696280  38.2671211  10.8151804  51.6543882  37.2921701
  11.6377873  51.1804360  37.1700592  11.0589867  52.4334365  37.7920388
   9.4560038  54.6832140  27.5884603  10.1768401  55.0613393  27.0848320
   8.8325342  55.4021017  27.6919581  13.5991161  55.3877289  28.5242935
  13.8154775  56.2701927  28.2231763  13.1185228  54.9963502  27.7948577
   8.3390382  58.3463002  35.1013680   8.1934963  58.6603305  35.9937961
   7.8615586  58.9647903  34.5484579  10.1986765  55.3365550  35.1494569
  10.1848334  54.4406644  34.8126867  10.9159193  55.3436214  35.7832855
  12.0512896  55.7702890  37.1947697  11.7930674  56.6919961  37.1932027
  11.5197936  55.3733325  37.8848161  16.9959085  68.8753678  29.9737782
  17.1695962  68.3100100  29.2211635  17.4887976  69.6754572  29.7917272
   2.8136045  60.8868347  38.0401341   2.2689513  61.6628155  38.1721615
   3.6915394  61.2339151  37.8820462   9.6023661  54.2179930  30.4182140
   9.7239572  53.2896577  30.6173027   9.3125704  54.2318616  29.5060455
  12.4714852  51.9034841  33.5548859  12.4936548  51.9674174  32.6000839
  12.8882911  51.0639350  33.7489366  22.8498476  61.6390100  31.5928082
  23.2929622  60.8897426  31.1947205  21.9724986  61.6300237  31.2101814
  17.9834257  68.1920442  27.0734681  18.6785162  68.8127135  27.2921995
  18.3257407  67.3415793  27.3487058   3.6002066  60.0138243  40.9331498
   2.8583803  60.1620878  41.5196128   3.2794811  60.2746508  40.0698247
  19.8825680  65.6420147  28.6022011  20.4077005  65.9807420  27.8771331
  19.7948033  64.7067163  28.4185146  11.5445729  69.5554221  40.7311888
  11.8532856  69.3103368  41.6034588  12.3421211  69.7600860  40.2430758
  11.5666341  71.7092131  32.9617264  11.1271331  71.2168509  33.6550121
  12.3174458  71.1665098  32.7209340   4.0458680  67.9003672  32.9641893
   4.8716700  67.6007443  32.5840536   3.6952732  67.1311294  33.4131681
   9.0140213  67.2530140  35.0339566   8.3920223  66.5900845  34.7341794
   9.6845080  67.2791272  34.3513214   2.2467285  65.8189998  33.9230826
   1.4099194  65.3912172  33.7414827   2.2190931  66.0122441  34.8601617
   9.0864741  55.7311928  44.6272072   9.1352896  56.6074051  44.2449842
   9.6287255  55.1889321  44.0543715  19.5719586  66.2753051  43.9073209
  18.7815130  66.2577190  43.3677709  19.3352941  66.8141345  44.6622246
  19.6917462  63.1245517  41.2205938  19.7415466  62.9595525  42.1621461
  19.5831385  62.2572776  40.8303819   8.5753720  65.8034063  28.5098027
   8.7241841  66.4869528  27.8564699   9.3820164  65.7839153  29.0247482
  16.9821224  59.1076445  42.5365245  17.8831087  58.9682910  42.2449242
  17.0569198  59.2730900  43.4763422  11.3164029  56.4843300  41.3818431
  10.4467339  56.7776866  41.1101019  11.5523510  57.0683745  42.1025694
  21.1935658  65.5442459  41.4647959  20.9020467  65.9072440  42.3011420
  20.5807790  64.8309467  41.2861291  22.3931341  63.1095339  33.9850530
  23.2278232  63.5485143  34.1488090  22.5290469  62.6333992  33.1658775
  19.4422847  60.6675074  39.9328017  19.9176968  60.8602720  39.1246869
  18.5188412  60.7234259  39.6871401   6.3306353  61.8299241  29.5159096
   6.0852395  60.9261571  29.7139306   6.5002268  61.8316391  28.5738574
  14.0203063  52.7022917  38.8983851  14.5385007  53.4383944  38.5730340
  13.6658196  53.0086910  39.7330610   5.6002001  57.5627598  27.0145257
   4.9071246  57.6371953  26.3585293   5.3553753  56.7987942  27.5366774
  14.2715657  49.1223200  34.4184748  14.5517411  48.4546389  35.0445174
  15.0566264  49.3152295  33.9059412  12.0749126  68.2982194  25.9809774
  11.5023093  68.9172381  25.5280246  12.6481919  68.8481555  26.5149696
  18.1424516  57.5440834  38.1656323  19.0941938  57.6438931  38.1868547
  17.9727966  56.7519102  38.6754407  16.1638895  54.6296417  38.3515724
  15.5688827  54.9101430  37.6562212  15.8788592  55.1190318  39.1232465
  15.2946386  68.5819344  27.1118356  16.2277059  68.5164905  27.3151232
  15.2069598  69.4175611  26.6532889  17.9234402  67.8985214  24.0722304
  17.8448034  67.5645078  24.9658062  18.7444069  68.3906982  24.0713776
  20.6212593  60.7646953  37.2798623  20.5888913  59.8262954  37.4658306
  21.2313217  60.8430990  36.5464447  12.4595924  59.6343006  23.3225827
  13.4055029  59.5049214  23.3914245  12.0810169  58.8957668  23.7995255
  20.7707082  57.5557997  37.3256906  20.2546131  56.7716453  37.1386835
  21.6547030  57.2276713  37.4903425  18.4317809  51.2999012  33.2852718
  18.2342630  50.9914101  34.1696050  19.0417514  52.0260651  33.4150648
  26.4389143  61.8262960  36.4204659  27.1692532  61.5648248  36.9812363
  25.8296089  61.0891682  36.4606727  24.5204440  59.9670823  37.0179111
  23.7937604  59.8326788  36.4095602  24.1051727  60.2747651  37.8235829
  12.3434617  63.6860752  44.7826484  13.2637626  63.8639352  44.9766530
  12.3084200  62.7416798  44.6306183  10.6438841  57.5592983  23.2580712
   9.7370297  57.2626095  23.3343425  10.9214822  57.2622801  22.3914998
   1.5616782  58.8799346  33.7079758   1.2419566  58.0264654  33.4154132
   1.0150210  59.0947924  34.4637726   5.3396689  61.5961787  37.4249265
   5.5582699  62.5278895  37.4437299   5.7522463  61.2369762  38.2104069
  12.2600907  52.1029872  29.4124953  11.4501635  51.7576957  29.7880199
  12.9485324  51.7937416  30.0012565  14.1891455  51.1807919  31.0349250
  14.7422494  51.6003373  31.6939273  14.4261542  50.2543667  31.0772206
  10.2124555  57.1694993  46.8152014  10.1121282  58.1189350  46.7464105
   9.9946097  56.8413232  45.9428084   9.4137626  54.4179918  23.3992691
  10.2756790  54.7434816  23.6588508   9.5987970  53.6311414  22.8865757
   1.4305042  62.5002258  35.6772880   0.7368513  62.0856210  35.1642834
   2.1778033  62.5422794  35.0806299  17.5670262  53.2908444  30.5427914
  16.9868932  53.9493248  30.1605966  17.3006195  52.4685789  30.1315332
  16.0173829  52.6913502  32.7449234  16.5173607  52.8030037  31.9363553
  16.6609437  52.3874555  33.3850043  10.0755825  60.5992132  45.6317075
   9.5922906  61.3992492  45.8380964  10.1616764  60.6100077  44.6784519
   3.3441784  62.4320511  33.5538895   3.3212472  62.5308199  32.6020778
   3.6542421  63.2785662  33.8756061   6.0029162  64.4896666  37.6685509
   6.9572416  64.4580609  37.6015441   5.8041686  64.0287290  38.4835735
   6.5928544  63.0597783  40.2356307   7.4121433  63.5541861  40.2591144
   6.8665352  62.1429751  40.2073874  16.3495141  55.4508535  29.5984262
  15.4620996  55.7358185  29.3804457  16.7649130  55.2902298  28.7511539
  19.7009677  55.4755056  33.3138602  20.4770067  55.9651508  33.5863218
  18.9757811  55.9013110  33.7710471  22.1382235  56.1882675  34.3712542
  22.7326726  55.9478411  33.6605850  22.2108819  55.4689806  34.9986078
   4.3579391  70.0316286  34.6855707   4.2233859  69.2716687  34.1193705
   3.9411453  70.7557186  34.2184496  15.4938354  65.2153209  23.6932282
  16.1974204  65.4203212  24.3089938  14.7701003  65.7829971  23.9581366
  16.3236164  60.9663071  29.8134552  16.2671366  61.4231622  28.9742185
  16.8764507  60.2053755  29.6357395  20.1340970  56.7552803  30.6384672
  19.8777904  56.3549438  31.4692880  19.5093838  57.4696597  30.5134811
  24.4453308  59.4948876  33.1455963  23.8852866  59.5642065  33.9187525
  23.8396811  59.3189860  32.4255460   7.5148517  70.9285603  34.8974150
   7.3980901  71.8731035  34.7952840   6.6940963  70.6259165  35.2859949
  17.4025051  65.6535739  25.7430742  18.2370655  65.2216937  25.5608217
  17.2409394  65.4817752  26.6707637  17.0570944  62.1567852  27.1087082
  17.0019747  61.9912123  26.1675526  16.4316999  62.8643885  27.2649271
   1.8463459  57.3935916  40.9348504   2.4922322  56.8834870  41.4235729
   1.6380610  58.1304598  41.5091929  14.3716851  64.4616764  46.4340644
  15.2408010  64.6357416  46.0727279  13.8923602  65.2811181  46.3116374
  10.3667069  51.6575961  26.6872400  10.3545739  52.6017801  26.8440671
  11.2590491  51.4746106  26.3931861   8.5403031  71.5813865  38.1130078
   9.4430278  71.6137475  38.4296573   8.3140401  70.6514316  38.1276414
  10.2956633  70.3344851  34.7740157   9.3452264  70.3346713  34.6604529
  10.5989119  69.5877586  34.2576191  14.1819188  48.2518738  30.9418337
  13.4151584  47.6977224  31.0875019  14.5929893  48.3240606  31.8032488
   6.1860950  54.5403533  45.0323518   7.0492411  54.1840338  45.2426843
   5.6126360  54.2017428  45.7198922  26.0309326  76.1705390  35.8385919
  26.6687736  76.0512137  35.1349259  25.9130169  77.1186234  35.8973871
  22.8399033  76.1232818  35.7747444  22.5017544  76.0073883  34.8867979
  23.7088801  75.7223983  35.7548450  18.6985848  77.9768294  31.7644335
  18.1350714  77.8858231  30.9960622  18.5838244  77.1568199  32.2446827
  23.3218816  77.2767670  41.7333649  23.3107457  76.8820468  40.8614153
  23.4839455  76.5433742  42.3267421  16.2450280  79.4719486  34.6028555
  17.0371572  79.1310311  34.1874854  16.4846931  79.5814461  35.5230709
  24.2785407  81.6439262  27.0758800  23.6273387  82.2293342  26.6892813
  25.0729770  82.1745457  27.1353837  18.2041034  78.7328399  27.4745934
  18.9771910  78.1857386  27.3358810  18.5566433  79.5972648  27.6860395
  20.0426077  80.0604781  40.6812833  19.7515943  80.9650412  40.5659500
  20.6783061  80.1021309  41.3956903  20.9682284  77.4381630  37.2714193
  21.5645856  77.2137652  36.5571156  21.0257255  76.6966375  37.8739641
  20.5407312  74.8921065  25.1064384  20.7932833  74.3702587  24.3447847
  19.6031871  74.7287211  25.2091068  25.5850595  73.8956844  32.9139127
  26.3713684  73.4776267  32.5629544  25.8489299  74.8002936  33.0820776
  25.7560672  79.3329694  27.6127784  25.1206505  79.4064320  28.3248689
  25.4258079  79.9223293  26.9346863  30.9859022  73.8332077  33.8172106
  31.7184194  73.2631294  34.0509935  30.2298378  73.4453677  34.2578611
  20.2603601  76.7949171  27.3088759  20.1439859  76.1194075  27.9769843
  20.3705861  76.3081545  26.4920912  22.6035142  76.2559318  31.0135448
  22.2393349  75.7289939  31.7248370  23.4602258  75.8657787  30.8401934
  28.5084442  67.5453651  38.2766714  28.1767767  68.4149062  38.0527929
  27.9130056  67.2289935  38.9560745  22.2440629  71.2849218  26.0096797
  22.4115031  72.1529454  26.3767268  22.0537798  71.4476500  25.0858086
  25.0015962  79.7466197  37.6762627  24.7016685  80.6491236  37.5678434
  24.6567022  79.4798380  38.5283780  18.4528443  76.1979994  33.7099331
  17.5278940  76.0656208  33.9177023  18.7012857  76.9774213  34.2069274
  28.4013106  72.2648737  35.3560064  27.4929983  72.1964146  35.0618825
  28.3500702  72.7420682  36.1841890  22.2229850  73.7406876  26.9943463
  22.1029475  74.1863926  27.8328944  21.5282438  74.0892193  26.4357002
  15.8137255  75.8413267  34.5443120  15.9429636  76.0947746  35.4582532
  15.1334706  76.4340975  34.2247776  19.9836742  86.5110517  30.6433595
  19.9060771  87.4618342  30.7222075  19.3798385  86.1656390  31.3008521
  22.4753972  73.6838383  43.2994962  21.6987306  74.2432303  43.2897826
  23.1144535  74.1695166  43.8209832  30.2674752  70.4665176  37.1337938
  29.6249132  70.7597709  36.4877733  29.7629681  70.3518096  37.9391135
  27.9214916  74.2128349  27.8223797  28.8332772  74.4455735  27.6471495
  27.4124563  74.7965393  27.2598876  20.7300344  76.4923836  42.8612929
  21.4715028  77.0308880  42.5847752  20.0237329  77.1190125  43.0184480
  26.2055684  78.6352977  41.4585090  26.6139040  78.1935387  40.7139722
  25.4832945  78.0605604  41.7119283  22.5586754  73.5725583  38.8318647
  23.4047949  73.9964997  38.9753296  22.4985391  72.9159208  39.5257210
  26.5284498  79.1954167  35.2137379  25.8993361  79.3599881  34.5113447
  26.1410160  79.6095777  35.9848343  30.4073730  80.1308605  32.5681743
  29.7224768  80.5107506  32.0178776  30.4917579  80.7403932  33.3013690
  25.7086199  71.2329952  40.4899821  25.4647131  71.9872012  39.9534096
  25.9846129  71.6115299  41.3247068  27.6624662  77.7768564  39.1677086
  27.8741557  78.4200324  38.4911467  27.6154410  76.9430881  38.6999016
  25.2650891  70.3886385  36.0713658  24.4035370  70.6867638  36.3630396
  25.2913325  70.6056784  35.1394691  22.0812460  78.9328575  32.4787464
  22.5450806  79.2116278  31.6892087  21.8169258  78.0312020  32.2960555
  18.9736541  78.4800057  35.4167227  19.5437898  78.9087325  34.7784712
  19.5644653  78.1982642  36.1151413  21.0181346  75.0551728  29.2877029
  21.7205389  75.5072771  29.7550956  20.6861975  74.4135546  29.9156922
  19.4661708  73.6463484  43.6628239  18.8360368  74.3279765  43.8963635
  19.3597795  73.5346566  42.7181377  14.7606680  73.3135280  34.5894163
  13.9705734  73.5692809  34.1134273  15.2517927  74.1283618  34.6946203
  28.7770490  80.6540519  37.3399444  29.5987933  80.2520707  37.0582125
  28.7732892  80.5508754  38.2915559  16.7121425  73.6779860  31.5477639
  15.9152589  73.7898554  32.0661135  16.4847018  74.0166512  30.6818530
  22.5427093  80.2024563  39.4960154  22.6071526  80.6644970  40.3318326
  21.8338017  79.5721928  39.6242464  13.0444383  73.5665771  37.0209154
  13.2952421  74.4512781  37.2866729  13.5803931  73.3870372  36.2484245
  36.8676483  76.9979268  33.6884415  36.1140191  76.4286666  33.5328419
  37.0024024  76.9641932  34.6355050  22.2575111  81.8692670  29.3639134
  22.1220785  82.7144206  29.7923982  22.7984923  82.0711948  28.6005068
  18.7442450  67.9484250  46.0253490  18.3509396  67.3950449  46.7001134
  19.5608591  68.2594829  46.4160007  15.7104508  79.3868108  29.9367059
  16.2229029  80.1811359  30.0872624  16.3627221  78.6894399  29.8700661
  17.5199393  82.5033865  32.0189813  17.6966021  83.4251829  31.8310797
  18.3156226  82.1892284  32.4484192  21.6610411  69.3642129  43.6173746
  22.4020125  69.9649282  43.5378209  21.8928334  68.6219767  43.0591789
  16.8051749  74.5498496  41.8951976  16.6905264  73.6483754  42.1959075
  15.9496267  74.7962193  41.5436792  23.8843587  82.4916237  43.4939476
  23.4407441  81.7052615  43.1760381  24.5460801  82.6795387  42.8283367
  18.6430708  84.0212038  38.0200155  19.1938133  83.8929102  37.2477149
  17.8042184  84.3206927  37.6695048  25.9824825  82.7719037  41.5220878
  25.9643300  83.5927918  41.0301147  26.9044745  82.6473112  41.7471019
  22.4397879  80.2863166  42.3644386  22.9726216  79.5251454  42.1343694
  21.9111960  79.9936818  43.1068541  25.6067574  65.3923232  37.8938028
  25.2631844  66.2824874  37.8177138  25.9746537  65.2024890  37.0307613
  13.6753425  77.7156763  30.7126630  14.5128647  78.1253771  30.4960338
  13.8531693  76.7756205  30.6826824  25.5717857  75.3831843  26.4010463
  25.0564480  76.1536448  26.6398850  25.2995165  74.7096979  27.0243524
  23.1564968  70.2281544  31.4595701  22.3006564  69.8388394  31.2801340
  23.5691920  70.3073505  30.5995487  24.6864115  67.7627887  35.8587261
  24.1828910  67.7258022  35.0455066  24.9794722  68.6720630  35.9183918
  20.9307001  67.8466617  34.8653443  21.7959997  67.6509426  34.5059332
  20.9984509  67.6176969  35.7922800  30.5452131  78.1364198  28.3363636
  29.7681574  77.7975357  27.8918799  31.2243612  78.1416821  27.6618601
  25.3604160  73.2558935  28.2270244  25.0554296  73.5705085  29.0780387
  26.3134602  73.3340355  28.2697577  23.8050592  79.4149159  29.8763198
  23.2771954  78.6801918  29.5636436  23.3038095  80.1923835  29.6303166
  28.7843438  77.6098179  34.9930244  28.1267112  78.2997441  35.0810373
  29.5883837  77.9994611  35.3364231  18.5369320  70.0768825  32.2369810
  19.1113072  69.8544006  31.5043003  19.1240302  70.1457519  32.9898411
  27.5948897  75.9642552  33.0434186  28.1080779  76.5972544  33.5455896
  28.2450121  75.3643747  32.6777546  18.8638907  72.1073286  26.2565695
  18.0276219  72.4447973  26.5774970  18.7243676  71.9722266  25.3192832
  20.8391987  66.9510074  30.9644879  20.1856400  66.6359091  30.3401494
  20.7972461  66.3285814  31.6904702  21.9503192  77.2329369  22.8798171
  21.0430254  77.0018622  23.0789320  22.4474224  76.4366988  23.0672153
  24.8571271  85.9426876  25.7994857  24.1832970  86.2458573  26.4079815
  25.2437093  86.7455956  25.4500314  24.0729728  73.4392007  35.2892527
  23.1552289  73.6606954  35.1314215  24.4889871  73.5138318  34.4304234
  24.8564775  74.8383423  30.4195207  25.6036594  75.3504820  30.1102329
  25.1256365  74.5167476  31.2799601  23.1291426  77.3341964  27.4022161
  22.2202645  77.0500997  27.4994631  23.1586509  77.7541042  26.5425468
  28.3610693  80.9448553  31.1713329  27.9073020  80.1039463  31.2278519
  27.7304660  81.5809952  31.5088109  27.3043613  71.8740539  32.4013996
  26.5666369  71.3617926  32.7324239  27.5570386  71.4340921  31.5897273
  26.8043632  82.7825050  32.1063147  27.0966607  83.3430107  31.3875513
  27.3142253  83.0753611  32.8616306  27.4055240  64.6516791  32.9955766
  27.7114117  63.7914155  32.7081681  28.1307845  65.2434412  32.7954759
  13.6979596  75.0547478  31.3837363  13.5003996  74.4616839  30.6588430
  13.1426260  74.7499688  32.1013302  21.6776320  74.9470584  33.5031957
  21.7324929  73.9944421  33.4274433  20.8667522  75.1030023  33.9873255
  22.8267513  78.8750707  24.7410240  22.3886943  78.1586566  24.2815877
  23.5677954  79.1026822  24.1795331  19.6168680  73.5647644  31.2622335
  18.8036545  73.8641815  31.6687528  20.1127674  73.1703333  31.9796818
  21.7677257  83.5605401  33.1956600  21.7253436  83.7866247  32.2665132
  22.6839956  83.3268776  33.3442401  25.2142891  74.0289469  40.0937229
  25.5692279  74.2560942  40.9531695  25.8615022  74.3607845  39.4714485
  30.9440628  77.1507904  30.7986558  30.8058527  77.3409500  29.8707748
  30.5876847  77.9127287  31.2554610  19.1082754  71.1366000  36.8783570
  19.7482134  70.9954759  36.1806534  18.2760285  70.8500513  36.5022172
  30.9710008  79.2184431  35.8097830  31.4046514  79.1259721  36.6580884
  31.6841589  79.1941932  35.1717846  19.8843058  80.4368430  32.9918563
  20.6783657  79.9418750  32.7901138  19.1734751  79.9086293  32.6286268
  24.7037903  82.8186526  37.3430931  24.7574925  83.3877462  38.1108646
  23.8352684  82.9888411  36.9784968  16.1925822  74.5811512  29.0678316
  15.2623410  74.5195967  29.2848278  16.2883294  74.0587465  28.2714957
  16.1111371  71.1066325  31.6556557  16.3718188  72.0211658  31.5465718
  16.9328543  70.6390767  31.8053170  17.5836296  72.5204082  38.8255382
  18.2559350  72.3121444  38.1768031  16.7566083  72.3226168  38.3860614
  31.8325557  79.2608132  38.3430715  32.0261447  80.1653943  38.5889990
  31.7326176  78.8015551  39.1769300  23.4861868  69.1466023  40.8421043
  22.8389783  69.8455972  40.7485519  24.2562884  69.5802167  41.2097291
  26.8940666  79.4114875  43.9171596  26.7426172  79.1825427  43.0001680
  26.8845346  80.3685476  43.9302941  23.6626002  76.9846788  38.9017862
  24.5918062  77.1357947  38.7286830  23.2417032  77.0730808  38.0466509
  22.4614334  81.0097452  36.6716400  22.3225420  80.6416236  37.5442338
  21.6728930  81.5245091  36.5000358  23.0562486  86.1106549  28.0141937
  23.2314242  85.6394592  28.8287559  22.3695274  86.7372315  28.2423197
  24.0119549  80.3879055  34.0605238  23.6769382  80.3479825  34.9562888
  23.5123495  79.7223771  33.5875648  17.9863793  75.7946685  39.5857819
  17.8483591  75.0626924  40.1869358  18.8968717  75.7055585  39.3042007
  26.9478741  77.7335089  24.3342297  26.3307912  77.0081917  24.2375350
  26.4795230  78.4944449  23.9909372  20.6146094  75.5066644  39.0741499
  21.3245713  74.8659836  39.0328117  20.5715402  75.7579539  39.9967679
  28.6032873  82.4433997  41.9948078  28.5445419  81.7593218  41.3278661
  29.0052391  83.1852987  41.5428704  19.3275028  72.4931862  40.8937138
  18.7912385  72.0422600  41.5458734  18.7391736  72.6277771  40.1507602
  17.6223572  89.2595911  34.7881797  17.8620170  89.8914435  35.4660815
  16.7792768  88.9083951  35.0747156  18.7377287  71.9520513  23.4563602
  17.8606753  71.8309314  23.0925848  19.2135040  71.1606592  23.2042490
  28.6050280  80.4073581  40.2262057  27.7177059  80.0699503  40.3488456
  29.1748831  79.6756613  40.4630823  10.2579427  76.7397673  33.5505109
  10.9450467  76.4259403  32.9626124  10.1027556  77.6439038  33.2772360
  15.0614149  71.6287870  37.9790133  14.9772338  71.0213539  37.2440542
  14.2396856  72.1196888  37.9799629  22.1351433  85.0675034  37.1923301
  22.0621605  85.8730005  37.7042605  21.6928826  85.2667000  36.3671322
  21.9241213  84.3046804  30.7026122  21.1408735  84.8468484  30.7964347
  22.6233958  84.8220783  31.1020363  25.2337863  70.1141433  33.3460328
  25.7306563  69.3611396  33.0261398  24.4624845  70.1505750  32.7803537
  33.0867621  75.8181799  34.9878619  33.0757497  76.7006514  34.6172552
  32.2185000  75.4653350  34.7933156  24.5950117  84.9661868  39.3481459
  25.3078089  85.6009333  39.2757361  24.1040146  85.0625734  38.5321461
  26.3167644  78.8713120  30.9198751  25.3823923  78.9914583  30.7503455
  26.4944312  77.9685587  30.6558761  21.8172832  72.2558816  33.0732012
  21.4470619  71.7029857  33.7612918  22.3131924  71.6516950  32.5207012
  29.7040195  74.7130440  31.4548785  30.1700647  75.5458431  31.3809088
  30.1547696  74.2475421  32.1594044  19.6462030  82.7156311  40.1687030
  20.3471490  83.3492794  40.3216424  19.1757145  83.0571043  39.4082669
  27.7716426  81.0574261  28.4534937  28.0476270  80.9430856  29.3628811
  26.9020925  80.6591746  28.4147110  27.6756858  67.0811027  35.4939686
  26.7619938  67.3115254  35.6621893  28.1049959  67.1649471  36.3453719
  27.4463316  75.2700919  37.9939580  26.7934767  75.5176826  37.3392033
  27.8243696  74.4565057  37.6602058  24.4070490  85.3060612  32.0967751
  24.5892885  84.4882268  32.5595503  25.2303476  85.5228304  31.6592641
  24.7412656  84.2328797  29.3582799  25.2700422  83.7221252  28.7452961
  25.0040875  83.9171327  30.2228332  23.4950889  76.0120730  44.4805618
  22.8191526  75.9114859  45.1507993  24.3178523  75.8559943  44.9441615
  15.2429748  82.2492666  37.1018133  15.8283185  81.5036354  37.2346037
  15.0454587  82.5596623  37.9854797  18.0968404  85.2843914  32.1180575
  17.4278779  85.7690041  31.6344615  17.9581273  85.5313134  33.0323954
   9.8347403  74.8198266  35.8222576   9.8731503  74.2861857  36.6159694
   9.3287696  74.2933472  35.2033553  22.2373672  87.3187657  38.7163234
  22.7891980  87.4819279  39.4812319  22.5779866  87.9092095  38.0443258
  17.2138166  69.6662807  39.3185118  17.2779492  70.5277638  38.9062516
  17.1505286  69.0536809  38.5857477  16.6890438  71.7385940  42.9658153
  17.3162477  71.3563017  43.5795677  15.8318357  71.5200141  43.3313845
  27.0884547  82.1448915  44.5711888  27.6324451  82.7578873  44.0766843
  26.5071391  82.7028493  45.0878901  13.4655981  73.5462369  28.8976507
  13.7609422  72.6373047  28.8443561  12.5644017  73.5250108  28.5757510
  25.3742060  85.2669633  35.7026916  25.2493199  84.4659373  35.1937861
  26.0321151  85.7615826  35.2140886  16.9950228  71.6218365  34.8804056
  16.2736814  72.2354333  34.7411529  17.7843484  72.1576130  34.8020702
  27.4376968  83.0678653  37.3306466  26.4907303  82.9484004  37.2584793
  27.7859741  82.1801151  37.4132727  19.7976541  68.9572792  41.1544708
  20.3210943  69.2035088  41.9171017  19.5788875  69.7892827  40.7347845
  15.1943822  71.2276466  29.0215833  14.8656529  70.3473845  28.8390938
  15.5483193  71.1724135  29.9092222  24.4423401  82.8631369  33.5310818
  24.2948364  81.9348076  33.7118388  25.2676895  82.8851460  33.0467893
  18.3085646  71.5149436  29.3891310  18.6481718  72.0435357  28.6669919
  18.7557766  71.8529842  30.1649877  28.0457523  83.6859928  34.6175691
  28.9704071  83.4802789  34.4800142  27.8772826  83.4376329  35.5265032
  21.0029086  69.8986487  38.8394378  20.6625907  69.0994300  39.2415058
  20.2968093  70.1988198  38.2671211  21.6545558  66.9835799  37.2921701
  22.4771628  66.5096277  37.1700592  21.8983622  67.7626283  37.7920388
  20.2953793  70.0124058  27.5884603  21.0162155  70.3905310  27.0848320
  19.6719097  70.7312935  27.6919581  24.4384916  70.7169207  28.5242935
  24.6548530  71.5993845  28.2231763  23.9578983  70.3255420  27.7948577
  19.1784137  73.6754920  35.1013680  19.0328718  73.9895223  35.9937961
  18.7009341  74.2939820  34.5484579  21.0380520  70.6657468  35.1494569
  21.0242089  69.7698561  34.8126867  21.7552948  70.6728132  35.7832855
  22.8906651  71.0994808  37.1947697  22.6324428  72.0211879  37.1932027
  22.3591691  70.7025243  37.8848161  27.8352839  84.2045595  29.9737782
  28.0089717  83.6392018  29.2211635  28.3281731  85.0046490  29.7917272
  13.6529799  76.2160264  38.0401341  13.1083267  76.9920072  38.1721615
  14.5309149  76.5631069  37.8820462  20.4417416  69.5471848  30.4182140
  20.5633327  68.6188494  30.6173027  20.1519458  69.5610534  29.5060455
  23.3108606  67.2326759  33.5548859  23.3330303  67.2966092  32.6000839
  23.7276665  66.3931267  33.7489366  33.6892230  76.9682018  31.5928082
  34.1323377  76.2189343  31.1947205  32.8118741  76.9592155  31.2101814
  28.8228012  83.5212360  27.0734681  29.5178916  84.1419052  27.2921995
  29.1651162  82.6707711  27.3487058  14.4395821  75.3430161  40.9331498
  13.6977557  75.4912796  41.5196128  14.1188565  75.6038426  40.0698247
  30.7219435  80.9712065  28.6022011  31.2470759  81.3099338  27.8771331
  30.6341787  80.0359080  28.4185146  22.3839484  84.8846139  40.7311888
  22.6926610  84.6395286  41.6034588  23.1814966  85.0892777  40.2430758
  22.4060096  87.0384048  32.9617264  21.9665086  86.5460427  33.6550121
  23.1568213  86.4957016  32.7209340  14.8852435  83.2295589  32.9641893
  15.7110455  82.9299361  32.5840536  14.5346487  82.4603212  33.4131681
  19.8533968  82.5822058  35.0339566  19.2313977  81.9192763  34.7341794
  20.5238835  82.6083189  34.3513214  13.0861040  81.1481916  33.9230826
  12.2492948  80.7204090  33.7414827  13.0584685  81.3414359  34.8601617
  19.9258495  71.0603846  44.6272072  19.9746651  71.9365968  44.2449842
  20.4681010  70.5181239  44.0543715  30.4113341  81.6044969  43.9073209
  29.6208885  81.5869108  43.3677709  30.1746696  82.1433262  44.6622246
  30.5311216  78.4537435  41.2205938  30.5809221  78.2887443  42.1621461
  30.4225139  77.5864694  40.8303819  19.4147475  81.1325981  28.5098027
  19.5635595  81.8161445  27.8564699  20.2213918  81.1131071  29.0247482
  27.8214978  74.4368363  42.5365245  28.7224841  74.2974828  42.2449242
  27.8962953  74.6022818  43.4763422  22.1557784  71.8135218  41.3818431
  21.2861093  72.1068784  41.1101019  22.3917264  72.3975663  42.1025694
  32.0329413  80.8734377  41.4647959  31.7414221  81.2364357  42.3011420
  31.4201544  80.1601385  41.2861291  33.2325095  78.4387256  33.9850530
  34.0671987  78.8777061  34.1488090  33.3684224  77.9625910  33.1658775
  30.2816601  75.9966991  39.9328017  30.7570723  76.1894638  39.1246869
  29.3582166  76.0526177  39.6871401  17.1700108  77.1591158  29.5159096
  16.9246150  76.2553488  29.7139306  17.3396022  77.1608309  28.5738574
  24.8596818  68.0314835  38.8983851  25.3778761  68.7675862  38.5730340
  24.5051950  68.3378828  39.7330610  16.4395755  72.8919516  27.0145257
  15.7465000  72.9663871  26.3585293  16.1947507  72.1279860  27.5366774
  25.1109412  64.4515117  34.4184748  25.3911166  63.7838306  35.0445174
  25.8960019  64.6444213  33.9059412  22.9142880  83.6274111  25.9809774
  22.3416847  84.2464298  25.5280246  23.4875674  84.1773473  26.5149696
  28.9818270  72.8732751  38.1656323  29.9335693  72.9730849  38.1868547
  28.8121721  72.0811020  38.6754407  27.0032650  69.9588335  38.3515724
  26.4082582  70.2393347  37.6562212  26.7182346  70.4482236  39.1232465
  26.1340140  83.9111261  27.1118356  27.0670813  83.8456823  27.3151232
  26.0463353  84.7467528  26.6532889  28.7628157  83.2277132  24.0722304
  28.6841788  82.8936995  24.9658062  29.5837823  83.7198900  24.0713776
  31.4606348  76.0938871  37.2798623  31.4282668  75.1554872  37.4658306
  32.0706972  76.1722908  36.5464447  23.2989679  74.9634924  23.3225827
  24.2448783  74.8341132  23.3914245  22.9203924  74.2249586  23.7995255
  31.6100836  72.8849914  37.3256906  31.0939885  72.1008371  37.1386835
  32.4940785  72.5568631  37.4903425  29.2711563  66.6290930  33.2852718
  29.0736384  66.3206018  34.1696050  29.8811269  67.3552569  33.4150648
  37.2782898  77.1554878  36.4204659  38.0086286  76.8940166  36.9812363
  36.6689843  76.4183600  36.4606727  35.3598195  75.2962740  37.0179111
  34.6331358  75.1618705  36.4095602  34.9445482  75.6039569  37.8235829
  23.1828371  79.0152670  44.7826484  24.1031381  79.1931269  44.9766530
  23.1477954  78.0708716  44.6306183  21.4832596  72.8884900  23.2580712
  20.5764051  72.5918013  23.3343425  21.7608577  72.5914719  22.3914998
  12.4010536  74.2091264  33.7079758  12.0813321  73.3556572  33.4154132
  11.8543964  74.4239842  34.4637726  16.1790444  76.9253705  37.4249265
  16.3976454  77.8570813  37.4437299  16.5916218  76.5661679  38.2104069
  23.0994662  67.4321790  29.4124953  22.2895390  67.0868875  29.7880199
  23.7879079  67.1229334  30.0012565  25.0285210  66.5099837  31.0349250
  25.5816249  66.9295290  31.6939273  25.2655296  65.5835585  31.0772206
  21.0518309  72.4986911  46.8152014  20.9515036  73.4481268  46.7464105
  20.8339851  72.1705149  45.9428084  20.2531381  69.7471836  23.3992691
  21.1150545  70.0726734  23.6588508  20.4381725  68.9603332  22.8865757
  12.2698796  77.8294175  35.6772880  11.5762268  77.4148128  35.1642834
  13.0171787  77.8714712  35.0806299  28.4064017  68.6200362  30.5427914
  27.8262686  69.2785166  30.1605966  28.1399950  67.7977707  30.1315332
  26.8567583  68.0205420  32.7449234  27.3567362  68.1321954  31.9363553
  27.5003191  67.7166473  33.3850043  20.9149579  75.9284049  45.6317075
  20.4316661  76.7284410  45.8380964  21.0010518  75.9391994  44.6784519
  14.1835539  77.7612429  33.5538895  14.1606227  77.8600116  32.6020778
  14.4936175  78.6077580  33.8756061  16.8422917  79.8188584  37.6685509
  17.7966170  79.7872526  37.6015441  16.6435440  79.3579208  38.4835735
  17.4322299  78.3889700  40.2356307  18.2515188  78.8833779  40.2591144
  17.7059107  77.4721668  40.2073874  27.1888895  70.7800452  29.5984262
  26.3014750  71.0650103  29.3804457  27.6042884  70.6194216  28.7511539
  30.5403431  70.8046973  33.3138602  31.3163821  71.2943426  33.5863218
  29.8151565  71.2305028  33.7710471  32.9775990  71.5174593  34.3712542
  33.5720481  71.2770329  33.6605850  33.0502573  70.7981723  34.9986078
  15.1973145  85.3608204  34.6855707  15.0627613  84.6008605  34.1193705
  14.7805208  86.0849103  34.2184496  26.3332108  80.5445127  23.6932282
  27.0367959  80.7495130  24.3089938  25.6094757  81.1121889  23.9581366
  27.1629919  76.2954988  29.8134552  27.1065120  76.7523540  28.9742185
  27.7158261  75.5345673  29.6357395  30.9734725  72.0844720  30.6384672
  30.7171659  71.6841356  31.4692880  30.3487593  72.7988514  30.5134811
  35.2847063  74.8240794  33.1455963  34.7246621  74.8933983  33.9187525
  34.6790566  74.6481778  32.4255460  18.3542271  86.2577521  34.8974150
  18.2374655  87.2022953  34.7952840  17.5334718  85.9551082  35.2859949
  28.2418806  80.9827656  25.7430742  29.0764410  80.5508855  25.5608217
  28.0803149  80.8109670  26.6707637  27.8964698  77.4859770  27.1087082
  27.8413502  77.3204041  26.1675526  27.2710753  78.1935803  27.2649271
  12.6857213  72.7227834  40.9348504  13.3316077  72.2126788  41.4235729
  12.4774364  73.4596516  41.5091929  25.2110605  79.7908682  46.4340644
  26.0801765  79.9649334  46.0727279  24.7317357  80.6103098  46.3116374
  21.2060824  66.9867879  26.6872400  21.1939493  67.9309719  26.8440671
  22.0984245  66.8038024  26.3931861  19.3796785  86.9105783  38.1130078
  20.2824032  86.9429393  38.4296573  19.1534156  85.9806233  38.1276414
  21.1350387  85.6636769  34.7740157  20.1846019  85.6638631  34.6604529
  21.4382874  84.9169504  34.2576191  25.0212943  63.5810655  30.9418337
  24.2545339  63.0269142  31.0875019  25.4323648  63.6532524  31.8032488
  17.0254704  69.8695451  45.0323518  17.8886166  69.5132256  45.2426843
  16.4520115  69.5309346  45.7198922  36.8703081  91.4997307  35.8385919
  37.5081491  91.3804055  35.1349259  36.7523924  92.4478151  35.8973871
  33.6792787  91.4524736  35.7747444  33.3411299  91.3365800  34.8867979
  34.5482555  91.0515901  35.7548450  29.5379603  93.3060212  31.7644335
  28.9744468  93.2150149  30.9960622  29.4231998  92.4860116  32.2446827
  34.1612570  92.6059587  41.7333649  34.1501211  92.2112386  40.8614153
  34.3233210  91.8725660  42.3267421  27.0844035  94.8011404  34.6028555
  27.8765327  94.4602228  34.1874854  27.3240685  94.9106379  35.5230709
  35.1179162  96.9731180  27.0758800  34.4667141  97.5585260  26.6892813
  35.9123524  97.5037375  27.1353837  29.0434789  94.0620317  27.4745934
  29.8165665  93.5149304  27.3358810  29.3960188  94.9264566  27.6860395
  30.8819831  95.3896699  40.6812833  30.5909697  96.2942330  40.5659500
  31.5176816  95.4313227  41.3956903  31.8076038  92.7673548  37.2714193
  32.4039610  92.5429570  36.5571156  31.8651010  92.0258293  37.8739641
  31.3801067  90.2212983  25.1064384  31.6326587  89.6994504  24.3447847
  30.4425626  90.0579128  25.2091068  36.4244349  89.2248761  32.9139127
  37.2107439  88.8068184  32.5629544  36.6883054  90.1294854  33.0820776
  36.5954427  94.6621612  27.6127784  35.9600260  94.7356238  28.3248689
  36.2651833  95.2515210  26.9346863  41.8252777  89.1623995  33.8172106
  42.5577949  88.5923211  34.0509935  41.0692132  88.7745595  34.2578611
  31.0997355  92.1241089  27.3088759  30.9833613  91.4485992  27.9769843
  31.2099615  91.6373463  26.4920912  33.4428896  91.5851236  31.0135448
  33.0787104  91.0581857  31.7248370  34.2996012  91.1949705  30.8401934
  39.3478197  82.8745569  38.2766714  39.0161522  83.7440980  38.0527929
  38.7523810  82.5581853  38.9560745  33.0834383  86.6141136  26.0096797
  33.2508786  87.4821372  26.3767268  32.8931552  86.7768417  25.0858086
  35.8409716  95.0758115  37.6762627  35.5410440  95.9783153  37.5678434
  35.4960776  94.8090298  38.5283780  29.2922198  91.5271911  33.7099331
  28.3672694  91.3948126  33.9177023  29.5406611  92.3066131  34.2069274
  39.2406860  87.5940655  35.3560064  38.3323738  87.5256063  35.0618825
  39.1894456  88.0712600  36.1841890  33.0623604  89.0698793  26.9943463
  32.9423229  89.5155844  27.8328944  32.3676193  89.4184111  26.4357002
  26.6531009  91.1705185  34.5443120  26.7823390  91.4239664  35.4582532
  25.9728460  91.7632893  34.2247776  30.8230496 101.8402435  30.6433595
  30.7454526 102.7910260  30.7222075  30.2192140 101.4948307  31.3008521
  33.3147726  89.0130300  43.2994962  32.5381060  89.5724221  43.2897826
  33.9538289  89.4987083  43.8209832  41.1068507  85.7957093  37.1337938
  40.4642887  86.0889626  36.4877733  40.6023435  85.6810014  37.9391135
  38.7608670  89.5420266  27.8223797  39.6726526  89.7747653  27.6471495
  38.2518317  90.1257311  27.2598876  31.5694098  91.8215754  42.8612929
  32.3108783  92.3600798  42.5847752  30.8631084  92.4482043  43.0184480
  37.0449438  93.9644894  41.4585090  37.4532794  93.5227305  40.7139722
  36.3226699  93.3897522  41.7119283  33.3980508  88.9017501  38.8318647
  34.2441703  89.3256915  38.9753296  33.3379146  88.2451125  39.5257210
  37.3678253  94.5246085  35.2137379  36.7387115  94.6891799  34.5113447
  36.9803915  94.9387694  35.9848343  41.2467485  95.4600523  32.5681743
  40.5618523  95.8399424  32.0178776  41.3311334  96.0695849  33.3013690
  36.5479953  86.5621869  40.4899821  36.3040885  87.3163930  39.9534096
  36.8239884  86.9407217  41.3247068  38.5018416  93.1060482  39.1677086
  38.7135311  93.7492242  38.4911467  38.4548164  92.2722798  38.6999016
  36.1044645  85.7178302  36.0713658  35.2429124  86.0159556  36.3630396
  36.1307080  85.9348701  35.1394691  32.9206215  94.2620493  32.4787464
  33.3844560  94.5408196  31.6892087  32.6563013  93.3603938  32.2960555
  29.8130296  93.8091974  35.4167227  30.3831653  94.2379243  34.7784712
  30.4038407  93.5274559  36.1151413  31.8575101  90.3843645  29.2877029
  32.5599144  90.8364689  29.7550956  31.5255729  89.7427464  29.9156922
  30.3055462  88.9755402  43.6628239  29.6754123  89.6571683  43.8963635
  30.1991550  88.8638484  42.7181377  25.6000435  88.6427198  34.5894163
  24.8099489  88.8984727  34.1134273  26.0911682  89.4575536  34.6946203
  39.6164244  95.9832437  37.3399444  40.4381688  95.5812624  37.0582125
  39.6126647  95.8800671  38.2915559  27.5515180  89.0071777  31.5477639
  26.7546343  89.1190471  32.0661135  27.3240772  89.3458429  30.6818530
  33.3820848  95.5316480  39.4960154  33.4465280  95.9936888  40.3318326
  32.6731771  94.9013845  39.6242464  23.8838138  88.8957688  37.0209154
  24.1346176  89.7804698  37.2866729  24.4197686  88.7162290  36.2484245
  47.7070237  92.3271186  33.6884415  46.9533946  91.7578584  33.5328419
  47.8417778  92.2933850  34.6355050  33.0968865  97.1984588  29.3639134
  32.9614540  98.0436124  29.7923982  33.6378678  97.4003866  28.6005068
  29.5836205  83.2776168  46.0253490  29.1903150  82.7242366  46.7001134
  30.4002345  83.5886746  46.4160007  26.5498263  94.7160026  29.9367059
  27.0622783  95.5103276  30.0872624  27.2020975  94.0186316  29.8700661
  28.3593147  97.8325782  32.0189813  28.5359776  98.7543747  31.8310797
  29.1549981  97.5184201  32.4484192  32.5004166  84.6934047  43.6173746
  33.2413879  85.2941200  43.5378209  32.7322089  83.9511685  43.0591789
  27.6445504  89.8790414  41.8951976  27.5299019  88.9775671  42.1959075
  26.7890022  90.1254111  41.5436792  34.7237342  97.8208154  43.4939476
  34.2801196  97.0344533  43.1760381  35.3854555  98.0087305  42.8283367
  29.4824463  99.3503956  38.0200155  30.0331888  99.2221019  37.2477149
  28.6435939  99.6498845  37.6695048  36.8218580  98.1010954  41.5220878
  36.8037055  98.9219835  41.0301147  37.7438500  97.9765030  41.7471019
  33.2791634  95.6155084  42.3644386  33.8119971  94.8543372  42.1343694
  32.7505715  95.3228736  43.1068541  36.4461329  80.7215150  37.8938028
  36.1025598  81.6116791  37.8177138  36.8140291  80.5316807  37.0307613
  24.5147179  93.0448680  30.7126630  25.3522401  93.4545689  30.4960338
  24.6925447  92.1048122  30.6826824  36.4111611  90.7123761  26.4010463
  35.8958235  91.4828366  26.6398850  36.1388920  90.0388897  27.0243524
  33.9958723  85.5573462  31.4595701  33.1400319  85.1680312  31.2801340
  34.4085674  85.6365422  30.5995487  35.5257869  83.0919805  35.8587261
  35.0222665  83.0549940  35.0455066  35.8188476  84.0012548  35.9183918
  31.7700755  83.1758535  34.8653443  32.6353752  82.9801343  34.5059332
  31.8378264  82.9468886  35.7922800  41.3845886  93.4656116  28.3363636
  40.6075328  93.1267275  27.8918799  42.0637367  93.4708739  27.6618601
  36.1997915  88.5850853  28.2270244  35.8948050  88.8997002  29.0780387
  37.1528357  88.6632273  28.2697577  34.6444347  94.7441076  29.8763198
  34.1165708  94.0093836  29.5636436  34.1431849  95.5215753  29.6303166
  39.6237193  92.9390097  34.9930244  38.9660867  93.6289358  35.0810373
  40.4277592  93.3286529  35.3364231  29.3763074  85.4060743  32.2369810
  29.9506826  85.1835924  31.5043003  29.9634057  85.4749437  32.9898411
  38.4342651  91.2934470  33.0434186  38.9474533  91.9264461  33.5455896
  39.0843875  90.6935665  32.6777546  29.7032661  87.4365204  26.2565695
  28.8669973  87.7739890  26.5774970  29.5637431  87.3014183  25.3192832
  31.6785742  82.2801992  30.9644879  31.0250154  81.9651009  30.3401494
  31.6366216  81.6577732  31.6904702  32.7896947  92.5621287  22.8798171
  31.8824008  92.3310540  23.0789320  33.2867979  91.7658906  23.0672153
  35.6965026 101.2718794  25.7994857  35.0226724 101.5750491  26.4079815
  36.0830848 102.0747874  25.4500314  34.9123482  88.7683925  35.2892527
  33.9946044  88.9898872  35.1314215  35.3283626  88.8430236  34.4304234
  35.6958530  90.1675341  30.4195207  36.4430349  90.6796738  30.1102329
  35.9650119  89.8459393  31.2799601  33.9685180  92.6633881  27.4022161
  33.0596399  92.3792914  27.4994631  33.9980264  93.0832960  26.5425468
  39.2004448  96.2740471  31.1713329  38.7466775  95.4331381  31.2278519
  38.5698414  96.9101869  31.5088109  38.1437367  87.2032457  32.4013996
  37.4060124  86.6909843  32.7324239  38.3964141  86.7632839  31.5897273
  37.6437387  98.1116968  32.1063147  37.9360361  98.6722025  31.3875513
  38.1536007  98.4045529  32.8616306  38.2448994  79.9808709  32.9955766
  38.5507871  79.1206072  32.7081681  38.9701599  80.5726329  32.7954759
  24.5373351  90.3839396  31.3837363  24.3397750  89.7908756  30.6588430
  23.9820014  90.0791606  32.1013302  32.5170074  90.2762502  33.5031957
  32.5718684  89.3236338  33.4274433  31.7061276  90.4321941  33.9873255
  33.6661268  94.2042625  24.7410240  33.2280698  93.4878484  24.2815877
  34.4071709  94.4318740  24.1795331  30.4562434  88.8939562  31.2622335
  29.6430300  89.1933732  31.6687528  30.9521428  88.4995251  31.9796818
  32.6071012  98.8897319  33.1956600  32.5647191  99.1158165  32.2665132
  33.5233711  98.6560693  33.3442401  36.0536646  89.3581386  40.0937229
  36.4086033  89.5852859  40.9531695  36.7008777  89.6899763  39.4714485
  41.7834383  92.4799822  30.7986558  41.6452281  92.6701418  29.8707748
  41.4270602  93.2419205  31.2554610  29.9476509  86.4657917  36.8783570
  30.5875888  86.3246676  36.1806534  29.1154039  86.1792431  36.5022172
  41.8103762  94.5476349  35.8097830  42.2440269  94.4551638  36.6580884
  42.5235343  94.5233850  35.1717846  30.7236813  95.7660348  32.9918563
  31.5177411  95.2710668  32.7901138  30.0128505  95.2378211  32.6286268
  35.5431657  98.1478443  37.3430931  35.5968679  98.7169380  38.1108646
  34.6746439  98.3180328  36.9784968  27.0319576  89.9103429  29.0678316
  26.1017164  89.8487885  29.2848278  27.1277048  89.3879382  28.2714957
  26.9505125  86.4358242  31.6556557  27.2111943  87.3503576  31.5465718
  27.7722298  85.9682685  31.8053170  28.4230051  87.8495999  38.8255382
  29.0953104  87.6413362  38.1768031  27.5959837  87.6518085  38.3860614
  42.6719312  94.5900050  38.3430715  42.8655202  95.4945860  38.5889990
  42.5719930  94.1307469  39.1769300  34.3255623  84.4757940  40.8421043
  33.6783538  85.1747890  40.7485519  35.0956638  84.9094084  41.2097291
  37.7334421  94.7406793  43.9171596  37.5819927  94.5117344  43.0001680
  37.7239100  95.6977394  43.9302941  34.5019757  92.3138705  38.9017862
  35.4311817  92.4649865  38.7286830  34.0810787  92.4022726  38.0466509
  33.3008089  96.3389370  36.6716400  33.1619174  95.9708154  37.5442338
  32.5122685  96.8537009  36.5000358  33.8956241 101.4398466  28.0141937
  34.0707996 100.9686509  28.8287559  33.2089029 102.0664232  28.2423197
  34.8513304  95.7170972  34.0605238  34.5163136  95.6771742  34.9562888
  34.3517250  95.0515688  33.5875648  28.8257548  91.1238602  39.5857819
  28.6877346  90.3918841  40.1869358  29.7362471  91.0347503  39.3042007
  37.7872496  93.0627007  24.3342297  37.1701666  92.3373835  24.2375350
  37.3188984  93.8236367  23.9909372  31.4539849  90.8358562  39.0741499
  32.1639467  90.1951754  39.0328117  31.4109157  91.0871457  39.9967679
  39.4426627  97.7725915  41.9948078  39.3839173  97.0885135  41.3278661
  39.8446146  98.5144905  41.5428704  30.1668782  87.8223780  40.8937138
  29.6306140  87.3714518  41.5458734  29.5785491  87.9569689  40.1507602
  28.4617326 104.5887829  34.7881797  28.7013924 105.2206353  35.4660815
  27.6186522 104.2375869  35.0747156  29.5771041  87.2812431  23.4563602
  28.7000508  87.1601232  23.0925848  30.0528795  86.4898509  23.2042490
  39.4444034  95.7365499  40.2262057  38.5570813  95.3991421  40.3488456
  40.0142586  95.0048530  40.4630823  21.0973182  92.0689591  33.5505109
  21.7844221  91.7551321  32.9626124  20.9421310  92.9730955  33.2772360
  25.9007904  86.9579787  37.9790133  25.8166092  86.3505457  37.2440542
  25.0790610  87.4488806  37.9799629  32.9745188 100.3966951  37.1923301
  32.9015359 101.2021923  37.7042605  32.5322581 100.5958917  36.3671322
  32.7634967  99.6338721  30.7026122  31.9802489 100.1760402  30.7964347
  33.4627713 100.1512701  31.1020363  36.0731618  85.4433351  33.3460328
  36.5700317  84.6903313  33.0261398  35.3018599  85.4797668  32.7803537
  43.9261375  91.1473716  34.9878619  43.9151251  92.0298432  34.6172552
  43.0578754  90.7945267  34.7933156  35.4343871 100.2953785  39.3481459
  36.1471844 100.9301250  39.2757361  34.9433900 100.3917651  38.5321461
  37.1561398  94.2005038  30.9198751  36.2217677  94.3206501  30.7503455
  37.3338067  93.2977505  30.6558761  32.6566586  87.5850734  33.0732012
  32.2864374  87.0321774  33.7612918  33.1525679  86.9808867  32.5207012
  40.5433950  90.0422357  31.4548785  41.0094402  90.8750349  31.3809088
  40.9941450  89.5767339  32.1594044  30.4855785  98.0448229  40.1687030
  31.1865244  98.6784712  40.3216424  30.0150900  98.3862960  39.4082669
  38.6110181  96.3866179  28.4534937  38.8870025  96.2722773  29.3628811
  37.7414679  95.9883664  28.4147110  38.5150612  82.4102944  35.4939686
  37.6013692  82.6407171  35.6621893  38.9443714  82.4941388  36.3453719
  38.2857071  90.5992836  37.9939580  37.6328521  90.8468744  37.3392033
  38.6637451  89.7856975  37.6602058  35.2464245 100.6352530  32.0967751
  35.4286639  99.8174185  32.5595503  36.0697231 100.8520222  31.6592641
  35.5806410  99.5620715  29.3582799  36.1094177  99.0513169  28.7452961
  35.8434630  99.2463245  30.2228332  34.3344644  91.3412647  44.4805618
  33.6585281  91.2406777  45.1507993  35.1572278  91.1851861  44.9441615
  26.0823503  97.5784584  37.1018133  26.6676940  96.8328272  37.2346037
  25.8848341  97.8888541  37.9854797  28.9362158 100.6135831  32.1180575
  28.2672533 101.0981959  31.6344615  28.7975028 100.8605052  33.0323954
  20.6741158  90.1490184  35.8222576  20.7125257  89.6153775  36.6159694
  20.1681451  89.6225390  35.2033553  33.0767427 102.6479575  38.7163234
  33.6285735 102.8111196  39.4812319  33.4173620 103.2384013  38.0443258
  28.0531920  84.9954725  39.3185118  28.1173246  85.8569556  38.9062516
  27.9899040  84.3828726  38.5857477  27.5284193  87.0677857  42.9658153
  28.1556231  86.6854935  43.5795677  26.6712111  86.8492059  43.3313845
  37.9278301  97.4740832  44.5711888  38.4718205  98.0870791  44.0766843
  37.3465146  98.0320411  45.0878901  24.3049735  88.8754286  28.8976507
  24.6003176  87.9664965  28.8443561  23.4037771  88.8542026  28.5757510
  36.2135814 100.5961550  35.7026916  36.0886954  99.7951290  35.1937861
  36.8714905 101.0907744  35.2140886  27.8343982  86.9510283  34.8804056
  27.1130568  87.5646251  34.7411529  28.6237238  87.4868048  34.8020702
  38.2770722  98.3970570  37.3306466  37.3301058  98.2775922  37.2584793
  38.6253496  97.5093069  37.4132727  30.6370296  84.2864709  41.1544708
  31.1604698  84.5327006  41.9171017  30.4182629  85.1184744  40.7347845
  26.0337577  86.5568384  29.0215833  25.7050283  85.6765763  28.8390938
  26.3876948  86.5016053  29.9092222  35.2817156  98.1923287  33.5310818
  35.1342118  97.2639994  33.7118388  36.1070649  98.2143377  33.0467893
  29.1479400  86.8441354  29.3891310  29.4875473  87.3727275  28.6669919
  29.5951521  87.1821760  30.1649877  38.8851278  99.0151845  34.6175691
  39.8097825  98.8094707  34.4800142  38.7166581  98.7668247  35.5265032
  31.8422841  85.2278405  38.8394378  31.5019661  84.4286218  39.2415058
  31.1361847  85.5280115  38.2671211  32.4939313  82.3127717  37.2921701
  33.3165382  81.8388195  37.1700592  32.7377376  83.0918201  37.7920388
  31.1347547  85.3415975  27.5884603  31.8555910  85.7197228  27.0848320
  30.5112851  86.0604852  27.6919581  35.2778670  86.0461124  28.5242935
  35.4942284  86.9285762  28.2231763  34.7972737  85.6547338  27.7948577
  30.0177891  89.0046838  35.1013680  29.8722472  89.3187141  35.9937961
  29.5403095  89.6231738  34.5484579  31.8774274  85.9949386  35.1494569
  31.8635843  85.0990479  34.8126867  32.5946702  86.0020049  35.7832855
  33.7300405  86.4286726  37.1947697  33.4718183  87.3503796  37.1932027
  33.1985445  86.0317160  37.8848161  38.6746594  99.5337513  29.9737782
  38.8483471  98.9683935  29.2211635  39.1675485 100.3338408  29.7917272
  24.4923554  91.5452182  38.0401341  23.9477022  92.3211990  38.1721615
  25.3702903  91.8922986  37.8820462  31.2811170  84.8763766  30.4182140
  31.4027081  83.9480412  30.6173027  30.9913213  84.8902452  29.5060455
  34.1502361  82.5618676  33.5548859  34.1724057  82.6258009  32.6000839
  34.5670420  81.7223185  33.7489366  44.5285985  92.2973936  31.5928082
  44.9717131  91.5481261  31.1947205  43.6512495  92.2884072  31.2101814
  39.6621766  98.8504277  27.0734681  40.3572671  99.4710970  27.2921995
  40.0044916  97.9999629  27.3487058  25.2789575  90.6722078  40.9331498
  24.5371311  90.8204714  41.5196128  24.9582320  90.9330344  40.0698247
  41.5613189  96.3003983  28.6022011  42.0864513  96.6391256  27.8771331
  41.4735542  95.3650998  28.4185146  33.2233238 100.2138056  40.7311888
  33.5320365  99.9687203  41.6034588  34.0208720 100.4184695  40.2430758
  33.2453850 102.3675966  32.9617264  32.8058840 101.8752345  33.6550121
  33.9961967 101.8248934  32.7209340  25.7246189  98.5587507  32.9641893
  26.5504209  98.2591279  32.5840536  25.3740241  97.7895129  33.4131681
  30.6927722  97.9113975  35.0339566  30.0707732  97.2484680  34.7341794
  31.3632589  97.9375107  34.3513214  23.9254794  96.4773833  33.9230826
  23.0886702  96.0496008  33.7414827  23.8978440  96.6706277  34.8601617
  30.7652250  86.3895763  44.6272072  30.8140405  87.2657886  44.2449842
  31.3074764  85.8473156  44.0543715  41.2507095  96.9336886  43.9073209
  40.4602639  96.9161025  43.3677709  41.0140450  97.4725180  44.6622246
  41.3704971  93.7829353  41.2205938  41.4202975  93.6179360  42.1621461
  41.2618894  92.9156612  40.8303819  30.2541229  96.4617899  28.5098027
  30.4029350  97.1453363  27.8564699  31.0607673  96.4422989  29.0247482
  38.6608733  89.7660281  42.5365245  39.5618596  89.6266746  42.2449242
  38.7356707  89.9314736  43.4763422  32.9951538  87.1427136  41.3818431
  32.1254848  87.4360702  41.1101019  33.2311019  87.7267581  42.1025694
  42.8723167  96.2026294  41.4647959  42.5807976  96.5656275  42.3011420
  42.2595299  95.4893303  41.2861291  44.0718850  93.7679174  33.9850530
  44.9065741  94.2068978  34.1488090  44.2077978  93.2917827  33.1658775
  41.1210356  91.3258909  39.9328017  41.5964477  91.5186555  39.1246869
  40.1975921  91.3818095  39.6871401  28.0093862  92.4883076  29.5159096
  27.7639904  91.5845406  29.7139306  28.1789777  92.4900227  28.5738574
  35.6990572  83.3606753  38.8983851  36.2172516  84.0967779  38.5730340
  35.3445705  83.6670746  39.7330610  27.2789510  88.2211434  27.0145257
  26.5858755  88.2955789  26.3585293  27.0341262  87.4571777  27.5366774
  35.9503166  79.7807035  34.4184748  36.2304920  79.1130224  35.0445174
  36.7353773  79.9736131  33.9059412  33.7536635  98.9566029  25.9809774
  33.1810602  99.5756216  25.5280246  34.3269428  99.5065391  26.5149696
  39.8212025  88.2024669  38.1656323  40.7729447  88.3022767  38.1868547
  39.6515475  87.4102938  38.6754407  37.8426404  85.2880252  38.3515724
  37.2476336  85.5685265  37.6562212  37.5576101  85.7774153  39.1232465
  36.9733895  99.2403179  27.1118356  37.9064568  99.1748741  27.3151232
  36.8857107 100.0759446  26.6532889  39.6021911  98.5569049  24.0722304
  39.5235543  98.2228913  24.9658062  40.4231578  99.0490817  24.0713776
  42.3000102  91.4230789  37.2798623  42.2676422  90.4846789  37.4658306
  42.9100726  91.5014825  36.5464447  34.1383433  90.2926842  23.3225827
  35.0842538  90.1633050  23.3914245  33.7597678  89.5541504  23.7995255
  42.4494591  88.2141832  37.3256906  41.9333640  87.4300289  37.1386835
  43.3334539  87.8860549  37.4903425  40.1105318  81.9582848  33.2852718
  39.9130139  81.6497936  34.1696050  40.7205023  82.6844487  33.4150648
  48.1176652  92.4846796  36.4204659  48.8480041  92.2232084  36.9812363
  47.5083598  91.7475518  36.4606727  46.1991949  90.6254658  37.0179111
  45.4725113  90.4910623  36.4095602  45.7839236  90.9331487  37.8235829
  34.0222126  94.3444588  44.7826484  34.9425135  94.5223187  44.9766530
  33.9871709  93.4000633  44.6306183  32.3226350  88.2176818  23.2580712
  31.4157806  87.9209931  23.3343425  32.6002331  87.9206636  22.3914998
  23.2404291  89.5383182  33.7079758  22.9207075  88.6848490  33.4154132
  22.6937719  89.7531760  34.4637726  27.0184198  92.2545623  37.4249265
  27.2370208  93.1862730  37.4437299  27.4309972  91.8953597  38.2104069
  33.9388416  82.7613708  29.4124953  33.1289144  82.4160793  29.7880199
  34.6272833  82.4521252  30.0012565  35.8678964  81.8391755  31.0349250
  36.4210003  82.2587208  31.6939273  36.1049051  80.9127503  31.0772206
  31.8912064  87.8278828  46.8152014  31.7908791  88.7773185  46.7464105
  31.6733606  87.4997067  45.9428084  31.0925135  85.0763753  23.3992691
  31.9544299  85.4018652  23.6588508  31.2775479  84.2895249  22.8865757
  23.1092551  93.1586093  35.6772880  22.4156022  92.7440046  35.1642834
  23.8565542  93.2006630  35.0806299  39.2457771  83.9492280  30.5427914
  38.6656441  84.6077084  30.1605966  38.9793704  83.1269624  30.1315332
  37.6961338  83.3497337  32.7449234  38.1961116  83.4613872  31.9363553
  38.3396946  83.0458390  33.3850043  31.7543334  91.2575967  45.6317075
  31.2710415  92.0576327  45.8380964  31.8404273  91.2683912  44.6784519
  25.0229293  93.0904347  33.5538895  24.9999981  93.1892034  32.6020778
  25.3329930  93.9369498  33.8756061  27.6816671  95.1480502  37.6685509
  28.6359925  95.1164444  37.6015441  27.4829195  94.6871126  38.4835735
  28.2716053  93.7181618  40.2356307  29.0908942  94.2125697  40.2591144
  28.5452861  92.8013586  40.2073874  38.0282650  86.1092370  29.5984262
  37.1408505  86.3942021  29.3804457  38.4436639  85.9486134  28.7511539
  41.3797186  86.1338891  33.3138602  42.1557576  86.6235344  33.5863218
  40.6545320  86.5596945  33.7710471  43.8169744  86.8466510  34.3712542
  44.4114235  86.6062246  33.6605850  43.8896328  86.1273641  34.9986078
  26.0366900 100.6900121  34.6855707  25.9021368  99.9300522  34.1193705
  25.6198962 101.4141021  34.2184496  37.1725863  95.8737045  23.6932282
  37.8761713  96.0787047  24.3089938  36.4488512  96.4413807  23.9581366
  38.0023673  91.6246906  29.8134552  37.9458875  92.0815458  28.9742185
  38.5552016  90.8637591  29.6357395  41.8128479  87.4136638  30.6384672
  41.5565413  87.0133274  31.4692880  41.1881347  88.1280432  30.5134811
  46.1240817  90.1532711  33.1455963  45.5640375  90.2225901  33.9187525
  45.5184320  89.9773696  32.4255460  29.1936026 101.5869438  34.8974150
  29.0768410 102.5314871  34.7952840  28.3728472 101.2843000  35.2859949
  39.0812560  96.3119574  25.7430742  39.9158164  95.8800773  25.5608217
  38.9196903  96.1401588  26.6707637  38.7358453  92.8151687  27.1087082
  38.6807256  92.6495959  26.1675526  38.1104508  93.5227720  27.2649271
  23.5250968  88.0519752  40.9348504  24.1709831  87.5418706  41.4235729
  23.3168119  88.7888433  41.5091929  36.0504360  95.1200599  46.4340644
  36.9195519  95.2941252  46.0727279  35.5711111  95.9395016  46.3116374
  32.0454578  82.3159796  26.6872400  32.0333248  83.2601636  26.8440671
  32.9378000  82.1329942  26.3931861  30.2190540 102.2397700  38.1130078
  31.1217787 102.2721310  38.4296573  29.9927910 101.3098151  38.1276414
  31.9744142 100.9928687  34.7740157  31.0239773 100.9930548  34.6604529
  32.2776628 100.2461421  34.2576191  35.8606697  78.9102573  30.9418337
  35.0939093  78.3561060  31.0875019  36.2717402  78.9824442  31.8032488
  27.8648459  85.1987369  45.0323518  28.7279920  84.8424174  45.2426843
  27.2913869  84.8601264  45.7198922  47.7096835 106.8289225  35.8385919
  48.3475245 106.7095973  35.1349259  47.5917678 107.7770069  35.8973871
  44.5186542 106.7816653  35.7747444  44.1805053 106.6657718  34.8867979
  45.3876310 106.3807818  35.7548450  40.3773357 108.6352130  31.7644335
  39.8138223 108.5442067  30.9960622  40.2625752 107.8152034  32.2446827
  45.0006325 107.9351505  41.7333649  44.9894966 107.5404303  40.8614153
  45.1626964 107.2017578  42.3267421  37.9237789 110.1303321  34.6028555
  38.7159081 109.7894146  34.1874854  38.1634440 110.2398296  35.5230709
  45.9572916 112.3023097  27.0758800  45.3060896 112.8877178  26.6892813
  46.7517279 112.8329292  27.1353837  39.8828543 109.3912235  27.4745934
  40.6559419 108.8441222  27.3358810  40.2353942 110.2556484  27.6860395
  41.7213586 110.7188617  40.6812833  41.4303452 111.6234248  40.5659500
  42.3570570 110.7605144  41.3956903  42.6469793 108.0965465  37.2714193
  43.2433365 107.8721488  36.5571156  42.7044764 107.3550211  37.8739641
  42.2194821 105.5504901  25.1064384  42.4720342 105.0286422  24.3447847
  41.2819380 105.3871046  25.2091068  47.2638104 104.5540679  32.9139127
  48.0501193 104.1360102  32.5629544  47.5276808 105.4586771  33.0820776
  47.4348181 109.9913529  27.6127784  46.7994014 110.0648156  28.3248689
  47.1045588 110.5807128  26.9346863  52.6646531 104.4915912  33.8172106
  53.3971703 103.9215129  34.0509935  51.9085887 104.1037513  34.2578611
  41.9391110 107.4533007  27.3088759  41.8227368 106.7777910  27.9769843
  42.0493370 106.9665381  26.4920912  44.2822651 106.9143154  31.0135448
  43.9180858 106.3873775  31.7248370  45.1389767 106.5241623  30.8401934
  50.1871951  98.2037486  38.2766714  49.8555276  99.0732897  38.0527929
  49.5917565  97.8873770  38.9560745  43.9228138 101.9433053  26.0096797
  44.0902540 102.8113290  26.3767268  43.7325307 102.1060335  25.0858086
  46.6803471 110.4050032  37.6762627  46.3804194 111.3075071  37.5678434
  46.3354530 110.1382216  38.5283780  40.1315952 106.8563829  33.7099331
  39.2066449 106.7240043  33.9177023  40.3800366 107.6358048  34.2069274
  50.0800615 102.9232572  35.3560064  49.1717492 102.8547981  35.0618825
  50.0288211 103.4004517  36.1841890  43.9017359 104.3990711  26.9943463
  43.7816984 104.8447762  27.8328944  43.2069947 104.7476029  26.4357002
  37.4924763 106.4997103  34.5443120  37.6217145 106.7531582  35.4582532
  36.8122215 107.0924811  34.2247776  41.6624251 117.1694353  30.6433595
  41.5848280 118.1202178  30.7222075  41.0585894 116.8240225  31.3008521
  44.1541481 104.3422218  43.2994962  43.3774815 104.9016138  43.2897826
  44.7932044 104.8279001  43.8209832  51.9462261 101.1249011  37.1337938
  51.3036641 101.4181544  36.4877733  51.4417190 101.0101931  37.9391135
  49.6002425 104.8712184  27.8223797  50.5120281 105.1039571  27.6471495
  49.0912072 105.4549228  27.2598876  42.4087853 107.1507671  42.8612929
  43.1502537 107.6892715  42.5847752  41.7024838 107.7773960  43.0184480
  47.8843192 109.2936812  41.4585090  48.2926549 108.8519222  40.7139722
  47.1620454 108.7189439  41.7119283  44.2374263 104.2309419  38.8318647
  45.0835458 104.6548832  38.9753296  44.1772900 103.5743043  39.5257210
  48.2072007 109.8538003  35.2137379  47.5780870 110.0183717  34.5113447
  47.8197669 110.2679612  35.9848343  52.0861239 110.7892440  32.5681743
  51.4012277 111.1691342  32.0178776  52.1705088 111.3987767  33.3013690
  47.3873708 101.8913787  40.4899821  47.1434640 102.6455848  39.9534096
  47.6633638 102.2699135  41.3247068  49.3412171 108.4352399  39.1677086
  49.5529066 109.0784159  38.4911467  49.2941919 107.6014716  38.6999016
  46.9438400 101.0470220  36.0713658  46.0822879 101.3451474  36.3630396
  46.9700834 101.2640619  35.1394691  43.7599969 109.5912411  32.4787464
  44.2238315 109.8700114  31.6892087  43.4956767 108.6895855  32.2960555
  40.6524050 109.1383892  35.4167227  41.2225407 109.5671161  34.7784712
  41.2432162 108.8566477  36.1151413  42.6968855 105.7135563  29.2877029
  43.3992898 106.1656607  29.7550956  42.3649484 105.0719382  29.9156922
  41.1449217 104.3047320  43.6628239  40.5147877 104.9863600  43.8963635
  41.0385304 104.1930401  42.7181377  36.4394189 103.9719116  34.5894163
  35.6493243 104.2276644  34.1134273  36.9305436 104.7867454  34.6946203
  50.4557999 111.3124355  37.3399444  51.2775442 110.9104542  37.0582125
  50.4520401 111.2092589  38.2915559  38.3908934 104.3363695  31.5477639
  37.5940098 104.4482389  32.0661135  38.1634527 104.6750347  30.6818530
  44.2214602 110.8608398  39.4960154  44.2859035 111.3228805  40.3318326
  43.5125526 110.2305763  39.6242464  34.7231892 104.2249606  37.0209154
  34.9739930 105.1096616  37.2866729  35.2591440 104.0454208  36.2484245
  58.5463992 107.6563103  33.6884415  57.7927700 107.0870501  33.5328419
  58.6811533 107.6225768  34.6355050  43.9362620 112.5276506  29.3639134
  43.8008294 113.3728041  29.7923982  44.4772432 112.7295783  28.6005068
  40.4229959  98.6068085  46.0253490  40.0296905  98.0534284  46.7001134
  41.2396100  98.9178664  46.4160007  37.3892017 110.0451944  29.9367059
  37.9016538 110.8395194  30.0872624  38.0414730 109.3478234  29.8700661
  39.1986902 113.1617700  32.0189813  39.3753530 114.0835665  31.8310797
  39.9943735 112.8476119  32.4484192  43.3397920 100.0225965  43.6173746
  44.0807634 100.6233118  43.5378209  43.5715843  99.2803602  43.0591789
  38.4839258 105.2082332  41.8951976  38.3692773 104.3067589  42.1959075
  37.6283776 105.4546029  41.5436792  45.5631096 113.1500072  43.4939476
  45.1194950 112.3636451  43.1760381  46.2248310 113.3379223  42.8283367
  40.3218217 114.6795874  38.0200155  40.8725642 114.5512937  37.2477149
  39.4829693 114.9790763  37.6695048  47.6612334 113.4302872  41.5220878
  47.6430809 114.2511753  41.0301147  48.5832254 113.3056947  41.7471019
  44.1185388 110.9447002  42.3644386  44.6513725 110.1835290  42.1343694
  43.5899469 110.6520653  43.1068541  47.2855083  96.0507067  37.8938028
  46.9419353  96.9408709  37.8177138  47.6534046  95.8608725  37.0307613
  35.3540934 108.3740598  30.7126630  36.1916156 108.7837606  30.4960338
  35.5319202 107.4340040  30.6826824  47.2505366 106.0415679  26.4010463
  46.7351989 106.8120283  26.6398850  46.9782674 105.3680815  27.0243524
  44.8352477 100.8865379  31.4595701  43.9794073 100.4972230  31.2801340
  45.2479429 100.9657340  30.5995487  46.3651624  98.4211723  35.8587261
  45.8616419  98.3841858  35.0455066  46.6582231  99.3304465  35.9183918
  42.6094510  98.5050452  34.8653443  43.4747506  98.3093261  34.5059332
  42.6772018  98.2760804  35.7922800  52.2239640 108.7948033  28.3363636
  51.4469083 108.4559193  27.8918799  52.9031121 108.8000656  27.6618601
  47.0391669 103.9142771  28.2270244  46.7341805 104.2288920  29.0780387
  47.9922111 103.9924191  28.2697577  45.4838101 110.0732994  29.8763198
  44.9559463 109.3385754  29.5636436  44.9825604 110.8507670  29.6303166
  50.4630947 108.2682014  34.9930244  49.8054621 108.9581276  35.0810373
  51.2671346 108.6578446  35.3364231  40.2156829 100.7352660  32.2369810
  40.7900581 100.5127842  31.5043003  40.8027811 100.8041355  32.9898411
  49.2736406 106.6226387  33.0434186  49.7868288 107.2556379  33.5455896
  49.9237630 106.0227583  32.6777546  40.5426416 102.7657121  26.2565695
  39.7063728 103.1031808  26.5774970  40.4031185 102.6306101  25.3192832
  42.5179496  97.6093909  30.9644879  41.8643909  97.2942926  30.3401494
  42.4759970  96.9869650  31.6904702  43.6290701 107.8913204  22.8798171
  42.7217763 107.6602458  23.0789320  44.1261733 107.0950824  23.0672153
  46.5358780 116.6010711  25.7994857  45.8620479 116.9042408  26.4079815
  46.9224602 117.4039792  25.4500314  45.7517237 104.0975843  35.2892527
  44.8339798 104.3190790  35.1314215  46.1677380 104.1722153  34.4304234
  46.5352284 105.4967258  30.4195207  47.2824103 106.0088656  30.1102329
  46.8043874 105.1751311  31.2799601  44.8078935 107.9925799  27.4022161
  43.8990154 107.7084832  27.4994631  44.8374018 108.4124878  26.5425468
  50.0398202 111.6032389  31.1713329  49.5860529 110.7623299  31.2278519
  49.4092169 112.2393787  31.5088109  48.9831122 102.5324375  32.4013996
  48.2453878 102.0201761  32.7324239  49.2357895 102.0924756  31.5897273
  48.4831141 113.4408885  32.1063147  48.7754116 114.0013942  31.3875513
  48.9929762 113.7337446  32.8616306  49.0842749  95.3100627  32.9955766
  49.3901626  94.4497990  32.7081681  49.8095354  95.9018247  32.7954759
  35.3767105 105.7131313  31.3837363  35.1791505 105.1200674  30.6588430
  34.8213769 105.4083523  32.1013302  43.3563829 105.6054420  33.5031957
  43.4112438 104.6528256  33.4274433  42.5455031 105.7613859  33.9873255
  44.5055022 109.5334543  24.7410240  44.0674452 108.8170402  24.2815877
  45.2465463 109.7610658  24.1795331  41.2956189 104.2231479  31.2622335
  40.4824054 104.5225650  31.6687528  41.7915183 103.8287168  31.9796818
  43.4464766 114.2189236  33.1956600  43.4040945 114.4450083  32.2665132
  44.3627465 113.9852611  33.3442401  46.8930400 104.6873304  40.0937229
  47.2479788 104.9144777  40.9531695  47.5402531 105.0191681  39.4714485
  52.6228137 107.8091740  30.7986558  52.4846036 107.9993336  29.8707748
  52.2664356 108.5711123  31.2554610  40.7870263 101.7949835  36.8783570
  41.4269643 101.6538594  36.1806534  39.9547794 101.5084348  36.5022172
  52.6497517 109.8768267  35.8097830  53.0834023 109.7843556  36.6580884
  53.3629098 109.8525767  35.1717846  41.5630567 111.0952265  32.9918563
  42.3571166 110.6002586  32.7901138  40.8522260 110.5670129  32.6286268
  46.3825412 113.4770361  37.3430931  46.4362434 114.0461297  38.1108646
  45.5140193 113.6472246  36.9784968  37.8713331 105.2395347  29.0678316
  36.9410919 105.1779803  29.2848278  37.9670803 104.7171300  28.2714957
  37.7898880 101.7650160  31.6556557  38.0505697 102.6795493  31.5465718
  38.6116052 101.2974603  31.8053170  39.2623805 103.1787917  38.8255382
  39.9346859 102.9705279  38.1768031  38.4353592 102.9810003  38.3860614
  53.5113066 109.9191968  38.3430715  53.7048956 110.8237778  38.5889990
  53.4113685 109.4599387  39.1769300  45.1649377  99.8049858  40.8421043
  44.5177292 100.5039808  40.7485519  45.9350392 100.2386002  41.2097291
  48.5728175 110.0698710  43.9171596  48.4213681 109.8409262  43.0001680
  48.5632855 111.0269312  43.9302941  45.3413511 107.6430623  38.9017862
  46.2705571 107.7941783  38.7286830  44.9204541 107.7314644  38.0466509
  44.1401843 111.6681287  36.6716400  44.0012929 111.3000072  37.5442338
  43.3516439 112.1828927  36.5000358  44.7349995 116.7690384  28.0141937
  44.9101751 116.2978427  28.8287559  44.0482783 117.3956150  28.2423197
  45.6907058 111.0462890  34.0605238  45.3556891 111.0063660  34.9562888
  45.1911004 110.3807606  33.5875648  39.6651302 106.4530520  39.5857819
  39.5271100 105.7210759  40.1869358  40.5756226 106.3639420  39.3042007
  48.6266250 108.3918924  24.3342297  48.0095421 107.6665753  24.2375350
  48.1582738 109.1528285  23.9909372  42.2933603 106.1650479  39.0741499
  43.0033222 105.5243672  39.0328117  42.2502911 106.4163374  39.9967679
  50.2820382 113.1017833  41.9948078  50.2232928 112.4177053  41.3278661
  50.6839900 113.8436823  41.5428704  41.0062537 103.1515697  40.8937138
  40.4699894 102.7006436  41.5458734  40.4179245 103.2861606  40.1507602
  40.4164796 102.6104349  23.4563602  39.5394262 102.4893150  23.0925848
  40.8922549 101.8190427  23.2042490  50.2837789 111.0657417  40.2262057
  49.3964568 110.7283339  40.3488456  50.8536340 110.3340448  40.4630823
  31.9366936 107.3981508  33.5505109  32.6237976 107.0843239  32.9626124
  31.7815065 108.3022873  33.2772360  36.7401658 102.2871705  37.9790133
  36.6559847 101.6797375  37.2440542  35.9184365 102.7780723  37.9799629
  43.8138942 115.7258869  37.1923301  43.7409114 116.5313841  37.7042605
  43.3716335 115.9250835  36.3671322  43.6028722 114.9630639  30.7026122
  42.8196244 115.5052319  30.7964347  44.3021467 115.4804619  31.1020363
  46.9125372 100.7725269  33.3460328  47.4094072 100.0195231  33.0261398
  46.1412354 100.8089585  32.7803537  54.7655129 106.4765634  34.9878619
  54.7545006 107.3590350  34.6172552  53.8972509 106.1237185  34.7933156
  46.2737626 115.6245703  39.3481459  46.9865598 116.2593168  39.2757361
  45.7827655 115.7209569  38.5321461  47.9955153 109.5296956  30.9198751
  47.0611432 109.6498418  30.7503455  48.1731821 108.6269423  30.6558761
  43.4960341 102.9142652  33.0732012  43.1258128 102.3613692  33.7612918
  43.9919433 102.3100785  32.5207012  51.3827704 105.3714275  31.4548785
  51.8488156 106.2042267  31.3809088  51.8335205 104.9059257  32.1594044
  41.3249539 113.3740147  40.1687030  42.0258999 114.0076630  40.3216424
  40.8544654 113.7154878  39.4082669  49.4503935 111.7158096  28.4534937
  49.7263779 111.6014691  29.3628811  48.5808434 111.3175581  28.4147110
  49.3544367  97.7394862  35.4939686  48.4407447  97.9699089  35.6621893
  49.7837468  97.8233306  36.3453719  49.1250825 105.9284754  37.9939580
  48.4722276 106.1760661  37.3392033  49.5031205 105.1148892  37.6602058
  46.0857999 115.9644447  32.0967751  46.2680394 115.1466103  32.5595503
  46.9090985 116.1812139  31.6592641  46.4200165 114.8912632  29.3582799
  46.9487931 114.3805087  28.7452961  46.6828384 114.5755163  30.2228332
  45.1738398 106.6704565  44.4805618  44.4979035 106.5698694  45.1507993
  45.9966032 106.5143779  44.9441615  36.9217257 112.9076502  37.1018133
  37.5070694 112.1620190  37.2346037  36.7242096 113.2180458  37.9854797
  39.7755913 115.9427749  32.1180575  39.1066288 116.4273877  31.6344615
  39.6368782 116.1896969  33.0323954  31.5134912 105.4782102  35.8222576
  31.5519012 104.9445693  36.6159694  31.0075205 104.9517307  35.2033553
  43.9161181 117.9771493  38.7163234  44.4679489 118.1403114  39.4812319
  44.2567375 118.5675930  38.0443258  38.8925674 100.3246642  39.3185118
  38.9567001 101.1861473  38.9062516  38.8292795  99.7120644  38.5857477
  38.3677947 102.3969775  42.9658153  38.9949986 102.0146852  43.5795677
  37.5105866 102.1783977  43.3313845  48.7672056 112.8032750  44.5711888
  49.3111960 113.4162708  44.0766843  48.1858900 113.3612328  45.0878901
  35.1443490 104.2046204  28.8976507  35.4396931 103.2956882  28.8443561
  34.2431526 104.1833943  28.5757510  47.0529569 115.9253468  35.7026916
  46.9280708 115.1243208  35.1937861  47.7108660 116.4199661  35.2140886
  38.6737737 102.2802201  34.8804056  37.9524323 102.8938168  34.7411529
  39.4630993 102.8159965  34.8020702  49.1164477 113.7262488  37.3306466
  48.1694812 113.6067839  37.2584793  49.4647250 112.8384986  37.4132727
  41.4764050  99.6156627  41.1544708  41.9998452  99.8618924  41.9171017
  41.2576384 100.4476662  40.7347845  36.8731331 101.8860302  29.0215833
  36.5444038 101.0057681  28.8390938  37.2270702 101.8307970  29.9092222
  46.1210910 113.5215204  33.5310818  45.9735873 112.5931912  33.7118388
  46.9464404 113.5435295  33.0467893  39.9873155 102.1733271  29.3891310
  40.3269227 102.7019193  28.6669919  40.4345275 102.5113678  30.1649877
  49.7245032 114.3443763  34.6175691  50.6491580 114.1386624  34.4800142
  49.5560335 114.0960164  35.5265032  42.6816595 100.5570322  38.8394378
  42.3413416  99.7578135  39.2415058  41.9755602 100.8572033  38.2671211
  43.3333067  97.6419635  37.2921701  44.1559136  97.1680113  37.1700592
  43.5771131  98.4210118  37.7920388  41.9741302 100.6707893  27.5884603
  42.6949664 101.0489146  27.0848320  41.3506606 101.3896770  27.6919581
  46.1172425 101.3753042  28.5242935  46.3336039 102.2577680  28.2231763
  45.6366492 100.9839255  27.7948577  40.8571646 104.3338755  35.1013680
  40.7116227 104.6479058  35.9937961  40.3796850 104.9523656  34.5484579
  42.7168029 101.3241303  35.1494569  42.7029598 100.4282397  34.8126867
  43.4340457 101.3311967  35.7832855  44.5694160 101.7578643  37.1947697
  44.3111937 102.6795714  37.1932027  44.0379200 101.3609078  37.8848161
  49.5140348 114.8629431  29.9737782  49.6877226 114.2975853  29.2211635
  50.0069240 115.6630325  29.7917272  35.3317308 106.8744100  38.0401341
  34.7870776 107.6503908  38.1721615  36.2096658 107.2214904  37.8820462
  42.1204925 100.2055684  30.4182140  42.2420836  99.2772330  30.6173027
  41.8306967 100.2194369  29.5060455  44.9896115  97.8910594  33.5548859
  45.0117812  97.9549927  32.6000839  45.4064174  97.0515103  33.7489366
  55.3679739 107.6265853  31.5928082  55.8110885 106.8773179  31.1947205
  54.4906250 107.6175990  31.2101814  50.5015521 114.1796195  27.0734681
  51.1966425 114.8002888  27.2921995  50.8438671 113.3291546  27.3487058
  36.1183330 106.0013996  40.9331498  35.3765066 106.1496631  41.5196128
  35.7976074 106.2622262  40.0698247  52.4006944 111.6295900  28.6022011
  52.9258268 111.9683173  27.8771331  52.3129296 110.6942916  28.4185146
  44.0626993 115.5429974  40.7311888  44.3714119 115.2979121  41.6034588
  44.8602475 115.7476613  40.2430758  44.0847605 117.6967884  32.9617264
  43.6452595 117.2044262  33.6550121  44.8355722 117.1540851  32.7209340
  36.5639944 113.8879425  32.9641893  37.3897964 113.5883196  32.5840536
  36.2133996 113.1187047  33.4131681  41.5321477 113.2405893  35.0339566
  40.9101486 112.5776598  34.7341794  42.2026344 113.2667025  34.3513214
  34.7648549 111.8065751  33.9230826  33.9280457 111.3787925  33.7414827
  34.7372194 111.9998194  34.8601617  41.6046004 101.7187681  44.6272072
  41.6534160 102.5949804  44.2449842  42.1468518 101.1765074  44.0543715
  52.0900850 112.2628804  43.9073209  51.2996394 112.2452943  43.3677709
  51.8534205 112.8017098  44.6622246  52.2098725 109.1121271  41.2205938
  52.2596730 108.9471278  42.1621461  52.1012648 108.2448530  40.8303819
  41.0934984 111.7909816  28.5098027  41.2423104 112.4745281  27.8564699
  41.9001427 111.7714906  29.0247482  49.5002487 105.0952199  42.5365245
  50.4012350 104.9558663  42.2449242  49.5750462 105.2606653  43.4763422
  43.8345293 102.4719053  41.3818431  42.9648602 102.7652619  41.1101019
  44.0704773 103.0559498  42.1025694  53.7116922 111.5318212  41.4647959
  53.4201730 111.8948193  42.3011420  53.0989053 110.8185220  41.2861291
  54.9112604 109.0971092  33.9850530  55.7459496 109.5360896  34.1488090
  55.0471733 108.6209745  33.1658775  51.9604110 106.6550827  39.9328017
  52.4358232 106.8478473  39.1246869  51.0369675 106.7110012  39.6871401
  38.8487617 107.8174994  29.5159096  38.6033659 106.9137324  29.7139306
  39.0183531 107.8192144  28.5738574  46.5384327  98.6898670  38.8983851
  47.0566270  99.4259697  38.5730340  46.1839459  98.9962664  39.7330610
  38.1183264 103.5503351  27.0145257  37.4252509 103.6247706  26.3585293
  37.8735016 102.7863695  27.5366774  46.7896921  95.1098953  34.4184748
  47.0698674  94.4422142  35.0445174  47.5747528  95.3028048  33.9059412
  44.5930389 114.2857947  25.9809774  44.0204356 114.9048134  25.5280246
  45.1663183 114.8357308  26.5149696  50.6605779 103.5316587  38.1656323
  51.6123202 103.6314684  38.1868547  50.4909229 102.7394855  38.6754407
  48.6820159 100.6172170  38.3515724  48.0870091 100.8977183  37.6562212
  48.3969855 101.1066071  39.1232465  47.8127649 114.5695097  27.1118356
  48.7458322 114.5040658  27.3151232  47.7250862 115.4051364  26.6532889
  50.4415666 113.8860967  24.0722304  50.3629297 113.5520831  24.9658062
  51.2625332 114.3782735  24.0713776  53.1393857 106.7522706  37.2798623
  53.1070177 105.8138707  37.4658306  53.7494481 106.8306743  36.5464447
  44.9777188 105.6218759  23.3225827  45.9236292 105.4924968  23.3914245
  44.5991433 104.8833421  23.7995255  53.2888345 103.5433750  37.3256906
  52.7727394 102.7592206  37.1386835  54.1728294 103.2152466  37.4903425
  50.9499072  97.2874765  33.2852718  50.7523893  96.9789854  34.1696050
  51.5598778  98.0136404  33.4150648  58.9570407 107.8138713  36.4204659
  59.6873795 107.5524001  36.9812363  58.3477352 107.0767435  36.4606727
  57.0385704 105.9546576  37.0179111  56.3118867 105.8202541  36.4095602
  56.6232991 106.2623404  37.8235829  44.8615880 109.6736506  44.7826484
  45.7818890 109.8515105  44.9766530  44.8265463 108.7292551  44.6306183
  43.1620105 103.5468736  23.2580712  42.2551560 103.2501848  23.3343425
  43.4396086 103.2498554  22.3914998  34.0798045 104.8675099  33.7079758
  33.7600830 104.0140407  33.4154132  33.5331473 105.0823677  34.4637726
  37.8577953 107.5837540  37.4249265  38.0763963 108.5154648  37.4437299
  38.2703727 107.2245515  38.2104069  44.7782171  98.0905625  29.4124953
  43.9682899  97.7452710  29.7880199  45.4666588  97.7813169  30.0012565
  46.7072719  97.1683672  31.0349250  47.2603758  97.5879126  31.6939273
  46.9442805  96.2419420  31.0772206  42.7305818 103.1570746  46.8152014
  42.6302545 104.1065103  46.7464105  42.5127360 102.8288985  45.9428084
  41.9318890 100.4055671  23.3992691  42.7938054 100.7310569  23.6588508
  42.1169234  99.6187167  22.8865757  33.9486305 108.4878011  35.6772880
  33.2549777 108.0731963  35.1642834  34.6959296 108.5298547  35.0806299
  50.0851526  99.2784197  30.5427914  49.5050195  99.9369001  30.1605966
  49.8187459  98.4561542  30.1315332  48.5355092  98.6789255  32.7449234
  49.0354871  98.7905790  31.9363553  49.1790700  98.3750308  33.3850043
  42.5937088 106.5867885  45.6317075  42.1104170 107.3868245  45.8380964
  42.6798027 106.5975830  44.6784519  35.8623048 108.4196264  33.5538895
  35.8393736 108.5183952  32.6020778  36.1723684 109.2661415  33.8756061
  38.5210426 110.4772419  37.6685509  39.4753679 110.4456362  37.6015441
  38.3222949 110.0163043  38.4835735  39.1109808 109.0473536  40.2356307
  39.9302697 109.5417614  40.2591144  39.3846616 108.1305504  40.2073874
  48.8676404 101.4384288  29.5984262  47.9802259 101.7233938  29.3804457
  49.2830393 101.2778051  28.7511539  52.2190940 101.4630809  33.3138602
  52.9951330 101.9527261  33.5863218  51.4939074 101.8888863  33.7710471
  54.6563499 102.1758428  34.3712542  55.2507990 101.9354164  33.6605850
  54.7290082 101.4565559  34.9986078  48.0119617 111.2028963  23.6932282
  48.7155468 111.4078965  24.3089938  47.2882266 111.7705724  23.9581366
  48.8417428 106.9538824  29.8134552  48.7852629 107.4107375  28.9742185
  49.3945770 106.1929508  29.6357395  52.6522234 102.7428556  30.6384672
  52.3959168 102.3425191  31.4692880  52.0275102 103.4572350  30.5134811
  56.9634572 105.4824629  33.1455963  56.4034129 105.5517818  33.9187525
  56.3578075 105.3065614  32.4255460  49.9206315 111.6411492  25.7430742
  50.7551919 111.2092690  25.5608217  49.7590658 111.4693505  26.6707637
  49.5752207 108.1443605  27.1087082  49.5201011 107.9787876  26.1675526
  48.9498262 108.8519638  27.2649271  34.3644722 103.3811669  40.9348504
  35.0103586 102.8710623  41.4235729  34.1561873 104.1180351  41.5091929
  46.8898114 110.4492517  46.4340644  47.7589274 110.6233169  46.0727279
  46.4104866 111.2686934  46.3116374  42.8848333  97.6451714  26.6872400
  42.8727002  98.5893554  26.8440671  43.7771754  97.4621859  26.3931861
  41.0584294 117.5689618  38.1130078  41.9611541 117.6013228  38.4296573
  40.8321665 116.6390069  38.1276414  42.8137896 116.3220604  34.7740157
  41.8633527 116.3222466  34.6604529  43.1170383 115.5753339  34.2576191
  46.7000452  94.2394491  30.9418337  45.9332848  93.6852977  31.0875019
  47.1111157  94.3116359  31.8032488  38.7042213 100.5279286  45.0323518
  39.5673675 100.1716091  45.2426843  38.1307624 100.1893181  45.7198922
  58.5490590 122.1581143  35.8385919  59.1869000 122.0387890  35.1349259
  58.4311433 123.1061987  35.8973871  55.3580296 122.1108571  35.7747444
  55.0198808 121.9949636  34.8867979  56.2270064 121.7099736  35.7548450
  55.8400079 123.2643423  41.7333649  55.8288720 122.8696221  40.8614153
  56.0020719 122.5309495  42.3267421  53.0588576 120.8796818  25.1064384
  53.3114096 120.3578340  24.3447847  52.1213135 120.7162964  25.2091068
  58.1031858 119.8832597  32.9139127  58.8894948 119.4652020  32.5629544
  58.3670563 120.7878689  33.0820776  63.5040286 119.8207830  33.8172106
  64.2365458 119.2507047  34.0509935  62.7479641 119.4329430  34.2578611
  55.1216405 122.2435071  31.0135448  54.7574613 121.7165692  31.7248370
  55.9783521 121.8533540  30.8401934  61.0265706 113.5329404  38.2766714
  60.6949031 114.4024815  38.0527929  60.4311319 113.2165688  38.9560745
  54.7621892 117.2724971  26.0096797  54.9296295 118.1405207  26.3767268
  54.5719061 117.4352253  25.0858086  60.9194369 118.2524490  35.3560064
  60.0111247 118.1839899  35.0618825  60.8681965 118.7296435  36.1841890
  54.7411113 119.7282629  26.9943463  54.6210738 120.1739679  27.8328944
  54.0463702 120.0767946  26.4357002  54.9935235 119.6714136  43.2994962
  54.2168569 120.2308056  43.2897826  55.6325798 120.1570919  43.8209832
  62.7856016 116.4540929  37.1337938  62.1430396 116.7473462  36.4877733
  62.2810944 116.3393849  37.9391135  60.4396179 120.2004102  27.8223797
  61.3514035 120.4331489  27.6471495  59.9305826 120.7841146  27.2598876
  55.0768017 119.5601336  38.8318647  55.9229212 119.9840750  38.9753296
  55.0166655 118.9034961  39.5257210  58.2267462 117.2205705  40.4899821
  57.9828394 117.9747765  39.9534096  58.5027393 117.5991052  41.3247068
  60.1805925 123.7644317  39.1677086  60.3922820 124.4076077  38.4911467
  60.1335673 122.9306634  38.6999016  57.7832154 116.3762138  36.0713658
  56.9216633 116.6743391  36.3630396  57.8094589 116.5932537  35.1394691
  53.5362610 121.0427481  29.2877029  54.2386653 121.4948524  29.7550956
  53.2043238 120.4011300  29.9156922  51.9842971 119.6339237  43.6628239
  51.3541632 120.3155518  43.8963635  51.8779059 119.5222319  42.7181377
  47.2787944 119.3011033  34.5894163  46.4886997 119.5568562  34.1134273
  47.7699191 120.1159371  34.6946203  49.2302689 119.6655613  31.5477639
  48.4333852 119.7774307  32.0661135  49.0028281 120.0042265  30.6818530
  69.3857746 122.9855021  33.6884415  68.6321455 122.4162419  33.5328419
  69.5205287 122.9517685  34.6355050  51.2623714 113.9360003  46.0253490
  50.8690659 113.3826202  46.7001134  52.0789854 114.2470582  46.4160007
  54.1791675 115.3517882  43.6173746  54.9201388 115.9525035  43.5378209
  54.4109598 114.6095520  43.0591789  58.1248838 111.3798985  37.8938028
  57.7813107 112.2700627  37.8177138  58.4927800 111.1900643  37.0307613
  58.0899120 121.3707596  26.4010463  57.5745744 122.1412201  26.6398850
  57.8176429 120.6972732  27.0243524  55.6746231 116.2157297  31.4595701
  54.8187828 115.8264147  31.2801340  56.0873183 116.2949258  30.5995487
  57.2045378 113.7503640  35.8587261  56.7010174 113.7133775  35.0455066
  57.4975985 114.6596383  35.9183918  53.4488264 113.8342370  34.8653443
  54.3141261 113.6385179  34.5059332  53.5165773 113.6052722  35.7922800
  63.0633395 124.1239951  28.3363636  62.2862837 123.7851110  27.8918799
  63.7424876 124.1292574  27.6618601  57.8785424 119.2434688  28.2270244
  57.5735559 119.5580838  29.0780387  58.8315866 119.3216108  28.2697577
  61.3024702 123.5973932  34.9930244  60.6448376 124.2873194  35.0810373
  62.1065101 123.9870364  35.3364231  51.0550583 116.0644578  32.2369810
  51.6294335 115.8419759  31.5043003  51.6421566 116.1333272  32.9898411
  60.1130160 121.9518305  33.0434186  60.6262042 122.5848297  33.5455896
  60.7631384 121.3519500  32.6777546  51.3820170 118.0949039  26.2565695
  50.5457482 118.4323726  26.5774970  51.2424940 117.9598019  25.3192832
  53.3573251 112.9385827  30.9644879  52.7037663 112.6234844  30.3401494
  53.3153725 112.3161567  31.6904702  56.5910991 119.4267760  35.2892527
  55.6733553 119.6482707  35.1314215  57.0071135 119.5014071  34.4304234
  57.3746039 120.8259176  30.4195207  58.1217858 121.3380573  30.1102329
  57.6437628 120.5043229  31.2799601  59.8224876 117.8616292  32.4013996
  59.0847633 117.3493679  32.7324239  60.0751650 117.4216674  31.5897273
  59.9236503 110.6392544  32.9955766  60.2295380 109.7789908  32.7081681
  60.6489108 111.2310165  32.7954759  54.1957583 120.9346337  33.5031957
  54.2506193 119.9820174  33.4274433  53.3848785 121.0905777  33.9873255
  52.1349943 119.5523397  31.2622335  51.3217809 119.8517568  31.6687528
  52.6308937 119.1579086  31.9796818  57.7324155 120.0165222  40.0937229
  58.0873542 120.2436695  40.9531695  58.3796286 120.3483598  39.4714485
  63.4621892 123.1383658  30.7986558  63.3239790 123.3285253  29.8707748
  63.1058110 123.9003040  31.2554610  51.6264018 117.1241753  36.8783570
  52.2663397 116.9830512  36.1806534  50.7941548 116.8376266  36.5022172
  63.4891271 125.2060185  35.8097830  63.9227778 125.1135474  36.6580884
  64.2022852 125.1817685  35.1717846  48.7107085 120.5687265  29.0678316
  47.7804673 120.5071720  29.2848278  48.8064557 120.0463218  28.2714957
  48.6292634 117.0942078  31.6556557  48.8899452 118.0087411  31.5465718
  49.4509807 116.6266520  31.8053170  50.1017560 118.5079835  38.8255382
  50.7740613 118.2997197  38.1768031  49.2747346 118.3101921  38.3860614
  64.3506821 125.2483885  38.3430715  64.5442711 126.1529696  38.5889990
  64.2507439 124.7891304  39.1769300  56.0043132 115.1341776  40.8421043
  55.3571047 115.8331725  40.7485519  56.7744147 115.5677920  41.2097291
  56.1807266 122.9722541  38.9017862  57.1099326 123.1233700  38.7286830
  55.7598296 123.0606561  38.0466509  59.4660005 123.7210842  24.3342297
  58.8489175 122.9957670  24.2375350  58.9976493 124.4820202  23.9909372
  53.1327357 121.4942397  39.0741499  53.8426976 120.8535589  39.0328117
  53.0896666 121.7455292  39.9967679  51.8456291 118.4807615  40.8937138
  51.3093648 118.0298353  41.5458734  51.2573000 118.6153524  40.1507602
  51.2558550 117.9396266  23.4563602  50.3788017 117.8185067  23.0925848
  51.7316303 117.1482345  23.2042490  47.5795413 117.6163623  37.9790133
  47.4953601 117.0089292  37.2440542  46.7578119 118.1072641  37.9799629
  57.7519127 116.1017186  33.3460328  58.2487826 115.3487149  33.0261398
  56.9806108 116.1381503  32.7803537  65.6048884 121.8057552  34.9878619
  65.5938760 122.6882267  34.6172552  64.7366263 121.4529103  34.7933156
  54.3354095 118.2434569  33.0732012  53.9651883 117.6905610  33.7612918
  54.8313188 117.6392703  32.5207012  62.2221459 120.7006193  31.4548785
  62.6881911 121.5334184  31.3809088  62.6728959 120.2351174  32.1594044
  60.1938121 113.0686780  35.4939686  59.2801201 113.2991007  35.6621893
  60.6231223 113.1525224  36.3453719  59.9644580 121.2576672  37.9939580
  59.3116030 121.5052579  37.3392033  60.3424960 120.4440810  37.6602058
  56.0132153 121.9996483  44.4805618  55.3372790 121.8990612  45.1507993
  56.8359787 121.8435697  44.9441615  49.7319429 115.6538560  39.3185118
  49.7960755 116.5153391  38.9062516  49.6686549 115.0412562  38.5857477
  49.2071702 117.7261693  42.9658153  49.8343740 117.3438770  43.5795677
  48.3499620 117.5075895  43.3313845  45.9837244 119.5338122  28.8976507
  46.2790685 118.6248800  28.8443561  45.0825280 119.5125861  28.5757510
  49.5131491 117.6094118  34.8804056  48.7918077 118.2230086  34.7411529
  50.3024747 118.1451883  34.8020702  52.3157805 114.9448545  41.1544708
  52.8392207 115.1910841  41.9171017  52.0970138 115.7768580  40.7347845
  47.7125086 117.2152219  29.0215833  47.3837792 116.3349598  28.8390938
  48.0664457 117.1599888  29.9092222  50.8266909 117.5025189  29.3891310
  51.1662982 118.0311110  28.6669919  51.2739029 117.8405595  30.1649877
  53.5210350 115.8862240  38.8394378  53.1807170 115.0870053  39.2415058
  52.8149356 116.1863951  38.2671211  54.1726822 112.9711552  37.2921701
  54.9952891 112.4972030  37.1700592  54.4164885 113.7502036  37.7920388
  52.8135056 115.9999811  27.5884603  53.5343419 116.3781064  27.0848320
  52.1900360 116.7188688  27.6919581  56.9566179 116.7044960  28.5242935
  57.1729793 117.5869598  28.2231763  56.4760246 116.3131173  27.7948577
  51.6965400 119.6630673  35.1013680  51.5509981 119.9770976  35.9937961
  51.2190604 120.2815573  34.5484579  53.5561783 116.6533221  35.1494569
  53.5423352 115.7574314  34.8126867  54.2734211 116.6603885  35.7832855
  55.4087914 117.0870561  37.1947697  55.1505692 118.0087632  37.1932027
  54.8772954 116.6900996  37.8848161  52.9598679 115.5347601  30.4182140
  53.0814590 114.6064247  30.6173027  52.6700722 115.5486287  29.5060455
  55.8289870 113.2202512  33.5548859  55.8511566 113.2841845  32.6000839
  56.2457929 112.3807020  33.7489366  66.2073494 122.9557771  31.5928082
  66.6504640 122.2065096  31.1947205  65.3300004 122.9467908  31.2101814
  52.4439759 117.0479599  44.6272072  52.4927914 117.9241721  44.2449842
  52.9862273 116.5056992  44.0543715  63.0492479 124.4413188  41.2205938
  63.0990484 124.2763196  42.1621461  62.9406403 123.5740447  40.8303819
  60.3396242 120.4244116  42.5365245  61.2406105 120.2850581  42.2449242
  60.4144216 120.5898571  43.4763422  54.6739047 117.8010971  41.3818431
  53.8042357 118.0944537  41.1101019  54.9098528 118.3851416  42.1025694
  65.7506359 124.4263009  33.9850530  66.5853250 124.8652814  34.1488090
  65.8865487 123.9501663  33.1658775  62.7997865 121.9842744  39.9328017
  63.2751986 122.1770391  39.1246869  61.8763430 122.0401930  39.6871401
  57.3778081 114.0190588  38.8983851  57.8960025 114.7551615  38.5730340
  57.0233214 114.3254581  39.7330610  48.9577019 118.8795269  27.0145257
  48.2646264 118.9539624  26.3585293  48.7128771 118.1155613  27.5366774
  57.6290675 110.4390870  34.4184748  57.9092429 109.7714059  35.0445174
  58.4141282 110.6319966  33.9059412  61.4999534 118.8608504  38.1656323
  62.4516956 118.9606602  38.1868547  61.3302984 118.0686773  38.6754407
  59.5213913 115.9464088  38.3515724  58.9263845 116.2269100  37.6562212
  59.2363610 116.4357989  39.1232465  63.9787611 122.0814624  37.2798623
  63.9463931 121.1430625  37.4658306  64.5888235 122.1598661  36.5464447
  55.8170942 120.9510677  23.3225827  56.7630047 120.8216885  23.3914245
  55.4385187 120.2125339  23.7995255  64.1282100 118.8725668  37.3256906
  63.6121148 118.0884124  37.1386835  65.0122048 118.5444384  37.4903425
  61.7892827 112.6166683  33.2852718  61.5917648 112.3081771  34.1696050
  62.3992532 113.3428322  33.4150648  69.7964161 123.1430631  36.4204659
  70.5267550 122.8815919  36.9812363  69.1871107 122.4059353  36.4606727
  67.8779458 121.2838494  37.0179111  67.1512622 121.1494458  36.4095602
  67.4626745 121.5915322  37.8235829  54.0013859 118.8760653  23.2580712
  53.0945315 118.5793766  23.3343425  54.2789840 118.5790472  22.3914998
  55.6175925 113.4197543  29.4124953  54.8076653 113.0744628  29.7880199
  56.3060342 113.1105087  30.0012565  57.5466473 112.4975590  31.0349250
  58.0997512 112.9171043  31.6939273  57.7836560 111.5711338  31.0772206
  53.5699573 118.4862664  46.8152014  53.4696300 119.4357021  46.7464105
  53.3521115 118.1580903  45.9428084  52.7712644 115.7347589  23.3992691
  53.6331808 116.0602487  23.6588508  52.9562988 114.9479085  22.8865757
  60.9245280 114.6076115  30.5427914  60.3443950 115.2660919  30.1605966
  60.6581213 113.7853460  30.1315332  59.3748847 114.0081173  32.7449234
  59.8748625 114.1197707  31.9363553  60.0184455 113.7042226  33.3850043
  59.7070158 116.7676206  29.5984262  58.8196014 117.0525856  29.3804457
  60.1224148 116.6069969  28.7511539  63.0584695 116.7922727  33.3138602
  63.8345085 117.2819179  33.5863218  62.3332829 117.2180781  33.7710471
  65.4957253 117.5050346  34.3712542  66.0901744 117.2646082  33.6605850
  65.5683837 116.7857476  34.9986078  59.6811182 122.2830741  29.8134552
  59.6246384 122.7399293  28.9742185  60.2339525 121.5221426  29.6357395
  63.4915988 118.0720473  30.6384672  63.2352922 117.6717109  31.4692880
  62.8668856 118.7864267  30.5134811  67.8028326 120.8116547  33.1455963
  67.2427884 120.8809736  33.9187525  67.1971829 120.6357531  32.4255460
  60.4145962 123.4735523  27.1087082  60.3594765 123.3079794  26.1675526
  59.7892017 124.1811556  27.2649271  45.2038477 118.7103587  40.9348504
  45.8497340 118.2002541  41.4235729  44.9955628 119.4472269  41.5091929
  53.7242087 112.9743632  26.6872400  53.7120757 113.9185472  26.8440671
  54.6165509 112.7913777  26.3931861  57.5394206 109.5686408  30.9418337
  56.7726602 109.0144895  31.0875019  57.9504911 109.6408277  31.8032488
  49.5435968 115.8571204  45.0323518  50.4067429 115.5008009  45.2426843
  48.9701378 115.5185099  45.7198922  68.9642592 126.7090903  37.8938028
  68.6206862 127.5992545  37.8177138  69.3321555 126.5192560  37.0307613
  70.7630258 125.9684462  32.9955766  71.0689135 125.1081825  32.7081681
  71.4882863 126.5602082  32.7954759  68.4684430 125.7682788  34.4184748
  68.7486183 125.1005977  35.0445174  69.2535037 125.9611884  33.9059412
  72.6286581 127.9458601  33.2852718  72.4311402 127.6373689  34.1696050
  73.2386287 128.6720240  33.4150648  68.3787961 124.8978326  30.9418337
  67.6120357 124.3436813  31.0875019  68.7898666 124.9700195  31.8032488
   6.9245365  28.7912285  28.7193384   6.8657911  28.1071505  28.0523967
   7.3264883  29.5331275  28.2674010   5.4097039  28.4927202  31.2957195
   5.9536943  29.1057160  30.8012149   4.8283884  29.0506780  31.8124208
   8.7325833  27.9523256  30.6318516   7.9421377  27.9347395  30.0923015
   8.4959188  28.4911550  31.3867552  10.3541905  27.2212664  28.1893266
  10.0626713  27.5842644  29.0256727   9.7414036  26.5079672  28.0106598
   3.5323098  26.1386969  33.1585951   4.4014257  26.3127621  32.7972586
   3.0529849  26.9581386  33.0361680  15.1915573  37.8475595  22.5631226
  15.8293983  37.7282342  21.8594566  15.0736416  38.7956439  22.6219178
  12.0005280  37.8003023  22.4992750  11.6623791  37.6844088  21.6113285
  12.8695048  37.3994188  22.4793757  12.4825063  38.9537875  28.4578956
  12.4713703  38.5590673  27.5859460  12.6445702  38.2203947  29.0512727
   5.4056527  41.1489691  21.3273862   6.1977819  40.8080515  20.9120161
   5.6453177  41.2584666  22.2476015   9.2032324  41.7374986  27.4058140
   8.9122190  42.6420617  27.2904806   9.8389308  41.7791514  28.1202209
  10.1288531  39.1151835  23.9959500  10.7252103  38.8907857  23.2816463
  10.1863502  38.3736580  24.5984947  20.1465269  35.5102282  20.5417412
  20.8790441  34.9401499  20.7755242  19.3904625  35.1223882  20.9823918
  17.6690689  29.2223856  25.0012021  17.3374014  30.0919267  24.7773236
  17.0736303  28.9060140  25.6806051  14.1622209  41.4236402  24.4007934
  13.8622932  42.3261441  24.2923741  13.8173268  41.1568585  25.2529086
  17.5619353  33.9418942  22.0805371  16.6536230  33.8734350  21.7864132
  17.5106948  34.4190887  22.9087196   9.1442989  48.1880722  17.3678901
   9.0667018  49.1388547  17.4467382   8.5404632  47.8426595  18.0253828
  11.6360218  35.3608588  30.0240268  10.8593552  35.9202508  30.0143133
  12.2750781  35.8465371  30.5455138  19.4280999  32.1435380  23.8583245
  18.7855379  32.4367914  23.2123039  18.9235927  32.0288301  24.6636442
   9.8906591  38.1694041  29.5858235  10.6321275  38.7079085  29.3093059
   9.1843576  38.7960330  29.7429787  15.3661930  40.3123181  28.1830397
  15.7745286  39.8705592  27.4385029  14.6439192  39.7375809  28.4364590
  11.7193000  35.2495788  25.5563954  12.5654196  35.6735202  25.6998603
  11.6591638  34.5929413  26.2502517  15.6890745  40.8724372  21.9382686
  15.0599607  41.0370086  21.2358753  15.3016407  41.2865982  22.7093650
  19.5679977  41.8078810  19.2927049  18.8831015  42.1877711  18.7424083
  19.6523826  42.4174137  20.0258997  14.8692446  32.9100157  27.2145127
  14.6253378  33.6642217  26.6779403  15.1452376  33.2885504  28.0492374
  16.8230908  39.4538769  25.8922393  17.0347804  40.0970529  25.2156774
  16.7760657  38.6201086  25.4244323   8.1342788  40.1570262  22.1412534
   8.7044145  40.5857530  21.5030018   8.7250900  39.8752846  22.8396720
   8.6267954  35.3233689  30.3873545   7.9966615  36.0049970  30.6208942
   8.5204042  35.2116771  29.4426683  17.9376736  42.3310724  24.0644750
  18.7594180  41.9290912  23.7827432  17.9339139  42.2278959  25.0160866
  11.7033340  41.8794768  26.2205461  11.7677772  42.3415175  27.0563633
  10.9944264  41.2492133  26.3487771  26.0282729  38.6749473  20.4129722
  25.2746438  38.1056871  20.2573726  26.1630271  38.6412137  21.3600356
   7.9048697  29.6254455  32.7498796   7.5115643  29.0720654  33.4246440
   8.7214837  29.9365033  33.1405314   6.6805640  44.1804069  18.7435119
   6.8572268  45.1022034  18.5556103   7.4762473  43.8662489  19.1729499
  10.8216658  31.0412334  30.3419053  11.5626371  31.6419487  30.2623515
  11.0534581  30.2989972  29.7837095   5.9657996  36.2268701  28.6197283
   5.8511511  35.3253959  28.9204381   5.1102514  36.4732398  28.2682099
  13.0449834  44.1686442  30.2184783  12.6013688  43.3822820  29.9005688
  13.7067047  44.3565592  29.5528674   7.8036955  45.6982243  24.7445462
   8.3544380  45.5699307  23.9722456   6.9648431  45.9977132  24.3940354
  15.1431072  44.4489242  28.2466184  15.1249547  45.2698123  27.7546454
  16.0650992  44.3243317  28.4716326  11.6004126  41.9633371  29.0889693
  12.1332463  41.2021659  28.8589001  11.0718207  41.6707023  29.8313847
  17.9449685  39.2868384  21.7175551  17.2873359  39.9767645  21.8055680
  18.7490084  39.6764816  22.0609537  16.7555144  37.6412757  19.7679493
  17.2687025  38.2742749  20.2701203  17.4056367  37.0413952  19.4022853
  13.2335974  35.1162212  22.0137833  12.3158536  35.3377159  21.8559521
  13.6496118  35.1908523  21.1549541  17.5216940  42.6218758  17.8958635
  17.0679267  41.7809668  17.9523826  16.8910907  43.2580157  18.2333416
  15.9649879  44.4595255  18.8308454  16.2572853  45.0200312  18.1120819
  16.4748500  44.7523816  19.5861613  10.9283504  45.2375606  19.9201907
  10.8859683  45.4636452  18.9910439  11.8446203  45.0038981  20.0687708
  14.3749138  35.7059674  26.8182536  14.7298526  35.9331147  27.6777002
  15.0221269  36.0378050  26.1959791  20.1046875  38.8278109  17.5231865
  19.9664774  39.0179705  16.5953054  19.7483094  39.5897492  17.9799916
  20.1316255  40.8954636  22.5343137  20.5652761  40.8029926  23.3826191
  20.8447835  40.8712137  21.8963153  13.8644149  44.4956731  24.0676237
  13.9181172  45.0647667  24.8353953  12.9958931  44.6658616  23.7030274
   6.7442543  34.1974287  25.5500688   7.4165596  33.9891649  24.9013337
   5.9172329  33.9996373  25.1105921  20.9931804  40.9378337  25.0676022
  21.1867694  41.8424148  25.3135297  20.8932422  40.4785756  25.9014607
  12.6468115  30.8236228  27.5666349  11.9996030  31.5226177  27.4730826
  13.4169130  31.2572372  27.9342597  16.0546913  41.0885080  30.6416903
  15.9032419  40.8595632  29.7246986  16.0451592  42.0455681  30.6548248
  12.8232249  38.6616993  25.6263169  13.7524309  38.8128152  25.4532136
  12.4023279  38.7501013  24.7711816  11.6220581  42.6867657  23.3961707
  11.4831667  42.3186441  24.2687645  10.8335177  43.2015296  23.2245664
  12.2168733  47.7876753  14.7387243  12.3920489  47.3164797  15.5532866
  11.5301521  48.4142520  14.9668504  13.1725796  42.0649260  20.7850544
  12.8375629  42.0250030  21.6808194  12.6729742  41.3993976  20.3120955
   7.1470040  37.4716890  26.3103126   7.0089838  36.7397129  26.9114665
   8.0574964  37.3825790  26.0287313   9.7752341  37.1836849  25.7986805
  10.4851959  36.5430041  25.7573424   9.7321649  37.4349744  26.7212986
  17.7639119  44.1204202  28.7193384  17.7051666  43.4363423  28.0523967
  18.1658638  44.8623192  28.2674010   8.4881275  34.1702067  27.6182445
   7.9518632  33.7192805  28.2704041   7.8997983  34.3047976  26.8752909
   6.7829818  50.9366116  21.5127103   7.0226416  51.5684640  22.1906122
   5.9399015  50.5854156  21.7992463  17.7656527  42.0843786  26.9507364
  16.8783306  41.7469708  27.0733763  18.3355078  41.3526818  27.1876129
  11.2957680  46.7445239  23.9168607  11.2227852  47.5500210  24.4287912
  10.8535073  46.9437204  23.0916629  11.0847460  45.9817009  17.4271429
  10.3014982  46.5238689  17.5209653  11.7840205  46.4990988  17.8265670
  22.2473867  37.4952004  21.7123926  22.2363744  38.3776719  21.3417859
  21.3791247  37.1423555  21.5178463  13.7556364  46.6432073  26.0726766
  14.4684336  47.2779538  26.0002667  13.2646392  46.7395939  25.2566768
   8.8068277  44.3926516  26.8932337   9.5077737  45.0262999  27.0461731
   8.3363392  44.7341248  26.1327976  16.6069563  36.9471124  24.7184887
  15.9541013  37.1947031  24.0637340  16.9849943  36.1335262  24.3847364
  13.5676737  46.9830817  18.8213057  13.7499132  46.1652473  19.2840810
  14.3909723  47.1998509  18.3837947  13.9018903  45.9099002  16.0828106
  14.4306669  45.3991456  15.4698268  14.1647122  45.5941532  16.9473639
  12.6557136  37.6890935  31.2050924  11.9797773  37.5885064  31.8753299
  13.4784770  37.5330148  31.6686921   4.4035995  43.9262871  23.8263439
   4.9889432  43.1806559  23.9591344   4.2060834  44.2366828  24.7100103
   7.2574650  46.9614119  18.8425882   6.5885026  47.4460246  18.3589922
   7.1187520  47.2083339  19.7569260  11.3979919  48.9957862  25.4408540
  11.9498227  49.1589484  26.2057625  11.7386113  49.5862300  24.7688565
   5.8496685  33.4156144  29.6903459   6.4768724  33.0333222  30.3040983
   4.9924604  33.1970346  30.0559152  16.2490793  43.8219120  31.2957195
  16.7930697  44.4349078  30.8012149  15.6677638  44.3798698  31.8124208
  14.5348306  46.9439838  22.4272222  14.4099446  46.1429577  21.9183168
  15.1927397  47.4386031  21.9386192  16.5983215  44.7448858  24.0551772
  15.6513550  44.6254209  23.9830099  16.9465988  43.8571356  24.1378034
   8.9582788  30.6342997  27.8790014   9.4817190  30.8805293  28.6416324
   8.7395121  31.4663031  27.4593152  13.6029648  44.5401574  20.2556125
  13.4554610  43.6118281  20.4363695  14.4283142  44.5621665  19.7713200
  17.2063770  45.3630133  21.3420997  18.1310317  45.1572994  21.2045449
  17.0379073  45.1146534  22.2510339  10.1635333  31.5756692  25.5639685
   9.8232153  30.7764505  25.9660365   9.4574339  31.8758403  24.9916518
  12.0512897  32.7765013  23.9193004  11.7930675  33.6982084  23.9177334
  11.5197938  32.3795448  24.6093468  16.9959086  45.8815800  16.6983089
  17.1695964  45.3162223  15.9456941  17.4887977  46.6816695  16.5162579
   2.8136046  37.8930469  24.7646648   2.2689514  38.6690277  24.8966922
   3.6915396  38.2401274  24.6065769  22.8498477  38.6452223  18.3173389
  23.2929623  37.8959548  17.9192512  21.9724988  38.6362359  17.9347121
  17.9834259  45.1982565  13.7979987  18.6785163  45.8189257  14.0167302
  18.3257409  44.3477916  14.0732365   3.6002068  37.0200365  27.6576805
   2.8583804  37.1683001  28.2441435   3.2794812  37.2808631  26.7943554
  19.8825682  42.6482270  15.3267318  20.4077006  42.9869543  14.6016638
  19.7948034  41.7129285  15.1430453  11.5445730  46.5616344  27.4557195
  11.8532857  46.3165490  28.3279894  12.3421212  46.7662982  26.9676065
  11.5666342  48.7154253  19.6862571  11.1271333  48.2230632  20.3795428
  12.3174459  48.1727221  19.4454646   4.0458681  44.9065794  19.6887199
   4.8716701  44.6069566  19.3085843   3.6952733  44.1373417  20.1376988
   9.0140215  44.2592262  21.7584873   8.3920224  43.5962967  21.4587101
   9.6845081  44.2853394  21.0758521   9.0864742  32.7374050  31.3517379
   9.1352898  33.6136173  30.9695148   9.6287256  32.1951443  30.7789022
  19.5719588  43.2815174  30.6318516  18.7815131  43.2639313  30.0923015
  19.3352942  43.8203467  31.3867552  19.6917463  40.1307640  27.9451244
  19.7415468  39.9657648  28.8866767  19.5831386  39.2634899  27.5549125
  16.9821225  36.1138568  29.2610551  17.8831088  35.9745033  28.9694549
  17.0569200  36.2793023  30.2008729  11.3164031  33.4905423  28.1063737
  10.4467340  33.7838989  27.8346326  11.5523511  34.0745868  28.8271001
  21.1935660  42.5504582  28.1893266  20.9020468  42.9134562  29.0256727
  20.5807791  41.8371590  28.0106598  22.3931342  40.1157461  20.7095836
  23.2278233  40.5547265  20.8733397  22.5290471  39.6396115  19.8904082
  19.4422848  37.6737196  26.6573324  19.9176969  37.8664843  25.8492175
  18.5188413  37.7296382  26.4116708  14.0203064  29.7085040  25.6229158
  14.5385008  30.4446067  25.2975646  13.6658197  30.0149033  26.4575917
  18.1424517  34.5502956  24.8901630  19.0941940  34.6501054  24.9113854
  17.9727967  33.7581225  25.3999714  16.1638896  31.6358540  25.0761030
  15.5688828  31.9163552  24.3807519  15.8788593  32.1252440  25.8477772
  20.6212595  37.7709076  24.0043929  20.5888915  36.8325077  24.1903613
  21.2313218  37.8493113  23.2709754  20.7707083  34.5620119  24.0502212
  20.2546132  33.7778576  23.8632141  21.6547032  34.2338836  24.2148732
  26.4389144  38.8325083  23.1449966  27.1692533  38.5710371  23.7057669
  25.8296090  38.0953805  23.1852034  24.5204442  36.9732945  23.7424417
  23.7937605  36.8388910  23.1340909  24.1051728  37.2809774  24.5481135
  12.3434618  40.6922875  31.5071790  13.2637628  40.8701474  31.7011837
  12.3084201  39.7478920  31.3551489   5.3396691  38.6023910  24.1494571
   5.5582700  39.5341018  24.1682605   5.7522464  38.2431884  24.9349375
  10.2124556  34.1757116  33.5397320  10.1121283  35.1251472  33.4709411
   9.9946098  33.8475354  32.6673390  10.0755826  37.6054254  32.3562382
   9.5922908  38.4054614  32.5626271  10.1616765  37.6162199  31.4029826
   6.0029163  41.4958789  24.3930816   6.9572417  41.4642731  24.3260747
   5.8041687  41.0349413  25.2081042   6.5928546  40.0659905  26.9601613
   7.4121435  40.5603984  26.9836451   6.8665353  39.1491873  26.9319181
  22.1382237  33.1944798  21.0957849  22.7326727  32.9540534  20.3851157
  22.2108820  32.4751928  21.7231385   4.3579392  47.0378409  21.4101014
   4.2233860  46.2778809  20.8439012   3.9411455  47.7619308  20.9429803
  24.4453309  36.5010998  19.8701270  23.8852867  36.5704188  20.6432832
  23.8396813  36.3251983  19.1500766   7.5148518  47.9347726  21.6219456
   7.3980902  48.8793158  21.5198147   6.6940964  47.6321287  22.0105255
   1.8463460  34.3998039  27.6593810   2.4922323  33.8896993  28.1481036
   1.6380611  35.1366721  28.2337236  14.3716852  41.4678886  33.1585951
  15.2408012  41.6419539  32.7972586  13.8923603  42.2873303  33.0361680
   8.5403032  48.5875987  24.8375385   9.4430279  48.6199598  25.1541880
   8.3140402  47.6576438  24.8521720  10.2956634  47.3406974  21.4985463
   9.3452265  47.3408836  21.3849836  10.5989120  46.5939709  20.9821498
   6.1860951  31.5465656  31.7568825   7.0492412  31.1902461  31.9672149
   5.6126361  31.2079551  32.4444229  26.0309328  53.1767512  22.5631226
  26.6687738  53.0574260  21.8594566  25.9130171  54.1248356  22.6219178
  22.8399034  53.1294941  22.4992750  22.5017546  53.0136005  21.6113285
  23.7088802  52.7286106  22.4793757  18.6985850  54.9830417  18.4889641
  18.1350715  54.8920354  17.7205929  18.5838245  54.1630321  18.9692134
  23.3218817  54.2829792  28.4578956  23.3107458  53.8882590  27.5859460
  23.4839456  53.5495865  29.0512727  16.2450282  56.4781609  21.3273862
  17.0371574  56.1372433  20.9120161  16.4846932  56.5876584  22.2476015
  24.2785408  58.6501385  13.8004106  23.6273388  59.2355465  13.4138120
  25.0729771  59.1807580  13.8599144  18.2041036  55.7390522  14.1991241
  18.9771912  55.1919509  14.0604116  18.5566434  56.6034771  14.4105702
  20.0426078  57.0666904  27.4058140  19.7515944  57.9712535  27.2904806
  20.6783063  57.1083432  28.1202209  20.9682285  54.4443753  23.9959500
  21.5645857  54.2199775  23.2816463  21.0257257  53.7028498  24.5984947
  20.5407313  51.8983188  11.8309691  20.7932834  51.3764709  11.0693154
  19.6031873  51.7349333  11.9336374  25.5850596  50.9018966  19.6384434
  26.3713685  50.4838389  19.2874851  25.8489301  51.8065058  19.8066082
  25.7560674  56.3391817  14.3373091  25.1206507  56.4126443  15.0493995
  25.4258080  56.9285415  13.6592170  30.9859023  50.8394199  20.5417412
  31.7184195  50.2693416  20.7755242  30.2298379  50.4515800  20.9823918
  20.2603602  53.8011294  14.0334065  20.1439860  53.1256197  14.7015150
  20.3705862  53.3143668  13.2166219  22.6035143  53.2621441  17.7380755
  22.2393350  52.7352062  18.4493676  23.4602259  52.8719910  17.5647240
  28.5084444  44.5515774  25.0012021  28.1767768  45.4211185  24.7773236
  27.9130057  44.2352058  25.6806051  22.2440630  48.2911341  12.7342103
  22.4115032  49.1591577  13.1012574  22.0537799  48.4538622  11.8103392
  25.0015963  56.7528320  24.4007934  24.7016686  57.6553358  24.2923741
  24.6567023  56.4860503  25.2529086  18.4528445  53.2042116  20.4344638
  17.5278941  53.0718330  20.6422330  18.7012858  53.9836336  20.9314580
  28.4013107  49.2710860  22.0805371  27.4929984  49.2026268  21.7864132
  28.3500703  49.7482805  22.9087196  22.2229851  50.7468998  13.7188770
  22.1029476  51.1926049  14.5574250  21.5282439  51.0954316  13.1602308
  15.8137256  52.8475390  21.2688427  15.9429637  53.1009869  22.1827839
  15.1334707  53.4403098  20.9493082  19.9836743  63.5172640  17.3678901
  19.9060773  64.4680465  17.4467382  19.3798387  63.1718512  18.0253828
  22.4753973  50.6900505  30.0240268  21.6987307  51.2494425  30.0143133
  23.1144536  51.1757288  30.5455138  30.2674753  47.4727298  23.8583245
  29.6249134  47.7659831  23.2123039  29.7629682  47.3580218  24.6636442
  27.9214917  51.2190471  14.5469104  28.8332773  51.4517858  14.3716802
  27.4124564  51.8027516  13.9844183  20.7300345  53.4985959  29.5858235
  21.4715029  54.0371003  29.3093059  20.0237331  54.1252247  29.7429787
  26.2055685  55.6415099  28.1830397  26.6139041  55.1997510  27.4385029
  25.4832946  55.0667727  28.4364590  22.5586755  50.5787706  25.5563954
  23.4047950  51.0027119  25.6998603  22.4985392  49.9221330  26.2502517
  26.5284499  56.2016290  21.9382686  25.8993362  56.3662004  21.2358753
  26.1410161  56.6157899  22.7093650  30.4073731  57.1370728  19.2927049
  29.7224769  57.5169629  18.7424083  30.4917581  57.7466054  20.0258997
  25.7086200  48.2392074  27.2145127  25.4647132  48.9934135  26.6779403
  25.9846131  48.6177422  28.0492374  27.6624663  54.7830687  25.8922393
  27.8741558  55.4262447  25.2156774  27.6154411  53.9493003  25.4244323
  25.2650892  47.3948507  22.7958965  24.4035371  47.6929761  23.0875703
  25.2913327  47.6118906  21.8639998  22.0812461  55.9390698  19.2032771
  22.5450807  56.2178401  18.4137393  21.8169259  55.0374142  19.0205861
  18.9736542  55.4862179  22.1412534  19.5437899  55.9149448  21.5030018
  19.5644654  55.2044764  22.8396720  21.0181347  52.0613850  16.0122336
  21.7205391  52.5134894  16.4796262  20.6861976  51.4197669  16.6402229
  19.4661709  50.6525607  30.3873545  18.8360369  51.3341888  30.6208942
  19.3597797  50.5408688  29.4426683  14.7606681  50.3197403  21.3139469
  13.9705735  50.5754931  20.8379580  15.2517929  51.1345741  21.4191510
  28.7770491  57.6602642  24.0644750  29.5987935  57.2582829  23.7827432
  28.7732894  57.5570876  25.0160866  16.7121427  50.6841982  18.2722946
  15.9152590  50.7960676  18.7906442  16.4847019  51.0228634  17.4063837
  22.5427094  57.2086685  26.2205461  22.6071527  57.6707093  27.0563633
  21.8338018  56.5784050  26.3487771  13.0444384  50.5727893  23.7454460
  13.2952423  51.4574903  24.0112036  13.5803933  50.3932495  22.9729552
  36.8676484  54.0041391  20.4129722  36.1140192  53.4348789  20.2573726
  37.0024025  53.9704055  21.3600356  22.2575112  58.8754793  16.0884441
  22.1220787  59.7206329  16.5169289  22.7984924  59.0774070  15.3250375
  18.7442452  44.9546373  32.7498796  18.3509397  44.4012571  33.4246440
  19.5608592  45.2656951  33.1405314  15.7104509  56.3930231  16.6612366
  16.2229030  57.1873481  16.8117931  16.3627222  55.6956521  16.5945968
  17.5199394  59.5095987  18.7435119  17.6966022  60.4313952  18.5556103
  18.3156228  59.1954406  19.1729499  21.6610413  46.3704252  30.3419053
  22.4020126  46.9711405  30.2623515  21.8928335  45.6281890  29.7837095
  16.8051751  51.5560619  28.6197283  16.6905266  50.6545876  28.9204381
  15.9496268  51.8024316  28.2682099  23.8843588  59.4978359  30.2184783
  23.4407443  58.7114738  29.9005688  24.5460802  59.6857510  29.5528674
  18.6430710  61.0274161  24.7445462  19.1938135  60.8991224  23.9722456
  17.8042185  61.3269050  24.3940354  25.9824826  59.7781159  28.2466184
  25.9643302  60.5990040  27.7546454  26.9044746  59.6535235  28.4716326
  22.4397881  57.2925289  29.0889693  22.9726217  56.5313577  28.8589001
  21.9111962  56.9998941  29.8313847  25.6067576  42.3985355  24.6183334
  25.2631845  43.2886996  24.5422445  25.9746538  42.2087012  23.7552920
  13.6753426  54.7218885  17.4371937  14.5128648  55.1315894  17.2205644
  13.8531694  53.7818327  17.4072131  25.5717858  52.3893966  13.1255770
  25.0564482  53.1598570  13.3644157  25.2995167  51.7159102  13.7488831
  23.1564969  47.2343667  18.1841008  22.3006566  46.8450517  18.0046647
  23.5691921  47.3135627  17.3240794  24.6864116  44.7690010  22.5832568
  24.1828912  44.7320145  21.7700373  24.9794723  45.6782753  22.6429224
  20.9307002  44.8528740  21.5898749  21.7959999  44.6571548  21.2304639
  20.9984511  44.6239091  22.5168106  30.5452132  55.1426320  15.0608943
  29.7681575  54.8037480  14.6164105  31.2243613  55.1478944  14.3863908
  25.3604161  50.2621058  14.9515551  25.0554297  50.5767207  15.8025694
  26.3134604  50.3402478  14.9942884  23.8050593  56.4211281  16.6008505
  23.2771955  55.6864041  16.2881742  23.3038096  57.1985958  16.3548473
  28.7843439  54.6160302  21.7175551  28.1267114  55.3059563  21.8055680
  29.5883838  55.0056734  22.0609537  18.5369321  47.0830948  18.9615116
  19.1113073  46.8606129  18.2288309  19.1240303  47.1519642  19.7143718
  27.5948898  52.9704674  19.7679493  28.1080780  53.6034666  20.2701203
  28.2450122  52.3705870  19.4022853  18.8638908  49.1135409  12.9811002
  18.0276220  49.4510095  13.3020276  18.7243678  48.9784388  12.0438139
  20.8391989  43.9572196  17.6890186  20.1856401  43.6421214  17.0646800
  20.7972463  43.3347937  18.4150009  21.9503193  54.2391492   9.6043478
  21.0430255  54.0080745   9.8034627  22.4474225  53.4429111   9.7917459
  24.8571272  62.9488999  12.5240164  24.1832971  63.2520695  13.1325122
  25.2437094  63.7518079  12.1745621  24.0729729  50.4454130  22.0137833
  23.1552290  50.6669077  21.8559521  24.4889873  50.5200440  21.1549541
  24.8564777  51.8445546  17.1440514  25.6036596  52.3566943  16.8347636
  25.1256366  51.5229598  18.0044907  23.1291427  54.3404086  14.1267468
  22.2202646  54.0563119  14.2239938  23.1586511  54.7603165  13.2670775
  28.3610694  57.9510676  17.8958635  27.9073021  57.1101586  17.9523826
  27.7304661  58.5872074  18.2333416  27.3043614  48.8802662  19.1259303
  26.5666371  48.3680048  19.4569545  27.5570387  48.4403044  18.3142580
  26.8043634  59.7887173  18.8308454  27.0966608  60.3492230  18.1120819
  27.3142254  60.0815734  19.5861613  27.4055241  41.6578914  19.7201072
  27.7114118  40.7976277  19.4326987  28.1307846  42.2496534  19.5200066
  13.6979597  52.0609601  18.1082670  13.5003997  51.4678961  17.3833737
  13.1426261  51.7561811  18.8258609  21.6776321  51.9532707  20.2277263
  21.7324931  51.0006543  20.1519740  20.8667523  52.1092146  20.7118562
  22.8267515  55.8812830  11.4655546  22.3886945  55.1648689  11.0061184
  23.5677956  56.1088945  10.9040638  19.6168681  50.5709767  17.9867642
  18.8036546  50.8703937  18.3932834  20.1127675  50.1765456  18.7042124
  21.7677259  60.5667524  19.9201907  21.7253438  60.7928370  18.9910439
  22.6839958  60.3330898  20.0687708  25.2142893  51.0351591  26.8182536
  25.5692280  51.2623064  27.6777002  25.8615024  51.3669968  26.1959791
  30.9440629  54.1570027  17.5231865  30.8058528  54.3471623  16.5953054
  30.5876848  54.9189410  17.9799916  19.1082756  48.1428122  23.6028877
  19.7482135  48.0016881  22.9051840  18.2760286  47.8562636  23.2267479
  30.9710009  56.2246554  22.5343137  31.4046516  56.1321843  23.3826191
  31.6841590  56.2004055  21.8963153  19.8843060  57.4430553  19.7163870
  20.6783658  56.9480873  19.5146444  19.1734752  56.9148416  19.3531575
  24.7037904  59.8248648  24.0676237  24.7574926  60.3939585  24.8353953
  23.8352685  59.9950533  23.7030274  16.1925823  51.5873634  15.7923622
  15.2623411  51.5258090  16.0093584  16.2883295  51.0649587  14.9960263
  16.1111372  48.1128447  18.3801864  16.3718189  49.0273780  18.2711024
  16.9328544  47.6452890  18.5298477  17.5836297  49.5266204  25.5500688
  18.2559351  49.3183567  24.9013337  16.7566084  49.3288290  25.1105921
  31.8325559  56.2670255  25.0676022  32.0261449  57.1716065  25.3135297
  31.7326177  55.8077674  25.9014607  23.4861869  46.1528145  27.5666349
  22.8389784  46.8518095  27.4730826  24.2562885  46.5864289  27.9342597
  26.8940667  56.4176998  30.6416903  26.7426174  56.1887549  29.7246986
  26.8845347  57.3747599  30.6548248  23.6626004  53.9908910  25.6263169
  24.5918064  54.1420070  25.4532136  23.2417034  54.0792931  24.7711816
  22.4614336  58.0159575  23.3961707  22.3225421  57.6478359  24.2687645
  21.6728932  58.5307214  23.2245664  23.0562487  63.1168671  14.7387243
  23.2314243  62.6456714  15.5532866  22.3695276  63.7434437  14.9668504
  24.0119551  57.3941177  20.7850544  23.6769383  57.3541947  21.6808194
  23.5123496  56.7285893  20.3120955  17.9863795  52.8008807  26.3103126
  17.8483593  52.0689046  26.9114665  18.8968718  52.7117707  26.0287313
  26.9478742  54.7397212  11.0587604  26.3307913  54.0144040  10.9620657
  26.4795231  55.5006572  10.7154678  20.6146095  52.5128767  25.7986805
  21.3245714  51.8721959  25.7573424  20.5715403  52.7641662  26.7212986
  28.6032874  59.4496120  28.7193384  28.5445420  58.7655340  28.0523967
  29.0052392  60.1915110  28.2674010  19.3275029  49.4993985  27.6182445
  18.7912386  49.0484723  28.2704041  18.7391738  49.6339893  26.8752909
  17.6223573  66.2658034  21.5127103  17.8620171  66.8976558  22.1906122
  16.7792769  65.9146074  21.7992463  28.6050281  57.4135704  26.9507364
  27.7177060  57.0761626  27.0733763  29.1748832  56.6818735  27.1876129
  10.2579428  53.7459796  20.2750415  10.9450468  53.4321526  19.6871431
  10.1027557  54.6501160  20.0017667  15.0614150  48.6349992  24.7035439
  14.9772339  48.0275662  23.9685849  14.2396857  49.1259011  24.7044936
  22.1351435  62.0737156  23.9168607  22.0621606  62.8792128  24.4287912
  21.6928828  62.2729122  23.0916629  21.9241214  61.3108926  17.4271429
  21.1408736  61.8530607  17.5209653  22.6233959  61.8282906  17.8265670
  25.2337864  47.1203556  20.0705634  25.7306564  46.3673518  19.7506704
  24.4624846  47.1567872  19.5048844  33.0867622  52.8243921  21.7123926
  33.0757498  53.7068637  21.3417859  32.2185001  52.4715472  21.5178463
  24.5950118  61.9723990  26.0726766  25.3078090  62.6071455  26.0002667
  24.1040147  62.0687856  25.2566768  26.3167645  55.8775243  17.6444058
  25.3823924  55.9976706  17.4748762  26.4944314  54.9747710  17.3804067
  21.8172833  49.2620939  19.7977319  21.4470621  48.7091979  20.4858224
  22.3131926  48.6579072  19.2452319  29.7040196  51.7192562  18.1794092
  30.1700649  52.5520554  18.1054394  30.1547697  51.2537544  18.8839350
  19.6462032  59.7218434  26.8932337  20.3471491  60.3554917  27.0461731
  19.1757147  60.0633165  26.1327976  27.7716428  58.0636384  15.1780244
  28.0476271  57.9492978  16.0874118  26.9020926  57.6653868  15.1392417
  27.6756859  44.0873149  22.2184993  26.7619939  44.3177376  22.3867200
  28.1049961  44.1711593  23.0699025  27.4463318  52.2763041  24.7184887
  26.7934768  52.5238949  24.0637340  27.8243698  51.4627179  24.3847364
  24.4070492  62.3122734  18.8213057  24.5892886  61.4944390  19.2840810
  25.2303478  62.5290427  18.3837947  24.7412657  61.2390920  16.0828106
  25.2700423  60.7283374  15.4698268  25.0040877  60.9233450  16.9473639
  23.4950891  53.0182852  31.2050924  22.8191528  52.9176982  31.8753299
  24.3178525  52.8622066  31.6686921  15.2429750  59.2554789  23.8263439
  15.8283187  58.5098477  23.9591344  15.0454588  59.5658746  24.7100103
  18.0968405  62.2906036  18.8425882  17.4278780  62.7752164  18.3589922
  17.9581275  62.5375257  19.7569260   9.8347404  51.8260389  22.5467883
   9.8731504  51.2923980  23.3405001   9.3287697  51.2995595  21.9278860
  22.2373674  64.3249780  25.4408540  22.7891982  64.4881401  26.2057625
  22.5779867  64.9154218  24.7688565  17.2138167  46.6724930  26.0430425
  17.2779493  47.5339760  25.6307823  17.1505287  46.0598931  25.3102783
  16.6890439  48.7448062  29.6903459  17.3162478  48.3625139  30.3040983
  15.8318358  48.5262264  30.0559152  27.0884548  59.1511037  31.2957195
  27.6324452  59.7640996  30.8012149  26.5071393  59.7090616  31.8124208
  13.4655982  50.5524491  15.6221814  13.7609423  49.6435170  15.5688868
  12.5644018  50.5312231  15.3002816  25.3742061  62.2731755  22.4272222
  25.2493200  61.4721495  21.9183168  26.0321152  62.7677949  21.9386192
  16.9950229  48.6280488  21.6049363  16.2736815  49.2416456  21.4656836
  17.7843485  49.1638253  21.5266009  27.4376969  60.0740775  24.0551772
  26.4907305  59.9546127  23.9830099  27.7859742  59.1863273  24.1378034
  19.7976543  45.9634914  27.8790014  20.3210944  46.2097211  28.6416324
  19.5788876  46.7954949  27.4593152  15.1943824  48.2338589  15.7461139
  14.8656530  47.3535968  15.5636245  15.5483194  48.1786258  16.6337528
  24.4423403  59.8693492  20.2556125  24.2948365  58.9410199  20.4363695
  25.2676896  59.8913582  19.7713200  18.3085647  48.5211559  16.1136617
  18.6481719  49.0497480  15.3915225  18.7557767  48.8591965  16.8895183
  28.0457524  60.6922050  21.3420997  28.9704072  60.4864912  21.2045449
  27.8772828  60.4438452  22.2510339  21.0029088  46.9048609  25.5639685
  20.6625908  46.1056422  25.9660365  20.2968094  47.2050320  24.9916518
  21.6545559  43.9897922  24.0167008  22.4771629  43.5158400  23.8945898
  21.8983623  44.7688406  24.5165694  20.2953794  47.0186180  14.3129910
  21.0162156  47.3967433  13.8093626  19.6719098  47.7375057  14.4164888
  24.4384917  47.7231329  15.2488242  24.6548531  48.6055967  14.9477070
  23.9578984  47.3317543  14.5193884  19.1784138  50.6817042  21.8258987
  19.0328719  50.9957346  22.7183268  18.7009342  51.3001943  21.2729885
  21.0380521  47.6719590  21.8739876  21.0242090  46.7760684  21.5372174
  21.7552949  47.6790254  22.5078162  22.8906652  48.1056931  23.9193004
  22.6324430  49.0274001  23.9177334  22.3591692  47.7087365  24.6093468
  27.8352841  61.2107718  16.6983089  28.0089718  60.6454140  15.9456941
  28.3281732  62.0108613  16.5162579  13.6529800  53.2222387  24.7646648
  13.1083268  53.9982195  24.8966922  14.5309150  53.5693191  24.6065769
  20.4417417  46.5533971  17.1427446  20.5633328  45.6250617  17.3418334
  20.1519459  46.5672657  16.2305762  23.3108607  44.2388881  20.2794166
  23.3330304  44.3028214  19.3246146  23.7276666  43.3993390  20.4734672
  33.6892232  53.9744141  18.3173389  34.1323378  53.2251466  17.9192512
  32.8118742  53.9654277  17.9347121  28.8228013  60.5274482  13.7979987
  29.5178918  61.1481175  14.0167302  29.1651163  59.6769833  14.0732365
  14.4395822  52.3492283  27.6576805  13.6977558  52.4974919  28.2441435
  14.1188567  52.6100549  26.7943554  30.7219436  57.9774188  15.3267318
  31.2470760  58.3161460  14.6016638  30.6341789  57.0421203  15.1430453
  22.3839485  61.8908261  27.4557195  22.6926611  61.6457408  28.3279894
  23.1814967  62.0954900  26.9676065  22.4060097  64.0446171  19.6862571
  21.9665087  63.5522550  20.3795428  23.1568214  63.5019139  19.4454646
  14.8852436  60.2357712  19.6887199  15.7110456  59.9361484  19.3085843
  14.5346488  59.4665334  20.1376988  19.8533969  59.5884180  21.7584873
  19.2313978  58.9254885  21.4587101  20.5238836  59.6145312  21.0758521
  13.0861041  58.1544038  20.6476133  12.2492949  57.7266213  20.4660134
  13.0584686  58.3476482  21.5846924  19.9258497  48.0665968  31.3517379
  19.9746652  48.9428091  30.9695148  20.4681011  47.5243361  30.7789022
  30.4113342  58.6107091  30.6318516  29.6208886  58.5931230  30.0923015
  30.1746697  59.1495385  31.3867552  30.5311217  55.4599558  27.9451244
  30.5809222  55.2949565  28.8866767  30.4225141  54.5926817  27.5549125
  19.4147476  58.1388103  15.2343333  19.5635596  58.8223568  14.5810006
  20.2213919  58.1193193  15.7492789  27.8214980  51.4430486  29.2610551
  28.7224842  51.3036951  28.9694549  27.8962954  51.6084941  30.2008729
  22.1557785  48.8197341  28.1063737  21.2861094  49.1130907  27.8346326
  22.3917265  49.4037786  28.8271001  32.0329414  57.8796499  28.1893266
  31.7414222  58.2426480  29.0256727  31.4201545  57.1663508  28.0106598
  33.2325096  55.4449379  20.7095836  34.0671988  55.8839183  20.8733397
  33.3684225  54.9688032  19.8904082  30.2816602  53.0029114  26.6573324
  30.7570724  53.1956760  25.8492175  29.3582168  53.0588300  26.4116708
  17.1700109  54.1653281  16.2404402  16.9246151  53.2615611  16.4384612
  17.3396023  54.1670432  15.2983880  24.8596819  45.0376957  25.6229158
  25.3778763  45.7737984  25.2975646  24.5051952  45.3440951  26.4575917
  16.4395756  49.8981639  13.7390564  15.7465001  49.9725994  13.0830600
  16.1947508  49.1341982  14.2612081  25.1109413  41.4577240  21.1430054
  25.3911167  40.7900429  21.7690481  25.8960020  41.6506336  20.6304718
  22.9142882  60.6336234  12.7055081  22.3416849  61.2526421  12.2525553
  23.4875675  61.1835596  13.2395003  28.9818271  49.8794874  24.8901630
  29.9335694  49.9792972  24.9113854  28.8121722  49.0873143  25.3999714
  27.0032651  46.9650457  25.0761030  26.4082583  47.2455470  24.3807519
  26.7182348  47.4544358  25.8477772  26.1340141  60.9173384  13.8363663
  27.0670814  60.8518946  14.0396539  26.0463354  61.7529651  13.3778196
  28.7628158  60.2339254  10.7967611  28.6841789  59.8999118  11.6903369
  29.5837825  60.7261022  10.7959083  31.4606349  53.1000994  24.0043929
  31.4282669  52.1616994  24.1903613  32.0706973  53.1785030  23.2709754
  23.2989680  51.9697047  10.0471133  24.2448785  51.8403255  10.1159551
  22.9203925  51.2311709  10.5240561  31.6100838  49.8912037  24.0502212
  31.0939886  49.1070494  23.8632141  32.4940786  49.5630754  24.2148732
  29.2711565  43.6353053  20.0098025  29.0736386  43.3268141  20.8941357
  29.8811270  44.3614692  20.1395955  37.2782899  54.1617001  23.1449966
  38.0086287  53.9002289  23.7057669  36.6689844  53.4245722  23.1852034
  35.3598196  52.3024863  23.7424417  34.6331360  52.1680828  23.1340909
  34.9445483  52.6101692  24.5481135  23.1828373  56.0214793  31.5071790
  24.1031382  56.1993392  31.7011837  23.1477956  55.0770838  31.3551489
  12.4010538  51.2153386  20.4325065  12.0813322  50.3618695  20.1399439
  11.8543966  51.4301965  21.1883032  16.1790445  53.9315827  24.1494571
  16.3976455  54.8632935  24.1682605  16.5916219  53.5723802  24.9349375
  23.0994663  44.4383913  16.1370260  22.2895391  44.0930998  16.5125506
  23.7879080  44.1291456  16.7257871  25.0285211  43.5161960  17.7594556
  25.5816250  43.9357413  18.4184580  25.2655298  42.5897708  17.8017512
  21.0518310  49.5049033  33.5397320  20.9515037  50.4543390  33.4709411
  20.8339852  49.1767272  32.6673390  12.2698798  54.8356298  22.4018186
  11.5762269  54.4210251  21.8888141  13.0171789  54.8776834  21.8051605
  28.4064018  45.6262485  17.2673221  27.8262687  46.2847289  16.8851273
  28.1399951  44.8039829  16.8560638  26.8567585  45.0267542  19.4694541
  27.3567363  45.1384077  18.6608860  27.5003193  44.7228595  20.1095349
  20.9149580  52.9346172  32.3562382  20.4316662  53.7346532  32.5626271
  21.0010519  52.9454117  31.4029826  14.1835540  54.7674552  20.2784201
  14.1606228  54.8662239  19.3266084  14.4936177  55.6139703  20.6001367
  16.8422918  56.8250707  24.3930816  17.7966171  56.7934649  24.3260747
  16.6435442  56.3641330  25.2081042  17.4322300  55.3951823  26.9601613
  18.2515189  55.8895901  26.9836451  17.7059108  54.4783791  26.9319181
  27.1888896  47.7862575  16.3229569  26.3014751  48.0712226  16.1049764
  27.6042885  47.6256338  15.4756846  30.5403432  47.8109096  20.0383908
  31.3163823  48.3005549  20.3108525  29.8151567  48.2367150  20.4955778
  32.9775991  48.5236715  21.0957849  33.5720482  48.2832451  20.3851157
  33.0502575  47.8043846  21.7231385  15.1973147  62.3670326  21.4101014
  15.0627615  61.6070727  20.8439012  14.7805209  63.0911226  20.9429803
  26.3332110  57.5507250  10.4177589  27.0367960  57.7557252  11.0335245
  25.6094759  58.1184012  10.6826672  27.1629920  53.3017111  16.5379859
  27.1065121  53.7585662  15.6987492  27.7158262  52.5407796  16.3602702
  30.9734726  49.0906843  17.3629979  30.7171660  48.6903479  18.1938186
  30.3487594  49.8050637  17.2380118  35.2847064  51.8302916  19.8701270
  34.7246622  51.8996105  20.6432832  34.6790567  51.6543901  19.1500766
  18.3542273  63.2639643  21.6219456  18.2374657  64.2085076  21.5198147
  17.5334719  62.9613205  22.0105255  28.2418807  57.9889779  12.4676049
  29.0764411  57.5570977  12.2853524  28.0803150  57.8171793  13.3952943
  27.8964699  54.4921892  13.8332388  27.8413503  54.3266164  12.8920832
  27.2710755  55.1997925  13.9894578  12.6857214  49.7289957  27.6593810
  13.3316078  49.2188911  28.1481036  12.4774365  50.4658638  28.2337236
  25.2110607  56.7970804  33.1585951  26.0801766  56.9711456  32.7972586
  24.7317358  57.6165221  33.0361680  21.2060825  43.9930001  13.4117707
  21.1939495  44.9371841  13.5685978  22.0984247  43.8100147  13.1177168
  19.3796787  63.9167905  24.8375385  20.2824033  63.9491515  25.1541880
  19.1534157  62.9868356  24.8521720  21.1350389  62.6698892  21.4985463
  20.1846020  62.6700753  21.3849836  21.4382875  61.9231626  20.9821498
  25.0212944  40.5872778  17.6663643  24.2545340  40.0331265  17.8120326
  25.4323649  40.6594647  18.5277795  17.0254705  46.8757574  31.7568825
  17.8886167  46.5194379  31.9672149  16.4520116  46.5371469  32.4444229
  36.8703082  68.5059430  22.5631226  37.5081492  68.3866177  21.8594566
  36.7523925  69.4540274  22.6219178  33.6792789  68.4586858  22.4992750
  33.3411300  68.3427923  21.6113285  34.5482557  68.0578023  22.4793757
  29.5379604  70.3122335  18.4889641  28.9744469  70.2212272  17.7205929
  29.4231999  69.4922239  18.9692134  34.1612572  69.6121710  28.4578956
  34.1501212  69.2174508  27.5859460  34.3233211  68.8787783  29.0512727
  27.0844036  71.8073526  21.3273862  27.8765328  71.4664351  20.9120161
  27.3240686  71.9168501  22.2476015  35.1179163  73.9793302  13.8004106
  34.4667143  74.5647383  13.4138120  35.9123526  74.5099497  13.8599144
  29.0434790  71.0682439  14.1991241  29.8165666  70.5211427  14.0604116
  29.3960189  71.9326689  14.4105702  30.8819833  72.3958822  27.4058140
  30.5909699  73.3004453  27.2904806  31.5176817  72.4375349  28.1202209
  31.8076040  69.7735670  23.9959500  32.4039612  69.5491693  23.2816463
  31.8651011  69.0320416  24.5984947  31.3801068  67.2275106  11.8309691
  31.6326589  66.7056627  11.0693154  30.4425627  67.0641251  11.9336374
  36.4244351  66.2310884  19.6384434  37.2107440  65.8130307  19.2874851
  36.6883055  67.1356976  19.8066082  36.5954428  71.6683734  14.3373091
  35.9600261  71.7418361  15.0493995  36.2651834  72.2577333  13.6592170
  41.8252778  66.1686117  20.5417412  42.5577950  65.5985334  20.7755242
  41.0692134  65.7807718  20.9823918  31.0997357  69.1303212  14.0334065
  30.9833615  68.4548115  14.7015150  31.2099617  68.6435585  13.2166219
  33.4428898  68.5913359  17.7380755  33.0787105  68.0643980  18.4493676
  34.2996013  68.2011828  17.5647240  39.3478198  59.8807691  25.0012021
  39.0161523  60.7503102  24.7773236  38.7523812  59.5643975  25.6806051
  33.0834385  63.6203258  12.7342103  33.2508787  64.4883495  13.1012574
  32.8931554  63.7830540  11.8103392  35.8409718  72.0820237  24.4007934
  35.5410441  72.9845276  24.2923741  35.4960777  71.8152420  25.2529086
  29.2922199  68.5334034  20.4344638  28.3672696  68.4010248  20.6422330
  29.5406612  69.3128253  20.9314580  39.2406862  64.6002777  22.0805371
  38.3323739  64.5318186  21.7864132  39.1894457  65.0774722  22.9087196
  33.0623605  66.0760916  13.7188770  32.9423231  66.5217967  14.5574250
  32.3676194  66.4246233  13.1602308  26.6531010  68.1767308  21.2688427
  26.7823391  68.4301787  22.1827839  25.9728462  68.7695016  20.9493082
  30.8230498  78.8464558  17.3678901  30.7454527  79.7972383  17.4467382
  30.2192141  78.5010430  18.0253828  33.3147727  66.0192423  30.0240268
  32.5381061  66.5786343  30.0143133  33.9538290  66.5049206  30.5455138
  41.1068508  62.8019216  23.8583245  40.4642888  63.0951749  23.2123039
  40.6023436  62.6872136  24.6636442  38.7608672  66.5482389  14.5469104
  39.6726528  66.7809776  14.3716802  38.2518319  67.1319433  13.9844183
  31.5694100  68.8277876  29.5858235  32.3108784  69.3662920  29.3093059
  30.8631085  69.4544165  29.7429787  37.0449439  70.9707017  28.1830397
  37.4532795  70.5289427  27.4385029  36.3226701  70.3959644  28.4364590
  33.3980509  65.9079624  25.5563954  34.2441704  66.3319037  25.6998603
  33.3379147  65.2513248  26.2502517  37.3678254  71.5308207  21.9382686
  36.7387116  71.6953922  21.2358753  36.9803916  71.9449817  22.7093650
  41.2467486  72.4662645  19.2927049  40.5618524  72.8461547  18.7424083
  41.3311335  73.0757972  20.0258997  36.5479955  63.5683992  27.2145127
  36.3040887  64.3226052  26.6779403  36.8239885  63.9469340  28.0492374
  38.5018417  70.1122604  25.8922393  38.7135313  70.7554364  25.2156774
  38.4548166  69.2784921  25.4244323  36.1044646  62.7240425  22.7958965
  35.2429125  63.0221679  23.0875703  36.1307081  62.9410824  21.8639998
  32.9206216  71.2682616  19.2032771  33.3844561  71.5470319  18.4137393
  32.6563014  70.3666060  19.0205861  29.8130297  70.8154097  22.1412534
  30.3831654  71.2441365  21.5030018  30.4038409  70.5336682  22.8396720
  31.8575102  67.3905768  16.0122336  32.5599145  67.8426812  16.4796262
  31.5255730  66.7489587  16.6402229  30.3055463  65.9817525  30.3873545
  29.6754124  66.6633805  30.6208942  30.1991551  65.8700606  29.4426683
  25.6000436  65.6489321  21.3139469  24.8099490  65.9046849  20.8379580
  26.0911683  66.4637658  21.4191510  39.6164245  72.9894560  24.0644750
  40.4381689  72.5874747  23.7827432  39.6126648  72.8862794  25.0160866
  27.5515181  66.0133900  18.2722946  26.7546344  66.1252594  18.7906442
  27.3240773  66.3520552  17.4063837  33.3820849  72.5378603  26.2205461
  33.4465281  72.9999010  27.0563633  32.6731773  71.9075968  26.3487771
  23.8838139  65.9019811  23.7454460  24.1346177  66.7866821  24.0112036
  24.4197687  65.7224413  22.9729552  47.7070238  69.3333308  20.4129722
  46.9533947  68.7640706  20.2573726  47.8417780  69.2995973  21.3600356
  33.0968866  74.2046711  16.0884441  32.9614541  75.0498246  16.5169289
  33.6378679  74.4065988  15.3250375  29.5836206  60.2838290  32.7498796
  29.1903152  59.7304489  33.4246440  30.4002346  60.5948869  33.1405314
  26.5498264  71.7222149  16.6612366  27.0622784  72.5165399  16.8117931
  27.2020977  71.0248439  16.5945968  28.3593149  74.8387905  18.7435119
  28.5359777  75.7605870  18.5556103  29.1549982  74.5246324  19.1729499
  32.5004167  61.6996169  30.3419053  33.2413880  62.3003323  30.2623515
  32.7322090  60.9573807  29.7837095  27.6445505  66.8852537  28.6197283
  27.5299020  65.9837794  28.9204381  26.7890023  67.1316233  28.2682099
  34.7237343  74.8270277  30.2184783  34.2801197  74.0406656  29.9005688
  35.3854556  75.0149428  29.5528674  29.4824464  76.3566079  24.7445462
  30.0331889  76.2283142  23.9722456  28.6435940  76.6560968  24.3940354
  36.8218581  75.1073077  28.2466184  36.8037056  75.9281958  27.7546454
  37.7438501  74.9827152  28.4716326  33.2791635  72.6217206  29.0889693
  33.8119972  71.8605495  28.8589001  32.7505716  72.3290858  29.8313847
  36.4461330  57.7277272  24.6183334  36.1025599  58.6178914  24.5422445
  36.8140293  57.5378930  23.7552920  24.5147181  70.0510803  17.4371937
  25.3522403  70.4607811  17.2205644  24.6925448  69.1110245  17.4072131
  36.4111613  67.7185884  13.1255770  35.8958236  68.4890488  13.3644157
  36.1388921  67.0451020  13.7488831  33.9958724  62.5635584  18.1841008
  33.1400320  62.1742435  18.0046647  34.4085676  62.6427545  17.3240794
  35.5257870  60.0981928  22.5832568  35.0222666  60.0612063  21.7700373
  35.8188477  61.0074670  22.6429224  31.7700756  60.1820657  21.5898749
  32.6353753  59.9863466  21.2304639  31.8378265  59.9531009  22.5168106
  41.3845887  70.4718238  15.0608943  40.6075330  70.1329398  14.6164105
  42.0637368  70.4770861  14.3863908  36.1997916  65.5912976  14.9515551
  35.8948051  65.9059125  15.8025694  37.1528358  65.6694396  14.9942884
  34.6444348  71.7503199  16.6008505  34.1165709  71.0155959  16.2881742
  34.1431850  72.5277875  16.3548473  39.6237194  69.9452219  21.7175551
  38.9660868  70.6351481  21.8055680  40.4277593  70.3348651  22.0609537
  29.3763075  62.4122865  18.9615116  29.9506827  62.1898047  18.2288309
  29.9634058  62.4811560  19.7143718  38.4342653  68.2996592  19.7679493
  38.9474534  68.9326584  20.2701203  39.0843876  67.6997788  19.4022853
  29.7032662  64.4427326  12.9811002  28.8669975  64.7802013  13.3020276
  29.5637432  64.3076306  12.0438139  31.6785743  59.2864114  17.6890186
  31.0250155  58.9713131  17.0646800  31.6366217  58.6639855  18.4150009
  32.7896948  69.5683409   9.6043478  31.8824010  69.3372663   9.8034627
  33.2867980  68.7721028   9.7917459  35.6965027  78.2780916  12.5240164
  35.0226726  78.5812613  13.1325122  36.0830849  79.0809997  12.1745621
  34.9123483  65.7746048  22.0137833  33.9946045  65.9960995  21.8559521
  35.3283627  65.8492358  21.1549541  35.6958531  67.1737463  17.1440514
  36.4430350  67.6858861  16.8347636  35.9650121  66.8521516  18.0044907
  33.9685181  69.6696004  14.1267468  33.0596401  69.3855037  14.2239938
  33.9980265  70.0895083  13.2670775  39.2004449  73.2802594  17.8958635
  38.7466776  72.4393503  17.9523826  38.5698416  73.9163992  18.2333416
  38.1437368  64.2094580  19.1259303  37.4060125  63.6971966  19.4569545
  38.3964142  63.7694961  18.3142580  37.6437388  75.1179090  18.8308454
  37.9360362  75.6784147  18.1120819  38.1536009  75.4107651  19.5861613
  38.2448996  56.9870832  19.7201072  38.5507872  56.1268195  19.4326987
  38.9701600  57.5788452  19.5200066  24.5373352  67.3901518  18.1082670
  24.3397752  66.7970879  17.3833737  23.9820016  67.0853728  18.8258609
  32.5170075  67.2824625  20.2277263  32.5718685  66.3298461  20.1519740
  31.7061277  67.4384064  20.7118562  33.6661269  71.2104748  11.4655546
  33.2280699  70.4940607  11.0061184  34.4071710  71.4380863  10.9040638
  30.4562435  65.9001684  17.9867642  29.6430301  66.1995855  18.3932834
  30.9521430  65.5057373  18.7042124  32.6071013  75.8959441  19.9201907
  32.5647192  76.1220288  18.9910439  33.5233712  75.6622816  20.0687708
  36.0536647  66.3643509  26.8182536  36.4086035  66.5914982  27.6777002
  36.7008778  66.6961886  26.1959791  41.7834384  69.4861945  17.5231865
  41.6452283  69.6763541  16.5953054  41.4270603  70.2481328  17.9799916
  29.9476510  63.4720040  23.6028877  30.5875889  63.3308799  22.9051840
  29.1154041  63.1854553  23.2267479  41.8103764  71.5538472  22.5343137
  42.2440270  71.4613761  23.3826191  42.5235344  71.5295972  21.8963153
  30.7236814  72.7722470  19.7163870  31.5177412  72.2772790  19.5146444
  30.0128506  72.2440333  19.3531575  35.5431658  75.1540566  24.0676237
  35.5968681  75.7231502  24.8353953  34.6746440  75.3242451  23.7030274
  27.0319577  66.9165552  15.7923622  26.1017166  66.8550008  16.0093584
  27.1277049  66.3941505  14.9960263  26.9505127  63.4420365  18.3801864
  27.2111944  64.3565698  18.2711024  27.7722299  62.9744807  18.5298477
  28.4230052  64.8558122  25.5500688  29.0953105  64.6475484  24.9013337
  27.5959838  64.6580208  25.1105921  42.6719313  71.5962172  25.0676022
  42.8655203  72.5007983  25.3135297  42.5719931  71.1369592  25.9014607
  34.3255624  61.4820063  27.5666349  33.6783539  62.1810013  27.4730826
  35.0956639  61.9156207  27.9342597  37.7334422  71.7468915  30.6416903
  37.5819928  71.5179467  29.7246986  37.7239101  72.7039517  30.6548248
  34.5019758  69.3200828  25.6263169  35.4311818  69.4711988  25.4532136
  34.0810788  69.4084849  24.7711816  33.3008090  73.3451492  23.3961707
  33.1619176  72.9770277  24.2687645  32.5122686  73.8599132  23.2245664
  33.8956242  78.4460589  14.7387243  34.0707998  77.9748632  15.5532866
  33.2089030  79.0726355  14.9668504  34.8513305  72.7233095  20.7850544
  34.5163138  72.6833865  21.6808194  34.3517251  72.0577811  20.3120955
  28.8257549  68.1300725  26.3103126  28.6877347  67.3980964  26.9114665
  29.7362473  68.0409625  26.0287313  37.7872497  70.0689129  11.0587604
  37.1701667  69.3435958  10.9620657  37.3188985  70.8298490  10.7154678
  31.4539850  67.8420684  25.7986805  32.1639468  67.2013877  25.7573424
  31.4109158  68.0933579  26.7212986  39.4426628  74.7788038  28.7193384
  39.3839175  74.0947258  28.0523967  39.8446147  75.5207028  28.2674010
  30.1668784  64.8285902  27.6182445  29.6306141  64.3776641  28.2704041
  29.5785492  64.9631811  26.8752909  28.4617327  81.5949952  21.5127103
  28.7013925  82.2268476  22.1906122  27.6186524  81.2437992  21.7992463
  29.5771043  64.2874554  10.1808908  28.7000509  64.1663354   9.8171155
  30.0528796  63.4960632   9.9287797  39.4444036  72.7427622  26.9507364
  38.5570814  72.4053543  27.0733763  40.0142587  72.0110653  27.1876129
  21.0973183  69.0751713  20.2750415  21.7844223  68.7613443  19.6871431
  20.9421312  69.9793078  20.0017667  25.9007905  63.9641910  24.7035439
  25.8166094  63.3567580  23.9685849  25.0790611  64.4550928  24.7044936
  32.9745189  77.4029074  23.9168607  32.9015361  78.2084046  24.4287912
  32.5322582  77.6021040  23.0916629  32.7634969  76.6400844  17.4271429
  31.9802491  77.1822524  17.5209653  33.4627714  77.1574824  17.8265670
  36.0731619  62.4495474  20.0705634  36.5700318  61.6965436  19.7506704
  35.3018600  62.4859790  19.5048844  43.9261376  68.1535839  21.7123926
  43.9151253  69.0360554  21.3417859  43.0578756  67.8007390  21.5178463
  35.4343873  77.3015908  26.0726766  36.1471845  77.9363373  26.0002667
  34.9433901  77.3979774  25.2566768  37.1561400  71.2067161  17.6444058
  36.2217678  71.3268623  17.4748762  37.3338068  70.3039627  17.3804067
  32.6566588  64.5912856  19.7977319  32.2864375  64.0383897  20.4858224
  33.1525680  63.9870990  19.2452319  40.5433951  67.0484480  18.1794092
  41.0094403  67.8812472  18.1054394  40.9941451  66.5829462  18.8839350
  30.4855786  75.0510352  26.8932337  31.1865246  75.6846834  27.0461731
  30.0150901  75.3925083  26.1327976  38.6110182  73.3928301  15.1780244
  38.8870026  73.2784896  16.0874118  37.7414681  72.9945786  15.1392417
  38.5150614  59.4165067  22.2184993  37.6013693  59.6469294  22.3867200
  38.9443715  59.5003511  23.0699025  38.2857072  67.6054959  24.7184887
  37.6328522  67.8530866  24.0637340  38.6637452  66.7919097  24.3847364
  35.2464246  77.6414652  18.8213057  35.4286641  76.8236308  19.2840810
  36.0697232  77.8582344  18.3837947  35.5806412  76.5682837  16.0828106
  36.1094178  76.0575292  15.4698268  35.8434631  76.2525367  16.9473639
  34.3344645  68.3474770  31.2050924  33.6585282  68.2468899  31.8753299
  35.1572279  68.1913984  31.6686921  26.0823504  74.5846707  23.8263439
  26.6676941  73.8390394  23.9591344  25.8848343  74.8950663  24.7100103
  28.9362159  77.6197954  18.8425882  28.2672535  78.1044082  18.3589922
  28.7975029  77.8667174  19.7569260  20.6741159  67.1552307  22.5467883
  20.7125258  66.6215897  23.3405001  20.1681452  66.6287512  21.9278860
  33.0767428  79.6541697  25.4408540  33.6285736  79.8173319  26.2057625
  33.4173621  80.2446135  24.7688565  28.0531921  62.0016847  26.0430425
  28.1173248  62.8631678  25.6307823  27.9899042  61.3890849  25.3102783
  27.5284194  64.0739980  29.6903459  28.1556233  63.6917057  30.3040983
  26.6712113  63.8554182  30.0559152  37.9278302  74.4802955  31.2957195
  38.4718206  75.0932913  30.8012149  37.3465147  75.0382533  31.8124208
  24.3049737  65.8816409  15.6221814  24.6003178  64.9727087  15.5688868
  23.4037772  65.8604148  15.3002816  36.2135815  77.6023673  22.4272222
  36.0886955  76.8013413  21.9183168  36.8714906  78.0969866  21.9386192
  27.8343984  63.9572405  21.6049363  27.1130569  64.5708373  21.4656836
  28.6237239  64.4930170  21.5266009  38.2770724  75.4032693  24.0551772
  37.3301059  75.2838044  23.9830099  38.6253497  74.5155191  24.1378034
  30.6370297  61.2926832  27.8790014  31.1604699  61.5389129  28.6416324
  30.4182630  62.1246867  27.4593152  26.0337578  63.5630507  15.7461139
  25.7050284  62.6827885  15.5636245  26.3876949  63.5078175  16.6337528
  35.2817157  75.1985409  20.2556125  35.1342119  74.2702117  20.4363695
  36.1070651  75.2205500  19.7713200  29.1479401  63.8503476  16.1136617
  29.4875474  64.3789398  15.3915225  29.5951522  64.1883882  16.8895183
  38.8851279  76.0213968  21.3420997  39.8097826  75.8156829  21.2045449
  38.7166582  75.7730369  22.2510339  31.8422842  62.2340527  25.5639685
  31.5019662  61.4348340  25.9660365  31.1361848  62.5342238  24.9916518
  32.4939314  59.3189840  24.0167008  33.3165383  58.8450318  23.8945898
  32.7377377  60.0980323  24.5165694  31.1347548  62.3478098  14.3129910
  31.8555911  62.7259351  13.8093626  30.5112853  63.0666975  14.4164888
  35.2778671  63.0523247  15.2488242  35.4942286  63.9347885  14.9477070
  34.7972738  62.6609460  14.5193884  30.0177893  66.0108960  21.8258987
  29.8722473  66.3249263  22.7183268  29.5403096  66.6293860  21.2729885
  31.8774276  63.0011508  21.8739876  31.8635844  62.1052601  21.5372174
  32.5946704  63.0082172  22.5078162  33.7300406  63.4348848  23.9193004
  33.4718184  64.3565919  23.9177334  33.1985447  63.0379283  24.6093468
  38.6746595  76.5399635  16.6983089  38.8483473  75.9746058  15.9456941
  39.1675486  77.3400530  16.5162579  24.4923555  68.5514305  24.7646648
  23.9477023  69.3274113  24.8966922  25.3702905  68.8985109  24.6065769
  31.2811172  61.8825888  17.1427446  31.4027083  60.9542535  17.3418334
  30.9913214  61.8964574  16.2305762  34.1502362  59.5680799  20.2794166
  34.1724059  59.6320132  19.3246146  34.5670421  58.7285308  20.4734672
  44.5285986  69.3036058  18.3173389  44.9717132  68.5543384  17.9192512
  43.6512497  69.2946195  17.9347121  39.6621768  75.8566400  13.7979987
  40.3572672  76.4773093  14.0167302  40.0044918  75.0061751  14.0732365
  25.2789577  67.6784201  27.6576805  24.5371313  67.8266836  28.2441435
  24.9582321  67.9392466  26.7943554  41.5613191  73.3066105  15.3267318
  42.0864515  73.6453378  14.6016638  41.4735543  72.3713121  15.1430453
  33.2233239  77.2200179  27.4557195  33.5320366  76.9749326  28.3279894
  34.0208721  77.4246818  26.9676065  33.2453851  79.3738089  19.6862571
  32.8058842  78.8814467  20.3795428  33.9961968  78.8311056  19.4454646
  25.7246190  75.5649630  19.6887199  26.5504210  75.2653401  19.3085843
  25.3740242  74.7957252  20.1376988  30.6927724  74.9176098  21.7584873
  30.0707733  74.2546803  21.4587101  31.3632590  74.9437230  21.0758521
  23.9254795  73.4835956  20.6476133  23.0886704  73.0558130  20.4660134
  23.8978441  73.6768399  21.5846924  30.7652251  63.3957886  31.3517379
  30.8140407  64.2720009  30.9695148  31.3074765  62.8535279  30.7789022
  41.2507097  73.9399009  30.6318516  40.4602640  73.9223148  30.0923015
  41.0140451  74.4787303  31.3867552  41.3704972  70.7891475  27.9451244
  41.4202977  70.6241483  28.8866767  41.2618895  69.9218734  27.5549125
  30.2541230  73.4680021  15.2343333  30.4029351  74.1515486  14.5810006
  31.0607674  73.4485111  15.7492789  38.6608734  66.7722403  29.2610551
  39.5618597  66.6328868  28.9694549  38.7356709  66.9376858  30.2008729
  32.9951539  64.1489258  28.1063737  32.1254849  64.4422824  27.8346326
  33.2311020  64.7329703  28.8271001  42.8723169  73.2088417  28.1893266
  42.5807977  73.5718397  29.0256727  42.2595300  72.4955425  28.0106598
  44.0718851  70.7741297  20.7095836  44.9065742  71.2131101  20.8733397
  44.2077980  70.2979950  19.8904082  41.1210357  68.3321032  26.6573324
  41.5964478  68.5248678  25.8492175  40.1975922  68.3880217  26.4116708
  28.0093863  69.4945199  16.2404402  27.7639905  68.5907529  16.4384612
  28.1789778  69.4962349  15.2983880  35.6990573  60.3668875  25.6229158
  36.2172517  61.1029902  25.2975646  35.3445706  60.6732868  26.4575917
  27.2789511  65.2273556  13.7390564  26.5858756  65.3017911  13.0830600
  27.0341263  64.4633900  14.2612081  35.9503167  56.7869158  21.1430054
  36.2304921  56.1192347  21.7690481  36.7353774  56.9798253  20.6304718
  33.7536636  75.9628152  12.7055081  33.1810603  76.5818339  12.2525553
  34.3269430  76.5127513  13.2395003  39.8212026  65.2086792  24.8901630
  40.7729449  65.3084889  24.9113854  39.6515476  64.4165060  25.3999714
  37.8426405  62.2942375  25.0761030  37.2476337  62.5747388  24.3807519
  37.5576102  62.7836276  25.8477772  36.9733896  76.2465302  13.8363663
  37.9064569  76.1810863  14.0396539  36.8857109  77.0821569  13.3778196
  39.6021912  75.5631172  10.7967611  39.5235544  75.2291036  11.6903369
  40.4231579  76.0552940  10.7959083  42.3000104  68.4292911  24.0043929
  42.2676424  67.4908912  24.1903613  42.9100727  68.5076948  23.2709754
  34.1383434  67.2988964  10.0471133  35.0842539  67.1695172  10.1159551
  33.7597679  66.5603626  10.5240561  42.4494592  65.2203955  24.0502212
  41.9333641  64.4362411  23.8632141  43.3334541  64.8922671  24.2148732
  40.1105319  58.9644970  20.0098025  39.9130140  58.6560059  20.8941357
  40.7205025  59.6906609  20.1395955  48.1176653  69.4908918  23.1449966
  48.8480042  69.2294206  23.7057669  47.5083599  68.7537640  23.1852034
  46.1991951  67.6316781  23.7424417  45.4725114  67.4972746  23.1340909
  45.7839237  67.9393609  24.5481135  34.0222127  71.3506710  31.5071790
  34.9425136  71.5285309  31.7011837  33.9871710  70.4062756  31.3551489
  32.3226352  65.2238941   9.9826018  31.4157807  64.9272053  10.0588732
  32.6002333  64.9268759   9.1160305  23.2404292  66.5445304  20.4325065
  22.9207076  65.6910612  20.1399439  22.6937720  66.7593882  21.1883032
  27.0184200  69.2607745  24.1494571  27.2370209  70.1924853  24.1682605
  27.4309973  68.9015720  24.9349375  33.9388417  59.7675830  16.1370260
  33.1289146  59.4222915  16.5125506  34.6272834  59.4583374  16.7257871
  35.8678966  58.8453877  17.7594556  36.4210004  59.2649331  18.4184580
  36.1049052  57.9189625  17.8017512  31.8912065  64.8340951  33.5397320
  31.7908792  65.7835308  33.4709411  31.6733607  64.5059190  32.6673390
  31.0925136  62.0825876  10.1237998  31.9544300  62.4080774  10.3833815
  31.2775480  61.2957372   9.6111063  23.1092552  70.1648216  22.4018186
  22.4156023  69.7502168  21.8888141  23.8565543  70.2068752  21.8051605
  39.2457773  60.9554402  17.2673221  38.6656442  61.6139206  16.8851273
  38.9793705  60.1331747  16.8560638  37.6961339  60.3559460  19.4694541
  38.1961117  60.4675995  18.6608860  38.3396947  60.0520513  20.1095349
  31.7543335  68.2638090  32.3562382  31.2710417  69.0638450  32.5626271
  31.8404274  68.2746035  31.4029826  25.0229295  70.0966469  20.2784201
  24.9999983  70.1954157  19.3266084  25.3329931  70.9431620  20.6001367
  27.6816672  72.1542624  24.3930816  28.6359926  72.1226567  24.3260747
  27.4829196  71.6933248  25.2081042  28.2716055  70.7243740  26.9601613
  29.0908944  71.2187819  26.9836451  28.5452862  69.8075709  26.9319181
  38.0282651  63.1154493  16.3229569  37.1408506  63.4004143  16.1049764
  38.4436640  62.9548256  15.4756846  41.3797187  63.1401014  20.0383908
  42.1557577  63.6297466  20.3108525  40.6545321  63.5659068  20.4955778
  43.8169746  63.8528633  21.0957849  44.4114236  63.6124369  20.3851157
  43.8896329  63.1335764  21.7231385  26.0366901  77.6962244  21.4101014
  25.9021369  76.9362645  20.8439012  25.6198963  78.4203144  20.9429803
  37.1725864  72.8799167  10.4177589  37.8761714  73.0849170  11.0335245
  36.4488513  73.4475929  10.6826672  38.0023675  68.6309029  16.5379859
  37.9458876  69.0877580  15.6987492  38.5552017  67.8699713  16.3602702
  41.8128480  64.4198761  17.3629979  41.5565415  64.0195396  18.1938186
  41.1881348  65.1342555  17.2380118  46.1240818  67.1594834  19.8701270
  45.5640376  67.2288023  20.6432832  45.5184322  66.9835818  19.1500766
  29.1936027  78.5931561  21.6219456  29.0768411  79.5376993  21.5198147
  28.3728473  78.2905122  22.0105255  39.0812562  73.3181697  12.4676049
  39.9158166  72.8862895  12.2853524  38.9196905  73.1463710  13.3952943
  38.7358454  69.8213810  13.8332388  38.6807258  69.6558081  12.8920832
  38.1104509  70.5289843  13.9894578  23.5250969  65.0581874  27.6593810
  24.1709832  64.5480828  28.1481036  23.3168120  65.7950556  28.2337236
  36.0504361  72.1262722  33.1585951  36.9195521  72.3003374  32.7972586
  35.5711112  72.9457139  33.0361680  32.0454579  59.3221919  13.4117707
  32.0333249  60.2663759  13.5685978  32.9378001  59.1392064  13.1177168
  30.2190541  79.2459823  24.8375385  31.1217788  79.2783433  25.1541880
  29.9927911  78.3160274  24.8521720  31.9744143  77.9990809  21.4985463
  31.0239774  77.9992671  21.3849836  32.2776629  77.2523544  20.9821498
  35.8606699  55.9164696  17.6663643  35.0939095  55.3623182  17.8120326
  36.2717404  55.9886564  18.5277795  27.8648460  62.2049491  31.7568825
  28.7279921  61.8486296  31.9672149  27.2913870  61.8663386  32.4444229
  47.7096837  83.8351348  22.5631226  48.3475247  83.7158095  21.8594566
  47.5917680  84.7832192  22.6219178  44.5186543  83.7878776  22.4992750
  44.1805055  83.6719841  21.6113285  45.3876311  83.3869941  22.4793757
  40.3773359  85.6414252  18.4889641  39.8138224  85.5504189  17.7205929
  40.2625754  84.8214157  18.9692134  45.0006326  84.9413628  28.4578956
  44.9894967  84.5466426  27.5859460  45.1626965  84.2079700  29.0512727
  37.9237791  87.1365444  21.3273862  38.7159083  86.7956269  20.9120161
  38.1634441  87.2460419  22.2476015  45.9572917  89.3085220  13.8004106
  45.3060897  89.8939300  13.4138120  46.7517280  89.8391415  13.8599144
  39.8828545  86.3974357  14.1991241  40.6559421  85.8503344  14.0604116
  40.2353943  87.2618606  14.4105702  41.7213587  87.7250739  27.4058140
  41.4303453  88.6296370  27.2904806  42.3570571  87.7667267  28.1202209
  42.6469794  85.1027588  23.9959500  43.2433366  84.8783610  23.2816463
  42.7044766  84.3612333  24.5984947  42.2194822  82.5567023  11.8309691
  42.4720343  82.0348545  11.0693154  41.2819381  82.3933169  11.9336374
  47.2638105  81.5602802  19.6384434  48.0501194  81.1422225  19.2874851
  47.5276810  82.4648894  19.8066082  47.4348183  86.9975652  14.3373091
  46.7994016  87.0710278  15.0493995  47.1045589  87.5869251  13.6592170
  52.6646532  81.4978035  20.5417412  53.3971704  80.9277252  20.7755242
  51.9085888  81.1099635  20.9823918  41.9391111  84.4595129  14.0334065
  41.8227369  83.7840033  14.7015150  42.0493371  83.9727503  13.2166219
  44.2822652  83.9205276  17.7380755  43.9180859  83.3935897  18.4493676
  45.1389768  83.5303745  17.5647240  50.1871953  75.2099609  25.0012021
  49.8555277  76.0795020  24.7773236  49.5917566  74.8935893  25.6806051
  43.9228139  78.9495176  12.7342103  44.0902541  79.8175412  13.1012574
  43.7325308  79.1122458  11.8103392  46.6803472  87.4112155  24.4007934
  46.3804195  88.3137194  24.2923741  46.3354532  87.1444338  25.2529086
  40.1315954  83.8625952  20.4344638  39.2066450  83.7302166  20.6422330
  40.3800367  84.6420171  20.9314580  50.0800616  79.9294695  22.0805371
  49.1717493  79.8610104  21.7864132  50.0288212  80.4066640  22.9087196
  43.9017360  81.4052833  13.7188770  43.7816985  81.8509884  14.5574250
  43.2069948  81.7538151  13.1602308  37.4924765  83.5059225  21.2688427
  37.6217146  83.7593704  22.1827839  36.8122216  84.0986933  20.9493082
  41.6624252  94.1756475  17.3678901  41.5848282  95.1264300  17.4467382
  41.0585896  93.8302348  18.0253828  44.1541482  81.3484341  30.0240268
  43.3774816  81.9078261  30.0143133  44.7932045  81.8341124  30.5455138
  51.9462262  78.1311133  23.8583245  51.3036643  78.4243667  23.2123039
  51.4417191  78.0164054  24.6636442  49.6002426  81.8774307  14.5469104
  50.5120282  82.1101693  14.3716802  49.0912073  82.4611351  13.9844183
  42.4087854  84.1569794  29.5858235  43.1502538  84.6954838  29.3093059
  41.7024840  84.7836083  29.7429787  47.8843194  86.2998935  28.1830397
  48.2926550  85.8581345  27.4385029  47.1620455  85.7251562  28.4364590
  44.2374264  81.2371541  25.5563954  45.0835459  81.6610955  25.6998603
  44.1772901  80.5805166  26.2502517  48.2072008  86.8600125  21.9382686
  47.5780871  87.0245839  21.2358753  47.8197670  87.2741735  22.7093650
  52.0861240  87.7954563  19.2927049  51.4012278  88.1753464  18.7424083
  52.1705090  88.4049890  20.0258997  47.3873709  78.8975910  27.2145127
  47.1434641  79.6517970  26.6779403  47.6633640  79.2761257  28.0492374
  49.3412172  85.4414522  25.8922393  49.5529067  86.0846282  25.2156774
  49.2941920  84.6076839  25.4244323  46.9438401  78.0532343  22.7958965
  46.0822880  78.3513596  23.0875703  46.9700836  78.2702742  21.8639998
  43.7599970  86.5974533  19.2032771  44.2238316  86.8762236  18.4137393
  43.4956768  85.6957978  19.0205861  40.6524051  86.1446015  22.1412534
  41.2225408  86.5733283  21.5030018  41.2432163  85.8628599  22.8396720
  42.6968856  82.7197686  16.0122336  43.3992900  83.1718729  16.4796262
  42.3649485  82.0781504  16.6402229  41.1449218  81.3109442  30.3873545
  40.5147878  81.9925723  30.6208942  41.0385306  81.1992524  29.4426683
  36.4394190  80.9781238  21.3139469  35.6493244  81.2338767  20.8379580
  36.9305438  81.7929576  21.4191510  50.4558000  88.3186477  24.0644750
  51.2775444  87.9166665  23.7827432  50.4520403  88.2154712  25.0160866
  38.3908936  81.3425817  18.2722946  37.5940099  81.4544512  18.7906442
  38.1634528  81.6812470  17.4063837  44.2214603  87.8670521  26.2205461
  44.2859036  88.3290928  27.0563633  43.5125527  87.2367886  26.3487771
  34.7231893  81.2311729  23.7454460  34.9739932  82.1158739  24.0112036
  35.2591442  81.0516330  22.9729552  58.5463993  84.6625226  20.4129722
  57.7927701  84.0932624  20.2573726  58.6811534  84.6287890  21.3600356
  43.9362621  89.5338628  16.0884441  43.8008296  90.3790164  16.5169289
  44.4772433  89.7357906  15.3250375  40.4229961  75.6130208  32.7498796
  40.0296906  75.0596407  33.4246440  41.2396101  75.9240787  33.1405314
  37.3892018  87.0514066  16.6612366  37.9016539  87.8457316  16.8117931
  38.0414731  86.3540357  16.5945968  39.1986903  90.1679823  18.7435119
  39.3753531  91.0897787  18.5556103  39.9943737  89.8538242  19.1729499
  43.3397922  77.0288087  30.3419053  44.0807635  77.6295240  30.2623515
  43.5715844  76.2865725  29.7837095  38.4839260  82.2144454  28.6197283
  38.3692775  81.3129712  28.9204381  37.6283777  82.4608151  28.2682099
  45.5631097  90.1562195  30.2184783  45.1194952  89.3698573  29.9005688
  46.2248311  90.3441345  29.5528674  40.3218218  91.6857996  24.7445462
  40.8725644  91.5575060  23.9722456  39.4829694  91.9852885  24.3940354
  47.6612335  90.4364995  28.2466184  47.6430811  91.2573876  27.7546454
  48.5832255  90.3119070  28.4716326  44.1185390  87.9509124  29.0889693
  44.6513726  87.1897412  28.8589001  43.5899471  87.6582776  29.8313847
  47.2855085  73.0569190  24.6183334  46.9419354  73.9470832  24.5422445
  47.6534047  72.8670848  23.7552920  35.3540935  85.3802721  17.4371937
  36.1916157  85.7899729  17.2205644  35.5319203  84.4402163  17.4072131
  47.2505367  83.0477801  13.1255770  46.7351991  83.8182406  13.3644157
  46.9782676  82.3742937  13.7488831  44.8352478  77.8927502  18.1841008
  43.9794075  77.5034352  18.0046647  45.2479430  77.9719463  17.3240794
  46.3651625  75.4273845  22.5832568  45.8616420  75.3903980  21.7700373
  46.6582232  76.3366588  22.6429224  42.6094511  75.5112575  21.5898749
  43.4747508  75.3155384  21.2304639  42.6772020  75.2822927  22.5168106
  52.2239641  85.8010156  15.0608943  51.4469084  85.4621315  14.6164105
  52.9031122  85.8062779  14.3863908  47.0391670  80.9204893  14.9515551
  46.7341806  81.2351042  15.8025694  47.9922113  80.9986313  14.9942884
  45.4838102  87.0795117  16.6008505  44.9559464  86.3447876  16.2881742
  44.9825605  87.8569793  16.3548473  50.4630948  85.2744137  21.7175551
  49.8054623  85.9643398  21.8055680  51.2671347  85.6640569  22.0609537
  40.2156830  77.7414783  18.9615116  40.7900582  77.5189964  18.2288309
  40.8027812  77.8103477  19.7143718  49.2736407  83.6288510  19.7679493
  49.7868289  84.2618502  20.2701203  49.9237631  83.0289705  19.4022853
  40.5426417  79.7719244  12.9811002  39.7063729  80.1093930  13.3020276
  40.4031187  79.6368224  12.0438139  42.5179498  74.6156032  17.6890186
  41.8643910  74.3005049  17.0646800  42.4759972  73.9931772  18.4150009
  43.6290702  84.8975327   9.6043478  42.7217764  84.6664580   9.8034627
  44.1261734  84.1012946   9.7917459  46.5358781  93.6072834  12.5240164
  45.8620480  93.9104531  13.1325122  46.9224603  94.4101914  12.1745621
  45.7517238  81.1037965  22.0137833  44.8339799  81.3252912  21.8559521
  46.1677382  81.1784276  21.1549541  46.5352286  82.5029381  17.1440514
  47.2824105  83.0150778  16.8347636  46.8043875  82.1813434  18.0044907
  44.8078936  84.9987922  14.1267468  43.8990155  84.7146955  14.2239938
  44.8374020  85.4187000  13.2670775  50.0398203  88.6094511  17.8958635
  49.5860530  87.7685421  17.9523826  49.4092170  89.2455910  18.2333416
  48.9831123  79.5386497  19.1259303  48.2453880  79.0263883  19.4569545
  49.2357896  79.0986879  18.3142580  48.4831143  90.4471008  18.8308454
  48.7754117  91.0076065  18.1120819  48.9929763  90.7399569  19.5861613
  49.0842750  72.3162749  19.7201072  49.3901627  71.4560113  19.4326987
  49.8095355  72.9080369  19.5200066  35.3767106  82.7193436  18.1082670
  35.1791506  82.1262797  17.3833737  34.8213770  82.4145646  18.8258609
  43.3563830  82.6116542  20.2277263  43.4112440  81.6590379  20.1519740
  42.5455032  82.7675981  20.7118562  44.5055024  86.5396665  11.4655546
  44.0674454  85.8232524  11.0061184  45.2465465  86.7672780  10.9040638
  41.2956190  81.2293602  17.9867642  40.4824055  81.5287773  18.3932834
  41.7915184  80.8349291  18.7042124  43.4464768  91.2251359  19.9201907
  43.4040947  91.4512205  18.9910439  44.3627467  90.9914734  20.0687708
  46.8930402  81.6935427  26.8182536  47.2479789  81.9206900  27.6777002
  47.5402533  82.0253803  26.1959791  52.6228138  84.8153862  17.5231865
  52.4846037  85.0055458  16.5953054  52.2664357  85.5773245  17.9799916
  40.7870265  78.8011958  23.6028877  41.4269644  78.6600717  22.9051840
  39.9547795  78.5146471  23.2267479  52.6497518  86.8830389  22.5343137
  53.0834025  86.7905679  23.3826191  53.3629099  86.8587890  21.8963153
  41.5630568  88.1014388  19.7163870  42.3571167  87.6064708  19.5146444
  40.8522261  87.5732251  19.3531575  46.3825413  90.4832484  24.0676237
  46.4362435  91.0523420  24.8353953  45.5140194  90.6534369  23.7030274
  37.8713332  82.2457470  15.7923622  36.9410920  82.1841925  16.0093584
  37.9670804  81.7233423  14.9960263  37.7898881  78.7712283  18.3801864
  38.0505698  79.6857616  18.2711024  38.6116053  78.3036725  18.5298477
  39.2623806  80.1850040  25.5500688  39.9346860  79.9767402  24.9013337
  38.4353593  79.9872126  25.1105921  53.5113068  86.9254090  25.0676022
  53.7048958  87.8299901  25.3135297  53.4113686  86.4661509  25.9014607
  45.1649378  76.8111981  27.5666349  44.5177293  77.5101930  27.4730826
  45.9350394  77.2448125  27.9342597  48.5728176  87.0760833  30.6416903
  48.4213683  86.8471385  29.7246986  48.5632856  88.0331434  30.6548248
  45.3413513  84.6492746  25.6263169  46.2705573  84.8003905  25.4532136
  44.9204543  84.7376766  24.7711816  44.1401844  88.6743410  23.3961707
  44.0012930  88.3062194  24.2687645  43.3516441  89.1891049  23.2245664
  44.7349996  93.7752506  14.7387243  44.9101752  93.3040550  15.5532866
  44.0482784  94.4018273  14.9668504  45.6907060  88.0525013  20.7850544
  45.3556892  88.0125783  21.6808194  45.1911005  87.3869729  20.3120955
  39.6651304  83.4592643  26.3103126  39.5271102  82.7272882  26.9114665
  40.5756227  83.3701543  26.0287313  48.6266251  85.3981047  11.0587604
  48.0095422  84.6727875  10.9620657  48.1582740  86.1590407  10.7154678
  42.2933604  83.1712602  25.7986805  43.0033223  82.5305794  25.7573424
  42.2502912  83.4225497  26.7212986  50.2820383  90.1079955  28.7193384
  50.2232929  89.4239176  28.0523967  50.6839901  90.8498945  28.2674010
  41.0062538  80.1577820  27.6182445  40.4699895  79.7068558  28.2704041
  40.4179247  80.2923729  26.8752909  39.3011082  96.9241869  21.5127103
  39.5407680  97.5560393  22.1906122  38.4580278  96.5729909  21.7992463
  40.4164797  79.6166471  10.1808908  39.5394264  79.4955272   9.8171155
  40.8922550  78.8252550   9.9287797  50.2837790  88.0719539  26.9507364
  49.3964569  87.7345461  27.0733763  50.8536341  87.3402571  27.1876129
  31.9366937  84.4043631  20.2750415  32.6237977  84.0905361  19.6871431
  31.7815066  85.3084996  20.0017667  36.7401659  79.2933828  24.7035439
  36.6559848  78.6859497  23.9685849  35.9184366  79.7842846  24.7044936
  43.8138944  92.7320992  23.9168607  43.7409115  93.5375963  24.4287912
  43.3716337  92.9312958  23.0916629  43.6028723  91.9692762  17.4271429
  42.8196245  92.5114442  17.5209653  44.3021468  92.4866741  17.8265670
  46.9125373  77.7787391  20.0705634  47.4094073  77.0257354  19.7506704
  46.1412355  77.8151708  19.5048844  54.7655131  83.4827757  21.7123926
  54.7545007  84.3652472  21.3417859  53.8972510  83.1299308  21.5178463
  46.2737627  92.6307826  26.0726766  46.9865599  93.2655291  26.0002667
  45.7827656  92.7271692  25.2566768  47.9955154  86.5359078  17.6444058
  47.0611433  86.6560541  17.4748762  48.1731822  85.6331545  17.3804067
  43.4960342  79.9204774  19.7977319  43.1258130  79.3675815  20.4858224
  43.9919435  79.3162908  19.2452319  51.3827705  82.3776398  18.1794092
  51.8488158  83.2104389  18.1054394  51.8335206  81.9121379  18.8839350
  41.3249541  90.3802269  26.8932337  42.0259000  91.0138752  27.0461731
  40.8544656  90.7217001  26.1327976  49.4503936  88.7220219  15.1780244
  49.7263780  88.6076814  16.0874118  48.5808435  88.3237704  15.1392417
  49.3544368  74.7456985  22.2184993  48.4407448  74.9761212  22.3867200
  49.7837470  74.8295429  23.0699025  49.1250827  82.9346877  24.7184887
  48.4722277  83.1822784  24.0637340  49.5031207  82.1211015  24.3847364
  46.0858001  92.9706570  18.8213057  46.2680395  92.1528226  19.2840810
  46.9090987  93.1874262  18.3837947  46.4200166  91.8974755  16.0828106
  46.9487932  91.3867210  15.4698268  46.6828386  91.5817285  16.9473639
  45.1738400  83.6766688  31.2050924  44.4979037  83.5760817  31.8753299
  45.9966034  83.5205901  31.6686921  36.9217259  89.9138624  23.8263439
  37.5070696  89.1682312  23.9591344  36.7242097  90.2242581  24.7100103
  39.7755914  92.9489872  18.8425882  39.1066289  93.4335999  18.3589922
  39.6368784  93.1959092  19.7569260  31.5134913  82.4844224  22.5467883
  31.5519013  81.9507815  23.3405001  31.0075206  81.9579430  21.9278860
  43.9161183  94.9833615  25.4408540  44.4679491  95.1465237  26.2057625
  44.2567376  95.5738053  24.7688565  38.8925676  77.3308765  26.0430425
  38.9567002  78.1923596  25.6307823  38.8292796  76.7182767  25.3102783
  38.3677948  79.4031897  29.6903459  38.9949987  79.0208975  30.3040983
  37.5105867  79.1846099  30.0559152  48.7672057  89.8094873  31.2957195
  49.3111961  90.4224831  30.8012149  48.1858902  90.3674451  31.8124208
  35.1443491  81.2108327  15.6221814  35.4396932  80.3019005  15.5688868
  34.2431527  81.1896066  15.3002816  47.0529570  92.9315591  22.4272222
  46.9280709  92.1305331  21.9183168  47.7108661  93.4261784  21.9386192
  38.6737738  79.2864323  21.6049363  37.9524324  79.9000291  21.4656836
  39.4630994  79.8222088  21.5266009  49.1164478  90.7324611  24.0551772
  48.1694814  90.6129962  23.9830099  49.4647251  89.8447109  24.1378034
  41.4764052  76.6218750  27.8790014  41.9998453  76.8681046  28.6416324
  41.2576385  77.4538784  27.4593152  36.8731333  78.8922424  15.7461139
  36.5444039  78.0119803  15.5636245  37.2270703  78.8370093  16.6337528
  46.1210911  90.5277327  20.2556125  45.9735874  89.5994034  20.4363695
  46.9464405  90.5497418  19.7713200  39.9873156  79.1795394  16.1136617
  40.3269228  79.7081315  15.3915225  40.4345276  79.5175800  16.8895183
  49.7245033  91.3505886  21.3420997  50.6491581  91.1448747  21.2045449
  49.5560337  91.1022287  22.2510339  42.6816597  77.5632445  25.5639685
  42.3413417  76.7640258  25.9660365  41.9755603  77.8634156  24.9916518
  43.3333068  74.6481757  24.0167008  44.1559138  74.1742235  23.8945898
  43.5771132  75.4272241  24.5165694  41.9741303  77.6770016  14.3129910
  42.6949665  78.0551268  13.8093626  41.3506607  78.3958892  14.4164888
  46.1172426  78.3815165  15.2488242  46.3336040  79.2639802  14.9477070
  45.6366493  77.9901378  14.5193884  40.8571647  81.3400878  21.8258987
  40.7116228  81.6541181  22.7183268  40.3796851  81.9585778  21.2729885
  42.7168030  78.3303426  21.8739876  42.7029599  77.4344519  21.5372174
  43.4340458  78.3374090  22.5078162  44.5694161  78.7640766  23.9193004
  44.3111939  79.6857837  23.9177334  44.0379201  78.3671201  24.6093468
  49.5140350  91.8691553  16.6983089  49.6877227  91.3037976  15.9456941
  50.0069241  92.6692448  16.5162579  35.3317309  83.8806222  24.7646648
  34.7870777  84.6566030  24.8966922  36.2096659  84.2277027  24.6065769
  42.1204926  77.2117806  17.1427446  42.2420837  76.2834452  17.3418334
  41.8306968  77.2256492  16.2305762  44.9896116  74.8972717  20.2794166
  45.0117813  74.9612050  19.3246146  45.4064175  74.0577225  20.4734672
  55.3679741  84.6327976  18.3173389  55.8110887  83.8835301  17.9192512
  54.4906251  84.6238112  17.9347121  50.5015522  91.1858318  13.7979987
  51.1966427  91.8065010  14.0167302  50.8438672  90.3353669  14.0732365
  36.1183331  83.0076119  27.6576805  35.3765067  83.1558754  28.2441435
  35.7976075  83.2684384  26.7943554  52.4006945  88.6358023  15.3267318
  52.9258269  88.9745296  14.6016638  52.3129298  87.7005038  15.1430453
  44.0626994  92.5492097  27.4557195  44.3714120  92.3041243  28.3279894
  44.8602476  92.7538735  26.9676065  44.0847606  94.7030006  19.6862571
  43.6452596  94.2106385  20.3795428  44.8355723  94.1602974  19.4454646
  36.5639945  90.8941547  19.6887199  37.3897965  90.5945319  19.3085843
  36.2133997  90.1249170  20.1376988  41.5321478  90.2468015  21.7584873
  40.9101487  89.5838720  21.4587101  42.2026345  90.2729147  21.0758521
  34.7648550  88.8127874  20.6476133  33.9280458  88.3850048  20.4660134
  34.7372195  89.0060317  21.5846924  41.6046006  78.7249803  31.3517379
  41.6534161  79.6011926  30.9695148  42.1468520  78.1827197  30.7789022
  52.0900851  89.2690927  30.6318516  51.2996395  89.2515066  30.0923015
  51.8534206  89.8079220  31.3867552  52.2098726  86.1183393  27.9451244
  52.2596731  85.9533401  28.8866767  52.1012650  85.2510652  27.5549125
  41.0934985  88.7971939  15.2343333  41.2423105  89.4807403  14.5810006
  41.9001428  88.7777029  15.7492789  49.5002489  82.1014321  29.2610551
  50.4012351  81.9620786  28.9694549  49.5750463  82.2668776  30.2008729
  43.8345294  79.4781176  28.1063737  42.9648603  79.7714742  27.8346326
  44.0704774  80.0621621  28.8271001  53.7116923  88.5380335  28.1893266
  53.4201731  88.9010315  29.0256727  53.0989054  87.8247343  28.0106598
  54.9112605  86.1033214  20.7095836  55.7459497  86.5423018  20.8733397
  55.0471734  85.6271868  19.8904082  51.9604111  83.6612949  26.6573324
  52.4358233  83.8540596  25.8492175  51.0369677  83.7172135  26.4116708
  38.8487618  84.8237116  16.2404402  38.6033660  83.9199446  16.4384612
  39.0183532  84.8254267  15.2983880  46.5384328  75.6960793  25.6229158
  47.0566272  76.4321820  25.2975646  46.1839461  76.0024786  26.4575917
  38.1183265  80.5565474  13.7390564  37.4252510  80.6309829  13.0830600
  37.8735017  79.7925818  14.2612081  46.7896922  72.1161075  21.1430054
  47.0698676  71.4484264  21.7690481  47.5747529  72.3090171  20.6304718
  44.5930390  91.2920069  12.7055081  44.0204358  91.9110256  12.2525553
  45.1663184  91.8419431  13.2395003  50.6605780  80.5378709  24.8901630
  51.6123203  80.6376807  24.9113854  50.4909231  79.7456978  25.3999714
  48.6820160  77.6234293  25.0761030  48.0870092  77.9039305  24.3807519
  48.3969857  78.1128193  25.8477772  47.8127650  91.5757219  13.8363663
  48.7458323  91.5102781  14.0396539  47.7250863  92.4113486  13.3778196
  50.4415667  90.8923090  10.7967611  50.3629298  90.5582953  11.6903369
  51.2625334  91.3844858  10.7959083  53.1393858  83.7584829  24.0043929
  53.1070178  82.8200830  24.1903613  53.7494482  83.8368866  23.2709754
  44.9777189  82.6280882  10.0471133  45.9236294  82.4987090  10.1159551
  44.5991434  81.8895544  10.5240561  53.2888347  80.5495872  24.0502212
  52.7727395  79.7654329  23.8632141  54.1728295  80.2214589  24.2148732
  50.9499074  74.2936888  20.0098025  50.7523895  73.9851976  20.8941357
  51.5598779  75.0198527  20.1395955  58.9570408  84.8200836  23.1449966
  59.6873796  84.5586124  23.7057669  58.3477353  84.0829558  23.1852034
  57.0385705  82.9608698  23.7424417  56.3118869  82.8264663  23.1340909
  56.6232992  83.2685527  24.5481135  44.8615882  86.6798628  31.5071790
  45.7818891  86.8577227  31.7011837  44.8265465  85.7354673  31.3551489
  43.1620106  80.5530858   9.9826018  42.2551562  80.2563971  10.0588732
  43.4396087  80.2560676   9.1160305  34.0798047  81.8737222  20.4325065
  33.7600831  81.0202530  20.1399439  33.5331475  82.0885800  21.1883032
  37.8577954  84.5899663  24.1494571  38.0763964  85.5216771  24.1682605
  38.2703728  84.2307637  24.9349375  44.7782172  75.0967748  16.1370260
  43.9682900  74.7514833  16.5125506  45.4666589  74.7875292  16.7257871
  46.7072720  74.1745795  17.7594556  47.2603759  74.5941248  18.4184580
  46.9442807  73.2481543  17.8017512  42.7305819  80.1632869  33.5397320
  42.6302546  81.1127226  33.4709411  42.5127361  79.8351107  32.6673390
  41.9318891  77.4117794  10.1237998  42.7938055  77.7372692  10.3833815
  42.1169235  76.6249289   9.6111063  33.9486307  85.4940133  22.4018186
  33.2549778  85.0794086  21.8888141  34.6959298  85.5360670  21.8051605
  50.0851527  76.2846320  17.2673221  49.5050196  76.9431124  16.8851273
  49.8187460  75.4623665  16.8560638  48.5355094  75.6851378  19.4694541
  49.0354872  75.7967912  18.6608860  49.1790702  75.3812431  20.1095349
  42.5937089  83.5930007  32.3562382  42.1104171  84.3930367  32.5626271
  42.6798028  83.6037952  31.4029826  35.8623049  85.4258387  20.2784201
  35.8393737  85.5246074  19.3266084  36.1723686  86.2723538  20.6001367
  38.5210427  87.4834542  24.3930816  39.4753680  87.4518484  24.3260747
  38.3222951  87.0225166  25.2081042  39.1109809  86.0535658  26.9601613
  39.9302698  86.5479737  26.9836451  39.3846617  85.1367626  26.9319181
  48.8676405  78.4446410  16.3229569  47.9802260  78.7296061  16.1049764
  49.2830394  78.2840174  15.4756846  52.2190941  78.4692931  20.0383908
  52.9951332  78.9589384  20.3108525  51.4939076  78.8950986  20.4955778
  54.6563500  79.1820551  21.0957849  55.2507991  78.9416287  20.3851157
  54.7290084  78.4627681  21.7231385  36.8760656  93.0254162  21.4101014
  36.7415124  92.2654562  20.8439012  36.4592718  93.7495061  20.9429803
  48.0119619  88.2091085  10.4177589  48.7155469  88.4141088  11.0335245
  47.2882267  88.7767847  10.6826672  48.8417429  83.9600946  16.5379859
  48.7852630  84.4169498  15.6987492  49.3945771  83.1991631  16.3602702
  52.6522235  79.7490678  17.3629979  52.3959169  79.3487314  18.1938186
  52.0275103  80.4634472  17.2380118  56.9634573  82.4886751  19.8701270
  56.4034131  82.5579941  20.6432832  56.3578076  82.3127736  19.1500766
  40.0329782  93.9223479  21.6219456  39.9162166  94.8668911  21.5198147
  39.2122228  93.6197040  22.0105255  49.9206316  88.6473614  12.4676049
  50.7551920  88.2154813  12.2853524  49.7590659  88.4755628  13.3952943
  49.5752208  85.1505728  13.8332388  49.5201012  84.9849999  12.8920832
  48.9498264  85.8581761  13.9894578  34.3644723  80.3873792  27.6593810
  35.0103587  79.8772746  28.1481036  34.1561874  81.1242474  28.2337236
  46.8898115  87.4554639  33.1585951  47.7589275  87.6295292  32.7972586
  46.4104867  88.2749056  33.0361680  42.8848334  74.6513837  13.4117707
  42.8727004  75.5955677  13.5685978  43.7771756  74.4683982  13.1177168
  41.0584296  94.5751740  24.8375385  41.9611542  94.6075351  25.1541880
  40.8321666  93.6452191  24.8521720  42.8137898  93.3282727  21.4985463
  41.8633529  93.3284589  21.3849836  43.1170384  92.5815462  20.9821498
  46.7000453  71.2456613  17.6663643  45.9332849  70.6915100  17.8120326
  47.1111158  71.3178482  18.5277795  38.7042214  77.5341409  31.7568825
  39.5673676  77.1778214  31.9672149  38.1307625  77.1955304  32.4444229
  58.5490591  99.1643265  22.5631226  59.1869001  99.0450013  21.8594566
  58.4311434 100.1124109  22.6219178  55.3580298  99.1170694  22.4992750
  55.0198809  99.0011758  21.6113285  56.2270066  98.7161859  22.4793757
  51.2167113 100.9706170  18.4889641  50.6531978 100.8796107  17.7205929
  51.1019508 100.1506074  18.9692134  55.8400080 100.2705545  28.4578956
  55.8288721  99.8758344  27.5859460  56.0020720  99.5371618  29.0512727
  48.7631545 102.4657362  21.3273862  49.5552837 102.1248186  20.9120161
  49.0028195 102.5752337  22.2476015  56.7966672 104.6377138  13.8004106
  56.1454652 105.2231218  13.4138120  57.5911035 105.1683333  13.8599144
  50.7222299 101.7266275  14.1991241  51.4953175 101.1795262  14.0604116
  51.0747698 102.5910524  14.4105702  52.5607342 103.0542657  27.4058140
  52.2697208 103.9588288  27.2904806  53.1964326 103.0959185  28.1202209
  53.4863548 100.4319506  23.9959500  54.0827121 100.2075528  23.2816463
  53.5438520  99.6904251  24.5984947  53.0588577  97.8858941  11.8309691
  53.3114098  97.3640462  11.0693154  52.1213136  97.7225086  11.9336374
  58.1031860  96.8894719  19.6384434  58.8894949  96.4714142  19.2874851
  58.3670564  97.7940811  19.8066082  58.2741937 102.3267570  14.3373091
  57.6387770 102.4002196  15.0493995  57.9439343 102.9161168  13.6592170
  63.5040287  96.8269952  20.5417412  64.2365459  96.2569169  20.7755242
  62.7479643  96.4391553  20.9823918  52.7784866  99.7887047  14.0334065
  52.6621124  99.1131950  14.7015150  52.8887126  99.3019421  13.2166219
  55.1216407  99.2497194  17.7380755  54.7574614  98.7227815  18.4493676
  55.9783522  98.8595663  17.5647240  61.0265707  90.5391527  25.0012021
  60.6949032  91.4086938  24.7773236  60.4311321  90.2227811  25.6806051
  54.7621894  94.2787094  12.7342103  54.9296296  95.1467330  13.1012574
  54.5719063  94.4414375  11.8103392  57.5197227 102.7404073  24.4007934
  57.2197950 103.6429111  24.2923741  57.1748286 102.4736256  25.2529086
  50.9709708  99.1917869  20.4344638  50.0460205  99.0594084  20.6422330
  51.2194121  99.9712089  20.9314580  60.9194371  95.2586613  22.0805371
  60.0111248  95.1902021  21.7864132  60.8681966  95.7358558  22.9087196
  54.7411114  96.7344751  13.7188770  54.6210740  97.1801802  14.5574250
  54.0463703  97.0830069  13.1602308  48.3318519  98.8351143  21.2688427
  48.4610900  99.0885622  22.1827839  47.6515971  99.4278851  20.9493082
  52.5018007 109.5048393  17.3678901  52.4242036 110.4556218  17.4467382
  51.8979650 109.1594265  18.0253828  54.9935236  96.6776258  30.0240268
  54.2168570  97.2370178  30.0143133  55.6325799  97.1633041  30.5455138
  62.7856017  93.4603051  23.8583245  62.1430397  93.7535584  23.2123039
  62.2810945  93.3455971  24.6636442  60.4396181  97.2066224  14.5469104
  61.3514037  97.4393611  14.3716802  59.9305828  97.7903269  13.9844183
  53.2481609  99.4861712  29.5858235  53.9896293 100.0246756  29.3093059
  52.5418594 100.1128000  29.7429787  58.7236948 101.6290852  28.1830397
  59.1320304 101.1873263  27.4385029  58.0014210 101.0543480  28.4364590
  55.0768018  96.5663459  25.5563954  55.9229213  96.9902872  25.6998603
  55.0166656  95.9097083  26.2502517  59.0465763 102.1892043  21.9382686
  58.4174625 102.3537757  21.2358753  58.6591425 102.6033652  22.7093650
  62.9254995 103.1246481  19.2927049  62.2406033 103.5045382  18.7424083
  63.0098844 103.7341807  20.0258997  58.2267464  94.2267827  27.2145127
  57.9828395  94.9809888  26.6779403  58.5027394  94.6053175  28.0492374
  60.1805926 100.7706440  25.8922393  60.3922822 101.4138200  25.2156774
  60.1335675  99.9368756  25.4244323  57.7832155  93.3824260  22.7958965
  56.9216634  93.6805514  23.0875703  57.8094590  93.5994659  21.8639998
  54.5993725 101.9266451  19.2032771  55.0632070 102.2054154  18.4137393
  54.3350523 101.0249895  19.0205861  51.4917806 101.4737932  22.1412534
  52.0619163 101.9025201  21.5030018  52.0825918 101.1920517  22.8396720
  53.5362611  98.0489603  16.0122336  54.2386654  98.5010647  16.4796262
  53.2043239  97.4073422  16.6402229  51.9842972  96.6401360  30.3873545
  51.3541633  97.3217641  30.6208942  51.8779060  96.5284441  29.4426683
  47.2787945  96.3073156  21.3139469  46.4886999  96.5630684  20.8379580
  47.7699192  97.1221494  21.4191510  61.2951754 103.6478395  24.0644750
  62.1169198 103.2458582  23.7827432  61.2914157 103.5446629  25.0160866
  49.2302690  96.6717735  18.2722946  48.4333853  96.7836429  18.7906442
  49.0028282  97.0104387  17.4063837  55.0608358 103.1962438  26.2205461
  55.1252790 103.6582846  27.0563633  54.3519282 102.5659803  26.3487771
  45.5625648  96.5603646  23.7454460  45.8133686  97.4450656  24.0112036
  46.0985196  96.3808248  22.9729552  69.3857747  99.9917144  20.4129722
  68.6321456  99.4224542  20.2573726  69.5205289  99.9579808  21.3600356
  54.7756375 104.8630546  16.0884441  54.6402050 105.7082082  16.5169289
  55.3166188 105.0649824  15.3250375  51.2623715  90.9422126  32.7498796
  50.8690661  90.3888324  33.4246440  52.0789855  91.2532704  33.1405314
  48.2285773 102.3805984  16.6612366  48.7410293 103.1749234  16.8117931
  48.8808486 101.6832274  16.5945968  50.0380658 105.4971740  18.7435119
  50.2147286 106.4189705  18.5556103  50.8337491 105.1830159  19.1729499
  54.1791676  92.3580005  30.3419053  54.9201389  92.9587158  30.2623515
  54.4109599  91.6157643  29.7837095  49.3233014  97.5436372  28.6197283
  49.2086529  96.6421629  28.9204381  48.4677532  97.7900069  28.2682099
  56.4024852 105.4854112  30.2184783  55.9588706 104.6990491  29.9005688
  57.0642065 105.6733263  29.5528674  51.1611973 107.0149914  24.7445462
  51.7119398 106.8866977  23.9722456  50.3223449 107.3144803  24.3940354
  58.5006090 105.7656912  28.2466184  58.4824565 106.5865793  27.7546454
  59.4226010 105.6410988  28.4716326  54.9579144 103.2801042  29.0889693
  55.4907481 102.5189330  28.8589001  54.4293225 102.9874694  29.8313847
  58.1248839  88.3861108  24.6183334  57.7813108  89.2762749  24.5422445
  58.4927802  88.1962765  23.7552920  46.1934690 100.7094638  17.4371937
  47.0309912 101.1191647  17.2205644  46.3712957  99.7694080  17.4072131
  58.0899122  98.3769719  13.1255770  57.5745745  99.1474324  13.3644157
  57.8176430  97.7034855  13.7488831  55.6746233  93.2219420  18.1841008
  54.8187829  92.8326270  18.0046647  56.0873185  93.3011380  17.3240794
  57.2045379  90.7565763  22.5832568  56.7010175  90.7195898  21.7700373
  57.4975986  91.6658506  22.6429224  53.4488265  90.8404493  21.5898749
  54.3141262  90.6447301  21.2304639  53.5165774  90.6114844  22.5168106
  63.0633396 101.1302074  15.0608943  62.2862839 100.7913233  14.6164105
  63.7424877 101.1354697  14.3863908  57.8785425  96.2496811  14.9515551
  57.5735560  96.5642960  15.8025694  58.8315867  96.3278231  14.9942884
  56.3231857 102.4087034  16.6008505  55.7953218 101.6739794  16.2881742
  55.8219359 103.1861711  16.3548473  61.3024703 100.6036055  21.7175551
  60.6448377 101.2935316  21.8055680  62.1065102 100.9932487  22.0609537
  51.0550584  93.0706701  18.9615116  51.6294336  92.8481882  18.2288309
  51.6421567  93.1395395  19.7143718  60.1130162  98.9580427  19.7679493
  60.6262043  99.5910419  20.2701203  60.7631385  98.3581623  19.4022853
  51.3820171  95.1011162  12.9811002  50.5457484  95.4385848  13.3020276
  51.2424941  94.9660141  12.0438139  53.3573252  89.9447949  17.6890186
  52.7037664  89.6296967  17.0646800  53.3153726  89.3223690  18.4150009
  54.4684457 100.2267245   9.6043478  53.5611519  99.9956498   9.8034627
  54.9655489  99.4304864   9.7917459  56.5910992  96.4329883  22.0137833
  55.6733554  96.6544830  21.8559521  57.0071136  96.5076193  21.1549541
  57.3746040  97.8321299  17.1440514  58.1217859  98.3442696  16.8347636
  57.6437630  97.5105351  18.0044907  55.6472690 100.3279839  14.1267468
  54.7383910 100.0438872  14.2239938  55.6767774 100.7478918  13.2670775
  60.8791958 103.9386429  17.8958635  60.4254285 103.0977339  17.9523826
  60.2485924 104.5747827  18.2333416  59.8224877  94.8678415  19.1259303
  59.0847634  94.3555801  19.4569545  60.0751651  94.4278797  18.3142580
  59.3224897 105.7762926  18.8308454  59.6147871 106.3367983  18.1120819
  59.8323518 106.0691487  19.5861613  59.9236505  87.6454667  19.7201072
  60.2295381  86.7852030  19.4326987  60.6489109  88.2372287  19.5200066
  46.2160861  98.0485354  18.1082670  46.0185261  97.4554714  17.3833737
  45.6607525  97.7437564  18.8258609  54.1957584  97.9408460  20.2277263
  54.2506194  96.9882296  20.1519740  53.3848786  98.0967899  20.7118562
  55.3448778 101.8688583  11.4655546  54.9068208 101.1524442  11.0061184
  56.0859219 102.0964698  10.9040638  52.1349944  96.5585520  17.9867642
  51.3217810  96.8579690  18.3932834  52.6308939  96.1641209  18.7042124
  54.2858522 106.5543277  19.9201907  54.2434701 106.7804123  18.9910439
  55.2021221 106.3206651  20.0687708  57.7324156  97.0227344  26.8182536
  58.0873544  97.2498817  27.6777002  58.3796287  97.3545721  26.1959791
  63.4621893 100.1445780  17.5231865  63.3239792 100.3347376  16.5953054
  63.1058112 100.9065163  17.9799916  51.6264019  94.1303875  23.6028877
  52.2663398  93.9892634  22.9051840  50.7941550  93.8438389  23.2267479
  63.4891273 102.2122307  22.5343137  63.9227779 102.1197596  23.3826191
  64.2022853 102.1879808  21.8963153  52.4024323 103.4306306  19.7163870
  53.1964921 102.9356626  19.5146444  51.6916015 102.9024169  19.3531575
  57.2219167 105.8124401  24.0676237  57.2756190 106.3815338  24.8353953
  56.3533949 105.9826286  23.7030274  48.7107086  97.5749387  15.7923622
  47.7804675  97.5133843  16.0093584  48.8064558  97.0525340  14.9960263
  48.6292635  94.1004200  18.3801864  48.8899453  95.0149534  18.2711024
  49.4509808  93.6328643  18.5298477  50.1017561  95.5141957  25.5500688
  50.7740614  95.3059320  24.9013337  49.2747347  95.3164043  25.1105921
  64.3506822 102.2546008  25.0676022  64.5442712 103.1591818  25.3135297
  64.2507440 101.7953427  25.9014607  56.0043133  92.1403898  27.5666349
  55.3571048  92.8393848  27.4730826  56.7744148  92.5740042  27.9342597
  59.4121931 102.4052751  30.6416903  59.2607437 102.1763302  29.7246986
  59.4026610 103.3623352  30.6548248  56.1807267  99.9784663  25.6263169
  57.1099327 100.1295823  25.4532136  55.7598297 100.0668684  24.7711816
  54.9795599 104.0035328  23.3961707  54.8406685 103.6354112  24.2687645
  54.1910195 104.5182967  23.2245664  55.5743751 109.1044424  14.7387243
  55.7495507 108.6332467  15.5532866  54.8876539 109.7310190  14.9668504
  56.5300814 103.3816930  20.7850544  56.1950647 103.3417700  21.6808194
  56.0304760 102.7161646  20.3120955  50.5045058  98.7884560  26.3103126
  50.3664856  98.0564799  26.9114665  51.4149982  98.6993461  26.0287313
  59.4660006 100.7272965  11.0587604  58.8489176 100.0019793  10.9620657
  58.9976494 101.4882325  10.7154678  53.1327359  98.5004520  25.7986805
  53.8426977  97.8597712  25.7573424  53.0896667  98.7517415  26.7212986
  61.1214137 105.4371873  28.7193384  61.0626684 104.7531093  28.0523967
  61.5233656 106.1790863  28.2674010  51.8456293  95.4869738  27.6182445
  51.3093650  95.0360476  28.2704041  51.2573001  95.6215646  26.8752909
  50.1404836 112.2533787  21.5127103  50.3801434 112.8852311  22.1906122
  49.2974033 111.9021827  21.7992463  51.2558552  94.9458389  10.1808908
  50.3788018  94.8247190   9.8171155  51.7316305  94.1544467   9.9287797
  61.1231545 103.4011457  26.9507364  60.2358323 103.0637379  27.0733763
  61.6930096 102.6694488  27.1876129  42.7760692  99.7335549  20.2750415
  43.4631732  99.4197279  19.6871431  42.6208821 100.6376913  20.0017667
  47.5795414  94.6225745  24.7035439  47.4953603  94.0151415  23.9685849
  46.7578120  95.1134764  24.7044936  54.6532698 108.0612909  23.9168607
  54.5802870 108.8667881  24.4287912  54.2110091 108.2604875  23.0916629
  54.4422478 107.2984679  17.4271429  53.6590000 107.8406360  17.5209653
  55.1415223 107.8158659  17.8265670  57.7519128  93.1079309  20.0705634
  58.2487827  92.3549271  19.7506704  56.9806109  93.1443626  19.5048844
  65.6048885  98.8119674  21.7123926  65.5938761  99.6944390  21.3417859
  64.7366265  98.4591225  21.5178463  57.1131382 107.9599743  26.0726766
  57.8259354 108.5947208  26.0002667  56.6221410 108.0563609  25.2566768
  58.8348909 101.8650996  17.6444058  57.9005187 101.9852459  17.4748762
  59.0125577 100.9623463  17.3804067  54.3354097  95.2496692  19.7977319
  53.9651884  94.6967732  20.4858224  54.8313189  94.6454825  19.2452319
  62.2221460  97.7068315  18.1794092  62.6881912  98.5396307  18.1054394
  62.6728960  97.2413297  18.8839350  52.1643295 105.7094187  26.8932337
  52.8652755 106.3430670  27.0461731  51.6938410 106.0508918  26.1327976
  60.2897691 104.0512137  15.1780244  60.5657535 103.9368731  16.0874118
  59.4202190 103.6529621  15.1392417  60.1938123  90.0748902  22.2184993
  59.2801202  90.3053129  22.3867200  60.6231224  90.1587346  23.0699025
  59.9644581  98.2638794  24.7184887  59.3116031  98.5114702  24.0637340
  60.3424961  97.4502932  24.3847364  56.9251755 108.2998487  18.8213057
  57.1074150 107.4820143  19.2840810  57.7484741 108.5166180  18.3837947
  57.2593920 107.2266673  16.0828106  57.7881687 106.7159127  15.4698268
  57.5222140 106.9109203  16.9473639  56.0132154  99.0058605  31.2050924
  55.3372791  98.9052735  31.8753299  56.8359788  98.8497819  31.6686921
  47.7611013 105.2430542  23.8263439  48.3464450 104.4974230  23.9591344
  47.5635852 105.5534499  24.7100103  50.6149668 108.2781789  18.8425882
  49.9460044 108.7627917  18.3589922  50.4762538 108.5251010  19.7569260
  42.3528668  97.8136142  22.5467883  42.3912767  97.2799733  23.3405001
  41.8468961  97.2871348  21.9278860  54.7554937 110.3125533  25.4408540
  55.3073245 110.4757154  26.2057625  55.0961130 110.9029971  24.7688565
  49.7319430  92.6600683  26.0430425  49.7960757  93.5215514  25.6307823
  49.6686550  92.0474684  25.3102783  49.2071703  94.7323815  29.6903459
  49.8343742  94.3500892  30.3040983  48.3499622  94.5138017  30.0559152
  59.6065811 105.1386790  31.2957195  60.1505715 105.7516749  30.8012149
  59.0252656 105.6966369  31.8124208  45.9837246  96.5400244  15.6221814
  46.2790687  95.6310923  15.5688868  45.0825281  96.5187984  15.3002816
  57.8923324 108.2607508  22.4272222  57.7674464 107.4597248  21.9183168
  58.5502415 108.7553702  21.9386192  49.5131493  94.6156241  21.6049363
  48.7918078  95.2292209  21.4656836  50.3024748  95.1514006  21.5266009
  59.9558233 106.0616528  24.0551772  59.0088568 105.9421880  23.9830099
  60.3041006 105.1739026  24.1378034  52.3157806  91.9510667  27.8790014
  52.8392208  92.1972964  28.6416324  52.0970139  92.7830702  27.4593152
  47.7125087  94.2214342  15.7461139  47.3837793  93.3411721  15.5636245
  48.0664458  94.1662011  16.6337528  56.9604666 105.8569245  20.2556125
  56.8129628 104.9285952  20.4363695  57.7858159 105.8789335  19.7713200
  50.8266910  94.5087312  16.1136617  51.1662983  95.0373233  15.3915225
  51.2739031  94.8467718  16.8895183  60.5638788 106.6797803  21.3420997
  61.4885335 106.4740665  21.2045449  60.3954091 106.4314205  22.2510339
  53.5210351  92.8924362  25.5639685  53.1807171  92.0932176  25.9660365
  52.8149357  93.1926073  24.9916518  54.1726823  89.9773675  24.0167008
  54.9952892  89.5034153  23.8945898  54.4164886  90.7564159  24.5165694
  52.8135057  93.0061933  14.3129910  53.5343420  93.3843186  13.8093626
  52.1900362  93.7250810  14.4164888  56.9566180  93.7107082  15.2488242
  57.1729795  94.5931720  14.9477070  56.4760247  93.3193296  14.5193884
  51.6965402  96.6692796  21.8258987  51.5509982  96.9833099  22.7183268
  51.2190605  97.2877696  21.2729885  53.5561785  93.6595344  21.8739876
  53.5423353  92.7636437  21.5372174  54.2734213  93.6666007  22.5078162
  55.4087915  94.0932684  23.9193004  55.1505693  95.0149754  23.9177334
  54.8772956  93.6963118  24.6093468  60.3534104 107.1983471  16.6983089
  60.5270982 106.6329893  15.9456941  60.8462995 107.9984366  16.5162579
  46.1711064  99.2098140  24.7646648  45.6264532  99.9857948  24.8966922
  47.0490414  99.5568944  24.6065769  52.9598680  92.5409724  17.1427446
  53.0814592  91.6126370  17.3418334  52.6700723  92.5548410  16.2305762
  55.8289871  90.2264634  20.2794166  55.8511568  90.2903967  19.3246146
  56.2457930  89.3869143  20.4734672  66.2073495  99.9619894  18.3173389
  66.6504641  99.2127219  17.9192512  65.3300005  99.9530030  17.9347121
  61.3409277 106.5150235  13.7979987  62.0360181 107.1356928  14.0167302
  61.6832427 105.6645586  14.0732365  46.9577086  98.3368036  27.6576805
  46.2158822  98.4850672  28.2441435  46.6369830  98.5976302  26.7943554
  63.2400700 103.9649941  15.3267318  63.7652024 104.3037214  14.6016638
  63.1523052 103.0296956  15.1430453  54.9020748 107.8784014  27.4557195
  55.2107875 107.6333161  28.3279894  55.6996230 108.0830653  26.9676065
  54.9241360 110.0321924  19.6862571  54.4846351 109.5398303  20.3795428
  55.6749477 109.4894892  19.4454646  47.4033699 106.2233465  19.6887199
  48.2291719 105.9237237  19.3085843  47.0527751 105.4541087  20.1376988
  52.3715233 105.5759933  21.7584873  51.7495242 104.9130638  21.4587101
  53.0420099 105.6021065  21.0758521  45.6042304 104.1419791  20.6476133
  44.7674213 103.7141966  20.4660134  45.5765950 104.3352235  21.5846924
  52.4439760  94.0541721  31.3517379  52.4927916  94.9303844  30.9695148
  52.9862274  93.5119114  30.7789022  62.9294606 104.5982844  30.6318516
  62.1390149 104.5806983  30.0923015  62.6927960 105.1371138  31.3867552
  63.0492481 101.4475311  27.9451244  63.0990486 101.2825318  28.8866767
  62.9406404 100.5802570  27.5549125  51.9328739 104.1263856  15.2343333
  52.0816860 104.8099321  14.5810006  52.7395183 104.1068947  15.7492789
  60.3396243  97.4306239  29.2610551  61.2406106  97.2912704  28.9694549
  60.4144218  97.5960694  30.2008729  54.6739048  94.8073094  28.1063737
  53.8042358  95.1006660  27.8346326  54.9098529  95.3913539  28.8271001
  64.5510678 103.8672252  28.1893266  64.2595486 104.2302233  29.0256727
  63.9382809 103.1539261  28.0106598  65.7506360 101.4325132  20.7095836
  66.5853251 101.8714936  20.8733397  65.8865489 100.9563785  19.8904082
  62.7997866  98.9904867  26.6573324  63.2751987  99.1832513  25.8492175
  61.8763431  99.0464053  26.4116708  49.6881372 100.1529034  16.2404402
  49.4427414  99.2491364  16.4384612  49.8577287 100.1546185  15.2983880
  57.3778082  91.0252710  25.6229158  57.8960026  91.7613737  25.2975646
  57.0233215  91.3316704  26.4575917  48.9577020  95.8857392  13.7390564
  48.2646265  95.9601747  13.0830600  48.7128772  95.1217735  14.2612081
  57.6290676  87.4452993  21.1430054  57.9092430  86.7776182  21.7690481
  58.4141283  87.6382089  20.6304718  55.4324145 106.6211987  12.7055081
  54.8598112 107.2402174  12.2525553  56.0056939 107.1711349  13.2395003
  61.4999535  95.8670627  24.8901630  62.4516958  95.9668725  24.9113854
  61.3302985  95.0748896  25.3999714  59.5213914  92.9526210  25.0761030
  58.9263846  93.2331223  24.3807519  59.2363611  93.4420111  25.8477772
  58.6521405 106.9049137  13.8363663  59.5852078 106.8394699  14.0396539
  58.5644618 107.7405404  13.3778196  63.9787613  99.0876747  24.0043929
  63.9463933  98.1492747  24.1903613  64.5888236  99.1660783  23.2709754
  55.8170943  97.9572800  10.0471133  56.7630048  97.8279008  10.1159551
  55.4385188  97.2187462  10.5240561  64.1282101  95.8787790  24.0502212
  63.6121150  95.0946247  23.8632141  65.0122050  95.5506507  24.2148732
  61.7892828  89.6228806  20.0098025  61.5917649  89.3143894  20.8941357
  62.3992534  90.3490445  20.1395955  69.7964162 100.1492754  23.1449966
  70.5267551  99.8878042  23.7057669  69.1871108  99.4121475  23.1852034
  67.8779460  98.2900616  23.7424417  67.1512623  98.1556581  23.1340909
  67.4626746  98.5977445  24.5481135  55.7009636 102.0090546  31.5071790
  56.6212645 102.1869145  31.7011837  55.6659219 101.0646591  31.3551489
  54.0013861  95.8822776   9.9826018  53.0945316  95.5855889  10.0588732
  54.2789842  95.5852594   9.1160305  44.9191801  97.2029139  20.4325065
  44.5994585  96.3494448  20.1399439  44.3725229  97.4177718  21.1883032
  48.6971709  99.9191580  24.1494571  48.9157718 100.8508688  24.1682605
  49.1097482  99.5599555  24.9349375  55.6175926  90.4259666  16.1370260
  54.8076655  90.0806751  16.5125506  56.3060343  90.1167210  16.7257871
  57.5466475  89.5037713  17.7594556  58.0997513  89.9233166  18.4184580
  57.7836561  88.5773461  17.8017512  53.5699574  95.4924786  33.5397320
  53.4696301  96.4419143  33.4709411  53.3521116  95.1643025  32.6673390
  52.7712645  92.7409711  10.1237998  53.6331809  93.0664610  10.3833815
  52.9562989  91.9541207   9.6111063  44.7880061 100.8232051  22.4018186
  44.0943532 100.4086004  21.8888141  45.5353052 100.8652587  21.8051605
  60.9245282  91.6138238  17.2673221  60.3443951  92.2723042  16.8851273
  60.6581214  90.7915582  16.8560638  59.3748848  91.0143295  19.4694541
  59.8748626  91.1259830  18.6608860  60.0184456  90.7104348  20.1095349
  53.4330844  98.9221925  32.3562382  52.9497926  99.7222285  32.5626271
  53.5191783  98.9329870  31.4029826  46.7016804 100.7550305  20.2784201
  46.6787492 100.8537992  19.3266084  47.0117440 101.6015456  20.6001367
  49.3604181 102.8126460  24.3930816  50.3147435 102.7810402  24.3260747
  49.1616705 102.3517084  25.2081042  49.9503564 101.3827576  26.9601613
  50.7696453 101.8771654  26.9836451  50.2240371 100.4659544  26.9319181
  59.7070160  93.7738328  16.3229569  58.8196015  94.0587979  16.1049764
  60.1224149  93.6132091  15.4756846  63.0584696  93.7984849  20.0383908
  63.8345086  94.2881302  20.3108525  62.3332830  94.2242903  20.4955778
  65.4957254  94.5112468  21.0957849  66.0901745  94.2708204  20.3851157
  65.5683838  93.7919599  21.7231385  47.7154410 108.3546079  21.4101014
  47.5808878 107.5946480  20.8439012  47.2986472 109.0786979  20.9429803
  59.6811183  99.2892864  16.5379859  59.6246385  99.7461415  15.6987492
  60.2339526  98.5283549  16.3602702  63.4915989  95.0782596  17.3629979
  63.2352924  94.6779232  18.1938186  62.8668857  95.7926390  17.2380118
  67.8028327  97.8178669  19.8701270  67.2427885  97.8871858  20.6432832
  67.1971831  97.6419654  19.1500766  50.8723536 109.2515396  21.6219456
  50.7555920 110.1960829  21.5198147  50.0515982 108.9488958  22.0105255
  60.7600071 103.9765532  12.4676049  61.5945675 103.5446730  12.2853524
  60.5984414 103.8047546  13.3952943  60.4145963 100.4797645  13.8332388
  60.3594767 100.3141917  12.8920832  59.7892018 101.1873678  13.9894578
  45.2038478  95.7165710  27.6593810  45.8497341  95.2064664  28.1481036
  44.9955629  96.4534391  28.2337236  57.7291870 102.7846557  33.1585951
  58.5983030 102.9587209  32.7972586  57.2498621 103.6040974  33.0361680
  53.7242088  89.9805754  13.4117707  53.7120758  90.9247594  13.5685978
  54.6165510  89.7975900  13.1177168  51.8978050 109.9043658  24.8375385
  52.8005297 109.9367268  25.1541880  51.6715420 108.9744109  24.8521720
  53.6531652 108.6574645  21.4985463  52.7027283 108.6576506  21.3849836
  53.9564138 107.9107379  20.9821498  57.5394208  86.5748531  17.6663643
  56.7726604  86.0207018  17.8120326  57.9504913  86.6470400  18.5277795
  49.5435969  92.8633327  31.7568825  50.4067430  92.5070132  31.9672149
  48.9701379  92.5247222  32.4444229  69.3884346 114.4935183  22.5631226
  70.0262756 114.3741930  21.8594566  69.2705189 115.4416027  22.6219178
  66.1974052 114.4462611  22.4992750  65.8592564 114.3303676  21.6113285
  67.0663820 114.0453776  22.4793757  66.6793835 115.5997463  28.4578956
  66.6682476 115.2050261  27.5859460  66.8414474 114.8663536  29.0512727
  59.6025300 117.7949279  21.3273862  60.3946592 117.4540104  20.9120161
  59.8421950 117.9044254  22.2476015  63.4001096 118.3834575  27.4058140
  63.1090962 119.2880206  27.2904806  64.0358080 118.4251102  28.1202209
  64.3257303 115.7611423  23.9959500  64.9220875 115.5367446  23.2816463
  64.3832275 115.0196169  24.5984947  71.8659462 105.8683444  25.0012021
  71.5342786 106.7378855  24.7773236  71.2705075 105.5519728  25.6806051
  68.3590981 118.0695990  24.4007934  68.0591704 118.9721029  24.2923741
  68.0142041 117.8028173  25.2529086  61.8103463 114.5209787  20.4344638
  60.8853959 114.3886001  20.6422330  62.0587876 115.3004006  20.9314580
  71.7588125 110.5878530  22.0805371  70.8505002 110.5193939  21.7864132
  71.7075721 111.0650475  22.9087196  59.1712274 114.1643061  21.2688427
  59.3004655 114.4177540  22.1827839  58.4909725 114.7570769  20.9493082
  65.8328991 112.0068176  30.0240268  65.0562325 112.5662096  30.0143133
  66.4719554 112.4924959  30.5455138  73.6249771 108.7894969  23.8583245
  72.9824152 109.0827502  23.2123039  73.1204700 108.6747889  24.6636442
  64.0875363 114.8153629  29.5858235  64.8290047 115.3538673  29.3093059
  63.3812349 115.4419918  29.7429787  69.5630703 116.9582770  28.1830397
  69.9714059 116.5165180  27.4385029  68.8407964 116.3835397  28.4364590
  65.9161773 111.8955377  25.5563954  66.7622968 112.3194790  25.6998603
  65.8560410 111.2389001  26.2502517  69.0661218 109.5559745  27.2145127
  68.8222150 110.3101806  26.6779403  69.3421149 109.9345093  28.0492374
  71.0199681 116.0998357  25.8922393  71.2316576 116.7430117  25.2156774
  70.9729429 115.2660674  25.4244323  68.6225910 108.7116178  22.7958965
  67.7610389 109.0097432  23.0875703  68.6488344 108.9286577  21.8639998
  62.3311560 116.8029850  22.1412534  62.9012917 117.2317118  21.5030018
  62.9219672 116.5212435  22.8396720  62.8236727 111.9693278  30.3873545
  62.1935387 112.6509558  30.6208942  62.7172815 111.8576359  29.4426683
  58.1181699 111.6365074  21.3139469  57.3280753 111.8922602  20.8379580
  58.6092947 112.4513411  21.4191510  60.0696445 112.0009653  18.2722946
  59.2727608 112.1128347  18.7906442  59.8422037 112.3396305  17.4063837
  65.9002112 118.5254356  26.2205461  65.9646545 118.9874763  27.0563633
  65.1913036 117.8951721  26.3487771  56.4019402 111.8895564  23.7454460
  56.6527441 112.7742574  24.0112036  56.9378951 111.7100166  22.9729552
  62.1017470 106.2714043  32.7498796  61.7084415 105.7180242  33.4246440
  62.9183610 106.5824622  33.1405314  65.0185431 107.6871922  30.3419053
  65.7595144 108.2879076  30.2623515  65.2503353 106.9449560  29.7837095
  60.1626769 112.8728290  28.6197283  60.0480284 111.9713547  28.9204381
  59.3071286 113.1191987  28.2682099  67.2418606 120.8146030  30.2184783
  66.7982460 120.0282409  29.9005688  67.9035820 121.0025181  29.5528674
  62.0005727 122.3441832  24.7445462  62.5513153 122.2158895  23.9722456
  61.1617203 122.6436721  24.3940354  69.3399844 121.0948830  28.2466184
  69.3218320 121.9157711  27.7546454  70.2619764 120.9702905  28.4716326
  65.7972899 118.6092959  29.0889693  66.3301235 117.8481248  28.8589001
  65.2686980 118.3166611  29.8313847  68.9642593 103.7153025  24.6183334
  68.6206863 104.6054667  24.5422445  69.3321556 103.5254683  23.7552920
  66.5139987 108.5511337  18.1841008  65.6581584 108.1618188  18.0046647
  66.9266939 108.6303298  17.3240794  68.0439134 106.0857681  22.5832568
  67.5403929 106.0487816  21.7700373  68.3369741 106.9950423  22.6429224
  64.2882020 106.1696410  21.5898749  65.1535017 105.9739219  21.2304639
  64.3559529 105.9406762  22.5168106  61.8944339 108.3998618  18.9615116
  62.4688091 108.1773800  18.2288309  62.4815321 108.4687313  19.7143718
  64.1967007 105.2739867  17.6890186  63.5431419 104.9588884  17.0646800
  64.1547481 104.6515608  18.4150009  67.4304747 111.7621801  22.0137833
  66.5127308 111.9836748  21.8559521  67.8464891 111.8368111  21.1549541
  70.7630259 102.9746585  19.7201072  71.0689136 102.1143948  19.4326987
  71.4882864 103.5664205  19.5200066  57.0554615 113.3777271  18.1082670
  56.8579015 112.7846632  17.3833737  56.5001279 113.0729481  18.8258609
  65.0351339 113.2700378  20.2277263  65.0899949 112.3174214  20.1519740
  64.2242541 113.4259817  20.7118562  62.9743699 111.8877437  17.9867642
  62.1611564 112.1871608  18.3932834  63.4702693 111.4933126  18.7042124
  68.5717910 112.3519262  26.8182536  68.9267298 112.5790735  27.6777002
  69.2190042 112.6837639  26.1959791  62.4657774 109.4595793  23.6028877
  63.1057153 109.3184552  22.9051840  61.6335304 109.1730306  23.2267479
  59.4686390 109.4296118  18.3801864  59.7293207 110.3441451  18.2711024
  60.2903562 108.9620561  18.5298477  60.9411315 110.8433875  25.5500688
  61.6134369 110.6351237  24.9013337  60.1141102 110.6455961  25.1105921
  66.8436887 107.4695816  27.5666349  66.1964802 108.1685766  27.4730826
  67.6137903 107.9031960  27.9342597  70.2515685 117.7344668  30.6416903
  70.1001192 117.5055220  29.7246986  70.2420365 118.6915270  30.6548248
  67.0201022 115.3076581  25.6263169  67.9493082 115.4587741  25.4532136
  66.5992052 115.3960602  24.7711816  65.8189353 119.3327245  23.3961707
  65.6800439 118.9646030  24.2687645  65.0303950 119.8474885  23.2245664
  61.3438813 114.1176478  26.3103126  61.2058611 113.3856717  26.9114665
  62.2543736 114.0285378  26.0287313  63.9721113 113.8296437  25.7986805
  64.6820732 113.1889630  25.7573424  63.9290421 114.0809332  26.7212986
  71.9607892 120.7663791  28.7193384  71.9020438 120.0823011  28.0523967
  72.3627410 121.5082781  28.2674010  62.6850047 110.8161655  27.6182445
  62.1487404 110.3652394  28.2704041  62.0966756 110.9507564  26.8752909
  71.9625299 118.7303375  26.9507364  71.0752078 118.3929296  27.0733763
  72.5323850 117.9986406  27.1876129  53.6154446 115.0627466  20.2750415
  54.3025486 114.7489196  19.6871431  53.4602575 115.9668831  20.0017667
  58.4189168 109.9517663  24.7035439  58.3347357 109.3443333  23.9685849
  57.5971875 110.4426681  24.7044936  68.5912882 108.4371227  20.0705634
  69.0881582 107.6841189  19.7506704  67.8199864 108.4735543  19.5048844
  65.1747851 110.5788610  19.7977319  64.8045639 110.0259650  20.4858224
  65.6706944 109.9746743  19.2452319  63.0037050 121.0386105  26.8932337
  63.7046509 121.6722588  27.0461731  62.5332165 121.3800836  26.1327976
  71.0331877 105.4040820  22.2184993  70.1194957 105.6345047  22.3867200
  71.4624979 105.4879264  23.0699025  70.8038336 113.5930712  24.7184887
  70.1509786 113.8406619  24.0637340  71.1818716 112.7794850  24.3847364
  66.8525909 114.3350523  31.2050924  66.1766546 114.2344652  31.8753299
  67.6753543 114.1789737  31.6686921  58.6004768 120.5722460  23.8263439
  59.1858205 119.8266147  23.9591344  58.4029606 120.8826416  24.7100103
  53.1922422 113.1428060  22.5467883  53.2306522 112.6091650  23.3405001
  52.6862715 112.6163265  21.9278860  60.5713185 107.9892600  26.0430425
  60.6354511 108.8507431  25.6307823  60.5080305 107.3766602  25.3102783
  60.0465457 110.0615733  29.6903459  60.6737496 109.6792810  30.3040983
  59.1893376 109.8429935  30.0559152  70.4459566 120.4678708  31.2957195
  70.9899470 121.0808666  30.8012149  69.8646411 121.0258286  31.8124208
  56.8231000 111.8692162  15.6221814  57.1184441 110.9602840  15.5688868
  55.9219036 111.8479901  15.3002816  60.3525247 109.9448159  21.6049363
  59.6311833 110.5584126  21.4656836  61.1418503 110.4805923  21.5266009
  63.1551561 107.2802585  27.8790014  63.6785962 107.5264882  28.6416324
  62.9363894 108.1122620  27.4593152  58.5518842 109.5506260  15.7461139
  58.2231548 108.6703639  15.5636245  58.9058212 109.4953928  16.6337528
  64.3604106 108.2216280  25.5639685  64.0200926 107.4224093  25.9660365
  63.6543112 108.5217991  24.9916518  65.0120577 105.3065593  24.0167008
  65.8346647 104.8326071  23.8945898  65.2558641 106.0856076  24.5165694
  62.5359156 111.9984713  21.8258987  62.3903737 112.3125016  22.7183268
  62.0584360 112.6169614  21.2729885  64.3955539 108.9887261  21.8739876
  64.3817108 108.0928354  21.5372174  65.1127967 108.9957925  22.5078162
  66.2481670 109.4224601  23.9193004  65.9899448 110.3441672  23.9177334
  65.7166710 109.0255036  24.6093468  57.0104818 114.5390058  24.7646648
  56.4658286 115.3149866  24.8966922  57.8884168 114.8860862  24.6065769
  63.7992435 107.8701641  17.1427446  63.9208346 106.9418288  17.3418334
  63.5094477 107.8840327  16.2305762  66.6683625 105.5556552  20.2794166
  66.6905322 105.6195885  19.3246146  67.0851684 104.7161061  20.4734672
  57.7970840 113.6659954  27.6576805  57.0552576 113.8142589  28.2441435
  57.4763584 113.9268219  26.7943554  65.7414503 123.2075932  27.4557195
  66.0501629 122.9625079  28.3279894  66.5389985 123.4122571  26.9676065
  56.4436059 119.4711709  20.6476133  55.6067967 119.0433883  20.4660134
  56.4159704 119.6644152  21.5846924  63.2833515 109.3833639  31.3517379
  63.3321670 110.2595762  30.9695148  63.8256029 108.8411032  30.7789022
  73.7688360 119.9274762  30.6318516  72.9783904 119.9098901  30.0923015
  73.5321715 120.4663056  31.3867552  73.8886235 116.7767228  27.9451244
  73.9384240 116.6117236  28.8866767  73.7800159 115.9094487  27.5549125
  71.1789998 112.7598156  29.2610551  72.0799860 112.6204621  28.9694549
  71.2537972 112.9252611  30.2008729  65.5132803 110.1365011  28.1063737
  64.6436112 110.4298577  27.8346326  65.7492283 110.7205456  28.8271001
  75.3904432 119.1964170  28.1893266  75.0989240 119.5594151  29.0256727
  74.7776563 118.4831178  28.0106598  73.6391620 114.3196785  26.6573324
  74.1145742 114.5124431  25.8492175  72.7157186 114.3755970  26.4116708
  68.2171837 106.3544628  25.6229158  68.7353781 107.0905655  25.2975646
  67.8626970 106.6608621  26.4575917  68.4684431 102.7744911  21.1430054
  68.7486185 102.1068100  21.7690481  69.2535038 102.9674006  20.6304718
  72.3393289 111.1962545  24.8901630  73.2910712 111.2960642  24.9113854
  72.1696740 110.4040813  25.3999714  70.3607669 108.2818128  25.0761030
  69.7657601 108.5623141  24.3807519  70.0757365 108.7712029  25.8477772
  74.9675856 111.2079708  24.0502212  74.4514904 110.4238164  23.8632141
  75.8515804 110.8798424  24.2148732  72.6286583 104.9520723  20.0098025
  72.4311404 104.6435812  20.8941357  73.2386288 105.6782362  20.1395955
  66.5403390 117.3382463  31.5071790  67.4606400 117.5161062  31.7011837
  66.5052974 116.3938509  31.3551489  55.7585555 112.5321057  20.4325065
  55.4388340 111.6786365  20.1399439  55.2118984 112.7469635  21.1883032
  59.5365463 115.2483498  24.1494571  59.7551473 116.1800606  24.1682605
  59.9491237 114.8891473  24.9349375  66.4569681 105.7551583  16.1370260
  65.6470409 105.4098668  16.5125506  67.1454098 105.4459127  16.7257871
  68.3860229 104.8329630  17.7594556  68.9391268 105.2525084  18.4184580
  68.6230315 103.9065378  17.8017512  64.4093328 110.8216704  33.5397320
  64.3090055 111.7711061  33.4709411  64.1914870 110.4934943  32.6673390
  55.6273815 116.1523969  22.4018186  54.9337287 115.7377921  21.8888141
  56.3746806 116.1944505  21.8051605  70.2142603 106.3435213  19.4694541
  70.7142381 106.4551748  18.6608860  70.8578211 106.0396266  20.1095349
  64.2724598 114.2513843  32.3562382  63.7891680 115.0514203  32.5626271
  64.3585537 114.2621788  31.4029826  57.5410558 116.0842222  20.2784201
  57.5181246 116.1829910  19.3266084  57.8511195 116.9307373  20.6001367
  60.1997936 118.1418377  24.3930816  61.1541189 118.1102320  24.3260747
  60.0010459 117.6809001  25.2081042  60.7897318 116.7119493  26.9601613
  61.6090207 117.2063572  26.9836451  61.0634126 115.7951462  26.9319181
  56.0432232 111.0457627  27.6593810  56.6891096 110.5356581  28.1481036
  55.8349383 111.7826309  28.2337236  68.5685624 118.1138475  33.1585951
  69.4376784 118.2879127  32.7972586  68.0892376 118.9332892  33.0361680
  62.7371805 125.2335576  24.8375385  63.6399051 125.2659186  25.1541880
  62.5109175 124.3036027  24.8521720  68.3787962 101.9040449  17.6663643
  67.6120358 101.3498935  17.8120326  68.7898667 101.9762317  18.5277795
  60.3829723 108.1925244  31.7568825  61.2461185 107.8362049  31.9672149
  59.8095134 107.8539139  32.4444229  72.9411224 121.6005961  32.7498796
  72.5478170 121.0472160  33.4246440  73.7577364 121.9116540  33.1405314
  75.8579185 123.0163840  30.3419053  76.5988898 123.6170993  30.2623515
  76.0897108 122.2741478  29.7837095  70.8859212 125.3907651  29.6903459
  71.5131251 125.0084728  30.3040983  70.0287131 125.1721852  30.0559152
  74.1227269 124.7125557  31.3517379  74.1715424 125.5887679  30.9695148
  74.6649783 124.1702950  30.7789022  75.2487083 126.1508622  33.5397320
  75.1483810 127.1002979  33.4709411  75.0308625 125.8226860  32.6673390
  66.8825987 126.3749545  27.6593810  67.5284850 125.8648499  28.1481036
  66.6743138 127.1118227  28.2337236  71.2223478 123.5217162  31.7568825
  72.0854939 123.1653967  31.9672149  70.6488888 123.1831057  32.4444229
  28.6032875  36.4558243  15.4438691  28.5445421  35.7717463  14.7769274
  29.0052394  37.1977233  14.9919317  27.0884549  36.1573160  18.0202501
  27.6324453  36.7703118  17.5257456  26.5071394  36.7152738  18.5369514
  30.4113343  35.6169214  17.3563823  29.6208887  35.5993353  16.8168322
  30.1746698  36.1557508  18.1112859  32.0329415  34.8858622  14.9138573
  31.7414224  35.2488602  15.7502034  31.4201547  34.1725630  14.7351905
  25.2110608  33.8032927  19.8831258  26.0801767  33.9773579  19.5217893
  24.7317359  34.6227344  19.7606987  36.8703083  45.5121553   9.2876532
  37.5081493  45.3928300   8.5839872  36.7523926  46.4602397   9.3464485
  33.6792790  45.4648981   9.2238057  33.3411301  45.3490045   8.3358592
  34.5482558  45.0640146   9.2039063  34.1612573  46.6183832  15.1824263
  34.1501214  46.2236631  14.3104766  34.3233212  45.8849905  15.7758034
  27.0844037  48.8135649   8.0519168  27.8765329  48.4726473   7.6365468
  27.3240688  48.9230624   8.9721322  30.8819834  49.4020944  14.1303447
  30.5909700  50.3066575  14.0150113  31.5176818  49.4437472  14.8447516
  31.8076041  46.7797793  10.7204806  32.4039613  46.5553815  10.0061769
  31.8651012  46.0382538  11.3230254  41.8252779  43.1748240   7.2662719
  42.5577951  42.6047457   7.5000548  41.0692135  42.7869840   7.7069224
  39.3478199  36.8869814  11.7257328  39.0161524  37.7565225  11.5018542
  38.7523813  36.5706098  12.4051358  35.8409719  49.0882360  11.1253240
  35.5410442  49.9907399  11.0169047  35.4960779  48.8214543  11.9774393
  39.2406863  41.6064900   8.8050678  38.3323740  41.5380308   8.5109439
  39.1894459  42.0836845   9.6332503  30.8230499  55.8526680   4.0924208
  30.7454528  56.8034505   4.1712689  30.2192142  55.5072553   4.7499134
  33.3147729  43.0254546  16.7485575  32.5381063  43.5848466  16.7388439
  33.9538292  43.5111329  17.2700445  41.1068509  39.8081338  10.5828551
  40.4642889  40.1013872   9.9368346  40.6023438  39.6934259  11.3881748
  31.5694101  45.8339999  16.3103542  32.3108785  46.3725043  16.0338365
  30.8631086  46.4606288  16.4675094  37.0449441  47.9769139  14.9075703
  37.4532797  47.5351550  14.1630336  36.3226702  47.4021767  15.1609896
  33.3980511  42.9141746  12.2809260  34.2441706  43.3381160  12.4243909
  33.3379148  42.2575371  12.9747823  37.3678255  48.5370330   8.6627992
  36.7387118  48.7016044   7.9604060  36.9803917  48.9511940   9.4338956
  41.2467487  49.4724768   6.0172356  40.5618525  49.8523669   5.4669389
  41.3311336  50.0820095   6.7504304  36.5479956  40.5746115  13.9390434
  36.3040888  41.3288175  13.4024710  36.8239886  40.9531462  14.7737681
  38.5018419  47.1184727  12.6167699  38.7135314  47.7616487  11.9402081
  38.4548167  46.2847043  12.1489630  29.8130298  47.8216220   8.8657841
  30.3831655  48.2503488   8.2275325  30.4038410  47.5398804   9.5642026
  30.3055465  42.9879647  17.1118852  29.6754125  43.6695928  17.3454249
  30.1991553  42.8762729  16.1671990  39.6164247  49.9956682  10.7890057
  40.4381690  49.5936870  10.5072738  39.6126649  49.8924917  11.7406173
  33.3820850  49.5440726  12.9450767  33.4465283  50.0061133  13.7808939
  32.6731774  48.9138091  13.0733077  47.7070240  46.3395431   7.1375028
  46.9533948  45.7702829   6.9819033  47.8417781  46.3058095   8.0845663
  29.5836207  37.2900413  19.4744103  29.1903153  36.7366612  20.1491747
  30.4002348  37.6010991  19.8650620  28.3593150  51.8450027   5.4680426
  28.5359778  52.7667992   5.2801410  29.1549983  51.5308447   5.8974806
  32.5004168  38.7058292  17.0664359  33.2413882  39.3065445  16.9868822
  32.7322091  37.9635930  16.5082402  27.6445506  43.8914659  15.3442589
  27.5299021  42.9899917  15.6449688  26.7890024  44.1378356  14.9927406
  34.7237344  51.8332400  16.9430090  34.2801198  51.0468778  16.6250994
  35.3854558  52.0211550  16.2773981  29.4824465  53.3628201  11.4690768
  30.0331890  53.2345265  10.6967762  28.6435941  53.6623090  11.1185661
  36.8218582  52.1135200  14.9711491  36.8037058  52.9344081  14.4791760
  37.7438502  51.9889275  15.1961632  33.2791636  49.6279329  15.8134999
  33.8119973  48.8667617  15.5834307  32.7505717  49.3352981  16.5559154
  39.6237195  46.9514342   8.4420858  38.9660869  47.6413603   8.5300986
  40.4277594  47.3410774   8.7854844  38.4342654  45.3058715   6.4924799
  38.9474536  45.9388707   6.9946509  39.0843878  44.7059910   6.1268159
  34.9123485  42.7808170   8.7383140  33.9946046  43.0023117   8.5804828
  35.3283628  42.8554481   7.8794847  39.2004450  50.2864716   4.6203942
  38.7466777  49.4455626   4.6769133  38.5698417  50.9226115   4.9578722
  37.6437389  52.1241213   5.5553760  37.9360364  52.6846270   4.8366126
  38.1536010  52.4169774   6.3106919  32.6071014  52.9021564   6.6447213
  32.5647193  53.1282410   5.7155745  33.5233713  52.6684939   6.7933015
  36.0536648  43.3705631  13.5427843  36.4086036  43.5977105  14.4022308
  36.7008780  43.7024008  12.9205098  41.7834385  46.4924067   4.2477172
  41.6452284  46.6825663   3.3198361  41.4270604  47.2543450   4.7045223
  41.8103765  48.5600594   9.2588443  42.2440271  48.4675883  10.1071497
  42.5235346  48.5358095   8.6208459  35.5431660  52.1602688  10.7921544
  35.5968682  52.7293625  11.5599260  34.6746441  52.3304574  10.4275581
  28.4230053  41.8620245  12.2745995  29.0953107  41.6537607  11.6258644
  27.5959840  41.6642331  11.8351227  42.6719314  48.6024295  11.7921329
  42.8655204  49.5070106  12.0380604  42.5719933  48.1431714  12.6259914
  34.3255625  38.4882186  14.2911656  33.6783540  39.1872135  14.1976132
  35.0956641  38.9218330  14.6587904  37.7334423  48.7531038  17.3662209
  37.5819929  48.5241589  16.4492293  37.7239103  49.7101639  17.3793554
  34.5019759  46.3262951  12.3508476  35.4311819  46.4774110  12.1777443
  34.0810789  46.4146971  11.4957122  33.3008091  50.3513615  10.1207013
  33.1619177  49.9832399  10.9932951  32.5122687  50.8661254   9.9490971
  33.8956243  55.4522711   1.4632550  34.0707999  54.9810755   2.2778172
  33.2089031  56.0788478   1.6913811  34.8513306  49.7295218   7.5095851
  34.5163139  49.6895988   8.4053501  34.3517252  49.0639934   7.0366261
  28.8257550  45.1362848  13.0348432  28.6877348  44.4043086  13.6359971
  29.7362474  45.0471748  12.7532620  31.4539851  44.8482807  12.5232112
  32.1639470  44.2075999  12.4818730  31.4109159  45.0995702  13.4458293
  39.4426630  51.7850160  15.4438691  39.3839176  51.1009380  14.7769274
  39.8446148  52.5269150  14.9919317  30.1668785  41.8348025  14.3427751
  29.6306142  41.3838763  14.9949348  29.5785493  41.9693934  13.5998216
  28.4617329  58.6012074   8.2372410  28.7013927  59.2330598   8.9151429
  27.6186525  58.2500114   8.5237769  39.4444037  49.7489744  13.6752671
  38.5570816  49.4115666  13.7979070  40.0142588  49.0172775  13.9121436
  32.9745190  54.4091197  10.6413914  32.9015362  55.2146168  11.1533218
  32.5322583  54.6083162   9.8161935  32.7634970  53.6462967   4.1516735
  31.9802492  54.1884647   4.2454960  33.4627715  54.1636946   4.5510977
  43.9261378  45.1597962   8.4369232  43.9151254  46.0422677   8.0663165
  43.0578757  44.8069512   8.2423769  35.4343874  54.3078031  12.7972073
  36.1471846  54.9425495  12.7247974  34.9433903  54.4041897  11.9812074
  30.4855787  52.0572474  13.6177643  31.1865247  52.6908957  13.7707038
  30.0150902  52.3987206  12.8573283  38.2857073  44.6117082  11.4430194
  37.6328524  44.8592989  10.7882647  38.6637453  43.7981220  11.1092671
  35.2464247  54.6476775   5.5458364  35.4286642  53.8298431   6.0086116
  36.0697233  54.8644467   5.1083254  35.5806413  53.5744960   2.8073413
  36.1094179  53.0637414   2.1943575  35.8434632  53.2587490   3.6718946
  34.3344646  45.3536893  17.9296231  33.6585283  45.2531022  18.5998606
  35.1572280  45.1976106  18.3932228  26.0823505  51.5908829  10.5508746
  26.6676942  50.8452517  10.6836650  25.8848344  51.9012786  11.4345410
  28.9362161  54.6260077   5.5671188  28.2672536  55.1106204   5.0835229
  28.7975030  54.8729297   6.4814567  33.0767429  56.6603820  12.1653847
  33.6285737  56.8235442  12.9302932  33.4173623  57.2508258  11.4933872
  27.5284195  41.0802102  16.4148766  28.1556234  40.6979180  17.0286290
  26.6712114  40.8616304  16.7804458  37.9278304  51.4865078  18.0202501
  38.4718208  52.0995036  17.5257456  37.3465148  52.0444656  18.5369514
  36.2135817  54.6085796   9.1517529  36.0886956  53.8075535   8.6428474
  36.8714908  55.1031989   8.6631499  38.2770725  52.4094816  10.7797079
  37.3301060  52.2900167  10.7075406  38.6253498  51.5217314  10.8623341
  30.6370298  38.2988955  14.6035321  31.1604700  38.5451251  15.3661630
  30.4182632  39.1308989  14.1838458  35.2817158  52.2047532   6.9801431
  35.1342121  51.2764239   7.1609001  36.1070652  52.2267623   6.4958507
  38.8851280  53.0276091   8.0666304  39.8097828  52.8218952   7.9290755
  38.7166583  52.7792492   8.9755646  31.8422843  39.2402650  12.2884992
  31.5019664  38.4410463  12.6905671  31.1361850  39.5404361  11.7161825
  33.7300408  40.4410971  10.6438310  33.4718185  41.3628042  10.6422641
  33.1985448  40.0441405  11.3338774  38.6746596  53.5461758   3.4228396
  38.8483474  52.9808181   2.6702248  39.1675488  54.3462653   3.2407885
  24.4923556  45.5576427  11.4891954  23.9477024  46.3336235  11.6212229
  25.3702906  45.9047232  11.3311076  44.5285987  46.3098181   5.0418695
  44.9717134  45.5605506   4.6437819  43.6512498  46.3008317   4.6592427
  39.6621769  52.8628522   0.5225294  40.3572673  53.4835215   0.7412608
  40.0044919  52.0123874   0.7977672  25.2789578  44.6846323  14.3822111
  24.5371314  44.8328959  14.9686742  24.9582322  44.9454589  13.5188861
  41.5613192  50.3128228   2.0512625  42.0864516  50.6515501   1.3261945
  41.4735544  49.3775243   1.8675759  33.2233241  54.2262302  14.1802501
  33.5320367  53.9811448  15.0525201  34.0208723  54.4308940  13.6921371
  33.2453853  56.3800211   6.4107878  32.8058843  55.8876590   7.1040734
  33.9961970  55.8373179   6.1699953  25.7246192  52.5711752   6.4132506
  26.5504212  52.2715524   6.0331149  25.3740244  51.8019375   6.8622294
  30.6927725  51.9238220   8.4830179  30.0707734  51.2608925   8.1832407
  31.3632592  51.9499352   7.8003827  30.7652252  40.4020008  18.0762685
  30.8140408  41.2782131  17.6940455  31.3074767  39.8597401  17.5034329
  41.2507098  50.9461132  17.3563823  40.4602642  50.9285270  16.8168322
  41.0140453  51.4849425  18.1112859  41.3704973  47.7953598  14.6696551
  41.4202978  47.6303605  15.6112074  41.2618896  46.9280857  14.2794432
  38.6608735  43.7784526  15.9855858  39.5618598  43.6390991  15.6939856
  38.7356710  43.9438981  16.9254035  32.9951541  41.1551381  14.8309044
  32.1254850  41.4484947  14.5591633  33.2311021  41.7391826  15.5516308
  42.8723170  50.2150540  14.9138573  42.5807978  50.5780520  15.7502034
  42.2595301  49.5017548  14.7351905  44.0718852  47.7803419   7.4341143
  44.9065744  48.2193223   7.5978703  44.2077981  47.3042073   6.6149389
  41.1210358  45.3383154  13.3818631  41.5964480  45.5310800  12.5737482
  40.1975923  45.3942340  13.1362014  35.6990575  37.3730998  12.3474465
  36.2172518  38.1092025  12.0220953  35.3445707  37.6794991  13.1821224
  39.8212027  42.2148914  11.6146936  40.7729450  42.3147012  11.6359160
  39.6515478  41.4227183  12.1245021  37.8426407  39.3004497  11.8006337
  37.2476339  39.5809510  11.1052826  37.5576103  39.7898398  12.5723078
  42.3000105  45.4355034  10.7289236  42.2676425  44.4971035  10.9148920
  42.9100729  45.5139071   9.9955061  42.4494593  42.2266077  10.7747519
  41.9333642  41.4424534  10.5877448  43.3334542  41.8984794  10.9394039
  48.1176655  46.4971041   9.8695273  48.8480043  46.2356329  10.4302976
  47.5083600  45.7599763   9.9097341  46.1991952  44.6378903  10.4669724
  45.4725115  44.5034868   9.8586215  45.7839239  44.9455732  11.2726442
  34.0222128  48.3568833  18.2317097  34.9425138  48.5347432  18.4257143
  33.9871711  47.4124878  18.0796796  27.0184201  46.2669868  10.8739878
  27.2370211  47.1986976  10.8927912  27.4309975  45.9077842  11.6594682
  31.8912066  41.8403073  20.2642627  31.7908793  42.7897430  20.1954718
  31.6733608  41.5121312  19.3918697  31.7543336  45.2700212  19.0807689
  31.2710418  46.0700572  19.2871578  31.8404275  45.2808157  18.1275133
  27.6816674  49.1604747  11.1176122  28.6359927  49.1288689  11.0506054
  27.4829197  48.6995371  11.9326348  28.2716056  47.7305863  13.6846920
  29.0908945  48.2249942  13.7081757  28.5452864  46.8137831  13.6564488
  43.8169747  40.8590756   7.8203155  44.4114238  40.6186492   7.1096464
  43.8896330  40.1397886   8.4476692  26.0366902  54.7024367   8.1346320
  25.9021370  53.9424767   7.5684318  25.6198965  55.4265266   7.6675109
  46.1240820  44.1656956   6.5946577  45.5640378  44.2350146   7.3678139
  45.5184323  43.9897941   5.8746073  29.1936028  55.5993684   8.3464763
  29.0768413  56.5439116   8.2443453  28.3728475  55.2967245   8.7350562
  23.5250970  42.0643997  14.3839117  24.1709834  41.5542951  14.8726342
  23.3168121  42.8012679  14.9582542  36.0504362  49.1324844  19.8831258
  36.9195522  49.3065497  19.5217893  35.5711114  49.9519261  19.7606987
  30.2190542  56.2521945  11.5620691  31.1217789  56.2845556  11.8787186
  29.9927913  55.3222396  11.5767027  31.9744144  55.0052932   8.2230770
  31.0239776  55.0054794   8.1095142  32.2776631  54.2585667   7.7066805
  27.8648461  39.2111614  18.4814131  28.7279923  38.8548419  18.6917456
  27.2913872  38.8725509  19.1689536  47.7096838  60.8413470   9.2876532
  48.3475248  60.7220218   8.5839872  47.5917681  61.7894314   9.3464485
  44.5186544  60.7940898   9.2238057  44.1805056  60.6781963   8.3358592
  45.3876312  60.3932064   9.2039063  40.3773360  62.6476375   5.2134948
  39.8138225  62.5566312   4.4451236  40.2625755  61.8276279   5.6937441
  45.0006327  61.9475750  15.1824263  44.9894968  61.5528548  14.3104766
  45.1626967  61.2141823  15.7758034  37.9237792  64.1427566   8.0519168
  38.7159084  63.8018391   7.6365468  38.1634442  64.2522542   8.9721322
  45.9572919  66.3147343   0.5249413  45.3060898  66.9001423   0.1383427
  46.7517281  66.8453537   0.5844450  39.8828546  63.4036480   0.9236547
  40.6559422  62.8565467   0.7849423  40.2353945  64.2680729   1.1351009
  41.7213588  64.7312862  14.1303447  41.4303454  65.6358493  14.0150113
  42.3570573  64.7729390  14.8447516  42.6469795  62.1089711  10.7204806
  43.2433367  61.8845733  10.0061769  42.7044767  61.3674456  11.3230254
  42.2194824  59.5629146  -1.4445003  42.4720344  59.0410667  -2.2061540
  41.2819383  59.3995291  -1.3418319  47.2638106  58.5664924   6.3629740
  48.0501196  58.1484347   6.0120157  47.5276811  59.4711016   6.5311389
  47.4348184  64.0037775   1.0618397  46.7994017  64.0772401   1.7739302
  47.1045590  64.5931373   0.3837476  52.6646534  58.5040157   7.2662719
  53.3971706  57.9339374   7.5000548  51.9085889  58.1161758   7.7069224
  41.9391112  61.4657252   0.7579372  41.8227370  60.7902155   1.4260456
  42.0493372  60.9789626  -0.0588475  44.2822653  60.9267399   4.4626061
  43.9180861  60.3998020   5.1738983  45.1389769  60.5365868   4.2892547
  50.1871954  52.2161732  11.7257328  49.8555279  53.0857142  11.5018542
  49.5917567  51.8998016  12.4051358  43.9228140  55.9557299  -0.5412590
  44.0902543  56.8237535  -0.1742119  43.7325309  56.1184580  -1.4651301
  46.6803473  64.4174277  11.1253240  46.3804197  65.3199316  11.0169047
  46.3354533  64.1506461  11.9774393  40.1315955  60.8688074   7.1589945
  39.2066451  60.7364288   7.3667636  40.3800368  61.6482294   7.6559887
  50.0800617  56.9356818   8.8050678  49.1717495  56.8672226   8.5109439
  50.0288213  57.4128763   9.6332503  43.9017361  58.4114956   0.4434077
  43.7816986  58.8572007   1.2819557  43.2069950  58.7600274  -0.1152385
  37.4924766  60.5121348   7.9933734  37.6217147  60.7655827   8.9073145
  36.8122217  61.1049056   7.6738389  41.6624253  71.1818598   4.0924208
  41.5848283  72.1326423   4.1712689  41.0585897  70.8364470   4.7499134
  44.1541483  58.3546463  16.7485575  43.3774817  58.9140383  16.7388439
  44.7932046  58.8403246  17.2700445  51.9462264  55.1373256  10.5828551
  51.3036644  55.4305789   9.9368346  51.4417192  55.0226176  11.3881748
  49.6002427  58.8836429   1.2714411  50.5120283  59.1163816   1.0962108
  49.0912074  59.4673473   0.7089489  42.4087855  61.1631917  16.3103542
  43.1502540  61.7016961  16.0338365  41.7024841  61.7898205  16.4675094
  47.8843195  63.3061057  14.9075703  48.2926551  62.8643468  14.1630336
  47.1620457  62.7313685  15.1609896  44.2374265  58.2433664  12.2809260
  45.0835460  58.6673077  12.4243909  44.1772903  57.5867288  12.9747823
  48.2072010  63.8662248   8.6627992  47.5780872  64.0307962   7.9604060
  47.8197672  64.2803857   9.4338956  52.0861242  64.8016686   6.0172356
  51.4012280  65.1815587   5.4669389  52.1705091  65.4112012   6.7504304
  47.3873710  55.9038032  13.9390434  47.1434642  56.6580093  13.4024710
  47.6633641  56.2823380  14.7737681  49.3412173  62.4476645  12.6167699
  49.5529068  63.0908404  11.9402081  49.2941921  61.6138961  12.1489630
  46.9438402  55.0594465   9.5204272  46.0822881  55.3575719   9.8121009
  46.9700837  55.2764864   8.5885304  43.7599972  63.6036656   5.9278077
  44.2238317  63.8824359   5.1382700  43.4956770  62.7020100   5.7451168
  40.6524053  63.1508137   8.8657841  41.2225410  63.5795406   8.2275325
  41.2432164  62.8690722   9.5642026  42.6968858  59.7259808   2.7367642
  43.3992901  60.1780852   3.2041569  42.3649486  59.0843627   3.3647536
  41.1449219  58.3171565  17.1118852  40.5147880  58.9987846  17.3454249
  41.0385307  58.2054646  16.1671990  36.4394192  57.9843361   8.0384776
  35.6493246  58.2400889   7.5624887  36.9305439  58.7991699   8.1436817
  50.4558001  65.3248600  10.7890057  51.2775445  64.9228787  10.5072738
  50.4520404  65.2216834  11.7406173  38.3908937  58.3487940   4.9968253
  37.5940100  58.4606634   5.5151748  38.1634529  58.6874592   4.1309143
  44.2214605  64.8732643  12.9450767  44.2859037  65.3353051  13.7808939
  43.5125528  64.2430008  13.0733077  34.7231895  58.2373851  10.4699767
  34.9739933  59.1220861  10.7357343  35.2591443  58.0578453   9.6974859
  58.5463994  61.6687348   7.1375028  57.7927703  61.0994747   6.9819033
  58.6811535  61.6350013   8.0845663  43.9362622  66.5400751   2.8129748
  43.8008297  67.3852287   3.2414595  44.4772435  66.7420028   2.0495681
  40.4229962  52.6192331  19.4744103  40.0296907  52.0658529  20.1491747
  41.2396102  52.9302909  19.8650620  37.3892020  64.0576189   3.3857673
  37.9016540  64.8519439   3.5363237  38.0414732  63.3602479   3.3191274
  39.1986904  67.1741945   5.4680426  39.3753533  68.0959910   5.2801410
  39.9943738  66.8600364   5.8974806  43.3397923  54.0350210  17.0664359
  44.0807636  54.6357363  16.9868822  43.5715846  53.2927848  16.5082402
  38.4839261  59.2206577  15.3442589  38.3692776  58.3191834  15.6449688
  37.6283779  59.4670274  14.9927406  45.5631099  67.1624317  16.9430090
  45.1194953  66.3760696  16.6250994  46.2248312  67.3503468  16.2773981
  40.3218220  68.6920119  11.4690768  40.8725645  68.5637182  10.6967762
  39.4829696  68.9915008  11.1185661  47.6612337  67.4427117  14.9711491
  47.6430812  68.2635998  14.4791760  48.5832257  67.3181192  15.1961632
  44.1185391  64.9571247  15.8134999  44.6513728  64.1959535  15.5834307
  43.5899472  64.6644899  16.5559154  47.2855086  50.0631313  11.3428641
  46.9419355  50.9532954  11.2667752  47.6534048  49.8732970  10.4798226
  35.3540936  62.3864843   4.1617243  36.1916158  62.7961852   3.9450951
  35.5319204  61.4464285   4.1317437  47.2505368  60.0539924  -0.1498924
  46.7351992  60.8244528   0.0889464  46.9782677  59.3805060   0.4734138
  44.8352480  54.8989625   4.9086315  43.9794076  54.5096475   4.7291953
  45.2479431  54.9781585   4.0486100  46.3651626  52.4335968   9.3077874
  45.8616422  52.3966103   8.4945680  46.6582233  53.3428711   9.3674531
  42.6094512  52.5174698   8.3144056  43.4747509  52.3217506   7.9549946
  42.6772021  52.2885049   9.2413413  52.2239643  62.8072278   1.7854250
  51.4469085  62.4683438   1.3409412  52.9031124  62.8124902   1.1109215
  47.0391672  57.9267016   1.6760857  46.7341807  58.2413165   2.5271001
  47.9922114  58.0048436   1.7188190  45.4838104  64.0857239   3.3253811
  44.9559465  63.3509999   3.0127049  44.9825606  64.8631916   3.0793780
  50.4630950  62.2806260   8.4420858  49.8054624  62.9705521   8.5300986
  51.2671349  62.6702692   8.7854844  40.2156831  54.7476905   5.6860423
  40.7900583  54.5252087   4.9533616  40.8027814  54.8165600   6.4389024
  49.2736408  60.6350632   6.4924799  49.7868290  61.2680624   6.9946509
  49.9237632  60.0351828   6.1268159  40.5426418  56.7781367  -0.2943692
  39.7063730  57.1156053   0.0265583  40.4031188  56.6430346  -1.2316555
  42.5179499  51.6218154   4.4135492  41.8643911  51.3067172   3.7892107
  42.4759973  50.9993895   5.1395315  43.6290704  61.9037449  -3.6711216
  42.7217765  61.6726703  -3.4720067  44.1261736  61.1075069  -3.4837234
  46.5358783  70.6134957  -0.7514529  45.8620481  70.9166653  -0.1429572
  46.9224605  71.4164037  -1.1009072  45.7517239  58.1100088   8.7383140
  44.8339801  58.3315035   8.5804828  46.1677383  58.1846398   7.8794847
  46.5352287  59.5091504   3.8685820  47.2824106  60.0212901   3.5592942
  46.8043876  59.1875556   4.7290214  44.8078937  62.0050044   0.8512775
  43.8990156  61.7209077   0.9485244  44.8374021  62.4249123  -0.0083919
  50.0398205  65.6156634   4.6203942  49.5860532  64.7747544   4.6769133
  49.4092171  66.2518032   4.9578722  48.9831124  56.5448620   5.8504610
  48.2453881  56.0326006   6.1814852  49.2357898  56.1049001   5.0387886
  48.4831144  67.4533131   5.5553760  48.7754118  68.0138188   4.8366126
  48.9929764  67.7461692   6.3106919  49.0842751  49.3224872   6.4446379
  49.3901628  48.4622235   6.1572294  49.8095356  49.9142492   6.2445373
  35.3767108  59.7255558   4.8327977  35.1791507  59.1324919   4.1079043
  34.8213771  59.4207769   5.5503916  43.3563831  59.6178665   6.9522570
  43.4112441  58.6652501   6.8765046  42.5455033  59.7738104   7.4363868
  44.5055025  63.5458788  -1.8099147  44.0674455  62.8294647  -2.2693510
  45.2465466  63.7734903  -2.3714056  41.2956191  58.2355725   4.7112949
  40.4824057  58.5349895   5.1178141  41.7915185  57.8411413   5.4287431
  43.4464769  68.2313482   6.6447213  43.4040948  68.4574328   5.7155745
  44.3627468  67.9976856   6.7933015  46.8930403  58.6997549  13.5427843
  47.2479790  58.9269022  14.4022308  47.5402534  59.0315926  12.9205098
  52.6228140  61.8215985   4.2477172  52.4846038  62.0117581   3.3198361
  52.2664359  62.5835368   4.7045223  40.7870266  55.8074080  10.3274184
  41.4269645  55.6662839   9.6297147  39.9547796  55.5208594   9.9512786
  52.6497519  63.8892512   9.2588443  53.0834026  63.7967801  10.1071497
  53.3629100  63.8650013   8.6208459  41.5630570  65.1076511   6.4409176
  42.3571168  64.6126831   6.2391751  40.8522262  64.5794374   6.0776882
  46.3825414  67.4894606  10.7921544  46.4362436  68.0585542  11.5599260
  45.5140196  67.6596491  10.4275581  37.8713333  59.2519592   2.5168929
  36.9410921  59.1904048   2.7338891  37.9670805  58.7295545   1.7205570
  37.7898882  55.7774405   5.1047171  38.0505700  56.6919738   4.9956331
  38.6116055  55.3098848   5.2543783  39.2623808  57.1912162  12.2745995
  39.9346861  56.9829524  11.6258644  38.4353594  56.9934248  11.8351227
  53.5113069  63.9316213  11.7921329  53.7048959  64.8362023  12.0380604
  53.4113687  63.4723632  12.6259914  45.1649380  53.8174103  14.2911656
  44.5177295  54.5164053  14.1976132  45.9350395  54.2510247  14.6587904
  48.5728178  64.0822955  17.3662209  48.4213684  63.8533507  16.4492293
  48.5632857  65.0393557  17.3793554  45.3413514  61.6554868  12.3508476
  46.2705574  61.8066028  12.1777443  44.9204544  61.7438889  11.4957122
  44.1401846  65.6805533  10.1207013  44.0012931  65.3124317  10.9932951
  43.3516442  66.1953172   9.9490971  44.7349998  70.7814629   1.4632550
  44.9101753  70.3102672   2.2778172  44.0482786  71.4080395   1.6913811
  45.6907061  65.0587135   7.5095851  45.3556893  65.0187905   8.4053501
  45.1911007  64.3931851   7.0366261  39.6651305  60.4654765  13.0348432
  39.5271103  59.7335004  13.6359971  40.5756228  60.3763665  12.7532620
  48.6266253  62.4043170  -2.2167089  48.0095423  61.6789998  -2.3134037
  48.1582741  63.1652530  -2.5600015  42.2933606  60.1774725  12.5232112
  43.0033224  59.5367917  12.4818730  42.2502914  60.4287620  13.4458293
  50.2820384  67.1142078  15.4438691  50.2232930  66.4301298  14.7769274
  50.6839903  67.8561068  14.9919317  41.0062539  57.1639943  14.3427751
  40.4699897  56.7130681  14.9949348  40.4179248  57.2985851  13.5998216
  39.3011083  73.9303992   8.2372410  39.5407681  74.5622516   8.9151429
  38.4580279  73.5792032   8.5237769  50.2837791  65.0781662  13.6752671
  49.3964570  64.7407584  13.7979070  50.8536343  64.3464693  13.9121436
  31.9366939  61.4105754   6.9995722  32.6237978  61.0967484   6.4116737
  31.7815067  62.3147118   6.7262974  36.7401661  56.2995950  11.4280746
  36.6559849  55.6921620  10.6931156  35.9184367  56.7904969  11.4290242
  43.8138945  69.7383114  10.6413914  43.7409116  70.5438086  11.1533218
  43.3716338  69.9375080   9.8161935  43.6028724  68.9754884   4.1516735
  42.8196246  69.5176564   4.2454960  44.3021470  69.4928864   4.5510977
  46.9125375  54.7849514   6.7950941  47.4094074  54.0319476   6.4752011
  46.1412356  54.8213830   6.2294150  54.7655132  60.4889879   8.4369232
  54.7545008  61.3714595   8.0663165  53.8972511  60.1361430   8.2423769
  46.2737628  69.6369948  12.7972073  46.9865601  70.2717413  12.7247974
  45.7827657  69.7333814  11.9812074  47.9955155  63.5421201   4.3689364
  47.0611434  63.6622663   4.1994069  48.1731824  62.6393668   4.1049374
  43.4960343  56.9266897   6.5222625  43.1258131  56.3737937   7.2103531
  43.9919436  56.3225030   5.9697625  51.3827707  59.3838520   4.9039398
  51.8488159  60.2166512   4.8299701  51.8335207  58.9183502   5.6084657
  41.3249542  67.3864392  13.6177643  42.0259001  68.0200875  13.7707038
  40.8544657  67.7279123  12.8573283  49.4503938  65.7282342   1.9025550
  49.7263782  65.6138936   2.8119425  48.5808436  65.3299826   1.8637724
  49.3544369  51.7519107   8.9430300  48.4407449  51.9823334   9.1112507
  49.7837471  51.8357551   9.7944332  49.1250828  59.9408999  11.4430194
  48.4722278  60.1884907  10.7882647  49.5031208  59.1273137  11.1092671
  46.0858002  69.9768692   5.5458364  46.2680396  69.1590348   6.0086116
  46.9090988  70.1936385   5.1083254  46.4200167  68.9036878   2.8073413
  46.9487934  68.3929332   2.1943575  46.6828387  68.5879408   3.6718946
  45.1738401  60.6828810  17.9296231  44.4979038  60.5822940  18.5998606
  45.9966035  60.5268024  18.3932228  36.9217260  66.9200747  10.5508746
  37.5070697  66.1744435  10.6836650  36.7242098  67.2304704  11.4345410
  39.7755915  69.9551994   5.5671188  39.1066290  70.4398122   5.0835229
  39.6368785  70.2021215   6.4814567  31.5134915  59.4906347   9.2713189
  31.5519014  58.9569938  10.0650307  31.0075208  58.9641553   8.6524166
  43.9161184  71.9895738  12.1653847  44.4679492  72.1527359  12.9302932
  44.2567377  72.5800176  11.4933872  38.8925677  54.3370888  12.7675732
  38.9567003  55.1985718  12.3553129  38.8292797  53.7244889  12.0348090
  38.3677950  56.4094020  16.4148766  38.9949988  56.0271097  17.0286290
  37.5105868  56.1908222  16.7804458  48.7672058  66.8156995  18.0202501
  49.3111962  67.4286954  17.5257456  48.1858903  67.3736574  18.5369514
  35.1443492  58.2170449   2.3467121  35.4396933  57.3081128   2.2934174
  34.2431528  58.1958189   2.0248123  47.0529571  69.9377713   9.1517529
  46.9280711  69.1367453   8.6428474  47.7108662  70.4323907   8.6631499
  38.6737739  56.2926446   8.3294669  37.9524325  56.9062413   8.1902143
  39.4630995  56.8284211   8.2511315  49.1164479  67.7386733  10.7797079
  48.1694815  67.6192085  10.7075406  49.4647253  66.8509231  10.8623341
  41.4764053  53.6280872  14.6035321  41.9998455  53.8743169  15.3661630
  41.2576386  54.4600907  14.1838458  36.8731334  55.8984547   2.4706446
  36.5444040  55.0181926   2.2881552  37.2270705  55.8432216   3.3582835
  46.1210913  67.5339450   6.9801431  45.9735875  66.6056157   7.1609001
  46.9464406  67.5559540   6.4958507  39.9873157  56.1857517   2.8381923
  40.3269230  56.7143438   2.1160532  40.4345278  56.5237923   3.6140490
  49.7245035  68.3568008   8.0666304  50.6491582  68.1510870   7.9290755
  49.5560338  68.1084409   8.9755646  42.6816598  54.5694567  12.2884992
  42.3413418  53.7702380  12.6905671  41.9755604  54.8696278  11.7161825
  43.3333070  51.6543880  10.7412315  44.1559139  51.1804358  10.6191205
  43.5771133  52.4334364  11.2411001  41.9741304  54.6832138   1.0375216
  42.6949667  55.0613391   0.5338933  41.3506608  55.4021015   1.1410194
  46.1172427  55.3877287   1.9733549  46.3336041  56.2701925   1.6722377
  45.6366494  54.9963501   1.2439191  40.8571648  58.3463000   8.5504293
  40.7116229  58.6603304   9.4428575  40.3796852  58.9647901   7.9975192
  42.7168031  55.3365548   8.5985183  42.7029600  54.4406642   8.2617481
  43.4340459  55.3436212   9.2323469  44.5694162  55.7702889  10.6438310
  44.3111940  56.6919959  10.6422641  44.0379202  55.3733323  11.3338774
  49.5140351  68.8753676   3.4228396  49.6877228  68.3100098   2.6702248
  50.0069242  69.6754571   3.2407885  35.3317311  60.8868345  11.4891954
  34.7870779  61.6628153  11.6212229  36.2096660  61.2339149  11.3311076
  42.1204927  54.2179929   3.8672753  42.2420838  53.2896575   4.0663640
  41.8306970  54.2318615   2.9551068  44.9896118  51.9034839   7.0039473
  45.0117814  51.9674172   6.0491452  45.4064177  51.0639348   7.1979979
  55.3679742  61.6390099   5.0418695  55.8110888  60.8897424   4.6437819
  54.4906252  61.6300235   4.6592427  50.5015523  68.1920440   0.5225294
  51.1966428  68.8127133   0.7412608  50.8438673  67.3415791   0.7977672
  36.1183332  60.0138241  14.3822111  35.3765068  60.1620876  14.9686742
  35.7976077  60.2746507  13.5188861  52.4006946  65.6420146   2.0512625
  52.9258270  65.9807418   1.3261945  52.3129299  64.7067161   1.8675759
  44.0626995  69.5554219  14.1802501  44.3714122  69.3103366  15.0525201
  44.8602477  69.7600858  13.6921371  44.0847607  71.7092129   6.4107878
  43.6452597  71.2168508   7.1040734  44.8355724  71.1665097   6.1699953
  36.5639946  67.9003670   6.4132506  37.3897966  67.6007442   6.0331149
  36.2133998  67.1311292   6.8622294  41.5321479  67.2530138   8.4830179
  40.9101489  66.5900843   8.1832407  42.2026346  67.2791270   7.8003827
  34.7648551  65.8189996   7.3721439  33.9280459  65.3912171   7.1905441
  34.7372197  66.0122440   8.3092231  41.6046007  55.7311926  18.0762685
  41.6534162  56.6074049  17.6940455  42.1468521  55.1889319  17.5034329
  52.0900852  66.2753049  17.3563823  51.2996396  66.2577188  16.8168322
  51.8534207  66.8141343  18.1112859  52.2098728  63.1245516  14.6696551
  52.2596732  62.9595523  15.6112074  52.1012651  62.2572775  14.2794432
  41.0934986  65.8034061   1.9588640  41.2423107  66.4869526   1.3055313
  41.9001430  65.7839151   2.4738096  49.5002490  59.1076444  15.9855858
  50.4012353  58.9682909  15.6939856  49.5750464  59.2730899  16.9254035
  43.8345295  56.4843298  14.8309044  42.9648605  56.7776865  14.5591633
  44.0704776  57.0683743  15.5516308  53.7116924  65.5442457  14.9138573
  53.4201733  65.9072438  15.7502034  53.0989056  64.8309465  14.7351905
  54.9112607  63.1095337   7.4341143  55.7459498  63.5485141   7.5978703
  55.0471735  62.6333990   6.6149389  51.9604113  60.6675072  13.3818631
  52.4358234  60.8602718  12.5737482  51.0369678  60.7234258  13.1362014
  38.8487619  61.8299239   2.9649709  38.6033661  60.9261569   3.1629919
  39.0183534  61.8316389   2.0229187  46.5384329  52.7022915  12.3474465
  47.0566273  53.4383942  12.0220953  46.1839462  53.0086909  13.1821224
  38.1183267  57.5627597   0.4635870  37.4252512  57.6371952  -0.1924094
  37.8735019  56.7987940   0.9857387  46.7896923  49.1223198   7.8675361
  47.0698677  48.4546387   8.4935788  47.5747530  49.3152294   7.3550025
  44.5930392  68.2982192  -0.5699613  44.0204359  68.9172379  -1.0229141
  45.1663185  68.8481554  -0.0359691  50.6605782  57.5440832  11.6146936
  51.6123204  57.6438930  11.6359160  50.4909232  56.7519100  12.1245021
  48.6820161  54.6296415  11.8006337  48.0870093  54.9101428  11.1052826
  48.3969858  55.1190316  12.5723078  47.8127652  68.5819342   0.5608970
  48.7458325  68.5164904   0.7641845  47.7250864  69.4175609   0.1023502
  50.4415668  67.8985212  -2.4787083  50.3629300  67.5645076  -1.5851325
  51.2625335  68.3906980  -2.4795610  53.1393859  60.7646952  10.7289236
  53.1070179  59.8262952  10.9148920  53.7494483  60.8430988   9.9955061
  44.9777190  59.6343005  -3.2283560  45.9236295  59.5049213  -3.1595142
  44.5991435  58.8957666  -2.7514132  53.2888348  57.5557995  10.7747519
  52.7727397  56.7716452  10.5877448  54.1728296  57.2276712  10.9394039
  50.9499075  51.2999011   6.7343332  50.7523896  50.9914099   7.6186664
  51.5598780  52.0260650   6.8641262  58.9570409  61.8262958   9.8695273
  59.6873798  61.5648247  10.4302976  58.3477355  61.0891680   9.9097341
  57.0385706  59.9670821  10.4669724  56.3118870  59.8326786   9.8586215
  56.6232993  60.2747650  11.2726442  44.8615883  63.6860751  18.2317097
  45.7818892  63.8639350  18.4257143  44.8265466  62.7416796  18.0796796
  34.0798048  58.8799344   7.1570372  33.7600832  58.0264653   6.8644746
  33.5331476  59.0947923   7.9128339  37.8577955  61.5961785  10.8739878
  38.0763965  62.5278893  10.8927912  38.2703729  61.2369760  11.6594682
  44.7782173  52.1029871   2.8615566  43.9682901  51.7576956   3.2370812
  45.4666590  51.7937414   3.4503178  46.7072721  51.1807918   4.4839863
  47.2603760  51.6003371   5.1429886  46.9442808  50.2543666   4.5262819
  42.7305821  57.1694991  20.2642627  42.6302548  58.1189348  20.1954718
  42.5127363  56.8413230  19.3918697  33.9486308  62.5002256   9.1263493
  33.2549779  62.0856209   8.6133448  34.6959299  62.5422792   8.5296912
  50.0851528  53.2908443   3.9918527  49.5050198  53.9493247   3.6096580
  49.8187461  52.4685787   3.5805945  48.5355095  52.6913500   6.1939848
  49.0354873  52.8030035   5.3854166  49.1790703  52.3874553   6.8340656
  42.5937091  60.5992130  19.0807689  42.1104172  61.3992490  19.2871578
  42.6798030  60.6100075  18.1275133  35.8623050  62.4320510   7.0029508
  35.8393738  62.5308197   6.0511391  36.1723687  63.2785660   7.3246674
  38.5210428  64.4896665  11.1176122  39.4753682  64.4580607  11.0506054
  38.3222952  64.0287288  11.9326348  39.1109810  63.0597781  13.6846920
  39.9302699  63.5541859  13.7081757  39.3846618  62.1429749  13.6564488
  48.8676407  55.4508533   3.0474876  47.9802262  55.7358184   2.8295070
  49.2830396  55.2902296   2.2002152  52.2190943  55.4755054   6.7629215
  52.9951333  55.9651506   7.0353832  51.4939077  55.9013108   7.2201084
  54.6563501  56.1882673   7.8203155  55.2507992  55.9478409   7.1096464
  54.7290085  55.4689804   8.4476692  36.8760657  70.0316284   8.1346320
  36.7415125  69.2716685   7.5684318  36.4592719  70.7557184   7.6675109
  48.0119620  65.2153208  -2.8577104  48.7155470  65.4203210  -2.2419449
  47.2882269  65.7829970  -2.5928021  48.8417430  60.9663069   3.2625166
  48.7852632  61.4231620   2.4232798  49.3945773  60.2053754   3.0848008
  52.6522236  56.7552801   4.0875285  52.3959170  56.3549437   4.9183493
  52.0275104  57.4696595   3.9625424  56.9634574  59.4948874   6.5946577
  56.4034132  59.5642063   7.3678139  56.3578077  59.3189859   5.8746073
  40.0329783  70.9285601   8.3464763  39.9162167  71.8731034   8.2443453
  39.2122229  70.6259163   8.7350562  49.9206317  65.6535737  -0.8078644
  50.7551921  65.2216935  -0.9901170  49.7590660  65.4817751   0.1198250
  49.5752210  62.1567850   0.5577695  49.5201013  61.9912122  -0.3833861
  48.9498265  62.8643883   0.7139885  34.3644725  57.3935915  14.3839117
  35.0103588  56.8834869  14.8726342  34.1561876  58.1304596  14.9582542
  46.8898117  64.4616762  19.8831258  47.7589276  64.6357414  19.5217893
  46.4104868  65.2811179  19.7606987  42.8848335  51.6575959   0.1363013
  42.8727005  52.6017799   0.2931284  43.7771757  51.4746105  -0.1577525
  41.0584297  71.5813863  11.5620691  41.9611544  71.6137473  11.8787186
  40.8321667  70.6514314  11.5767027  42.8137899  70.3344850   8.2230770
  41.8633530  70.3346711   8.1095142  43.1170385  69.5877584   7.7066805
  46.7000454  48.2518736   4.3908950  45.9332850  47.6977223   4.5365632
  47.1111159  48.3240605   5.2523102  38.7042216  54.5403532  18.4814131
  39.5673677  54.1840337  18.6917456  38.1307626  54.2017426  19.1689536
  58.5490592  76.1705388   9.2876532  59.1869002  76.0512135   8.5839872
  58.4311435  77.1186232   9.3464485  55.3580299  76.1232816   9.2238057
  55.0198810  76.0073881   8.3358592  56.2270067  75.7223981   9.2039063
  51.2167114  77.9768293   5.2134948  50.6531980  77.8858229   4.4451236
  51.1019509  77.1568197   5.6937441  55.8400082  77.2767668  15.1824263
  55.8288723  76.8820466  14.3104766  56.0020721  76.5433740  15.7758034
  48.7631546  79.4719484   8.0519168  49.5552838  79.1310309   7.6365468
  49.0028197  79.5814459   8.9721322  56.7966673  81.6439260   0.5249413
  56.1454653  82.2293341   0.1383427  57.5911036  82.1745455   0.5844450
  50.7222300  78.7328397   0.9236547  51.4953176  78.1857384   0.7849423
  51.0747699  79.5972647   1.1351009  52.5607343  80.0604780  14.1303447
  52.2697209  80.9650411  14.0150113  53.1964327  80.1021307  14.8447516
  53.4863550  77.4381628  10.7204806  54.0827122  77.2137651  10.0061769
  53.5438521  76.6966374  11.3230254  53.0588578  74.8921064  -1.4445003
  53.3114099  74.3702585  -2.2061540  52.1213137  74.7287209  -1.3418319
  58.1031861  73.8956842   6.3629740  58.8894950  73.4776265   6.0120157
  58.3670565  74.8002934   6.5311389  58.2741938  79.3329692   1.0618397
  57.6387771  79.4064319   1.7739302  57.9439345  79.9223291   0.3837476
  63.5040288  73.8332075   7.2662719  64.2365460  73.2631292   7.5000548
  62.7479644  73.4453676   7.7069224  52.7784867  76.7949169   0.7579372
  52.6621125  76.1194073   1.4260456  52.8887127  76.3081543  -0.0588475
  55.1216408  76.2559317   4.4626061  54.7574615  75.7289938   5.1738983
  55.9783524  75.8657786   4.2892547  61.0265708  67.5453649  11.7257328
  60.6949033  68.4149060  11.5018542  60.4311322  67.2289933  12.4051358
  54.7621895  71.2849216  -0.5412590  54.9296297  72.1529453  -0.1742119
  54.5719064  71.4476498  -1.4651301  57.5197228  79.7466195  11.1253240
  57.2197951  80.6491234  11.0169047  57.1748287  79.4798378  11.9774393
  50.9709709  76.1979992   7.1589945  50.0460206  76.0656206   7.3667636
  51.2194123  76.9774211   7.6559887  60.9194372  72.2648735   8.8050678
  60.0111249  72.1964144   8.5109439  60.8681968  72.7420680   9.6332503
  54.7411116  73.7406874   0.4434077  54.6210741  74.1863925   1.2819557
  54.0463704  74.0892191  -0.1152385  48.3318520  75.8413266   7.9933734
  48.4610902  76.0947744   8.9073145  47.6515972  76.4340974   7.6738389
  52.5018008  86.5110516   4.0924208  52.4242037  87.4618341   4.1712689
  51.8979651  86.1656388   4.7499134  54.9935238  73.6838381  16.7485575
  54.2168572  74.2432301  16.7388439  55.6325801  74.1695164  17.2700445
  62.7856018  70.4665174  10.5828551  62.1430398  70.7597707   9.9368346
  62.2810947  70.3518094  11.3881748  60.4396182  74.2128347   1.2714411
  61.3514038  74.4455734   1.0962108  59.9305829  74.7965391   0.7089489
  53.2481610  76.4923834  16.3103542  53.9896294  77.0308878  16.0338365
  52.5418595  77.1190123  16.4675094  58.7236949  78.6352975  14.9075703
  59.1320306  78.1935385  14.1630336  58.0014211  78.0605602  15.1609896
  55.0768020  73.5725582  12.2809260  55.9229215  73.9964995  12.4243909
  55.0166657  72.9159206  12.9747823  59.0465764  79.1954165   8.6627992
  58.4174627  79.3599880   7.9604060  58.6591426  79.6095775   9.4338956
  62.9254996  80.1308603   6.0172356  62.2406034  80.5107505   5.4669389
  63.0098845  80.7403930   6.7504304  58.2267465  71.2329950  13.9390434
  57.9828397  71.9872010  13.4024710  58.5027395  71.6115298  14.7737681
  60.1805928  77.7768562  12.6167699  60.3922823  78.4200322  11.9402081
  60.1335676  76.9430879  12.1489630  57.7832157  70.3886383   9.5204272
  56.9216636  70.6867636   9.8121009  57.8094591  70.6056782   8.5885304
  54.5993726  78.9328573   5.9278077  55.0632072  79.2116276   5.1382700
  54.3350524  78.0312018   5.7451168  51.4917807  78.4800055   8.8657841
  52.0619164  78.9087323   8.2275325  52.0825919  78.1982640   9.5642026
  53.5362612  75.0551726   2.7367642  54.2386655  75.5072770   3.2041569
  53.2043241  74.4135545   3.3647536  51.9842974  73.6463482  17.1118852
  51.3541634  74.3279763  17.3454249  51.8779061  73.5346564  16.1671990
  47.2787946  73.3135279   8.0384776  46.4887000  73.5692807   7.5624887
  47.7699193  74.1283616   8.1436817  61.2951756  80.6540518  10.7890057
  62.1169199  80.2520705  10.5072738  61.2914158  80.5508752  11.7406173
  49.2302691  73.6779858   4.9968253  48.4333855  73.7898552   5.5151748
  49.0028284  74.0166510   4.1309143  55.0608359  80.2024561  12.9450767
  55.1252792  80.6644968  13.7808939  54.3519283  79.5721926  13.0733077
  45.5625649  73.5665769  10.4699767  45.8133687  74.4512779  10.7357343
  46.0985197  73.3870370   9.6974859  69.3857749  76.9979266   7.1375028
  68.6321457  76.4286664   6.9819033  69.5205290  76.9641931   8.0845663
  54.7756377  81.8692668   2.8129748  54.6402051  82.7144204   3.2414595
  55.3166189  82.0711946   2.0495681  51.2623716  67.9484248  19.4744103
  50.8690662  67.3950447  20.1491747  52.0789857  68.2594827  19.8650620
  48.2285774  79.3868107   3.3857673  48.7410295  80.1811357   3.5363237
  48.8808487  78.6894397   3.3191274  50.0380659  82.5033863   5.4680426
  50.2147287  83.4251827   5.2801410  50.8337492  82.1892282   5.8974806
  54.1791677  69.3642127  17.0664359  54.9201391  69.9649281  16.9868822
  54.4109600  68.6219765  16.5082402  49.3233015  74.5498495  15.3442589
  49.2086530  73.6483752  15.6449688  48.4677533  74.7962191  14.9927406
  56.4024853  82.4916235  16.9430090  55.9588707  81.7052614  16.6250994
  57.0642067  82.6795385  16.2773981  51.1611974  84.0212037  11.4690768
  51.7119399  83.8929100  10.6967762  50.3223450  84.3206926  11.1185661
  58.5006091  82.7719035  14.9711491  58.4824566  83.5927916  14.4791760
  59.4226011  82.6473110  15.1961632  54.9579145  80.2863164  15.8134999
  55.4907482  79.5251453  15.5834307  54.4293226  79.9936816  16.5559154
  58.1248840  65.3923230  11.3428641  57.7813110  66.2824872  11.2667752
  58.4927803  65.2024888  10.4798226  46.1934691  77.7156761   4.1617243
  47.0309913  78.1253769   3.9450951  46.3712959  76.7756203   4.1317437
  58.0899123  75.3831841  -0.1498924  57.5745746  76.1536446   0.0889464
  57.8176431  74.7096978   0.4734138  55.6746234  70.2281542   4.9086315
  54.8187830  69.8388393   4.7291953  56.0873186  70.3073503   4.0486100
  57.2045381  67.7627886   9.3077874  56.7010176  67.7258021   8.4945680
  57.4975988  68.6720628   9.3674531  53.4488267  67.8466615   8.3144056
  54.3141263  67.6509424   7.9549946  53.5165775  67.6176967   9.2413413
  63.0633397  78.1364196   1.7854250  62.2862840  77.7975356   1.3409412
  63.7424878  78.1416819   1.1109215  57.8785426  73.2558934   1.6760857
  57.5735562  73.5705083   2.5271001  58.8315868  73.3340353   1.7188190
  56.3231858  79.4149157   3.3253811  55.7953220  78.6801916   3.0127049
  55.8219361  80.1923833   3.0793780  61.3024704  77.6098177   8.4420858
  60.6448378  78.2997439   8.5300986  62.1065103  77.9994609   8.7854844
  51.0550586  70.0768823   5.6860423  51.6294338  69.8544005   4.9533616
  51.6421568  70.1457518   6.4389024  60.1130163  75.9642550   6.4924799
  60.6262045  76.5972542   6.9946509  60.7631387  75.3643746   6.1268159
  51.3820173  72.1073284  -0.2943692  50.5457485  72.4447971   0.0265583
  51.2424942  71.9722264  -1.2316555  53.3573253  66.9510072   4.4135492
  52.7037666  66.6359089   3.7892107  53.3153727  66.3285813   5.1395315
  54.4684458  77.2329367  -3.6711216  53.5611520  77.0018621  -3.4720067
  54.9655490  76.4366986  -3.4837234  56.5910994  73.4392006   8.7383140
  55.6733555  73.6606953   8.5804828  57.0071137  73.5138316   7.8794847
  57.3746041  74.8383421   3.8685820  58.1217860  75.3504818   3.5592942
  57.6437631  74.5167474   4.7290214  55.6472692  77.3341962   0.8512775
  54.7383911  77.0500995   0.9485244  55.6767775  77.7541041  -0.0083919
  60.8791959  80.9448552   4.6203942  60.4254286  80.1039461   4.6769133
  60.2485926  81.5809950   4.9578722  59.8224879  71.8740538   5.8504610
  59.0847635  71.3617924   6.1814852  60.0751652  71.4340919   5.0387886
  59.3224898  82.7825048   5.5553760  59.6147873  83.3430105   4.8366126
  59.8323519  83.0753609   6.3106919  59.9236506  64.6516790   6.4446379
  60.2295383  63.7914153   6.1572294  60.6489111  65.2434410   6.2445373
  46.2160862  75.0547476   4.8327977  46.0185262  74.4616837   4.1079043
  45.6607526  74.7499686   5.5503916  54.1957586  74.9470583   6.9522570
  54.2506195  73.9944419   6.8765046  53.3848788  75.1030022   7.4363868
  55.3448779  78.8750706  -1.8099147  54.9068209  78.1586565  -2.2693510
  56.0859220  79.1026820  -2.3714056  52.1349946  73.5647642   4.7112949
  51.3217811  73.8641813   5.1178141  52.6308940  73.1703331   5.4287431
  54.2858523  83.5605399   6.6447213  54.2434702  83.7866246   5.7155745
  55.2021222  83.3268774   6.7933015  57.7324157  74.0289467  13.5427843
  58.0873545  74.2560940  14.4022308  58.3796288  74.3607844  12.9205098
  63.4621894  77.1507903   4.2477172  63.3239793  77.3409499   3.3198361
  63.1058113  77.9127286   4.7045223  51.6264020  71.1365998  10.3274184
  52.2663400  70.9954757   9.6297147  50.7941551  70.8500511   9.9512786
  63.4891274  79.2184430   9.2588443  63.9227780  79.1259719  10.1071497
  64.2022855  79.1941930   8.6208459  52.4024324  80.4368428   6.4409176
  53.1964923  79.9418748   6.2391751  51.6916017  79.9086291   6.0776882
  57.2219169  82.8186524  10.7921544  57.2756191  83.3877460  11.5599260
  56.3533950  82.9888409  10.4275581  48.7107088  74.5811510   2.5168929
  47.7804676  74.5195966   2.7338891  48.8064560  74.0587463   1.7205570
  48.6292637  71.1066323   5.1047171  48.8899454  72.0211656   4.9956331
  49.4509809  70.6390765   5.2543783  50.1017562  72.5204080  12.2745995
  50.7740616  72.3121442  11.6258644  49.2747349  72.3226166  11.8351227
  64.3506823  79.2608130  11.7921329  64.5442713  80.1653941  12.0380604
  64.2507442  78.8015549  12.6259914  56.0043134  69.1466021  14.2911656
  55.3571049  69.8455971  14.1976132  56.7744150  69.5802165  14.6587904
  59.4121932  79.4114873  17.3662209  59.2607438  79.1825425  16.4492293
  59.4026612  80.3685475  17.3793554  56.1807268  76.9846786  12.3508476
  57.1099328  77.1357945  12.1777443  55.7598298  77.0730807  11.4957122
  54.9795600  81.0097450  10.1207013  54.8406686  80.6416235  10.9932951
  54.1910196  81.5245090   9.9490971  55.5743752  86.1106547   1.4632550
  55.7495508  85.6394590   2.2778172  54.8876540  86.7372313   1.6913811
  56.5300815  80.3879053   7.5095851  56.1950648  80.3479823   8.4053501
  56.0304761  79.7223769   7.0366261  50.5045059  75.7946683  13.0348432
  50.3664857  75.0626922  13.6359971  51.4149983  75.7055583  12.7532620
  59.4660007  77.7335087  -2.2167089  58.8489178  77.0081915  -2.3134037
  58.9976495  78.4944448  -2.5600015  53.1327360  75.5066642  12.5232112
  53.8426979  74.8659835  12.4818730  53.0896668  75.7579537  13.4458293
  61.1214139  82.4433996  15.4438691  61.0626685  81.7593216  14.7769274
  61.5233657  83.1852986  14.9919317  51.8456294  72.4931860  14.3427751
  51.3093651  72.0422599  14.9949348  51.2573002  72.6277769  13.5998216
  50.1404837  89.2595910   8.2372410  50.3801436  89.8914434   8.9151429
  49.2974034  88.9083950   8.5237769  51.2558553  71.9520512  -3.0945785
  50.3788019  71.8309312  -3.4583538  51.7316306  71.1606590  -3.3466896
  61.1231546  80.4073580  13.6752671  60.2358325  80.0699501  13.7979070
  61.6930097  79.6756611  13.9121436  42.7760693  76.7397671   6.9995722
  43.4631733  76.4259401   6.4116737  42.6208822  77.6439036   6.7262974
  47.5795415  71.6287868  11.4280746  47.4953604  71.0213537  10.6931156
  46.7578122  72.1196886  11.4290242  54.6532699  85.0675032  10.6413914
  54.5802871  85.8730003  11.1533218  54.2110092  85.2666998   9.8161935
  54.4422479  84.3046802   4.1516735  53.6590001  84.8468482   4.2454960
  55.1415224  84.8220782   4.5510977  57.7519129  70.1141431   6.7950941
  58.2487829  69.3611394   6.4752011  56.9806111  70.1505748   6.2294150
  65.6048886  75.8181797   8.4369232  65.5938763  76.7006512   8.0663165
  64.7366266  75.4653348   8.2423769  57.1131383  84.9661866  12.7972073
  57.8259355  85.6009331  12.7247974  56.6221412  85.0625732  11.9812074
  58.8348910  78.8713119   4.3689364  57.9005189  78.9914581   4.1994069
  59.0125578  77.9685585   4.1049374  54.3354098  72.2558814   6.5222625
  53.9651885  71.7029855   7.2103531  54.8313190  71.6516948   5.9697625
  62.2221461  74.7130438   4.9039398  62.6881913  75.5458430   4.8299701
  62.6728962  74.2475420   5.6084657  52.1643296  82.7156309  13.6177643
  52.8652756  83.3492792  13.7707038  51.6938411  83.0571041  12.8573283
  60.2897692  81.0574259   1.9025550  60.5657536  80.9430854   2.8119425
  59.4202191  80.6591744   1.8637724  60.1938124  67.0811025   8.9430300
  59.2801204  67.3115252   9.1112507  60.6231225  67.1649469   9.7944332
  59.9644582  75.2700917  11.4430194  59.3116033  75.5176824  10.7882647
  60.3424962  74.4565055  11.1092671  56.9251756  85.3060610   5.5458364
  57.1074151  84.4882266   6.0086116  57.7484742  85.5228302   5.1083254
  57.2593922  84.2328795   2.8073413  57.7881688  83.7221250   2.1943575
  57.5222141  83.9171325   3.6718946  56.0132155  76.0120728  17.9296231
  55.3372792  75.9114857  18.5998606  56.8359789  75.8559942  18.3932228
  47.7611014  82.2492664  10.5508746  48.3464451  81.5036352  10.6836650
  47.5635853  82.5596621  11.4345410  50.6149670  85.2843912   5.5671188
  49.9460045  85.7690040   5.0835229  50.4762539  85.5313132   6.4814567
  42.3528669  74.8198265   9.2713189  42.3912769  74.2861855  10.0650307
  41.8468962  74.2933470   8.6524166  54.7554938  87.3187655  12.1653847
  55.3073246  87.4819277  12.9302932  55.0961132  87.9092093  11.4933872
  49.7319431  69.6662805  12.7675732  49.7960758  70.5277636  12.3553129
  49.6686552  69.0536807  12.0348090  49.2071704  71.7385938  16.4148766
  49.8343743  71.3563015  17.0286290  48.3499623  71.5200140  16.7804458
  59.6065813  82.1448913  18.0202501  60.1505717  82.7578871  17.5257456
  59.0252657  82.7028491  18.5369514  45.9837247  73.5462367   2.3467121
  46.2790688  72.6373045   2.2934174  45.0825283  73.5250106   2.0248123
  57.8923326  85.2669631   9.1517529  57.7674465  84.4659371   8.6428474
  58.5502417  85.7615824   8.6631499  49.5131494  71.6218363   8.3294669
  48.7918080  72.2354331   8.1902143  50.3024750  72.1576128   8.2511315
  59.9558234  83.0678651  10.7797079  59.0088569  82.9484002  10.7075406
  60.3041007  82.1801149  10.8623341  52.3157807  68.9572790  14.6035321
  52.8392209  69.2035086  15.3661630  52.0970141  69.7892825  14.1838458
  47.7125088  71.2276465   2.4706446  47.3837795  70.3473843   2.2881552
  48.0664459  71.1724133   3.3582835  56.9604667  82.8631367   6.9801431
  56.8129630  81.9348075   7.1609001  57.7858161  82.8851458   6.4958507
  50.8266912  71.5149434   2.8381923  51.1662984  72.0435356   2.1160532
  51.2739032  71.8529840   3.6140490  60.5638789  83.6859926   8.0666304
  61.4885337  83.4802787   7.9290755  60.3954092  83.4376327   8.9755646
  53.5210352  69.8986485  12.2884992  53.1807173  69.0994298  12.6905671
  52.8149359  70.1988196  11.7161825  54.1726824  66.9835797  10.7412315
  54.9952893  66.5096276  10.6191205  54.4164888  67.7626281  11.2411001
  52.8135059  70.0124056   1.0375216  53.5343421  70.3905309   0.5338933
  52.1900363  70.7312933   1.1410194  56.9566182  70.7169205   1.9733549
  57.1729796  71.5993843   1.6722377  56.4760249  70.3255418   1.2439191
  51.6965403  73.6754918   8.5504293  51.5509984  73.9895221   9.4428575
  51.2190607  74.2939818   7.9975192  53.5561786  70.6657466   8.5985183
  53.5423355  69.7698559   8.2617481  54.2734214  70.6728130   9.2323469
  55.4087917  71.0994806  10.6438310  55.1505694  72.0211877  10.6422641
  54.8772957  70.7025241  11.3338774  60.3534105  84.2045593   3.4228396
  60.5270983  83.6392016   2.6702248  60.8462997  85.0046488   3.2407885
  46.1711065  76.2160263  11.4891954  45.6264533  76.9920070  11.6212229
  47.0490415  76.5631067  11.3311076  52.9598682  69.5471846   3.8672753
  53.0814593  68.6188493   4.0663640  52.6700724  69.5610532   2.9551068
  55.8289872  67.2326757   7.0039473  55.8511569  67.2966090   6.0491452
  56.2457931  66.3931265   7.1979979  66.2073496  76.9682016   5.0418695
  66.6504642  76.2189342   4.6437819  65.3300007  76.9592153   4.6592427
  61.3409278  83.5212358   0.5225294  62.0360182  84.1419051   0.7412608
  61.6832428  82.6707709   0.7977672  46.9577087  75.3430159  14.3822111
  46.2158823  75.4912794  14.9686742  46.6369831  75.6038424  13.5188861
  63.2400701  80.9712063   2.0512625  63.7652025  81.3099336   1.3261945
  63.1523053  80.0359079   1.8675759  54.9020750  84.8846137  14.1802501
  55.2107876  84.6395284  15.0525201  55.6996232  85.0892775  13.6921371
  54.9241362  87.0384047   6.4107878  54.4846352  86.5460425   7.1040734
  55.6749479  86.4957014   6.1699953  47.4033701  83.2295587   6.4132506
  48.2291721  82.9299359   6.0331149  47.0527753  82.4603210   6.8622294
  52.3715234  82.5822056   8.4830179  51.7495243  81.9192761   8.1832407
  53.0420101  82.6083188   7.8003827  45.6042306  81.1481914   7.3721439
  44.7674214  80.7204088   7.1905441  45.5765951  81.3414357   8.3092231
  52.4439761  71.0603844  18.0762685  52.4927917  71.9365967  17.6940455
  52.9862275  70.5181237  17.5034329  62.9294607  81.6044967  17.3563823
  62.1390151  81.5869106  16.8168322  62.6927962  82.1433261  18.1112859
  63.0492482  78.4537433  14.6696551  63.0990487  78.2887441  15.6112074
  62.9406405  77.5864692  14.2794432  51.9328741  81.1325979   1.9588640
  52.0816861  81.8161443   1.3055313  52.7395184  81.1131069   2.4738096
  60.3396244  74.4368361  15.9855858  61.2406107  74.2974826  15.6939856
  60.4144219  74.6022816  16.9254035  54.6739050  71.8135216  14.8309044
  53.8042359  72.1068782  14.5591633  54.9098530  72.3975661  15.5516308
  64.5510679  80.8734375  14.9138573  64.2595487  81.2364355  15.7502034
  63.9382810  80.1601383  14.7351905  65.7506361  78.4387255   7.4341143
  66.5853253  78.8777059   7.5978703  65.8865490  77.9625908   6.6149389
  62.7997867  75.9966990  13.3818631  63.2751989  76.1894636  12.5737482
  61.8763432  76.0526175  13.1362014  49.6881374  77.1591157   2.9649709
  49.4427416  76.2553487   3.1629919  49.8577288  77.1608307   2.0229187
  57.3778084  68.0314833  12.3474465  57.8960027  68.7675860  12.0220953
  57.0233216  68.3378826  13.1821224  48.9577021  72.8919514   0.4635870
  48.2646266  72.9663869  -0.1924094  48.7128773  72.1279858   0.9857387
  57.6290678  64.4515116   7.8675361  57.9092432  63.7838305   8.4935788
  58.4141285  64.6444211   7.3550025  55.4324146  83.6274109  -0.5699613
  54.8598113  84.2464297  -1.0229141  56.0056940  84.1773471  -0.0359691
  61.4999536  72.8732750  11.6146936  62.4516959  72.9730847  11.6359160
  61.3302986  72.0811018  12.1245021  59.5213916  69.9588333  11.8006337
  58.9263848  70.2393346  11.1052826  59.2363612  70.4482234  12.5723078
  58.6521406  83.9111260   0.5608970  59.5852079  83.8456821   0.7641845
  58.5644619  84.7467526   0.1023502  63.9787614  76.0938869  10.7289236
  63.9463934  75.1554870  10.9148920  64.5888238  76.1722906   9.9955061
  55.8170945  74.9634922  -3.2283560  56.7630049  74.8341130  -3.1595142
  55.4385190  74.2249584  -2.7514132  64.1282102  72.8849913  10.7747519
  63.6121151  72.1008369  10.5877448  65.0122051  72.5568629  10.9394039
  61.7892829  66.6290928   6.7343332  61.5917650  66.3206016   7.6186664
  62.3992535  67.3552567   6.8641262  69.7964164  77.1554876   9.8695273
  70.5267552  76.8940164  10.4302976  69.1871109  76.4183598   9.9097341
  67.8779461  75.2962739  10.4669724  67.1512624  75.1618704   9.8586215
  67.4626748  75.6039567  11.2726442  55.7009637  79.0152668  18.2317097
  56.6212647  79.1931267  18.4257143  55.6659220  78.0708714  18.0796796
  54.0013862  72.8884899  -3.2928675  53.0945317  72.5918011  -3.2165961
  54.2789843  72.5914717  -4.1594389  44.9191802  74.2091262   7.1570372
  44.5994587  73.3556570   6.8644746  44.3725230  74.4239840   7.9128339
  48.6971710  76.9253703  10.8739878  48.9157720  77.8570811  10.8927912
  49.1097484  76.5661677  11.6594682  55.6175928  67.4321788   2.8615566
  54.8076656  67.0868873   3.2370812  56.3060345  67.1229332   3.4503178
  57.5466476  66.5099835   4.4839863  58.0997515  66.9295289   5.1429886
  57.7836562  65.5835583   4.5262819  53.5699575  72.4986909  20.2642627
  53.4696302  73.4481266  20.1954718  53.3521117  72.1705148  19.3918697
  52.7712647  69.7471834  -3.1516696  53.6331811  70.0726732  -2.8920878
  52.9562991  68.9603330  -3.6643630  44.7880062  77.8294174   9.1263493
  44.0943534  77.4148126   8.6133448  45.5353053  77.8714710   8.5296912
  60.9245283  68.6200360   3.9918527  60.3443952  69.2785164   3.6096580
  60.6581216  67.7977705   3.5805945  59.3748849  68.0205418   6.1939848
  59.8748628  68.1321953   5.3854166  60.0184457  67.7166471   6.8340656
  53.4330845  75.9284048  19.0807689  52.9497927  76.7284408  19.2871578
  53.5191784  75.9391993  18.1275133  46.7016805  77.7612427   7.0029508
  46.6787493  77.8600115   6.0511391  47.0117441  78.6077578   7.3246674
  49.3604183  79.8188582  11.1176122  50.3147436  79.7872525  11.0506054
  49.1616706  79.3579206  11.9326348  49.9503565  78.3889698  13.6846920
  50.7696454  78.8833777  13.7081757  50.2240373  77.4721667  13.6564488
  59.7070161  70.7800451   3.0474876  58.8196016  71.0650101   2.8295070
  60.1224150  70.6194214   2.2002152  63.0584697  70.8046972   6.7629215
  63.8345087  71.2943424   7.0353832  62.3332831  71.2305026   7.2201084
  65.4957256  71.5174591   7.8203155  66.0901747  71.2770327   7.1096464
  65.5683839  70.7981721   8.4476692  47.7154411  85.3608202   8.1346320
  47.5808879  84.6008603   7.5684318  47.2986474  86.0849102   7.6675109
  59.6811185  76.2954987   3.2625166  59.6246386  76.7523538   2.4232798
  60.2339527  75.5345671   3.0848008  63.4915991  72.0844719   4.0875285
  63.2352925  71.6841354   4.9183493  62.8668859  72.7988512   3.9625424
  67.8028329  74.8240792   6.5946577  67.2427886  74.8933981   7.3678139
  67.1971832  74.6481776   5.8746073  50.8723537  86.2577519   8.3464763
  50.7555921  87.2022951   8.2443453  50.0515984  85.9551080   8.7350562
  60.7600072  80.9827655  -0.8078644  61.5945676  80.5508853  -0.9901170
  60.5984415  80.8109668   0.1198250  60.4145964  77.4859768   0.5577695
  60.3594768  77.3204039  -0.3833861  59.7892019  78.1935801   0.7139885
  45.2038479  72.7227832  14.3839117  45.8497343  72.2126786  14.8726342
  44.9955630  73.4596514  14.9582542  57.7291871  79.7908680  19.8831258
  58.5983031  79.9649332  19.5217893  57.2498623  80.6103097  19.7606987
  53.7242090  66.9867877   0.1363013  53.7120759  67.9309717   0.2931284
  54.6165511  66.8038022  -0.1577525  51.8978051  86.9105781  11.5620691
  52.8005298  86.9429391  11.8787186  51.6715422  85.9806232  11.5767027
  53.6531653  85.6636767   8.2230770  52.7027284  85.6638629   8.1095142
  53.9564140  84.9169502   7.7066805  57.5394209  63.5810654   4.3908950
  56.7726605  63.0269140   4.5365632  57.9504914  63.6532522   5.2523102
  49.5435970  69.8695449  18.4814131  50.4067432  69.5132254  18.6917456
  48.9701381  69.5309344  19.1689536  69.3884347  91.4997306   9.2876532
  70.0262757  91.3804053   8.5839872  69.2705190  92.4478150   9.3464485
  66.1974053  91.4524734   9.2238057  65.8592565  91.3365798   8.3358592
  67.0663821  91.0515899   9.2039063  66.6793836  92.6059586  15.1824263
  66.6682477  92.2112384  14.3104766  66.8414476  91.8725658  15.7758034
  59.6025301  94.8011402   8.0519168  60.3946593  94.4602226   7.6365468
  59.8421951  94.9106377   8.9721322  63.4001097  95.3896697  14.1303447
  63.1090963  96.2942328  14.0150113  64.0358082  95.4313225  14.8447516
  64.3257304  92.7673546  10.7204806  64.9220876  92.5429568  10.0061769
  64.3832276  92.0258291  11.3230254  71.8659463  82.8745567  11.7257328
  71.5342788  83.7440978  11.5018542  71.2705076  82.5581851  12.4051358
  68.3590982  95.0758113  11.1253240  68.0591706  95.9783152  11.0169047
  68.0142042  94.8090296  11.9774393  61.8103464  91.5271910   7.1589945
  60.8853960  91.3948124   7.3667636  62.0587877  92.3066129   7.6559887
  71.7588126  87.5940653   8.8050678  70.8505004  87.5256061   8.5109439
  71.7075722  88.0712598   9.6332503  59.1712275  91.1705183   7.9933734
  59.3004656  91.4239662   8.9073145  58.4909726  91.7632891   7.6738389
  65.8328992  89.0130299  16.7485575  65.0562326  89.5724219  16.7388439
  66.4719555  89.4987082  17.2700445  73.6249773  85.7957091  10.5828551
  72.9824153  86.0889625   9.9368346  73.1204701  85.6810012  11.3881748
  64.0875364  91.8215752  16.3103542  64.8290049  92.3600796  16.0338365
  63.3812350  92.4482041  16.4675094  69.5630704  93.9644892  14.9075703
  69.9714060  93.5227303  14.1630336  68.8407965  93.3897520  15.1609896
  65.9161774  88.9017499  12.2809260  66.7622969  89.3256913  12.4243909
  65.8560412  88.2451124  12.9747823  69.0661219  86.5621868  13.9390434
  68.8222151  87.3163928  13.4024710  69.3421150  86.9407215  14.7737681
  71.0199682  93.1060480  12.6167699  71.2316577  93.7492240  11.9402081
  70.9729430  92.2722797  12.1489630  68.6225911  85.7178301   9.5204272
  67.7610390  86.0159554   9.8121009  68.6488346  85.9348699   8.5885304
  62.3311562  93.8091973   8.8657841  62.9012919  94.2379241   8.2275325
  62.9219673  93.5274557   9.5642026  62.8236728  88.9755400  17.1118852
  62.1935389  89.6571681  17.3454249  62.7172816  88.8638482  16.1671990
  58.1181701  88.6427196   8.0384776  57.3280755  88.8984725   7.5624887
  58.6092948  89.4575534   8.1436817  60.0696446  89.0071775   4.9968253
  59.2727609  89.1190470   5.5151748  59.8422038  89.3458428   4.1309143
  65.9002114  95.5316479  12.9450767  65.9646546  95.9936886  13.7808939
  65.1913037  94.9013844  13.0733077  56.4019404  88.8957687  10.4699767
  56.6527442  89.7804697  10.7357343  56.9378952  88.7162288   9.6974859
  62.1017471  83.2776166  19.4744103  61.7084416  82.7242365  20.1491747
  62.9183611  83.5886744  19.8650620  65.0185432  84.6934045  17.0664359
  65.7595145  85.2941198  16.9868822  65.2503355  83.9511683  16.5082402
  60.1626770  89.8790412  15.3442589  60.0480285  88.9775670  15.6449688
  59.3071288  90.1254109  14.9927406  67.2418608  97.8208153  16.9430090
  66.7982462  97.0344531  16.6250994  67.9035821  98.0087303  16.2773981
  62.0005729  99.3503954  11.4690768  62.5513154  99.2221018  10.6967762
  61.1617205  99.6498843  11.1185661  69.3399846  98.1010953  14.9711491
  69.3218321  98.9219834  14.4791760  70.2619766  97.9765028  15.1961632
  65.7972900  95.6155082  15.8134999  66.3301237  94.8543370  15.5834307
  65.2686981  95.3228734  16.5559154  68.9642595  80.7215148  11.3428641
  68.6206864  81.6116790  11.2667752  69.3321557  80.5316806  10.4798226
  66.5139989  85.5573460   4.9086315  65.6581585  85.1680310   4.7291953
  66.9266940  85.6365421   4.0486100  68.0439135  83.0919803   9.3077874
  67.5403931  83.0549938   8.4945680  68.3369742  84.0012546   9.3674531
  64.2882021  83.1758533   8.3144056  65.1535018  82.9801342   7.9549946
  64.3559530  82.9468885   9.2413413  61.8944340  85.4060741   5.6860423
  62.4688092  85.1835922   4.9533616  62.4815323  85.4749435   6.4389024
  64.1967008  82.2801990   4.4135492  63.5431420  81.9651007   3.7892107
  64.1547482  81.6577730   5.1395315  67.4304748  88.7683923   8.7383140
  66.5127310  88.9898870   8.5804828  67.8464892  88.8430234   7.8794847
  70.7630260  79.9808707   6.4446379  71.0689137  79.1206071   6.1572294
  71.4882865  80.5726327   6.2445373  57.0554616  90.3839394   4.8327977
  56.8579016  89.7908755   4.1079043  56.5001280  90.0791604   5.5503916
  65.0351340  90.2762500   6.9522570  65.0899950  89.3236337   6.8765046
  64.2242542  90.4321939   7.4363868  62.9743700  88.8939560   4.7112949
  62.1611566  89.1933731   5.1178141  63.4702694  88.4995249   5.4287431
  68.5717912  89.3581385  13.5427843  68.9267299  89.5852858  14.4022308
  69.2190043  89.6899761  12.9205098  62.4657775  86.4657916  10.3274184
  63.1057154  86.3246675   9.6297147  61.6335305  86.1792429   9.9512786
  59.4686391  86.4358241   5.1047171  59.7293209  87.3503574   4.9956331
  60.2903564  85.9682683   5.2543783  60.9411317  87.8495998  12.2745995
  61.6134370  87.6413360  11.6258644  60.1141103  87.6518084  11.8351227
  66.8436889  84.4757939  14.2911656  66.1964804  85.1747888  14.1976132
  67.6137904  84.9094083  14.6587904  70.2515687  94.7406791  17.3662209
  70.1001193  94.5117342  16.4492293  70.2420366  95.6977392  17.3793554
  67.0201023  92.3138704  12.3508476  67.9493083  92.4649863  12.1777443
  66.5992053  92.4022724  11.4957122  65.8189355  96.3389368  10.1207013
  65.6800440  95.9708152  10.9932951  65.0303951  96.8537007   9.9490971
  61.3438814  91.1238601  13.0348432  61.2058612  90.3918840  13.6359971
  62.2543737  91.0347501  12.7532620  63.9721114  90.8358560  12.5232112
  64.6820733  90.1951752  12.4818730  63.9290423  91.0871455  13.4458293
  71.9607893  97.7725913  15.4438691  71.9020439  97.0885133  14.7769274
  72.3627412  98.5144903  14.9919317  62.6850048  87.8223778  14.3427751
  62.1487405  87.3714516  14.9949348  62.0966757  87.9569687  13.5998216
  71.9625300  95.7365497  13.6752671  71.0752079  95.3991419  13.7979070
  72.5323852  95.0048529  13.9121436  53.6154448  92.0689589   6.9995722
  54.3025487  91.7551319   6.4116737  53.4602576  92.9730954   6.7262974
  58.4189170  86.9579786  11.4280746  58.3347358  86.3505455  10.6931156
  57.5971876  87.4488804  11.4290242  68.5912884  85.4433349   6.7950941
  69.0881583  84.6903311   6.4752011  67.8199865  85.4797666   6.2294150
  65.1747852  87.5850732   6.5222625  64.8045640  87.0321772   7.2103531
  65.6706945  86.9808866   5.9697625  63.0037051  98.0448227  13.6177643
  63.7046510  98.6784710  13.7707038  62.5332166  98.3862959  12.8573283
  71.0331878  82.4102943   8.9430300  70.1194958  82.6407169   9.1112507
  71.4624980  82.4941387   9.7944332  70.8038337  90.5992835  11.4430194
  70.1509787  90.8468742  10.7882647  71.1818717  89.7856973  11.1092671
  66.8525910  91.3412646  17.9296231  66.1766547  91.2406775  18.5998606
  67.6753544  91.1851859  18.3932228  58.6004769  97.5784582  10.5508746
  59.1858206  96.8328270  10.6836650  58.4029607  97.8888539  11.4345410
  53.1922424  90.1490182   9.2713189  53.2306523  89.6153773  10.0650307
  52.6862717  89.6225388   8.6524166  60.5713186  84.9954723  12.7675732
  60.6354512  85.8569554  12.3553129  60.5080306  84.3828725  12.0348090
  60.0465459  87.0677855  16.4148766  60.6737497  86.6854933  17.0286290
  59.1893377  86.8492057  16.7804458  70.4459567  97.4740831  18.0202501
  70.9899471  98.0870789  17.5257456  69.8646412  98.0320409  18.5369514
  56.8231001  88.8754285   2.3467121  57.1184442  87.9664963   2.2934174
  55.9219037  88.8542024   2.0248123  60.3525248  86.9510281   8.3294669
  59.6311834  87.5646249   8.1902143  61.1418504  87.4868046   8.2511315
  63.1551562  84.2864708  14.6035321  63.6785964  84.5327004  15.3661630
  62.9363895  85.1184742  14.1838458  58.5518843  86.5568382   2.4706446
  58.2231549  85.6765761   2.2881552  58.9058214  86.5016051   3.3582835
  64.3604107  85.2278403  12.2884992  64.0200927  84.4286216  12.6905671
  63.6543113  85.5280114  11.7161825  65.0120579  82.3127715  10.7412315
  65.8346648  81.8388193  10.6191205  65.2558642  83.0918199  11.2411001
  62.5359157  89.0046836   8.5504293  62.3903738  89.3187139   9.4428575
  62.0584361  89.6231736   7.9975192  64.3955540  85.9949384   8.5985183
  64.3817109  85.0990477   8.2617481  65.1127968  86.0020048   9.2323469
  66.2481671  86.4286724  10.6438310  65.9899449  87.3503795  10.6422641
  65.7166711  86.0317159  11.3338774  57.0104820  91.5452180  11.4891954
  56.4658288  92.3211988  11.6212229  57.8884169  91.8922985  11.3311076
  63.7992436  84.8763764   3.8672753  63.9208347  83.9480410   4.0663640
  63.5094479  84.8902450   2.9551068  66.6683627  82.5618674   7.0039473
  66.6905323  82.6258008   6.0491452  67.0851686  81.7223183   7.1979979
  57.7970841  90.6722076  14.3822111  57.0552577  90.8204712  14.9686742
  57.4763586  90.9330342  13.5188861  65.7414504 100.2138055  14.1802501
  66.0501631  99.9687201  15.0525201  66.5389986 100.4184693  13.6921371
  56.4436060  96.4773832   7.3721439  55.6067968  96.0496006   7.1905441
  56.4159706  96.6706275   8.3092231  63.2833516  86.3895761  18.0762685
  63.3321671  87.2657884  17.6940455  63.8256030  85.8473154  17.5034329
  73.7688361  96.9336885  17.3563823  72.9783905  96.9161024  16.8168322
  73.5321716  97.4725178  18.1112859  73.8886237  93.7829351  14.6696551
  73.9384241  93.6179358  15.6112074  73.7800160  92.9156610  14.2794432
  71.1789999  89.7660279  15.9855858  72.0799862  89.6266744  15.6939856
  71.2537973  89.9314734  16.9254035  65.5132804  87.1427134  14.8309044
  64.6436114  87.4360700  14.5591633  65.7492285  87.7267579  15.5516308
  75.3904433  96.2026293  14.9138573  75.0989242  96.5656273  15.7502034
  74.7776565  95.4893301  14.7351905  73.6391622  91.3258907  13.3818631
  74.1145743  91.5186553  12.5737482  72.7157187  91.3818093  13.1362014
  68.2171838  83.3606751  12.3474465  68.7353782  84.0967778  12.0220953
  67.8626971  83.6670744  13.1821224  68.4684432  79.7807033   7.8675361
  68.7486186  79.1130222   8.4935788  69.2535039  79.9736129   7.3550025
  72.3393291  88.2024667  11.6146936  73.2910713  88.3022765  11.6359160
  72.1696741  87.4102936  12.1245021  70.3607670  85.2880250  11.8006337
  69.7657602  85.5685263  11.1052826  70.0757367  85.7774151  12.5723078
  74.9675857  88.2141830  10.7747519  74.4514905  87.4300287  10.5877448
  75.8515805  87.8860547  10.9394039  72.6286584  81.9582846   6.7343332
  72.4311405  81.6497934   7.6186664  73.2386289  82.6844485   6.8641262
  66.5403392  94.3444586  18.2317097  67.4606401  94.5223185  18.4257143
  66.5052975  93.4000631  18.0796796  55.7585557  89.5383180   7.1570372
  55.4388341  88.6848488   6.8644746  55.2118985  89.7531758   7.9128339
  59.5365464  92.2545621  10.8739878  59.7551474  93.1862729  10.8927912
  59.9491238  91.8953595  11.6594682  66.4569682  82.7613706   2.8615566
  65.6470410  82.4160791   3.2370812  67.1454099  82.4521250   3.4503178
  68.3860230  81.8391753   4.4839863  68.9391269  82.2587206   5.1429886
  68.6230317  80.9127501   4.5262819  64.4093330  87.8278826  20.2642627
  64.3090057  88.7773183  20.1954718  64.1914872  87.4997065  19.3918697
  55.6273817  93.1586091   9.1263493  54.9337288  92.7440044   8.6133448
  56.3746808  93.2006628   8.5296912  70.2142604  83.3497336   6.1939848
  70.7142382  83.4613870   5.3854166  70.8578212  83.0458389   6.8340656
  64.2724600  91.2575965  19.0807689  63.7891681  92.0576325  19.2871578
  64.3585539  91.2683910  18.1275133  57.5410559  93.0904345   7.0029508
  57.5181247  93.1892032   6.0511391  57.8511196  93.9369496   7.3246674
  60.1997937  95.1480500  11.1176122  61.1541191  95.1164442  11.0506054
  60.0010461  94.6871124  11.9326348  60.7897319  93.7181616  13.6846920
  61.6090208  94.2125695  13.7081757  61.0634127  92.8013584  13.6564488
  56.0432234  88.0519750  14.3839117  56.6891097  87.5418704  14.8726342
  55.8349385  88.7888432  14.9582542  68.5685626  95.1200597  19.8831258
  69.4376785  95.2941250  19.5217893  68.0892377  95.9395014  19.7606987
  62.7371806 102.2397698  11.5620691  63.6399053 102.2721309  11.8787186
  62.5109176 101.3098149  11.5767027  68.3787963  78.9102571   4.3908950
  67.6120359  78.3561058   4.5365632  68.7898668  78.9824440   5.2523102
  60.3829725  85.1987367  18.4814131  61.2461186  84.8424172  18.6917456
  59.8095135  84.8601262  19.1689536  72.9411225  98.6068084  19.4744103
  72.5478171  98.0534282  20.1491747  73.7577366  98.9178662  19.8650620
  75.8579186 100.0225963  17.0664359  76.5988900 100.6233116  16.9868822
  76.0897109  99.2803601  16.5082402  70.8859213 102.3969773  16.4148766
  71.5131252 102.0146850  17.0286290  70.0287132 102.1783975  16.7804458
  74.1227270 101.7187679  18.0762685  74.1715426 102.5949802  17.6940455
  74.6649784 101.1765072  17.5034329  75.2487084 103.1570744  20.2642627
  75.1483811 104.1065101  20.1954718  75.0308626 102.8288983  19.3918697
  66.8825988 103.3811668  14.3839117  67.5284852 102.8710622  14.8726342
  66.6743139 104.1180349  14.9582542  71.2223479 100.5279285  18.4814131
  72.0854941 100.1716090  18.6917456  70.6488890 100.1893180  19.1689536
  50.2820385  44.1204201   2.1683998  50.2232932  43.4363421   1.5014581
  50.6839904  44.8623191   1.7164624  48.7672059  43.8219118   4.7447808
  49.3111963  44.4349076   4.2502763  48.1858904  44.3798696   5.2614821
  52.0900854  43.2815172   4.0809129  51.2996397  43.2639311   3.5413629
  51.8534208  43.8203466   4.8358166  53.7116926  42.5504580   1.6383879
  53.4201734  42.9134560   2.4747340  53.0989057  41.8371588   1.4597211
  46.8898118  41.4678885   6.6076564  47.7589278  41.6419537   6.2463199
  46.4104869  42.2873302   6.4852294  58.5490594  53.1767511  -3.9878161
  59.1869004  53.0574258  -4.6914821  58.4311437  54.1248355  -3.9290209
  55.3580300  53.1294939  -4.0516636  55.0198812  53.0136003  -4.9396101
  56.2270068  52.7286104  -4.0715630  55.8400083  54.2829790   1.9069569
  55.8288724  53.8882589   1.0350073  56.0020722  53.5495863   2.5003341
  48.7631548  56.4781607  -5.2235525  49.5552840  56.1372431  -5.6389226
  49.0028198  56.5876582  -4.3033372  52.5607344  57.0666902   0.8548753
  52.2697210  57.9712533   0.7395420  53.1964329  57.1083430   1.5692823
  53.4863551  54.4443751  -2.5549887  54.0827123  54.2199773  -3.2692924
  53.5438523  53.7028496  -1.9524439  63.5040289  50.8394198  -6.0091974
  64.2365461  50.2693414  -5.7754145  62.7479645  50.4515798  -5.5685469
  61.0265710  44.5515772  -1.5497366  60.6949034  45.4211183  -1.7736151
  60.4311323  44.2352056  -0.8703335  57.5197229  56.7528318  -2.1501453
  57.2197952  57.6553357  -2.2585646  57.1748289  56.4860501  -1.2980300
  60.9194373  49.2710858  -4.4704016  60.0111250  49.2026266  -4.7645255
  60.8681969  49.7482803  -3.6422190  52.5018009  63.5172638  -9.1830485
  52.4242039  64.4680463  -9.1042005  51.8979653  63.1718511  -8.5255559
  54.9935239  50.6900504   3.4730881  54.2168573  51.2494424   3.4633746
  55.6325802  51.1757287   3.9945752  62.7856019  47.4727296  -2.6926142
  62.1430400  47.7659830  -3.3386347  62.2810948  47.3580217  -1.8872945
  53.2481611  53.4985957   3.0348848  53.9896295  54.0371001   2.7583672
  52.5418597  54.1252246   3.1920400  58.7236951  55.6415097   1.6321010
  59.1320307  55.1997508   0.8875642  58.0014212  55.0667725   1.8855203
  55.0768021  50.5787704  -0.9945433  55.9229216  51.0027118  -0.8510784
  55.0166658  49.9221328  -0.3006870  59.0465765  56.2016288  -4.6126701
  58.4174628  56.3662002  -5.3150633  58.6591427  56.6157898  -3.8415737
  62.9254997  57.1370726  -7.2582337  62.2406035  57.5169627  -7.8085304
  63.0098847  57.7466052  -6.5250390  58.2267466  48.2392072   0.6635741
  57.9828398  48.9934133   0.1270016  58.5027397  48.6177420   1.4982988
  60.1805929  54.7830685  -0.6586994  60.3922824  55.4262445  -1.3352613
  60.1335677  53.9493001  -1.1265064  51.4917808  55.4862178  -4.4096853
  52.0619165  55.9149446  -5.0479368  52.0825920  55.2044762  -3.7112667
  51.9842975  50.6525605   3.8364158  51.3541635  51.3341886   4.0699555
  51.8779063  50.5408687   2.8917297  61.2951757  57.6602640  -2.4864637
  62.1169201  57.2582828  -2.7681955  61.2914160  57.5570874  -1.5348521
  55.0608360  57.2086684  -0.3303926  55.1252793  57.6707091   0.5054246
  54.3519284  56.5784049  -0.2021616  69.3857750  54.0041389  -6.1379665
  68.6321458  53.4348787  -6.2935661  69.5205291  53.9704053  -5.1909030
  51.2623718  44.9546371   6.1989410  50.8690663  44.4012569   6.8737054
  52.0789858  45.2656949   6.5895927  50.0380660  59.5095985  -7.8074267
  50.2147288  60.4313950  -7.9953284  50.8337494  59.1954405  -7.3779888
  54.1791679  46.3704250   3.7909666  54.9201392  46.9711403   3.7114129
  54.4109601  45.6281888   3.2327709  49.3233017  51.5560617   2.0687896
  49.2086532  50.6545875   2.3694995  48.4677534  51.8024314   1.7172712
  56.4024854  59.4978358   3.6675396  55.9588709  58.7114736   3.3496301
  57.0642068  59.6857508   3.0019287  51.1611976  61.0274159  -1.8063925
  51.7119401  60.8991223  -2.5786931  50.3223451  61.3269048  -2.1569032
  58.5006092  59.7781158   1.6956798  58.4824568  60.5990039   1.2037067
  59.4226012  59.6535233   1.9206939  54.9579147  57.2925287   2.5380306
  55.4907483  56.5313575   2.3079614  54.4293228  56.9998939   3.2804461
  61.3024705  54.6160300  -4.8333836  60.6448380  55.3059561  -4.7453707
  62.1065104  55.0056732  -4.4899849  60.1130164  52.9704673  -6.7829894
  60.6262046  53.6034664  -6.2808184  60.7631388  52.3705868  -7.1486534
  56.5910995  50.4454128  -4.5371553  55.6733556  50.6669075  -4.6949865
  57.0071139  50.5200439  -5.3959846  60.8791960  57.9510674  -8.6550751
  60.4254287  57.1101584  -8.5985561  60.2485927  58.5872072  -8.3175971
  59.3224900  59.7887171  -7.7200933  59.6147874  60.3492228  -8.4388567
  59.8323520  60.0815732  -6.9647774  54.2858525  60.5667522  -6.6307480
  54.2434704  60.7928368  -7.5598948  55.2021224  60.3330896  -6.4821679
  57.7324159  51.0351589   0.2673149  58.0873546  51.2623063   1.1267615
  58.3796290  51.3669966  -0.3549595  63.4621895  54.1570025  -9.0277522
  63.3239794  54.3471621  -9.9556332  63.1058114  54.9189408  -8.5709471
  63.4891275  56.2246552  -4.0166250  63.9227782  56.1321841  -3.1683196
  64.2022856  56.2004053  -4.6546234  57.2219170  59.8248646  -2.4833150
  57.2756192  60.3939583  -1.7155434  56.3533951  59.9950531  -2.8479112
  50.1017563  49.5266203  -1.0008698  50.7740617  49.3183565  -1.6496049
  49.2747350  49.3288289  -1.4403466  64.3506825  56.2670253  -1.4833365
  64.5442715  57.1716063  -1.2374090  64.2507443  55.8077672  -0.6494780
  56.0043135  46.1528144   1.0156963  55.3571050  46.8518093   0.9221439
  56.7744151  46.5864287   1.3833211  59.4121933  56.4176996   4.0907516
  59.2607440  56.1887547   3.1737600  59.4026613  57.3747597   4.1038861
  56.1807270  53.9908908  -0.9246218  57.1099330  54.1420068  -1.0977250
  55.7598300  54.0792929  -1.7797571  54.9795601  58.0159573  -3.1547680
  54.8406687  57.6478357  -2.2821742  54.1910198  58.5307212  -3.3263722
  55.5743753  63.1168669 -11.8122144  55.7495509  62.6456713 -10.9976521
  54.8876541  63.7434436 -11.5840883  56.5300817  57.3941176  -5.7658842
  56.1950649  57.3541946  -4.8701192  56.0304762  56.7285891  -6.2388432
  50.5045061  52.8008806  -0.2406261  50.3664859  52.0689044   0.3605278
  51.4149984  52.7117706  -0.5222073  53.1327361  52.5128765  -0.7522582
  53.8426980  51.8721957  -0.7935963  53.0896669  52.7641660   0.1703599
  61.1214140  59.4496118   2.1683998  61.0626686  58.7655338   1.5014581
  61.5233658  60.1915108   1.7164624  51.8456295  49.4993983   1.0673058
  51.3093652  49.0484721   1.7194654  51.2573004  49.6339892   0.3243522
  50.1404839  66.2658032  -5.0382283  50.3801437  66.8976556  -4.3603265
  49.2974035  65.9146072  -4.7516924  61.1231547  57.4135702   0.3997977
  60.2358326  57.0761624   0.5224376  61.6930098  56.6818733   0.6366743
  54.6532701  62.0737155  -2.6340779  54.5802872  62.8792126  -2.1221475
  54.2110094  62.2729120  -3.4592758  54.4422480  61.3108925  -9.1237958
  53.6590002  61.8530605  -9.0299733  55.1415225  61.8282904  -8.7243717
  65.6048888  52.8243920  -4.8385461  65.5938764  53.7068635  -5.2091528
  64.7366267  52.4715470  -5.0330924  57.1131384  61.9723989  -0.4782621
  57.8259356  62.6071453  -0.5506719  56.6221413  62.0687855  -1.2942619
  52.1643298  59.7218432   0.3422950  52.8652757  60.3554915   0.4952344
  51.6938413  60.0633164  -0.4181411  59.9644584  52.2763040  -1.8324500
  59.3116034  52.5238947  -2.4872047  60.3424964  51.4627178  -2.1662022
  56.9251758  62.3122733  -7.7296329  57.1074152  61.4944389  -7.2668577
  57.7484744  62.5290425  -8.1671439  57.2593923  61.2390918 -10.4681281
  57.7881689  60.7283372 -11.0811119  57.5222143  60.9233448  -9.6035748
  56.0132157  53.0182851   4.6541538  55.3372794  52.9176980   5.3243913
  56.8359791  52.8622064   5.1177535  47.7611016  59.2554787  -2.7245947
  48.3464453  58.5098475  -2.5918043  47.5635854  59.5658744  -1.8409283
  50.6149671  62.2906034  -7.7083505  49.9460046  62.7752162  -8.1919465
  50.4762541  62.5375255  -6.7940126  54.7554940  64.3249778  -1.1100847
  55.3073248  64.4881400  -0.3451761  55.0961133  64.9154216  -1.7820822
  49.2071705  48.7448060   3.1394072  49.8343744  48.3625138   3.7531597
  48.3499624  48.5262262   3.5049765  59.6065814  59.1511036   4.7447808
  60.1505718  59.7640994   4.2502763  59.0252659  59.7090614   5.2614821
  57.8923327  62.2731754  -4.1237164  57.7674466  61.4721493  -4.6326219
  58.5502418  62.7677947  -4.6123194  59.9558235  60.0740774  -2.4957614
  59.0088571  59.9546125  -2.5679288  60.3041008  59.1863272  -2.4131353
  52.3157809  45.9634913   1.3280628  52.8392210  46.2097209   2.0906937
  52.0970142  46.7954947   0.9083765  56.9604669  59.8693490  -6.2953262
  56.8129631  58.9410197  -6.1145692  57.7858162  59.8913581  -6.7796187
  60.5638790  60.6922049  -5.2088389  61.4885338  60.4864910  -5.3463938
  60.3954094  60.4438450  -4.2999048  53.5210354  46.9048608  -0.9869702
  53.1807174  46.1056421  -0.5849022  52.8149360  47.2050318  -1.5592869
  55.4087918  48.1056929  -2.6316383  55.1505696  49.0274000  -2.6332053
  54.8772958  47.7087363  -1.9415919  60.3534107  61.2107716  -9.8526298
  60.5270984  60.6454139 -10.6052445  60.8462998  62.0108611 -10.0346808
  46.1711066  53.2222385  -1.7862739  45.6264534  53.9982193  -1.6542465
  47.0490416  53.5693190  -1.9443618  66.2073498  53.9744139  -8.2335998
  66.6504644  53.2251464  -8.6316875  65.3300008  53.9654275  -8.6162266
  61.3409279  60.5274480 -12.7529400  62.0360184  61.1481173 -12.5342085
  61.6832429  59.6769832 -12.4777022  46.9577088  52.3492281   1.1067418
  46.2158824  52.4974917   1.6932048  46.6369832  52.6100547   0.2434167
  63.2400702  57.9774186 -11.2242069  63.7652026  58.3161459 -11.9492749
  63.1523055  57.0421201 -11.4078934  54.9020751  61.8908260   0.9047808
  55.2107877  61.6457406   1.7770507  55.6996233  62.0954898   0.4166678
  54.9241363  64.0446169  -6.8646816  54.4846353  63.5522548  -6.1713959
  55.6749480  63.5019137  -7.1054740  47.4033702  60.2357710  -6.8622188
  48.2291722  59.9361482  -7.2423544  47.0527754  59.4665333  -6.4132399
  52.3715235  59.5884178  -4.7924514  51.7495244  58.9254883  -5.0922286
  53.0420102  59.6145310  -5.4750866  52.4439763  48.0665966   4.8007992
  52.4927918  48.9428089   4.4185762  52.9862277  47.5243359   4.2279635
  62.9294608  58.6107090   4.0809129  62.1390152  58.5931228   3.5413629
  62.6927963  59.1495383   4.8358166  63.0492483  55.4599556   1.3941858
  63.0990488  55.2949563   2.3357380  62.9406407  54.5926815   1.0039738
  60.3396246  51.4430484   2.7101164  61.2406108  51.3036949   2.4185162
  60.4144220  51.6084939   3.6499342  54.6739051  48.8197339   1.5554351
  53.8042360  49.1130905   1.2836939  54.9098531  49.4037784   2.2761614
  64.5510680  57.8796497   1.6383879  64.2595488  58.2426478   2.4747340
  63.9382811  57.1663506   1.4597211  65.7506362  55.4449377  -5.8413551
  66.5853254  55.8839181  -5.6775990  65.8865491  54.9688030  -6.6605305
  62.7997868  53.0029112   0.1063937  63.2751990  53.1956758  -0.7017211
  61.8763434  53.0588298  -0.1392679  57.3778085  45.0376956  -0.9280229
  57.8960029  45.7737983  -1.2533740  57.0233218  45.3440949  -0.0933470
  61.4999537  49.8794872  -1.6607757  62.4516960  49.9792970  -1.6395533
  61.3302988  49.0873141  -1.1509673  59.5213917  46.9650455  -1.4748356
  58.9263849  47.2455468  -2.1701868  59.2363614  47.4544356  -0.7031615
  63.9787615  53.1000992  -2.5465458  63.9463935  52.1616993  -2.3605774
  64.5888239  53.1785029  -3.2799633  64.1282104  49.8912035  -2.5007174
  63.6121152  49.1070492  -2.6877245  65.0122052  49.5630752  -2.3360655
  69.7964165  54.1616999  -3.4059421  70.5267553  53.9002287  -2.8451717
  69.1871110  53.4245721  -3.3657353  67.8779462  52.3024861  -2.8084970
  67.1512626  52.1680826  -3.4168478  67.4626749  52.6101690  -2.0028251
  55.7009639  56.0214791   4.9562404  56.6212648  56.1993390   5.1502450
  55.6659222  55.0770836   4.8042103  48.6971711  53.9315826  -2.4014815
  48.9157721  54.8632933  -2.3826782  49.1097485  53.5723800  -1.6160011
  53.5699576  49.5049031   6.9887934  53.4696303  50.4543388   6.9200025
  53.3521118  49.1767270   6.1164004  53.4330846  52.9346170   5.8052995
  52.9497928  53.7346530   6.0116884  53.5191785  52.9454115   4.8520439
  49.3604184  56.8250705  -2.1578571  50.3147437  56.7934647  -2.2248639
  49.1616708  56.3641329  -1.3428345  49.9503566  55.3951821   0.4092227
  50.7696455  55.8895900   0.4327064  50.2240374  54.4783789   0.3809794
  65.4957257  48.5236714  -5.4551538  66.0901748  48.2832449  -6.1658230
  65.5683841  47.8043844  -4.8278002  47.7154413  62.3670324  -5.1408373
  47.5808881  61.6070725  -5.7070375  47.2986475  63.0911224  -5.6079584
  67.8028330  51.8302914  -6.6808117  67.2427888  51.8996104  -5.9076555
  67.1971833  51.6543899  -7.4008620  50.8723539  63.2639641  -4.9289930
  50.7555923  64.2085074  -5.0311240  50.0515985  62.9613203  -4.5404131
  45.2038480  49.7289955   1.1084424  45.8497344  49.2188909   1.5971649
  44.9955631  50.4658637   1.6827849  57.7291872  56.7970802   6.6076564
  58.5983032  56.9711455   6.2463199  57.2498624  57.6165219   6.4852294
  51.8978053  63.9167903  -1.7134002  52.8005299  63.9491514  -1.3967507
  51.6715423  62.9868354  -1.6987666  53.6531655  62.6698890  -5.0523923
  52.7027286  62.6700752  -5.1659551  53.9564141  61.9231624  -5.5687889
  49.5435971  46.8757572   5.2059438  50.4067433  46.5194377   5.4162763
  48.9701382  46.5371467   5.8934842  69.3884348  68.5059428  -3.9878161
  70.0262758  68.3866176  -4.6914821  69.2705191  69.4540272  -3.9290209
  66.1974055  68.4586856  -4.0516636  65.8592566  68.3427921  -4.9396101
  67.0663823  68.0578021  -4.0715630  66.6793838  69.6121708   1.9069569
  66.6682478  69.2174506   1.0350073  66.8414477  68.8787781   2.5003341
  59.6025302  71.8073524  -5.2235525  60.3946594  71.4664349  -5.6389226
  59.8421952  71.9168499  -4.3033372  63.4001099  72.3958820   0.8548753
  63.1090965  73.3004451   0.7395420  64.0358083  72.4375348   1.5692823
  64.3257305  69.7735668  -2.5549887  64.9220878  69.5491691  -3.2692924
  64.3832277  69.0320414  -1.9524439  71.8659464  59.8807689  -1.5497366
  71.5342789  60.7503100  -1.7736151  71.2705078  59.5643973  -0.8703335
  68.3590984  72.0820235  -2.1501453  68.0591707  72.9845274  -2.2585646
  68.0142043  71.8152419  -1.2980300  61.8103465  68.5334032  -6.1164749
  60.8853962  68.4010246  -5.9087057  62.0587878  69.3128252  -5.6194806
  71.7588128  64.6002776  -4.4704016  70.8505005  64.5318184  -4.7645255
  71.7075723  65.0774721  -3.6422190  59.1712276  68.1767306  -5.2820960
  59.3004657  68.4301785  -4.3681548  58.4909728  68.7695014  -5.6016305
  65.8328993  66.0192421   3.4730881  65.0562327  66.5786341   3.4633746
  66.4719556  66.5049204   3.9945752  73.6249774  62.8019214  -2.6926142
  72.9824154  63.0951747  -3.3386347  73.1204702  62.6872134  -1.8872945
  64.0875366  68.8277875   3.0348848  64.8290050  69.3662919   2.7583672
  63.3812351  69.4544163   3.1920400  69.5630705  70.9707015   1.6321010
  69.9714061  70.5289426   0.8875642  68.8407967  70.3959643   1.8855203
  65.9161775  65.9079622  -0.9945433  66.7622970  66.3319035  -0.8510784
  65.8560413  65.2513246  -0.3006870  69.0661221  63.5683990   0.6635741
  68.8222152  64.3226051   0.1270016  69.3421151  63.9469338   1.4982988
  71.0199683  70.1122603  -0.6586994  71.2316579  70.7554362  -1.3352613
  70.9729432  69.2784919  -1.1265064  68.6225912  62.7240423  -3.7550422
  67.7610391  63.0221677  -3.4633684  68.6488347  62.9410822  -4.6869389
  62.3311563  70.8154095  -4.4096853  62.9012920  71.2441364  -5.0479368
  62.9219675  70.5336680  -3.7112667  62.8236729  65.9817523   3.8364158
  62.1935390  66.6633804   4.0699555  62.7172817  65.8700604   2.8917297
  58.1181702  65.6489319  -5.2369917  57.3280756  65.9046847  -5.7129807
  58.6092949  66.4637657  -5.1317877  60.0696447  66.0133898  -8.2786441
  59.2727610  66.1252592  -7.7602945  59.8422039  66.3520550  -9.1445550
  65.9002115  72.5378601  -0.3303926  65.9646547  72.9999008   0.5054246
  65.1913039  71.9075966  -0.2021616  56.4019405  65.9019809  -2.8054927
  56.6527443  66.7866819  -2.5397351  56.9378953  65.7224411  -3.5779835
  62.1017472  60.2838289   6.1989410  61.7084418  59.7304487   6.8737054
  62.9183612  60.5948867   6.5895927  65.0185433  61.6996168   3.7909666
  65.7595146  62.3003321   3.7114129  65.2503356  60.9573805   3.2327709
  60.1626771  66.8852535   2.0687896  60.0480286  65.9837792   2.3694995
  59.3071289  67.1316232   1.7172712  67.2418609  74.8270275   3.6675396
  66.7982463  74.0406654   3.3496301  67.9035822  75.0149426   3.0019287
  62.0005730  76.3566077  -1.8063925  62.5513155  76.2283140  -2.5786931
  61.1617206  76.6560966  -2.1569032  69.3399847  75.1073075   1.6956798
  69.3218322  75.9281956   1.2037067  70.2619767  74.9827150   1.9206939
  65.7972901  72.6217205   2.5380306  66.3301238  71.8605493   2.3079614
  65.2686982  72.3290856   3.2804461  68.9642596  57.7277271  -1.9326052
  68.6206865  58.6178912  -2.0086942  69.3321559  57.5378928  -2.7956467
  66.5139990  62.5635583  -8.3668379  65.6581586  62.1742433  -8.5462740
  66.9266942  62.6427543  -9.2268593  68.0439136  60.0981926  -3.9676819
  67.5403932  60.0612061  -4.7809014  68.3369743  61.0074669  -3.9080162
  64.2882022  60.1820656  -4.9610637  65.1535019  59.9863464  -5.3204748
  64.3559531  59.9531007  -4.0341280  61.8944341  62.4122863  -7.5894270
  62.4688093  62.1898045  -8.3221077  62.4815324  62.4811558  -6.8365669
  64.1967009  59.2864112  -8.8619201  63.5431421  58.9713130  -9.4862586
  64.1547483  58.6639853  -8.1359378  67.4304749  65.7746046  -4.5371553
  66.5127311  65.9960993  -4.6949865  67.8464893  65.8492356  -5.3959846
  70.7630262  56.9870830  -6.8308315  71.0689138  56.1268193  -7.1182399
  71.4882866  57.5788450  -7.0309321  57.0554618  67.3901516  -8.4426717
  56.8579018  66.7970877  -9.1675650  56.5001282  67.0853727  -7.7250778
  65.0351341  67.2824623  -6.3232123  65.0899951  66.3298459  -6.3989647
  64.2242543  67.4384062  -5.8390825  62.9743701  65.9001683  -8.5641745
  62.1611567  66.1995853  -8.1576552  63.4702696  65.5057371  -7.8467262
  68.5717913  66.3643507   0.2673149  68.9267301  66.5914980   1.1267615
  69.2190044  66.6961884  -0.3549595  62.4657776  63.4720038  -2.9480510
  63.1057155  63.3308797  -3.6457546  61.6335307  63.1854552  -3.3241908
  59.4686393  63.4420363  -8.1707523  59.7293210  64.3565696  -8.2798362
  60.2903565  62.9744806  -8.0210910  60.9411318  64.8558120  -1.0008698
  61.6134371  64.6475482  -1.6496049  60.1141104  64.6580206  -1.4403466
  66.8436890  61.4820061   1.0156963  66.1964805  62.1810011   0.9221439
  67.6137905  61.9156205   1.3833211  70.2515688  71.7468913   4.0907516
  70.1001194  71.5179465   3.1737600  70.2420367  72.7039515   4.1038861
  67.0201024  69.3200826  -0.9246218  67.9493084  69.4711986  -1.0977250
  66.5992054  69.4084847  -1.7797571  65.8189356  73.3451491  -3.1547680
  65.6800442  72.9770275  -2.2821742  65.0303952  73.8599130  -3.3263722
  61.3438815  68.1300723  -0.2406261  61.2058613  67.3980962   0.3605278
  62.2543739  68.0409623  -0.5222073  63.9721116  67.8420683  -0.7522582
  64.6820734  67.2013875  -0.7935963  63.9290424  68.0933577   0.1703599
  71.9607894  74.7788036   2.1683998  71.9020441  74.0947256   1.5014581
  72.3627413  75.5207026   1.7164624  62.6850050  64.8285900   1.0673058
  62.1487407  64.3776639   1.7194654  62.0966758  64.9631809   0.3243522
  71.9625302  72.7427620   0.3997977  71.0752080  72.4053542   0.5224376
  72.5323853  72.0110651   0.6366743  53.6154449  69.0751712  -6.2758971
  54.3025489  68.7613442  -6.8637956  53.4602578  69.9793076  -6.5491720
  58.4189171  63.9641908  -1.8473948  58.3347360  63.3567578  -2.5823538
  57.5971877  64.4550927  -1.8464451  68.5912885  62.4495472  -6.4803752
  69.0881584  61.6965434  -6.8002682  67.8199866  62.4859788  -7.0460543
  65.1747854  64.5912855  -6.7532068  64.8045641  64.0383895  -6.0651162
  65.6706946  63.9870988  -7.3057068  63.0037052  75.0510350   0.3422950
  63.7046512  75.6846833   0.4952344  62.5332167  75.3925081  -0.4181411
  71.0331880  59.4165065  -4.3324394  70.1194959  59.6469292  -4.1642187
  71.4624981  59.5003509  -3.4810361  70.8038338  67.6054957  -1.8324500
  70.1509788  67.8530865  -2.4872047  71.1818718  66.7919095  -2.1662022
  66.8525911  68.3474768   4.6541538  66.1766548  68.2468898   5.3243913
  67.6753545  68.1913982   5.1177535  58.6004770  74.5846705  -2.7245947
  59.1858207  73.8390393  -2.5918043  58.4029609  74.8950661  -1.8409283
  53.1922425  67.1552305  -4.0041504  53.2306524  66.6215896  -3.2104386
  52.6862718  66.6287510  -4.6230527  60.5713187  62.0016845  -0.5078962
  60.6354514  62.8631676  -0.9201564  60.5080307  61.3890847  -1.2406603
  60.0465460  64.0739978   3.1394072  60.6737499  63.6917055   3.7531597
  59.1893379  63.8554180   3.5049765  70.4459568  74.4802953   4.7447808
  70.9899472  75.0932911   4.2502763  69.8646413  75.0382532   5.2614821
  56.8231003  65.8816407 -10.9287573  57.1184444  64.9727086 -10.9820519
  55.9219038  65.8604147 -11.2506570  60.3525250  63.9572404  -4.9460024
  59.6311835  64.5708371  -5.0852551  61.1418505  64.4930169  -5.0243378
  63.1551563  61.2926830   1.3280628  63.6785965  61.5389127   2.0906937
  62.9363896  62.1246865   0.9083765  58.5518844  63.5630505 -10.8048248
  58.2231550  62.6827884 -10.9873142  58.9058215  63.5078173  -9.9171858
  64.3604108  62.2340525  -0.9869702  64.0200928  61.4348338  -0.5849022
  63.6543114  62.5342236  -1.5592869  65.0120580  59.3189838  -2.5342379
  65.8346649  58.8450316  -2.6563488  65.2558643  60.0980322  -2.0343693
  62.5359159  66.0108958  -4.7250400  62.3903739  66.3249261  -3.8326119
  62.0584362  66.6293859  -5.2779502  64.3955542  63.0011506  -4.6769511
  64.3817110  62.1052600  -5.0137213  65.1127970  63.0082170  -4.0431225
  66.2481672  63.4348847  -2.6316383  65.9899450  64.3565917  -2.6332053
  65.7166713  63.0379281  -1.9415919  57.0104821  68.5514303  -1.7862739
  56.4658289  69.3274111  -1.6542465  57.8884171  68.8985107  -1.9443618
  63.7992437  61.8825887  -9.4081941  63.9208349  60.9542533  -9.2091053
  63.5094480  61.8964573 -10.3203625  66.6683628  59.5680797  -6.2715221
  66.6905325  59.6320130  -7.2263241  67.0851687  58.7285306  -6.0774715
  57.7970843  67.6784199   1.1067418  57.0552579  67.8266834   1.6932048
  57.4763587  67.9392465   0.2434167  65.7414505  77.2200177   0.9047808
  66.0501632  76.9749324   1.7770507  66.5389987  77.4246816   0.4166678
  56.4436061  73.4835954  -5.9033254  55.6067970  73.0558129  -6.0849253
  56.4159707  73.6768398  -4.9662463  63.2833517  63.3957884   4.8007992
  63.3321673  64.2720007   4.4185762  63.8256031  62.8535277   4.2279635
  73.7688363  73.9399007   4.0809129  72.9783906  73.9223146   3.5413629
  73.5321717  74.4787301   4.8358166  73.8886238  70.7891474   1.3941858
  73.9384243  70.6241481   2.3357380  73.7800161  69.9218733   1.0039738
  71.1790000  66.7722402   2.7101164  72.0799863  66.6328867   2.4185162
  71.2537975  66.9376857   3.6499342  65.5132805  64.1489256   1.5554351
  64.6436115  64.4422822   1.2836939  65.7492286  64.7329701   2.2761614
  75.3904435  73.2088415   1.6383879  75.0989243  73.5718396   2.4747340
  74.7776566  72.4955423   1.4597211  73.6391623  68.3321030   0.1063937
  74.1145744  68.5248676  -0.7017211  72.7157188  68.3880216  -0.1392679
  68.2171839  60.3668873  -0.9280229  68.7353783  61.1029900  -1.2533740
  67.8626972  60.6732867  -0.0933470  68.4684433  56.7869156  -5.4079332
  68.7486187  56.1192345  -4.7818906  69.2535040  56.9798251  -5.9204668
  72.3393292  65.2086790  -1.6607757  73.2910715  65.3084888  -1.6395533
  72.1696742  64.4165058  -1.1509673  70.3607671  62.2942373  -1.4748356
  69.7657603  62.5747386  -2.1701868  70.0757368  62.7836274  -0.7031615
  74.9675858  65.2203953  -2.5007174  74.4514907  64.4362410  -2.6877245
  75.8515807  64.8922670  -2.3360655  72.6286585  58.9644969  -6.5411362
  72.4311406  58.6560057  -5.6568030  73.2386291  59.6906607  -6.4113432
  66.5403393  71.3506709   4.9562404  67.4606402  71.5285308   5.1502450
  66.5052976  70.4062754   4.8042103  55.7585558  66.5445302  -6.1184322
  55.4388342  65.6910611  -6.4109948  55.2118986  66.7593880  -5.3626355
  59.5365466  69.2607743  -2.4014815  59.7551475  70.1924851  -2.3826782
  59.9491239  68.9015718  -1.6160011  66.4569683  59.7675829 -10.4139127
  65.6470412  59.4222914 -10.0383881  67.1454100  59.4583372  -9.8251515
  68.3860232  58.8453875  -8.7914830  68.9391270  59.2649329  -8.1324807
  68.6230318  57.9189624  -8.7491874  64.4093331  64.8340949   6.9887934
  64.3090058  65.7835306   6.9200025  64.1914873  64.5059188   6.1164004
  55.6273818  70.1648214  -4.1491200  54.9337289  69.7502167  -4.6621246
  56.3746809  70.2068750  -4.7457781  70.2142605  60.3559458  -7.0814846
  70.7142383  60.4675993  -7.8900527  70.8578213  60.0520511  -6.4414037
  64.2724601  68.2638088   5.8052995  63.7891683  69.0638448   6.0116884
  64.3585540  68.2746033   4.8520439  57.5410561  70.0966468  -6.2725185
  57.5181249  70.1954155  -7.2243302  57.8511197  70.9431618  -5.9508019
  60.1997938  72.1542623  -2.1578571  61.1541192  72.1226565  -2.2248639
  60.0010462  71.6933246  -1.3428345  60.7897321  70.7243739   0.4092227
  61.6090210  71.2187817   0.4327064  61.0634128  69.8075707   0.3809794
  56.0432235  65.0581873   1.1084424  56.6891098  64.5480827   1.5971649
  55.8349386  65.7950554   1.6827849  68.5685627  72.1262720   6.6076564
  69.4376787  72.3003372   6.2463199  68.0892378  72.9457137   6.4852294
  62.7371807  79.2459821  -1.7134002  63.6399054  79.2783431  -1.3967507
  62.5109177  78.3160272  -1.6987666  68.3787965  55.9164694  -8.8845743
  67.6120361  55.3623181  -8.7389061  68.7898670  55.9886563  -8.0231592
  60.3829726  62.2049490   5.2059438  61.2461187  61.8486294   5.4162763
  59.8095136  61.8663384   5.8934842  72.9411227  75.6130206   6.1989410
  72.5478172  75.0596405   6.8737054  73.7577367  75.9240785   6.5895927
  75.8579188  77.0288085   3.7909666  76.5988901  77.6295238   3.7114129
  76.0897110  76.2865723   3.2327709  70.8859214  79.4031896   3.1394072
  71.5131253  79.0208973   3.7531597  70.0287133  79.1846098   3.5049765
  74.1227272  78.7249802   4.8007992  74.1715427  79.6011924   4.4185762
  74.6649786  78.1827195   4.2279635  75.2487085  80.1632867   6.9887934
  75.1483812  81.1127224   6.9200025  75.0308627  79.8351106   6.1164004
  66.8825989  80.3873790   1.1084424  67.5284853  79.8772744   1.5971649
  66.6743140  81.1242472   1.6827849  71.2223480  77.5341407   5.2059438
  72.0854942  77.1778212   5.4162763  70.6488891  77.1955302   5.8934842
  71.9607896  51.7850159 -11.1070696  71.9020442  51.1009379 -11.7740113
  72.3627414  52.5269149 -11.5590070  70.4459570  51.4865076  -8.5306885
  70.9899474  52.0995034  -9.0251931  69.8646414  52.0444654  -8.0139872
  73.7688364  50.9461130  -9.1945564  72.9783908  50.9285269  -9.7341065
  73.5321719  51.4849424  -8.4396528  75.3904436  50.2150538 -11.6370814
  75.0989244  50.5780518 -10.8007353  74.7776567  49.5017546 -11.8157482
  68.5685628  49.1324843  -6.6678129  69.4376788  49.3065495  -7.0291494
  68.0892380  49.9519259  -6.7902400  72.9411228  52.6192329  -7.0765284
  72.5478173  52.0658527  -6.4017640  73.7577368  52.9302907  -6.6858766
  75.8579189  54.0350208  -9.4845027  76.5988902  54.6357361  -9.5640565
  76.0897112  53.2927846 -10.0426985  70.8859216  56.4094018 -10.1360621
  71.5131254  56.0271096  -9.5223097  70.0287134  56.1908220  -9.7704928
  74.1227273  55.7311924  -8.4746701  74.1715428  56.6074047  -8.8568932
  74.6649787  55.1889317  -9.0475058  75.2487087  57.1694989  -6.2866760
  75.1483814  58.1189346  -6.3554669  75.0308629  56.8413228  -7.1590690
  66.8825991  57.3935913 -12.1670270  67.5284854  56.8834867 -11.6783044
  66.6743142  58.1304594 -11.5926844  71.2223482  54.5403530  -8.0695255
  72.0854943  54.1840335  -7.8591931  70.6488892  54.2017425  -7.3819851
   4.3495218  99.9917145  46.9639105   3.5958926  99.4224543  46.8083110
   4.4842759  99.9579810  47.9109740   0.7143830 101.4325134  47.2605220
   1.5490722 101.8714938  47.4242780   0.8502959 100.9563787  46.4413466
   4.7601633 100.1492755  49.6959350   5.4905021  99.8878043  50.2567053
   4.1508578  99.4121477  49.7361418   2.8416930  98.2900618  50.2933801
   2.1150094  98.1556583  49.6850292   2.4264217  98.5977447  51.0990519
   0.4594725  94.5112470  47.6467232   1.0539216  94.2708206  46.9360541
   0.5321309  93.7919601  48.2740769   2.7665798  97.8178671  46.4210654
   2.2065356  97.8871860  47.1942216   2.1609301  97.6419656  45.7010150
   3.9280064 103.7153027  51.1692718   3.5844333 104.6054669  51.0931829
   4.2959027 103.5254685  50.3062303   5.7267730 102.9746586  46.2710456
   6.0326606 102.1143950  45.9836371   6.4520335 103.5664207  46.0709450
   3.4321902 102.7744912  47.6939438   3.7123655 102.1068102  48.3199865
   4.2172508 102.9674008  47.1814102   7.5924053 104.9520725  46.5607409
   7.3948874 104.6435813  47.4450741   8.2023759 105.6782364  46.6905339
   3.3425433 101.9040450  44.2173027   2.5757829 101.3498937  44.3629709
   3.7536138 101.9762319  45.0787179   4.3495219  76.9979268  33.6884412
   3.5958928  76.4286666  33.5328416   4.4842760  76.9641932  34.6355047
   0.7143832  78.4387256  33.9850526   1.5490723  78.8777061  34.1488087
   0.8502960  77.9625910  33.1658772   4.7601634  77.1554878  36.4204656
   5.4905023  76.8940166  36.9812360   4.1508580  76.4183600  36.4606724
   2.8416931  75.2962740  37.0179107   2.1150095  75.1618705  36.4095599
   2.4264218  75.6039569  37.8235826   0.4594726  71.5174593  34.3712539
   1.0539217  71.2770329  33.6605847   0.5321310  70.7981723  34.9986075
   2.7665799  74.8240794  33.1455960   2.2065357  74.8933983  33.9187522
   2.1609302  74.6481778  32.4255457   4.3521818  91.4997307  35.8385916
   4.9900227  91.3804055  35.1349256   4.2342660  92.4478151  35.8973868
   1.1611524  91.4524736  35.7747441   0.8230035  91.3365800  34.8867976
   2.0301292  91.0515901  35.7548447   1.6431307  92.6059587  41.7333646
   1.6319948  92.2112386  40.8614150   1.8051946  91.8725660  42.3267418
   3.9063086  89.2248761  32.9139124   4.6926175  88.8068184  32.5629541
   4.1701790  90.1294854  33.0820772   9.3071513  89.1623995  33.8172103
  10.0396685  88.5923211  34.0509932   8.5510869  88.7745595  34.2578608
   0.9247633  91.5851236  31.0135445   0.5605840  91.0581857  31.7248366
   1.7814749  91.1949705  30.8401930   6.8296933  82.8745569  38.2766711
   6.4980258  83.7440980  38.0527926   6.2342547  82.5581853  38.9560742
   3.3228453  95.0758115  37.6762624   3.0229176  95.9783153  37.5678431
   2.9779513  94.8090298  38.5283777   6.7225597  87.5940655  35.3560061
   5.8142474  87.5256063  35.0618822   6.6713193  88.0712600  36.1841887
   8.5887243  85.7957093  37.1337935   7.9461623  86.0889626  36.4877730
   8.0842172  85.6810014  37.9391132   6.2427407  89.5420266  27.8223794
   7.1545263  89.7747653  27.6471492   5.7337054  90.1257311  27.2598873
   4.5268175  93.9644894  41.4585087   4.9351531  93.5227305  40.7139719
   3.8045436  93.3897522  41.7119280   0.8799245  88.9017501  38.8318644
   1.7260440  89.3256915  38.9753293   0.8197882  88.2451125  39.5257207
   4.8496989  94.5246085  35.2137376   4.2205852  94.6891799  34.5113444
   4.4622651  94.9387694  35.9848340   8.7286221  95.4600523  32.5681740
   8.0437259  95.8399424  32.0178773   8.8130070  96.0695849  33.3013687
   4.0298690  86.5621869  40.4899818   3.7859622  87.3163930  39.9534093
   4.3058620  86.9407217  41.3247065   5.9837153  93.1060482  39.1677083
   6.1954048  93.7492242  38.4911464   5.9366901  92.2722798  38.6999013
   3.5863382  85.7178302  36.0713655   2.7247861  86.0159556  36.3630393
   3.6125816  85.9348701  35.1394688   7.0982981  95.9832437  37.3399440
   7.9200424  95.5812624  37.0582122   7.0945383  95.8800671  38.2915556
  15.1888974  92.3271186  33.6884412  14.4352682  91.7578584  33.5328416
  15.3236515  92.2933850  34.6355047   2.2056078  97.8208154  43.4939473
   1.7619932  97.0344533  43.1760378   2.8673292  98.0087305  42.8283364
   4.3037316  98.1010954  41.5220875   4.2855792  98.9219835  41.0301144
   5.2257236  97.9765030  41.7471016   3.9280065  80.7215150  37.8938025
   3.5844335  81.6116791  37.8177135   4.2959028  80.5316807  37.0307610
   1.4777459  85.5573462  31.4595698   0.6219055  85.1680312  31.2801337
   1.8904411  85.6365422  30.5995484   3.0076606  83.0919805  35.8587258
   2.5041401  83.0549940  35.0455063   3.3007213  84.0012548  35.9183915
   8.8664622  93.4656116  28.3363633   8.0894065  93.1267275  27.8918795
   9.5456103  93.4708739  27.6618598   3.6816651  88.5850853  28.2270241
   3.3766787  88.8997002  29.0780384   4.6347093  88.6632273  28.2697574
   7.1055929  92.9390097  34.9930241   6.4479603  93.6289358  35.0810370
   7.9096328  93.3286529  35.3364228   5.9161388  91.2934470  33.0434183
   6.4293270  91.9264461  33.5455893   6.5662612  90.6935665  32.6777543
   2.3942219  88.7683925  35.2892524   1.4764780  88.9898872  35.1314212
   2.8102362  88.8430236  34.4304231   3.1777266  90.1675341  30.4195204
   3.9249085  90.6796738  30.1102326   3.4468856  89.8459393  31.2799597
   6.6823184  96.2740471  31.1713326   6.2285511  95.4331381  31.2278516
   6.0517151  96.9101869  31.5088106   5.6256104  87.2032457  32.4013993
   4.8878860  86.6909843  32.7324236   5.8782877  86.7632839  31.5897270
   5.1256123  98.1116968  32.1063144   5.4179098  98.6722025  31.3875510
   5.6354744  98.4045529  32.8616303   5.7267731  79.9808709  32.9955762
   6.0326608  79.1206072  32.7081678   6.4520336  80.5726329  32.7954756
   3.5355382  89.3581386  40.0937226   3.8904770  89.5852859  40.9531692
   4.1827514  89.6899763  39.4714482   9.2653119  92.4799822  30.7986555
   9.1271018  92.6701418  29.8707745   8.9089338  93.2419205  31.2554606
   9.2922499  94.5476349  35.8097827   9.7259006  94.4551638  36.6580881
  10.0054080  94.5233850  35.1717843   3.0250394  98.1478443  37.3430927
   3.0787416  98.7169380  38.1108643   2.1565175  98.3180328  36.9784965
  10.1538048  94.5900050  38.3430712  10.3473938  95.4945860  38.5889987
  10.0538667  94.1307469  39.1769297   1.8074359  84.4757940  40.8421040
   1.1602274  85.1747890  40.7485516   2.5775375  84.9094084  41.2097288
   5.2153157  94.7406793  43.9171593   5.0638663  94.5117344  43.0001677
   5.2057837  95.6977394  43.9302938   1.9838493  92.3138705  38.9017859
   2.9130553  92.4649865  38.7286827   1.5629523  92.4022726  38.0466506
   2.3332040  95.7170972  34.0605235   1.9981873  95.6771742  34.9562885
   1.8335986  95.0515688  33.5875645   6.9245364  97.7725915  41.9948075
   6.8657910  97.0885135  41.3278658   7.3264882  98.5144905  41.5428701
   6.9262771  95.7365499  40.2262054   6.0389550  95.3991421  40.3488453
   7.4961322  95.0048530  40.4630820   3.5550354  85.4433351  33.3460325
   4.0519054  84.6903313  33.0261395   2.7837336  85.4797668  32.7803534
  11.4080112  91.1473716  34.9878616  11.3969988  92.0298432  34.6172549
  10.5397491  90.7945267  34.7933153   2.9162608 100.2953785  39.3481456
   3.6290580 100.9301250  39.2757358   2.4252637 100.3917651  38.5321458
   4.6380135  94.2005038  30.9198748   3.7036414  94.3206501  30.7503452
   4.8156803  93.2977505  30.6558758   8.0252686  90.0422357  31.4548782
   8.4913138  90.8750349  31.3809085   8.4760187  89.5767339  32.1594041
   6.0928917  96.3866179  28.4534934   6.3688761  96.2722773  29.3628808
   5.2233416  95.9883664  28.4147107   5.9969349  82.4102944  35.4939683
   5.0832429  82.6407171  35.6621890   6.4262450  82.4941388  36.3453716
   5.7675807  90.5992836  37.9939577   5.1147258  90.8468744  37.3392030
   6.1456187  89.7856975  37.6602055   1.8163380  91.3412647  44.4805615
   1.1404017  91.2406777  45.1507990   2.6391014  91.1851861  44.9441612
   0.5586163 102.6479575  38.7163230   1.1104471 102.8111196  39.4812316
   0.8992357 103.2384013  38.0443255   5.4097038  97.4740832  44.5711885
   5.9536942  98.0870791  44.0766840   4.8283882  98.0320411  45.0878898
   3.6954551 100.5961550  35.7026913   3.5705690  99.7951290  35.1937858
   4.3533642 101.0907744  35.2140883   5.7589459  98.3970570  37.3306463
   4.8119795  98.2775922  37.2584789   6.1072232  97.5093069  37.4132724
   2.7635892  98.1923287  33.5310815   2.6160855  97.2639994  33.7118385
   3.5889386  98.2143377  33.0467890   6.3670014  99.0151845  34.6175688
   7.2916562  98.8094707  34.4800139   6.1985317  98.7668247  35.5265029
   2.7597407  86.0461124  28.5242932   2.9761021  86.9285762  28.2231760
   2.2791474  85.6547338  27.7948574   1.2119142  86.4286726  37.1947694
   0.9536919  87.3503796  37.1932024   0.6804182  86.0317160  37.8848158
   6.1565330  99.5337513  29.9737779   6.3302208  98.9683935  29.2211632
   6.6494222 100.3338408  29.7917269   1.6321097  82.5618676  33.5548856
   1.6542794  82.6258009  32.6000836   2.0489156  81.7223185  33.7489362
  12.0104721  92.2973936  31.5928079  12.4535868  91.5481261  31.1947202
  11.1331232  92.2884072  31.2101811   9.0431926  96.3003983  28.6022008
   9.5683250  96.6391256  27.8771328   8.9554278  95.3650998  28.4185143
   0.7051975 100.2138056  40.7311885   1.0139101  99.9687203  41.6034584
   1.5027457 100.4184695  40.2430755   8.7325832  96.9336886  43.9073206
   7.9421376  96.9161025  43.3677706   8.4959187  97.4725180  44.6622243
   8.8523707  93.7829353  41.2205935   8.9021712  93.6179360  42.1621458
   8.7437630  92.9156612  40.8303815   6.1427469  89.7660281  42.5365241
   7.0437332  89.6266746  42.2449239   6.2175444  89.9314736  43.4763419
  10.3541904  96.2026294  41.4647956  10.0626712  96.5656275  42.3011417
   9.7414035  95.4893303  41.2861288  11.5537586  93.7679174  33.9850526
  12.3884478  94.2068978  34.1488087  11.6896715  93.2917827  33.1658772
   8.6029092  91.3258909  39.9328014   9.0783214  91.5186555  39.1246866
   7.6794657  91.3818095  39.6871398   3.1809309  83.3606753  38.8983848
   3.6991252  84.0967779  38.5730337   2.8264441  83.6670746  39.7330607
   3.4321903  79.7807035  34.4184745   3.7123657  79.1130224  35.0445171
   4.2172510  79.9736131  33.9059409   7.3030761  88.2024669  38.1656320
   8.2548184  88.3022767  38.1868544   7.1334212  87.4102938  38.6754404
   5.3245141  85.2880252  38.3515721   4.7295073  85.5685265  37.6562209
   5.0394837  85.7774153  39.1232462   9.7818839  91.4230789  37.2798619
   9.7495159  90.4846789  37.4658303  10.3919463  91.5014825  36.5464444
   9.9313327  88.2141832  37.3256903   9.4152376  87.4300289  37.1386832
  10.8153276  87.8860549  37.4903422   7.5924054  81.9582848  33.2852715
   7.3948875  81.6497936  34.1696047   8.2023760  82.6844487  33.4150645
  15.5995389  92.4846796  36.4204656  16.3298777  92.2232084  36.9812360
  14.9902334  91.7475518  36.4606724  13.6810686  90.6254658  37.0179107
  12.9543849  90.4910623  36.4095599  13.2657973  90.9331487  37.8235826
   1.5040862  94.3444588  44.7826481   2.4243872  94.5223187  44.9766527
   1.4690445  93.4000633  44.6306180   1.4207153  82.7613708  29.4124950
   0.6107881  82.4160793  29.7880196   2.1091570  82.4521252  30.0012562
   3.3497701  81.8391755  31.0349247   3.9028740  82.2587208  31.6939270
   3.5867787  80.9127503  31.0772203   6.7276508  83.9492280  30.5427911
   6.1475177  84.6077084  30.1605963   6.4612441  83.1269624  30.1315328
   5.1780074  83.3497337  32.7449231   5.6779853  83.4613872  31.9363550
   5.8215682  83.0458390  33.3850040   5.5101386  86.1092370  29.5984259
   4.6227241  86.3942021  29.3804454   5.9255375  85.9486134  28.7511536
   8.8615922  86.1338891  33.3138598   9.6376312  86.6235344  33.5863215
   8.1364056  86.5596945  33.7710468  11.2988481  86.8466510  34.3712539
  11.8932972  86.6062246  33.6605847  11.3715064  86.1273641  34.9986075
   5.4842410  91.6246906  29.8134549   5.4277611  92.0815458  28.9742182
   6.0370752  90.8637591  29.6357392   9.2947216  87.4136638  30.6384669
   9.0384150  87.0133274  31.4692877   8.6700084  88.1280432  30.5134808
  13.6059554  90.1532711  33.1455960  13.0459112  90.2225901  33.9187522
  13.0003057  89.9773696  32.4255457   6.2177189  92.8151687  27.1087079
   6.1625993  92.6495959  26.1675523   5.5923244  93.5227720  27.2649268
   3.5323096  95.1200599  46.4340641   4.4014256  95.2941252  46.0727276
   3.0529848  95.9395016  46.3116371   3.3425434  78.9102573  30.9418334
   2.5757830  78.3561060  31.0875016   3.7536139  78.9824442  31.8032485
  15.1915572 106.8289225  35.8385916  15.8293982 106.7095973  35.1349256
  15.0736415 107.7770069  35.8973868  12.0005278 106.7816653  35.7747441
  11.6623790 106.6657718  34.8867976  12.8695046 106.3807818  35.7548447
  12.4825061 107.9351505  41.7333646  12.4713702 107.5404303  40.8614150
  12.6445701 107.2017578  42.3267418  14.7456840 104.5540679  32.9139124
  15.5319930 104.1360102  32.5629541  15.0095545 105.4586771  33.0820772
  20.1465268 104.4915912  33.8172103  20.8790440 103.9215129  34.0509932
  19.3904623 104.1037513  34.2578608  11.7641387 106.9143154  31.0135445
  11.3999595 106.3873775  31.7248366  12.6208503 106.5241623  30.8401930
  17.6690688  98.2037486  38.2766711  17.3374013  99.0732897  38.0527926
  17.0736301  97.8873770  38.9560742  17.5619351 102.9232572  35.3560061
  16.6536229 102.8547981  35.0618822  17.5106947 103.4004517  36.1841887
  11.6360217 104.3422218  43.2994958  10.8593551 104.9016138  43.2897823
  12.2750780 104.8279001  43.8209829  19.4280998 101.1249011  37.1337935
  18.7855378 101.4181544  36.4877730  18.9235926 101.0101931  37.9391132
  17.0821161 104.8712184  27.8223794  17.9939017 105.1039571  27.6471492
  16.5730808 105.4549228  27.2598873  11.7192999 104.2309419  38.8318644
  12.5654194 104.6548832  38.9753293  11.6591637 103.5743043  39.5257207
  14.8692444 101.8913787  40.4899818  14.6253376 102.6455848  39.9534093
  15.1452375 102.2699135  41.3247065  16.8230907 108.4352399  39.1677083
  17.0347802 109.0784159  38.4911464  16.7760655 107.6014716  38.6999013
  14.4257136 101.0470220  36.0713655  13.5641615 101.3451474  36.3630393
  14.4519571 101.2640619  35.1394688   8.6267953 104.3047320  43.6628235
   7.9966614 104.9863600  43.8963632   8.5204041 104.1930401  42.7181374
  26.0282728 107.6563103  33.6884412  25.2746437 107.0870501  33.5328416
  26.1630269 107.6225768  34.6355047   7.9048696  98.6068085  46.0253487
   7.5115641  98.0534284  46.7001131   8.7214836  98.9178664  46.4160004
  10.8216657 100.0225965  43.6173743  11.5626370 100.6233118  43.5378206
  11.0534580  99.2803602  43.0591786  14.7673820  96.0507067  37.8938025
  14.4238089  96.9408709  37.8177135  15.1352782  95.8608725  37.0307610
  12.3171214 100.8865379  31.4595698  11.4612810 100.4972230  31.2801337
  12.7298165 100.9657340  30.5995484  13.8470360  98.4211723  35.8587258
  13.3435156  98.3841858  35.0455063  14.1400967  99.3304465  35.9183915
  10.0913246  98.5050452  34.8653440  10.9566243  98.3093261  34.5059329
  10.1590755  98.2760804  35.7922797  19.7058377 108.7948033  28.3363633
  18.9287819 108.4559193  27.8918795  20.3849858 108.8000656  27.6618598
  14.5210406 103.9142771  28.2270241  14.2160541 104.2288920  29.0780384
  15.4740848 103.9924191  28.2697574  17.9449684 108.2682014  34.9930241
  17.2873358 108.9581276  35.0810370  18.7490083 108.6578446  35.3364228
   7.6975565 100.7352660  32.2369807   8.2719317 100.5127842  31.5043000
   8.2846548 100.8041355  32.9898408  16.7555142 106.6226387  33.0434183
  17.2687024 107.2556379  33.5455893  17.4056366 106.0227583  32.6777543
   9.9998233  97.6093909  30.9644876   9.3462645  97.2942926  30.3401491
   9.9578707  96.9869650  31.6904699  13.2335973 104.0975843  35.2892524
  12.3158535 104.3190790  35.1314212  13.6496117 104.1722153  34.4304231
  14.0171021 105.4967258  30.4195204  14.7642840 106.0088656  30.1102326
  14.2862611 105.1751311  31.2799597  16.4649858 102.5324375  32.4013993
  15.7272615 102.0201761  32.7324236  16.7176632 102.0924756  31.5897270
  16.5661485  95.3100627  32.9955762  16.8720362  94.4497990  32.7081678
  17.2914090  95.9018247  32.7954756  10.8382565 105.6054420  33.5031954
  10.8931175 104.6528256  33.4274430  10.0273767 105.7613859  33.9873252
   8.7774925 104.2231479  31.2622332   7.9642791 104.5225650  31.6687525
   9.2733919 103.8287168  31.9796815  14.3749137 104.6873304  40.0937226
  14.7298525 104.9144777  40.9531692  15.0221268 105.0191681  39.4714482
  20.1046874 107.8091740  30.7986555  19.9664772 107.9993336  29.8707745
  19.7483093 108.5711123  31.2554606   8.2689000 101.7949835  36.8783567
   8.9088379 101.6538594  36.1806531   7.4366530 101.5084348  36.5022169
  20.1316253 109.8768267  35.8097827  20.5652760 109.7843556  36.6580881
  20.8447834 109.8525767  35.1717843   5.2717616 101.7650160  31.6556554
   5.5324434 102.6795493  31.5465715   6.0934789 101.2974603  31.8053167
   6.7442542 103.1787917  38.8255379   7.4165595 102.9705279  38.1768028
   5.9172328 102.9810003  38.3860611  20.9931803 109.9191968  38.3430712
  21.1867693 110.8237778  38.5889987  20.8932421 109.4599387  39.1769297
  12.6468114  99.8049858  40.8421040  11.9996029 100.5039808  40.7485516
  13.4169129 100.2386002  41.2097288  12.8232248 107.6430623  38.9017859
  13.7524308 107.7941783  38.7286827  12.4023278 107.7314644  38.0466506
   9.7752340 106.1650479  39.0741495  10.4851958 105.5243672  39.0328114
   9.7321648 106.4163374  39.9967676   8.4881274 103.1515697  40.8937135
   7.9518631 102.7006436  41.5458731   7.8997982 103.2861606  40.1507599
   4.2220395 102.2871705  37.9790129   4.1378583 101.6797375  37.2440539
   3.4003101 102.7780723  37.9799626  14.3944109 100.7725269  33.3460325
  14.8912808 100.0195231  33.0261395  13.6231090 100.8089585  32.7803534
  22.2473866 106.4765634  34.9878616  22.2363742 107.3590350  34.6172549
  21.3791245 106.1237185  34.7933153  10.9779077 102.9142652  33.0732009
  10.6076865 102.3613692  33.7612915  11.4738170 102.3100785  32.5207009
  18.8646441 105.3714275  31.4548782  19.3306893 106.2042267  31.3809085
  19.3153941 104.9059257  32.1594041  16.8363103  97.7394862  35.4939683
  15.9226183  97.9699089  35.6621890  17.2656205  97.8233306  36.3453716
  16.6069562 105.9284754  37.9939577  15.9541012 106.1760661  37.3392030
  16.9849942 105.1148892  37.6602055  12.6557135 106.6704565  44.4805615
  11.9797772 106.5698694  45.1507990  13.4784769 106.5143779  44.9441612
   6.3744411 100.3246642  39.3185115   6.4385738 101.1861473  38.9062513
   6.3111531  99.7120644  38.5857474   5.8496684 102.3969775  42.9658149
   6.4768722 102.0146852  43.5795674   4.9924602 102.1783977  43.3313842
   6.1556473 102.2802201  34.8804053   5.4343059 102.8938168  34.7411526
   6.9449729 102.8159965  34.8020699   8.9582787  99.6156627  41.1544705
   9.4817189  99.8618924  41.9171014   8.7395120 100.4476662  40.7347842
  10.1635332 100.5570322  38.8394375   9.8232152  99.7578135  39.2415055
   9.4574338 100.8572033  38.2671208  10.8151804  97.6419635  37.2921698
  11.6377873  97.1680113  37.1700589  11.0589867  98.4210118  37.7920384
  13.5991161 101.3753042  28.5242932  13.8154775 102.2577680  28.2231760
  13.1185228 100.9839255  27.7948574   8.3390382 104.3338755  35.1013677
   8.1934963 104.6479058  35.9937958   7.8615586 104.9523656  34.5484575
  10.1986765 101.3241303  35.1494566  10.1848334 100.4282397  34.8126864
  10.9159193 101.3311967  35.7832852  12.0512896 101.7578643  37.1947694
  11.7930674 102.6795714  37.1932024  11.5197936 101.3609078  37.8848158
   9.6023661 100.2055684  30.4182136   9.7239572  99.2772330  30.6173024
   9.3125704 100.2194369  29.5060452  12.4714852  97.8910594  33.5548856
  12.4936548  97.9549927  32.6000836  12.8882911  97.0515103  33.7489362
  22.8498476 107.6265853  31.5928079  23.2929622 106.8773179  31.1947202
  21.9724986 107.6175990  31.2101811   9.0864741 101.7187681  44.6272069
   9.1352896 102.5949804  44.2449839   9.6287255 101.1765074  44.0543712
  19.6917462 109.1121271  41.2205935  19.7415466 108.9471278  42.1621458
  19.5831385 108.2448530  40.8303815  16.9821224 105.0952199  42.5365241
  17.8831087 104.9558663  42.2449239  17.0569198 105.2606653  43.4763419
  11.3164029 102.4719053  41.3818428  10.4467339 102.7652619  41.1101016
  11.5523510 103.0559498  42.1025691  22.3931341 109.0971092  33.9850526
  23.2278232 109.5360896  34.1488087  22.5290469 108.6209745  33.1658772
  19.4422847 106.6550827  39.9328014  19.9176968 106.8478473  39.1246866
  18.5188412 106.7110012  39.6871398  14.0203063  98.6898670  38.8983848
  14.5385007  99.4259697  38.5730337  13.6658196  98.9962664  39.7330607
  14.2715657  95.1098953  34.4184745  14.5517411  94.4422142  35.0445171
  15.0566264  95.3028048  33.9059409  18.1424516 103.5316587  38.1656320
  19.0941938 103.6314684  38.1868544  17.9727966 102.7394855  38.6754404
  16.1638895 100.6172170  38.3515721  15.5688827 100.8977183  37.6562209
  15.8788592 101.1066071  39.1232462  20.6212593 106.7522706  37.2798619
  20.5888913 105.8138707  37.4658303  21.2313217 106.8306743  36.5464444
  20.7707082 103.5433750  37.3256903  20.2546131 102.7592206  37.1386832
  21.6547030 103.2152466  37.4903422  18.4317809  97.2874765  33.2852715
  18.2342630  96.9789854  34.1696047  19.0417514  98.0136404  33.4150645
  26.4389143 107.8138713  36.4204656  27.1692532 107.5524001  36.9812360
  25.8296089 107.0767435  36.4606724  24.5204440 105.9546576  37.0179107
  23.7937604 105.8202541  36.4095599  24.1051727 106.2623404  37.8235826
  12.2600907  98.0905625  29.4124950  11.4501635  97.7452710  29.7880196
  12.9485324  97.7813169  30.0012562  14.1891455  97.1683672  31.0349247
  14.7422494  97.5879126  31.6939270  14.4261542  96.2419420  31.0772203
  10.2124555 103.1570746  46.8152011  10.1121282 104.1065103  46.7464102
   9.9946097 102.8288985  45.9428081  17.5670262  99.2784197  30.5427911
  16.9868932  99.9369001  30.1605963  17.3006195  98.4561542  30.1315328
  16.0173829  98.6789255  32.7449231  16.5173607  98.7905790  31.9363550
  16.6609437  98.3750308  33.3850040  16.3495141 101.4384288  29.5984259
  15.4620996 101.7233938  29.3804454  16.7649130 101.2778051  28.7511536
  19.7009677 101.4630809  33.3138598  20.4770067 101.9527261  33.5863215
  18.9757811 101.8888863  33.7710468  22.1382235 102.1758428  34.3712539
  22.7326726 101.9354164  33.6605847  22.2108819 101.4565559  34.9986075
  16.3236164 106.9538824  29.8134549  16.2671366 107.4107375  28.9742182
  16.8764507 106.1929508  29.6357392  20.1340970 102.7428556  30.6384669
  19.8777904 102.3425191  31.4692877  19.5093838 103.4572350  30.5134808
  24.4453308 105.4824629  33.1455960  23.8852866 105.5517818  33.9187522
  23.8396811 105.3065614  32.4255457  17.0570944 108.1443605  27.1087079
  17.0019747 107.9787876  26.1675523  16.4316999 108.8519638  27.2649268
   1.8463459 103.3811669  40.9348501   2.4922322 102.8710623  41.4235726
   1.6380610 104.1180351  41.5091926  10.3667069  97.6451714  26.6872397
  10.3545739  98.5893554  26.8440668  11.2590491  97.4621859  26.3931858
  14.1819188  94.2394491  30.9418334  13.4151584  93.6852977  31.0875016
  14.5929893  94.3116359  31.8032485   6.1860950 100.5279286  45.0323515
   7.0492411 100.1716091  45.2426840   5.6126360 100.1893181  45.7198919
  25.6067574 111.3798985  37.8938025  25.2631844 112.2700627  37.8177135
  25.9746537 111.1900643  37.0307610  27.4055240 110.6392544  32.9955762
  27.7114117 109.7789908  32.7081678  28.1307845 111.2310165  32.7954756
  25.1109412 110.4390870  34.4184745  25.3911166 109.7714059  35.0445171
  25.8960019 110.6319966  33.9059409  29.2711563 112.6166683  33.2852715
  29.0736384 112.3081771  34.1696047  29.8811269 113.3428322  33.4150645
  25.0212943 109.5686408  30.9418334  24.2545339 109.0144895  31.0875016
  25.4323648 109.6408277  31.8032485   4.3495220  54.0041391  20.4129719
   3.5958929  53.4348789  20.2573723   4.4842762  53.9704055  21.3600353
   0.7143833  55.4449379  20.7095833   1.5490724  55.8839183  20.8733393
   0.8502962  54.9688032  19.8904079   4.7601636  54.1617001  23.1449963
   5.4905024  53.9002289  23.7057666   4.1508581  53.4245722  23.1852031
   2.8416933  52.3024863  23.7424414   2.1150096  52.1680828  23.1340906
   2.4264220  52.6101692  24.5481132   0.4594728  48.5236715  21.0957846
   1.0539218  48.2832451  20.3851154   0.5321311  47.8043846  21.7231382
   2.7665800  51.8302916  19.8701267   2.2065358  51.8996105  20.6432829
   2.1609304  51.6543901  19.1500763   4.3521819  68.5059430  22.5631223
   4.9900229  68.3866177  21.8594563   4.2342662  69.4540274  22.6219175
   1.1611525  68.4586858  22.4992747   0.8230037  68.3427923  21.6113282
   2.0301293  68.0578023  22.4793753   1.6431308  69.6121710  28.4578953
   1.6319949  69.2174508  27.5859457   1.8051948  68.8787783  29.0512724
   3.9063087  66.2310884  19.6384431   4.6926176  65.8130307  19.2874848
   4.1701792  67.1356976  19.8066079   9.3071514  66.1686117  20.5417409
  10.0396686  65.5985334  20.7755239   8.5510870  65.7807718  20.9823915
   0.9247634  68.5913359  17.7380752   0.5605841  68.0643980  18.4493673
   1.7814750  68.2011828  17.5647237   6.8296935  59.8807691  25.0012018
   6.4980260  60.7503102  24.7773233   6.2342548  59.5643975  25.6806048
   3.3228454  72.0820237  24.4007931   3.0229177  72.9845276  24.2923738
   2.9779514  71.8152420  25.2529083   6.7225598  64.6002777  22.0805368
   5.8142475  64.5318186  21.7864129   6.6713194  65.0774722  22.9087193
   8.5887244  62.8019216  23.8583242   7.9461625  63.0951749  23.2123036
   8.0842173  62.6872136  24.6636438   6.2427408  66.5482389  14.5469101
   7.1545264  66.7809776  14.3716799   5.7337055  67.1319433  13.9844180
   4.5268176  70.9707017  28.1830394   4.9351532  70.5289427  27.4385026
   3.8045437  70.3959644  28.4364587   0.8799246  65.9079624  25.5563951
   1.7260441  66.3319037  25.6998600   0.8197883  65.2513248  26.2502514
   4.8496990  71.5308207  21.9382682   4.2205853  71.6953922  21.2358750
   4.4622653  71.9449817  22.7093647   8.7286222  72.4662645  19.2927046
   8.0437260  72.8461547  18.7424080   8.8130072  73.0757972  20.0258994
   4.0298691  63.5683992  27.2145124   3.7859623  64.3226052  26.6779400
   4.3058622  63.9469340  28.0492371   5.9837154  70.1122604  25.8922390
   6.1954049  70.7554364  25.2156771   5.9366902  69.2784921  25.4244320
   3.5863383  62.7240425  22.7958962   2.7247862  63.0221679  23.0875700
   3.6125818  62.9410824  21.8639995   7.0982982  72.9894560  24.0644747
   7.9200426  72.5874747  23.7827429   7.0945385  72.8862794  25.0160863
  15.1888975  69.3333308  20.4129719  14.4352683  68.7640706  20.2573723
  15.3236516  69.2995973  21.3600353   2.2056079  74.8270277  30.2184780
   1.7619934  74.0406656  29.9005685   2.8673293  75.0149428  29.5528671
   4.3037317  75.1073077  28.2466181   4.2855793  75.9281958  27.7546450
   5.2257237  74.9827152  28.4716322   3.9280067  57.7277272  24.6183331
   3.5844336  58.6178914  24.5422442   4.2959029  57.5378930  23.7552916
   1.4777460  62.5635584  18.1841005   0.6219057  62.1742435  18.0046644
   1.8904412  62.6427545  17.3240790   3.0076607  60.0981928  22.5832565
   2.5041403  60.0612063  21.7700370   3.3007214  61.0074670  22.6429221
   8.8664623  70.4718238  15.0608940   8.0894066  70.1329398  14.6164102
   9.5456104  70.4770861  14.3863905   3.6816652  65.5912976  14.9515548
   3.3766788  65.9059125  15.8025691   4.6347095  65.6694396  14.9942881
   7.1055930  69.9452219  21.7175548   6.4479605  70.6351481  21.8055677
   7.9096330  70.3348651  22.0609534   5.9161389  68.2996592  19.7679490
   6.4293271  68.9326584  20.2701199   6.5662613  67.6997788  19.4022850
   2.3942220  65.7746048  22.0137830   1.4764781  65.9960995  21.8559518
   2.8102364  65.8492358  21.1549538   3.1777268  67.1737463  17.1440511
   3.9249087  67.6858861  16.8347633   3.4468857  66.8521516  18.0044904
   6.6823185  73.2802594  17.8958632   6.2285512  72.4393503  17.9523823
   6.0517152  73.9163992  18.2333413   5.6256105  64.2094580  19.1259300
   4.8878862  63.6971966  19.4569542   5.8782878  63.7694961  18.3142577
   5.1256125  75.1179090  18.8308451   5.4179099  75.6784147  18.1120816
   5.6354745  75.4107651  19.5861610   5.7267732  56.9870832  19.7201069
   6.0326609  56.1268195  19.4326984   6.4520337  57.5788452  19.5200063
   3.5355384  66.3643509  26.8182533   3.8904771  66.5914982  27.6776999
   4.1827515  66.6961886  26.1959788   9.2653120  69.4861945  17.5231862
   9.1271019  69.6763541  16.5953051   8.9089339  70.2481328  17.9799913
   9.2922500  71.5538472  22.5343133   9.7259007  71.4613761  23.3826187
  10.0054081  71.5295972  21.8963149   3.0250395  75.1540566  24.0676234
   3.0787417  75.7231502  24.8353950   2.1565176  75.3242451  23.7030271
  10.1538050  71.5962172  25.0676019  10.3473940  72.5007983  25.3135294
  10.0538668  71.1369592  25.9014604   1.8074360  61.4820063  27.5666346
   1.1602275  62.1810013  27.4730823   2.5775376  61.9156207  27.9342594
   5.2153158  71.7468915  30.6416899   5.0638665  71.5179467  29.7246983
   5.2057838  72.7039517  30.6548244   1.9838495  69.3200828  25.6263166
   2.9130555  69.4711988  25.4532133   1.5629525  69.4084849  24.7711812
   2.3332042  72.7233095  20.7850541   1.9981874  72.6833865  21.6808191
   1.8335987  72.0577811  20.3120952   6.9245365  74.7788038  28.7193381
   6.8657911  74.0947258  28.0523964   7.3264883  75.5207028  28.2674007
   6.9262772  72.7427622  26.9507361   6.0389551  72.4053543  27.0733760
   7.4961323  72.0110653  27.1876126   3.5550355  62.4495474  20.0705631
   4.0519055  61.6965436  19.7506701   2.7837337  62.4859790  19.5048840
  11.4080113  68.1535839  21.7123923  11.3969989  69.0360554  21.3417856
  10.5397492  67.8007390  21.5178460   2.9162609  77.3015908  26.0726763
   3.6290581  77.9363373  26.0002664   2.4252638  77.3979774  25.2566765
   4.6380136  71.2067161  17.6444055   3.7036415  71.3268623  17.4748759
   4.8156805  70.3039627  17.3804064   8.0252687  67.0484480  18.1794089
   8.4913140  67.8812472  18.1054391   8.4760188  66.5829462  18.8839347
   6.0928919  73.3928301  15.1780241   6.3688762  73.2784896  16.0874115
   5.2233417  72.9945786  15.1392414   5.9969350  59.4165067  22.2184990
   5.0832430  59.6469294  22.3867197   6.4262452  59.5003511  23.0699022
   5.7675809  67.6054959  24.7184884   5.1147259  67.8530866  24.0637337
   6.1456189  66.7919097  24.3847361   1.8163382  68.3474770  31.2050921
   1.1404019  68.2468899  31.8753296   2.6391016  68.1913984  31.6686918
   0.5586165  79.6541697  25.4408537   1.1104473  79.8173319  26.2057622
   0.8992358  80.2446135  24.7688562   5.4097039  74.4802955  31.2957192
   5.9536943  75.0932913  30.8012146   4.8283884  75.0382533  31.8124205
   3.6954552  77.6023673  22.4272219   3.5705691  76.8013413  21.9183165
   4.3533643  78.0969866  21.9386189   5.7589460  75.4032693  24.0551769
   4.8119796  75.2838044  23.9830096   6.1072233  74.5155191  24.1378031
   2.7635894  75.1985409  20.2556122   2.6160856  74.2702117  20.4363692
   3.5889387  75.2205500  19.7713197   6.3670015  76.0213968  21.3420994
   7.2916563  75.8156829  21.2045445   6.1985319  75.7730369  22.2510336
   2.7597408  63.0523247  15.2488239   2.9761022  63.9347885  14.9477067
   2.2791475  62.6609460  14.5193881   1.2119143  63.4348848  23.9193000
   0.9536921  64.3565919  23.9177331   0.6804183  63.0379283  24.6093465
   6.1565332  76.5399635  16.6983086   6.3302209  75.9746058  15.9456938
   6.6494223  77.3400530  16.5162576   1.6321098  59.5680799  20.2794163
   1.6542795  59.6320132  19.3246143   2.0489157  58.7285308  20.4734669
  12.0104723  69.3036058  18.3173386  12.4535869  68.5543384  17.9192509
  11.1331233  69.2946195  17.9347118   9.0431927  73.3066105  15.3267315
   9.5683251  73.6453378  14.6016635   8.9554280  72.3713121  15.1430449
   0.7051976  77.2200179  27.4557191   1.0139102  76.9749326  28.3279891
   1.5027458  77.4246818  26.9676062   8.7325833  73.9399009  30.6318513
   7.9421377  73.9223148  30.0923012   8.4959188  74.4787303  31.3867549
   8.8523708  70.7891475  27.9451241   8.9021713  70.6241483  28.8866764
   8.7437632  69.9218734  27.5549122   6.1427471  66.7722403  29.2610548
   7.0437333  66.6328868  28.9694546   6.2175445  66.9376858  30.2008725
  10.3541905  73.2088417  28.1893263  10.0626713  73.5718397  29.0256724
   9.7414036  72.4955425  28.0106595  11.5537587  70.7741297  20.7095833
  12.3884479  71.2131101  20.8733393  11.6896716  70.2979950  19.8904079
   8.6029093  68.3321032  26.6573321   9.0783215  68.5248678  25.8492172
   7.6794659  68.3880217  26.4116705   3.1809310  60.3668875  25.6229155
   3.6991254  61.1029902  25.2975643   2.8264443  60.6732868  26.4575914
   3.4321904  56.7869158  21.1430051   3.7123658  56.1192347  21.7690478
   4.2172511  56.9798253  20.6304715   7.3030762  65.2086792  24.8901626
   8.2548185  65.3084889  24.9113851   7.1334213  64.4165060  25.3999711
   5.3245142  62.2942375  25.0761027   4.7295074  62.5747388  24.3807516
   5.0394839  62.7836276  25.8477769   9.7818840  68.4292911  24.0043926
   9.7495160  67.4908912  24.1903610  10.3919464  68.5076948  23.2709751
   9.9313329  65.2203955  24.0502209   9.4152377  64.4362411  23.8632138
  10.8153277  64.8922671  24.2148729   7.5924056  58.9644970  20.0098022
   7.3948877  58.6560059  20.8941354   8.2023761  59.6906609  20.1395952
  15.5995390  69.4908918  23.1449963  16.3298778  69.2294206  23.7057666
  14.9902335  68.7537640  23.1852031  13.6810687  67.6316781  23.7424414
  12.9543851  67.4972746  23.1340906  13.2657974  67.9393609  24.5481132
   1.5040864  71.3506710  31.5071787   2.4243873  71.5285309  31.7011834
   1.4690447  70.4062756  31.3551486   1.4207154  59.7675830  16.1370257
   0.6107882  59.4222915  16.5125503   2.1091571  59.4583374  16.7257868
   3.3497702  58.8453877  17.7594553   3.9028741  59.2649331  18.4184576
   3.5867789  57.9189625  17.8017509   6.7276509  60.9554402  17.2673218
   6.1475178  61.6139206  16.8851270   6.4612442  60.1331747  16.8560635
   5.1780076  60.3559460  19.4694538   5.6779854  60.4675995  18.6608857
   5.8215684  60.0520513  20.1095346   5.5101387  63.1154493  16.3229566
   4.6227242  63.4004143  16.1049761   5.9255376  62.9548256  15.4756843
   8.8615923  63.1401014  20.0383905   9.6376314  63.6297466  20.3108522
   8.1364058  63.5659068  20.4955775  11.2988482  63.8528633  21.0957846
  11.8932973  63.6124369  20.3851154  11.3715066  63.1335764  21.7231382
   5.4842411  68.6309029  16.5379856   5.4277612  69.0877580  15.6987488
   6.0370754  67.8699713  16.3602699   9.2947217  64.4198761  17.3629976
   9.0384151  64.0195396  18.1938183   8.6700085  65.1342555  17.2380115
  13.6059555  67.1594834  19.8701267  13.0459113  67.2288023  20.6432829
  13.0003058  66.9835818  19.1500763   6.2177190  69.8213810  13.8332385
   6.1625994  69.6558081  12.8920829   5.5923246  70.5289843  13.9894575
   3.5323098  72.1262722  33.1585948   4.4014257  72.3003374  32.7972583
   3.0529849  72.9457139  33.0361677   3.3425435  55.9164696  17.6663640
   2.5757831  55.3623182  17.8120323   3.7536140  55.9886564  18.5277792
  15.1915573  83.8351348  22.5631223  15.8293983  83.7158095  21.8594563
  15.0736416  84.7832192  22.6219175  12.0005280  83.7878776  22.4992747
  11.6623791  83.6719841  21.6113282  12.8695048  83.3869941  22.4793753
  12.4825063  84.9413628  28.4578953  12.4713703  84.5466426  27.5859457
  12.6445702  84.2079700  29.0512724   9.2032324  87.7250739  27.4058137
   8.9122190  88.6296370  27.2904803   9.8389308  87.7667267  28.1202206
  10.1288531  85.1027588  23.9959496  10.7252103  84.8783610  23.2816459
  10.1863502  84.3612333  24.5984944  14.7456842  81.5602802  19.6384431
  15.5319931  81.1422225  19.2874848  15.0095546  82.4648894  19.8066079
  20.1465269  81.4978035  20.5417409  20.8790441  80.9277252  20.7755239
  19.3904625  81.1099635  20.9823915  11.7641389  83.9205276  17.7380752
  11.3999596  83.3935897  18.4493673  12.6208505  83.5303745  17.5647237
  17.6690689  75.2099609  25.0012018  17.3374014  76.0795020  24.7773233
  17.0736303  74.8935893  25.6806048  14.1622209  87.4112155  24.4007931
  13.8622932  88.3137194  24.2923738  13.8173268  87.1444338  25.2529083
   7.6134690  83.8625952  20.4344635   6.6885187  83.7302166  20.6422327
   7.8619103  84.6420171  20.9314577  17.5619353  79.9294695  22.0805368
  16.6536230  79.8610104  21.7864129  17.5106948  80.4066640  22.9087193
  11.6360218  81.3484341  30.0240265  10.8593552  81.9078261  30.0143130
  12.2750781  81.8341124  30.5455135  19.4280999  78.1311133  23.8583242
  18.7855379  78.4243667  23.2123036  18.9235927  78.0164054  24.6636438
  17.0821163  81.8774307  14.5469101  17.9939019  82.1101693  14.3716799
  16.5730810  82.4611351  13.9844180   9.8906591  84.1569794  29.5858232
  10.6321275  84.6954838  29.3093056   9.1843576  84.7836083  29.7429784
  15.3661930  86.2998935  28.1830394  15.7745286  85.8581345  27.4385026
  14.6439192  85.7251562  28.4364587  11.7193000  81.2371541  25.5563951
  12.5654196  81.6610955  25.6998600  11.6591638  80.5805166  26.2502514
  15.6890745  86.8600125  21.9382682  15.0599607  87.0245839  21.2358750
  15.3016407  87.2741735  22.7093647  19.5679977  87.7954563  19.2927046
  18.8831015  88.1753464  18.7424080  19.6523826  88.4049890  20.0258994
  14.8692446  78.8975910  27.2145124  14.6253378  79.6517970  26.6779400
  15.1452376  79.2761257  28.0492371  16.8230908  85.4414522  25.8922390
  17.0347804  86.0846282  25.2156771  16.7760657  84.6076839  25.4244320
  14.4257137  78.0532343  22.7958962  13.5641616  78.3513596  23.0875700
  14.4519572  78.2702742  21.8639995  11.2418707  86.5974533  19.2032768
  11.7057052  86.8762236  18.4137390  10.9775505  85.6957978  19.0205858
   8.1342788  86.1446015  22.1412531   8.7044145  86.5733283  21.5030015
   8.7250900  85.8628599  22.8396717   8.6267954  81.3109442  30.3873542
   7.9966615  81.9925723  30.6208939   8.5204042  81.1992524  29.4426680
  17.9376736  88.3186477  24.0644747  18.7594180  87.9166665  23.7827429
  17.9339139  88.2154712  25.0160863  11.7033340  87.8670521  26.2205458
  11.7677772  88.3290928  27.0563629  10.9944264  87.2367886  26.3487767
   2.2050630  81.2311729  23.7454457   2.4558668  82.1158739  24.0112033
   2.7410178  81.0516330  22.9729549  26.0282729  84.6625226  20.4129719
  25.2746438  84.0932624  20.2573723  26.1630271  84.6287890  21.3600353
   7.9048697  75.6130208  32.7498793   7.5115643  75.0596407  33.4246437
   8.7214837  75.9240787  33.1405311  10.8216658  77.0288087  30.3419050
  11.5626371  77.6295240  30.2623512  11.0534581  76.2865725  29.7837092
   5.9657996  82.2144454  28.6197279   5.8511511  81.3129712  28.9204378
   5.1102514  82.4608151  28.2682096  13.0449834  90.1562195  30.2184780
  12.6013688  89.3698573  29.9005685  13.7067047  90.3441345  29.5528671
   7.8036955  91.6857996  24.7445459   8.3544380  91.5575060  23.9722452
   6.9648431  91.9852885  24.3940351  15.1431072  90.4364995  28.2466181
  15.1249547  91.2573876  27.7546450  16.0650992  90.3119070  28.4716322
  11.6004126  87.9509124  29.0889690  12.1332463  87.1897412  28.8588998
  11.0718207  87.6582776  29.8313844  14.7673821  73.0569190  24.6183331
  14.4238090  73.9470832  24.5422442  15.1352784  72.8670848  23.7552916
  12.3171215  77.8927502  18.1841005  11.4612811  77.5034352  18.0046644
  12.7298167  77.9719463  17.3240790  13.8470361  75.4273845  22.5832565
  13.3435157  75.3903980  21.7700370  14.1400968  76.3366588  22.6429221
  10.0913247  75.5112575  21.5898746  10.9566244  75.3155384  21.2304636
  10.1590756  75.2822927  22.5168103  19.7058378  85.8010156  15.0608940
  18.9287821  85.4621315  14.6164102  20.3849859  85.8062779  14.3863905
  14.5210407  80.9204893  14.9515548  14.2160543  81.2351042  15.8025691
  15.4740849  80.9986313  14.9942881  17.9449685  85.2744137  21.7175548
  17.2873359  85.9643398  21.8055677  18.7490084  85.6640569  22.0609534
   7.6975566  77.7414783  18.9615113   8.2719318  77.5189964  18.2288306
   8.2846549  77.8103477  19.7143715  16.7555144  83.6288510  19.7679490
  17.2687025  84.2618502  20.2701199  17.4056367  83.0289705  19.4022850
   9.9998234  74.6156032  17.6890183   9.3462646  74.3005049  17.0646797
   9.9578708  73.9931772  18.4150006  13.2335974  81.1037965  22.0137830
  12.3158536  81.3252912  21.8559518  13.6496118  81.1784276  21.1549538
  14.0171022  82.5029381  17.1440511  14.7642841  83.0150778  16.8347633
  14.2862612  82.1813434  18.0044904  17.5216940  88.6094511  17.8958632
  17.0679267  87.7685421  17.9523823  16.8910907  89.2455910  18.2333413
  16.4649859  79.5386497  19.1259300  15.7272616  79.0263883  19.4569542
  16.7176633  79.0986879  18.3142577  15.9649879  90.4471008  18.8308451
  16.2572853  91.0076065  18.1120816  16.4748500  90.7399569  19.5861610
  16.5661487  72.3162749  19.7201069  16.8720363  71.4560113  19.4326984
  17.2914092  72.9080369  19.5200063  10.8382566  82.6116542  20.2277260
  10.8931176  81.6590379  20.1519737  10.0273768  82.7675981  20.7118559
   8.7774926  81.2293602  17.9867639   7.9642792  81.5287773  18.3932831
   9.2733921  80.8349291  18.7042121  14.3749138  81.6935427  26.8182533
  14.7298526  81.9206900  27.6776999  15.0221269  82.0253803  26.1959788
  20.1046875  84.8153862  17.5231862  19.9664774  85.0055458  16.5953051
  19.7483094  85.5773245  17.9799913   8.2689001  78.8011958  23.6028874
   8.9088380  78.6600717  22.9051837   7.4366532  78.5146471  23.2267476
  20.1316255  86.8830389  22.5343133  20.5652761  86.7905679  23.3826187
  20.8447835  86.8587890  21.8963149  13.8644149  90.4832484  24.0676234
  13.9181172  91.0523420  24.8353950  12.9958931  90.6534369  23.7030271
   5.2717618  78.7712283  18.3801861   5.5324435  79.6857616  18.2711021
   6.0934790  78.3036725  18.5298474   6.7442543  80.1850040  25.5500685
   7.4165596  79.9767402  24.9013334   5.9172329  79.9872126  25.1105918
  20.9931804  86.9254090  25.0676019  21.1867694  87.8299901  25.3135294
  20.8932422  86.4661509  25.9014604  12.6468115  76.8111981  27.5666346
  11.9996030  77.5101930  27.4730823  13.4169130  77.2448125  27.9342594
  16.0546913  87.0760833  30.6416899  15.9032419  86.8471385  29.7246983
  16.0451592  88.0331434  30.6548244  12.8232249  84.6492746  25.6263166
  13.7524309  84.8003905  25.4532133  12.4023279  84.7376766  24.7711812
  11.6220581  88.6743410  23.3961704  11.4831667  88.3062194  24.2687642
  10.8335177  89.1891049  23.2245661  13.1725796  88.0525013  20.7850541
  12.8375629  88.0125783  21.6808191  12.6729742  87.3869729  20.3120952
   7.1470040  83.4592643  26.3103122   7.0089838  82.7272882  26.9114662
   8.0574964  83.3701543  26.0287310   9.7752341  83.1712602  25.7986802
  10.4851959  82.5305794  25.7573421   9.7321649  83.4225497  26.7212983
  17.7639119  90.1079955  28.7193381  17.7051666  89.4239176  28.0523964
  18.1658638  90.8498945  28.2674007   8.4881275  80.1577820  27.6182442
   7.9518632  79.7068558  28.2704038   7.8997983  80.2923729  26.8752906
  17.7656527  88.0719539  26.9507361  16.8783306  87.7345461  27.0733760
  18.3355078  87.3402571  27.1876126   4.2220396  79.2933828  24.7035436
   4.1378585  78.6859497  23.9685846   3.4003102  79.7842846  24.7044932
  11.2957680  92.7320992  23.9168604  11.2227852  93.5375963  24.4287909
  10.8535073  92.9312958  23.0916626  14.3944110  77.7787391  20.0705631
  14.8912809  77.0257354  19.7506701  13.6231091  77.8151708  19.5048840
  22.2473867  83.4827757  21.7123923  22.2363744  84.3652472  21.3417856
  21.3791247  83.1299308  21.5178460  13.7556364  92.6307826  26.0726763
  14.4684336  93.2655291  26.0002664  13.2646392  92.7271692  25.2566765
  15.4773891  86.5359078  17.6444055  14.5430169  86.6560541  17.4748759
  15.6550559  85.6331545  17.3804064  10.9779079  79.9204774  19.7977316
  10.6076866  79.3675815  20.4858221  11.4738171  79.3162908  19.2452316
  18.8646442  82.3776398  18.1794089  19.3306894  83.2104389  18.1054391
  19.3153942  81.9121379  18.8839347   8.8068277  90.3802269  26.8932334
   9.5077737  91.0138752  27.0461728   8.3363392  90.7217001  26.1327973
  16.9322673  88.7220219  15.1780241  17.2082517  88.6076814  16.0874115
  16.0627172  88.3237704  15.1392414  16.8363105  74.7456985  22.2184990
  15.9226184  74.9761212  22.3867197  17.2656206  74.8295429  23.0699022
  16.6069563  82.9346877  24.7184884  15.9541013  83.1822784  24.0637337
  16.9849943  82.1211015  24.3847361  12.6557136  83.6766688  31.2050921
  11.9797773  83.5760817  31.8753296  13.4784770  83.5205901  31.6686918
  11.3979919  94.9833615  25.4408537  11.9498227  95.1465237  26.2057622
  11.7386113  95.5738053  24.7688562   6.3744412  77.3308765  26.0430422
   6.4385739  78.1923596  25.6307820   6.3111533  76.7182767  25.3102780
   5.8496685  79.4031897  29.6903456   6.4768724  79.0208975  30.3040980
   4.9924604  79.1846099  30.0559149  16.2490793  89.8094873  31.2957192
  16.7930697  90.4224831  30.8012146  15.6677638  90.3674451  31.8124205
  14.5348306  92.9315591  22.4272219  14.4099446  92.1305331  21.9183165
  15.1927397  93.4261784  21.9386189   6.1556475  79.2864323  21.6049360
   5.4343060  79.9000291  21.4656833   6.9449730  79.8222088  21.5266005
  16.5983215  90.7324611  24.0551769  15.6513550  90.6129962  23.9830096
  16.9465988  89.8447109  24.1378031   8.9582788  76.6218750  27.8790011
   9.4817190  76.8681046  28.6416321   8.7395121  77.4538784  27.4593149
  13.6029648  90.5277327  20.2556122  13.4554610  89.5994034  20.4363692
  14.4283142  90.5497418  19.7713197  17.2063770  91.3505886  21.3420994
  18.1310317  91.1448747  21.2045445  17.0379073  91.1022287  22.2510336
  10.1635333  77.5632445  25.5639682   9.8232153  76.7640258  25.9660362
   9.4574339  77.8634156  24.9916515  10.8151805  74.6481757  24.0167005
  11.6377874  74.1742235  23.8945895  11.0589868  75.4272241  24.5165691
  13.5991162  78.3815165  15.2488239  13.8154777  79.2639802  14.9477067
  13.1185229  77.9901378  14.5193881   8.3390384  81.3400878  21.8258983
   8.1934964  81.6541181  22.7183265   7.8615587  81.9585778  21.2729882
  10.1986767  78.3303426  21.8739873  10.1848335  77.4344519  21.5372171
  10.9159195  78.3374090  22.5078159  12.0512897  78.7640766  23.9193000
  11.7930675  79.6857837  23.9177331  11.5197938  78.3671201  24.6093465
  16.9959086  91.8691553  16.6983086  17.1695964  91.3037976  15.9456938
  17.4887977  92.6692448  16.5162576   2.8136046  83.8806222  24.7646645
   2.2689514  84.6566030  24.8966919   3.6915396  84.2277027  24.6065766
   9.6023663  77.2117806  17.1427443   9.7239574  76.2834452  17.3418331
   9.3125705  77.2256492  16.2305759  12.4714853  74.8972717  20.2794163
  12.4936550  74.9612050  19.3246143  12.8882912  74.0577225  20.4734669
  22.8498477  84.6327976  18.3173386  23.2929623  83.8835301  17.9192509
  21.9724988  84.6238112  17.9347118   3.6002068  83.0076119  27.6576801
   2.8583804  83.1558754  28.2441432   3.2794812  83.2684384  26.7943551
  19.8825682  88.6358023  15.3267315  20.4077006  88.9745296  14.6016635
  19.7948034  87.7005038  15.1430449  11.5445730  92.5492097  27.4557191
  11.8532857  92.3041243  28.3279891  12.3421212  92.7538735  26.9676062
   9.0864742  78.7249803  31.3517376   9.1352898  79.6011926  30.9695145
   9.6287256  78.1827197  30.7789019  19.5719588  89.2690927  30.6318513
  18.7815131  89.2515066  30.0923012  19.3352942  89.8079220  31.3867549
  19.6917463  86.1183393  27.9451241  19.7415468  85.9533401  28.8866764
  19.5831386  85.2510652  27.5549122  16.9821225  82.1014321  29.2610548
  17.8831088  81.9620786  28.9694546  17.0569200  82.2668776  30.2008725
  11.3164031  79.4781176  28.1063734  10.4467340  79.7714742  27.8346323
  11.5523511  80.0621621  28.8270998  21.1935660  88.5380335  28.1893263
  20.9020468  88.9010315  29.0256724  20.5807791  87.8247343  28.0106595
  22.3931342  86.1033214  20.7095833  23.2278233  86.5423018  20.8733393
  22.5290471  85.6271868  19.8904079  19.4422848  83.6612949  26.6573321
  19.9176969  83.8540596  25.8492172  18.5188413  83.7172135  26.4116705
  14.0203064  75.6960793  25.6229155  14.5385008  76.4321820  25.2975643
  13.6658197  76.0024786  26.4575914  14.2715659  72.1161075  21.1430051
  14.5517412  71.4484264  21.7690478  15.0566265  72.3090171  20.6304715
  18.1424517  80.5378709  24.8901626  19.0941940  80.6376807  24.9113851
  17.9727967  79.7456978  25.3999711  16.1638896  77.6234293  25.0761027
  15.5688828  77.9039305  24.3807516  15.8788593  78.1128193  25.8477769
  20.6212595  83.7584829  24.0043926  20.5888915  82.8200830  24.1903610
  21.2313218  83.8368866  23.2709751  20.7707083  80.5495872  24.0502209
  20.2546132  79.7654329  23.8632138  21.6547032  80.2214589  24.2148729
  18.4317810  74.2936888  20.0098022  18.2342631  73.9851976  20.8941354
  19.0417516  75.0198527  20.1395952  26.4389144  84.8200836  23.1449963
  27.1692533  84.5586124  23.7057666  25.8296090  84.0829558  23.1852031
  24.5204442  82.9608698  23.7424414  23.7937605  82.8264663  23.1340906
  24.1051728  83.2685527  24.5481132  12.3434618  86.6798628  31.5071787
  13.2637628  86.8577227  31.7011834  12.3084201  85.7354673  31.3551486
   5.3396691  84.5899663  24.1494568   5.5582700  85.5216771  24.1682602
   5.7522464  84.2307637  24.9349372  12.2600908  75.0967748  16.1370257
  11.4501637  74.7514833  16.5125503  12.9485325  74.7875292  16.7257868
  14.1891457  74.1745795  17.7594553  14.7422495  74.5941248  18.4184576
  14.4261543  73.2481543  17.8017509  10.2124556  80.1632869  33.5397317
  10.1121283  81.1127226  33.4709408   9.9946098  79.8351107  32.6673387
  17.5670264  76.2846320  17.2673218  16.9868933  76.9431124  16.8851270
  17.3006196  75.4623665  16.8560635  16.0173830  75.6851378  19.4694538
  16.5173608  75.7967912  18.6608857  16.6609438  75.3812431  20.1095346
  10.0755826  83.5930007  32.3562379   9.5922908  84.3930367  32.5626268
  10.1616765  83.6037952  31.4029823   6.0029163  87.4834542  24.3930813
   6.9572417  87.4518484  24.3260744   5.8041687  87.0225166  25.2081039
   6.5928546  86.0535658  26.9601610   7.4121435  86.5479737  26.9836448
   6.8665353  85.1367626  26.9319178  16.3495142  78.4446410  16.3229566
  15.4620997  78.7296061  16.1049761  16.7649131  78.2840174  15.4756843
  19.7009678  78.4692931  20.0383905  20.4770068  78.9589384  20.3108522
  18.9757812  78.8950986  20.4955775  22.1382237  79.1820551  21.0957846
  22.7326727  78.9416287  20.3851154  22.2108820  78.4627681  21.7231382
  16.3236166  83.9600946  16.5379856  16.2671367  84.4169498  15.6987488
  16.8764508  83.1991631  16.3602699  20.1340971  79.7490678  17.3629976
  19.8777906  79.3487314  18.1938183  19.5093839  80.4634472  17.2380115
  24.4453309  82.4886751  19.8701267  23.8852867  82.5579941  20.6432829
  23.8396813  82.3127736  19.1500763  17.0570945  85.1505728  13.8332385
  17.0019749  84.9849999  12.8920829  16.4317000  85.8581761  13.9894575
   1.8463460  80.3873792  27.6593807   2.4922323  79.8772746  28.1481033
   1.6380611  81.1242474  28.2337233  14.3716852  87.4554639  33.1585948
  15.2408012  87.6295292  32.7972583  13.8923603  88.2749056  33.0361677
  10.3667070  74.6513837  13.4117704  10.3545740  75.5955677  13.5685974
  11.2590492  74.4683982  13.1177165   8.5403032  94.5751740  24.8375382
   9.4430279  94.6075351  25.1541877   8.3140402  93.6452191  24.8521717
  14.1819190  71.2456613  17.6663640  13.4151586  70.6915100  17.8120323
  14.5929895  71.3178482  18.5277792   6.1860951  77.5341409  31.7568822
   7.0492412  77.1778214  31.9672146   5.6126361  77.1955304  32.4444226
  26.0309328  99.1643265  22.5631223  26.6687738  99.0450013  21.8594563
  25.9130171 100.1124109  22.6219175  22.8399034  99.1170694  22.4992747
  22.5017546  99.0011758  21.6113282  23.7088802  98.7161859  22.4793753
  23.3218817 100.2705545  28.4578953  23.3107458  99.8758344  27.5859457
  23.4839456  99.5371618  29.0512724  20.0426078 103.0542657  27.4058137
  19.7515944 103.9588288  27.2904803  20.6783063 103.0959185  28.1202206
  20.9682285 100.4319506  23.9959496  21.5645857 100.2075528  23.2816459
  21.0257257  99.6904251  24.5984944  25.5850596  96.8894719  19.6384431
  26.3713685  96.4714142  19.2874848  25.8489301  97.7940811  19.8066079
  30.9859023  96.8269952  20.5417409  31.7184195  96.2569169  20.7755239
  30.2298379  96.4391553  20.9823915  22.6035143  99.2497194  17.7380752
  22.2393350  98.7227815  18.4493673  23.4602259  98.8595663  17.5647237
  28.5084444  90.5391527  25.0012018  28.1767768  91.4086938  24.7773233
  27.9130057  90.2227811  25.6806048  25.0015963 102.7404073  24.4007931
  24.7016686 103.6429111  24.2923738  24.6567023 102.4736256  25.2529083
  18.4528445  99.1917869  20.4344635  17.5278941  99.0594084  20.6422327
  18.7012858  99.9712089  20.9314577  28.4013107  95.2586613  22.0805368
  27.4929984  95.1902021  21.7864129  28.3500703  95.7358558  22.9087193
  22.4753973  96.6776258  30.0240265  21.6987307  97.2370178  30.0143130
  23.1144536  97.1633041  30.5455135  30.2674753  93.4603051  23.8583242
  29.6249134  93.7535584  23.2123036  29.7629682  93.3455971  24.6636438
  27.9214917  97.2066224  14.5469101  28.8332773  97.4393611  14.3716799
  27.4124564  97.7903269  13.9844180  20.7300345  99.4861712  29.5858232
  21.4715029 100.0246756  29.3093056  20.0237331 100.1128000  29.7429784
  26.2055685 101.6290852  28.1830394  26.6139041 101.1873263  27.4385026
  25.4832946 101.0543480  28.4364587  22.5586755  96.5663459  25.5563951
  23.4047950  96.9902872  25.6998600  22.4985392  95.9097083  26.2502514
  26.5284499 102.1892043  21.9382682  25.8993362 102.3537757  21.2358750
  26.1410161 102.6033652  22.7093647  30.4073731 103.1246481  19.2927046
  29.7224769 103.5045382  18.7424080  30.4917581 103.7341807  20.0258994
  25.7086200  94.2267827  27.2145124  25.4647132  94.9809888  26.6779400
  25.9846131  94.6053175  28.0492371  27.6624663 100.7706440  25.8922390
  27.8741558 101.4138200  25.2156771  27.6154411  99.9368756  25.4244320
  25.2650892  93.3824260  22.7958962  24.4035371  93.6805514  23.0875700
  25.2913327  93.5994659  21.8639995  22.0812461 101.9266451  19.2032768
  22.5450807 102.2054154  18.4137390  21.8169259 101.0249895  19.0205858
  18.9736542 101.4737932  22.1412531  19.5437899 101.9025201  21.5030015
  19.5644654 101.1920517  22.8396717  19.4661709  96.6401360  30.3873542
  18.8360369  97.3217641  30.6208939  19.3597797  96.5284441  29.4426680
  28.7770491 103.6478395  24.0644747  29.5987935 103.2458582  23.7827429
  28.7732894 103.5446629  25.0160863  22.5427094 103.1962438  26.2205458
  22.6071527 103.6582846  27.0563629  21.8338018 102.5659803  26.3487767
  13.0444384  96.5603646  23.7454457  13.2952423  97.4450656  24.0112033
  13.5803933  96.3808248  22.9729549  36.8676484  99.9917144  20.4129719
  36.1140192  99.4224542  20.2573723  37.0024025  99.9579808  21.3600353
  18.7442452  90.9422126  32.7498793  18.3509397  90.3888324  33.4246437
  19.5608592  91.2532704  33.1405311  21.6610413  92.3580005  30.3419050
  22.4020126  92.9587158  30.2623512  21.8928335  91.6157643  29.7837092
  16.8051751  97.5436372  28.6197279  16.6905266  96.6421629  28.9204378
  15.9496268  97.7900069  28.2682096  23.8843588 105.4854112  30.2184780
  23.4407443 104.6990491  29.9005685  24.5460802 105.6733263  29.5528671
  18.6430710 107.0149914  24.7445459  19.1938135 106.8866977  23.9722452
  17.8042185 107.3144803  24.3940351  25.9824826 105.7656912  28.2466181
  25.9643302 106.5865793  27.7546450  26.9044746 105.6410988  28.4716322
  22.4397881 103.2801042  29.0889690  22.9726217 102.5189330  28.8588998
  21.9111962 102.9874694  29.8313844  25.6067576  88.3861108  24.6183331
  25.2631845  89.2762749  24.5422442  25.9746538  88.1962765  23.7552916
  23.1564969  93.2219420  18.1841005  22.3006566  92.8326270  18.0046644
  23.5691921  93.3011380  17.3240790  24.6864116  90.7565763  22.5832565
  24.1828912  90.7195898  21.7700370  24.9794723  91.6658506  22.6429221
  20.9307002  90.8404493  21.5898746  21.7959999  90.6447301  21.2304636
  20.9984511  90.6114844  22.5168103  30.5452132 101.1302074  15.0608940
  29.7681575 100.7913233  14.6164102  31.2243613 101.1354697  14.3863905
  25.3604161  96.2496811  14.9515548  25.0554297  96.5642960  15.8025691
  26.3134604  96.3278231  14.9942881  28.7843439 100.6036055  21.7175548
  28.1267114 101.2935316  21.8055677  29.5883838 100.9932487  22.0609534
  18.5369321  93.0706701  18.9615113  19.1113073  92.8481882  18.2288306
  19.1240303  93.1395395  19.7143715  27.5948898  98.9580427  19.7679490
  28.1080780  99.5910419  20.2701199  28.2450122  98.3581623  19.4022850
  20.8391989  89.9447949  17.6890183  20.1856401  89.6296967  17.0646797
  20.7972463  89.3223690  18.4150006  24.0729729  96.4329883  22.0137830
  23.1552290  96.6544830  21.8559518  24.4889873  96.5076193  21.1549538
  24.8564777  97.8321299  17.1440511  25.6036596  98.3442696  16.8347633
  25.1256366  97.5105351  18.0044904  28.3610694 103.9386429  17.8958632
  27.9073021 103.0977339  17.9523823  27.7304661 104.5747827  18.2333413
  27.3043614  94.8678415  19.1259300  26.5666371  94.3555801  19.4569542
  27.5570387  94.4278797  18.3142577  26.8043634 105.7762926  18.8308451
  27.0966608 106.3367983  18.1120816  27.3142254 106.0691487  19.5861610
  27.4055241  87.6454667  19.7201069  27.7114118  86.7852030  19.4326984
  28.1307846  88.2372287  19.5200063  21.6776321  97.9408460  20.2277260
  21.7324931  96.9882296  20.1519737  20.8667523  98.0967899  20.7118559
  19.6168681  96.5585520  17.9867639  18.8036546  96.8579690  18.3932831
  20.1127675  96.1641209  18.7042121  25.2142893  97.0227344  26.8182533
  25.5692280  97.2498817  27.6776999  25.8615024  97.3545721  26.1959788
  30.9440629 100.1445780  17.5231862  30.8058528 100.3347376  16.5953051
  30.5876848 100.9065163  17.9799913  19.1082756  94.1303875  23.6028874
  19.7482135  93.9892634  22.9051837  18.2760286  93.8438389  23.2267476
  30.9710009 102.2122307  22.5343133  31.4046516 102.1197596  23.3826187
  31.6841590 102.1879808  21.8963149  24.7037904 105.8124401  24.0676234
  24.7574926 106.3815338  24.8353950  23.8352685 105.9826286  23.7030271
  16.1111372  94.1004200  18.3801861  16.3718189  95.0149534  18.2711021
  16.9328544  93.6328643  18.5298474  17.5836297  95.5141957  25.5500685
  18.2559351  95.3059320  24.9013334  16.7566084  95.3164043  25.1105918
  31.8325559 102.2546008  25.0676019  32.0261449 103.1591818  25.3135294
  31.7326177 101.7953427  25.9014604  23.4861869  92.1403898  27.5666346
  22.8389784  92.8393848  27.4730823  24.2562885  92.5740042  27.9342594
  26.8940667 102.4052751  30.6416899  26.7426174 102.1763302  29.7246983
  26.8845347 103.3623352  30.6548244  23.6626004  99.9784663  25.6263166
  24.5918064 100.1295823  25.4532133  23.2417034 100.0668684  24.7711812
  22.4614336 104.0035328  23.3961704  22.3225421 103.6354112  24.2687642
  21.6728932 104.5182967  23.2245661  24.0119551 103.3816930  20.7850541
  23.6769383 103.3417700  21.6808191  23.5123496 102.7161646  20.3120952
  17.9863795  98.7884560  26.3103122  17.8483593  98.0564799  26.9114662
  18.8968718  98.6993461  26.0287310  20.6146095  98.5004520  25.7986802
  21.3245714  97.8597712  25.7573421  20.5715403  98.7517415  26.7212983
  28.6032874 105.4371873  28.7193381  28.5445420 104.7531093  28.0523964
  29.0052392 106.1790863  28.2674007  19.3275029  95.4869738  27.6182442
  18.7912386  95.0360476  28.2704038  18.7391738  95.6215646  26.8752906
  28.6050281 103.4011457  26.9507361  27.7177060 103.0637379  27.0733760
  29.1748832 102.6694488  27.1876126  15.0614150  94.6225745  24.7035436
  14.9772339  94.0151415  23.9685846  14.2396857  95.1134764  24.7044932
  22.1351435 108.0612909  23.9168604  22.0621606 108.8667881  24.4287909
  21.6928828 108.2604875  23.0916626  25.2337864  93.1079309  20.0705631
  25.7306564  92.3549271  19.7506701  24.4624846  93.1443626  19.5048840
  33.0867622  98.8119674  21.7123923  33.0757498  99.6944390  21.3417856
  32.2185001  98.4591225  21.5178460  24.5950118 107.9599743  26.0726763
  25.3078090 108.5947208  26.0002664  24.1040147 108.0563609  25.2566765
  26.3167645 101.8650996  17.6444055  25.3823924 101.9852459  17.4748759
  26.4944314 100.9623463  17.3804064  21.8172833  95.2496692  19.7977316
  21.4470621  94.6967732  20.4858221  22.3131926  94.6454825  19.2452316
  29.7040196  97.7068315  18.1794089  30.1700649  98.5396307  18.1054391
  30.1547697  97.2413297  18.8839347  19.6462032 105.7094187  26.8932334
  20.3471491 106.3430670  27.0461728  19.1757147 106.0508918  26.1327973
  27.7716428 104.0512137  15.1780241  28.0476271 103.9368731  16.0874115
  26.9020926 103.6529621  15.1392414  27.6756859  90.0748902  22.2184990
  26.7619939  90.3053129  22.3867197  28.1049961  90.1587346  23.0699022
  27.4463318  98.2638794  24.7184884  26.7934768  98.5114702  24.0637337
  27.8243698  97.4502932  24.3847361  23.4950891  99.0058605  31.2050921
  22.8191528  98.9052735  31.8753296  24.3178525  98.8497819  31.6686918
  22.2373674 110.3125533  25.4408537  22.7891982 110.4757154  26.2057622
  22.5779867 110.9029971  24.7688562  17.2138167  92.6600683  26.0430422
  17.2779493  93.5215514  25.6307820  17.1505287  92.0474684  25.3102780
  16.6890439  94.7323815  29.6903456  17.3162478  94.3500892  30.3040980
  15.8318358  94.5138017  30.0559149  27.0884548 105.1386790  31.2957192
  27.6324452 105.7516749  30.8012146  26.5071393 105.6966369  31.8124205
  25.3742061 108.2607508  22.4272219  25.2493200 107.4597248  21.9183165
  26.0321152 108.7553702  21.9386189  16.9950229  94.6156241  21.6049360
  16.2736815  95.2292209  21.4656833  17.7843485  95.1514006  21.5266005
  27.4376969 106.0616528  24.0551769  26.4907305 105.9421880  23.9830096
  27.7859742 105.1739026  24.1378031  19.7976543  91.9510667  27.8790011
  20.3210944  92.1972964  28.6416321  19.5788876  92.7830702  27.4593149
  24.4423403 105.8569245  20.2556122  24.2948365 104.9285952  20.4363692
  25.2676896 105.8789335  19.7713197  28.0457524 106.6797803  21.3420994
  28.9704072 106.4740665  21.2045445  27.8772828 106.4314205  22.2510336
  21.0029088  92.8924362  25.5639682  20.6625908  92.0932176  25.9660362
  20.2968094  93.1926073  24.9916515  21.6545559  89.9773675  24.0167005
  22.4771629  89.5034153  23.8945895  21.8983623  90.7564159  24.5165691
  24.4384917  93.7107082  15.2488239  24.6548531  94.5931720  14.9477067
  23.9578984  93.3193296  14.5193881  19.1784138  96.6692796  21.8258983
  19.0328719  96.9833099  22.7183265  18.7009342  97.2877696  21.2729882
  21.0380521  93.6595344  21.8739873  21.0242090  92.7636437  21.5372171
  21.7552949  93.6666007  22.5078159  22.8906652  94.0932684  23.9193000
  22.6324430  95.0149754  23.9177331  22.3591692  93.6963118  24.6093465
  27.8352841 107.1983471  16.6983086  28.0089718 106.6329893  15.9456938
  28.3281732 107.9984366  16.5162576  13.6529800  99.2098140  24.7646645
  13.1083268  99.9857948  24.8966919  14.5309150  99.5568944  24.6065766
  20.4417417  92.5409724  17.1427443  20.5633328  91.6126370  17.3418331
  20.1519459  92.5548410  16.2305759  23.3108607  90.2264634  20.2794163
  23.3330304  90.2903967  19.3246143  23.7276666  89.3869143  20.4734669
  33.6892232  99.9619894  18.3173386  34.1323378  99.2127219  17.9192509
  32.8118742  99.9530030  17.9347118  14.4395822  98.3368036  27.6576801
  13.6977558  98.4850672  28.2441432  14.1188567  98.5976302  26.7943551
  30.7219436 103.9649941  15.3267315  31.2470760 104.3037214  14.6016635
  30.6341789 103.0296956  15.1430449  22.3839485 107.8784014  27.4557191
  22.6926611 107.6333161  28.3279891  23.1814967 108.0830653  26.9676062
  19.9258497  94.0541721  31.3517376  19.9746652  94.9303844  30.9695145
  20.4681011  93.5119114  30.7789019  30.4113342 104.5982844  30.6318513
  29.6208886 104.5806983  30.0923012  30.1746697 105.1371138  31.3867549
  30.5311217 101.4475311  27.9451241  30.5809222 101.2825318  28.8866764
  30.4225141 100.5802570  27.5549122  27.8214980  97.4306239  29.2610548
  28.7224842  97.2912704  28.9694546  27.8962954  97.5960694  30.2008725
  22.1557785  94.8073094  28.1063734  21.2861094  95.1006660  27.8346323
  22.3917265  95.3913539  28.8270998  32.0329414 103.8672252  28.1893263
  31.7414222 104.2302233  29.0256724  31.4201545 103.1539261  28.0106595
  33.2325096 101.4325132  20.7095833  34.0671988 101.8714936  20.8733393
  33.3684225 100.9563785  19.8904079  30.2816602  98.9904867  26.6573321
  30.7570724  99.1832513  25.8492172  29.3582168  99.0464053  26.4116705
  24.8596819  91.0252710  25.6229155  25.3778763  91.7613737  25.2975643
  24.5051952  91.3316704  26.4575914  25.1109413  87.4452993  21.1430051
  25.3911167  86.7776182  21.7690478  25.8960020  87.6382089  20.6304715
  28.9818271  95.8670627  24.8901626  29.9335694  95.9668725  24.9113851
  28.8121722  95.0748896  25.3999711  27.0032651  92.9526210  25.0761027
  26.4082583  93.2331223  24.3807516  26.7182348  93.4420111  25.8477769
  31.4606349  99.0876747  24.0043926  31.4282669  98.1492747  24.1903610
  32.0706973  99.1660783  23.2709751  31.6100838  95.8787790  24.0502209
  31.0939886  95.0946247  23.8632138  32.4940786  95.5506507  24.2148729
  29.2711565  89.6228806  20.0098022  29.0736386  89.3143894  20.8941354
  29.8811270  90.3490445  20.1395952  37.2782899 100.1492754  23.1449963
  38.0086287  99.8878042  23.7057666  36.6689844  99.4121475  23.1852031
  35.3598196  98.2900616  23.7424414  34.6331360  98.1556581  23.1340906
  34.9445483  98.5977445  24.5481132  23.1828373 102.0090546  31.5071787
  24.1031382 102.1869145  31.7011834  23.1477956 101.0646591  31.3551486
  16.1790445  99.9191580  24.1494568  16.3976455 100.8508688  24.1682602
  16.5916219  99.5599555  24.9349372  23.0994663  90.4259666  16.1370257
  22.2895391  90.0806751  16.5125503  23.7879080  90.1167210  16.7257868
  25.0285211  89.5037713  17.7594553  25.5816250  89.9233166  18.4184576
  25.2655298  88.5773461  17.8017509  21.0518310  95.4924786  33.5397317
  20.9515037  96.4419143  33.4709408  20.8339852  95.1643025  32.6673387
  28.4064018  91.6138238  17.2673218  27.8262687  92.2723042  16.8851270
  28.1399951  90.7915582  16.8560635  26.8567585  91.0143295  19.4694538
  27.3567363  91.1259830  18.6608857  27.5003193  90.7104348  20.1095346
  20.9149580  98.9221925  32.3562379  20.4316662  99.7222285  32.5626268
  21.0010519  98.9329870  31.4029823  16.8422918 102.8126460  24.3930813
  17.7966171 102.7810402  24.3260744  16.6435442 102.3517084  25.2081039
  17.4322300 101.3827576  26.9601610  18.2515189 101.8771654  26.9836448
  17.7059108 100.4659544  26.9319178  27.1888896  93.7738328  16.3229566
  26.3014751  94.0587979  16.1049761  27.6042885  93.6132091  15.4756843
  30.5403432  93.7984849  20.0383905  31.3163823  94.2881302  20.3108522
  29.8151567  94.2242903  20.4955775  32.9775991  94.5112468  21.0957846
  33.5720482  94.2708204  20.3851154  33.0502575  93.7919599  21.7231382
  27.1629920  99.2892864  16.5379856  27.1065121  99.7461415  15.6987488
  27.7158262  98.5283549  16.3602699  30.9734726  95.0782596  17.3629976
  30.7171660  94.6779232  18.1938183  30.3487594  95.7926390  17.2380115
  35.2847064  97.8178669  19.8701267  34.7246622  97.8871858  20.6432829
  34.6790567  97.6419654  19.1500763  27.8964699 100.4797645  13.8332385
  27.8413503 100.3141917  12.8920829  27.2710755 101.1873678  13.9894575
  12.6857214  95.7165710  27.6593807  13.3316078  95.2064664  28.1481033
  12.4774365  96.4534391  28.2337233  25.2110607 102.7846557  33.1585948
  26.0801766 102.9587209  32.7972583  24.7317358 103.6040974  33.0361677
  21.2060825  89.9805754  13.4117704  21.1939495  90.9247594  13.5685974
  22.0984247  89.7975900  13.1177165  19.3796787 109.9043658  24.8375382
  20.2824033 109.9367268  25.1541877  19.1534157 108.9744109  24.8521717
  25.0212944  86.5748531  17.6663640  24.2545340  86.0207018  17.8120323
  25.4323649  86.6470400  18.5277792  17.0254705  92.8633327  31.7568822
  17.8886167  92.5070132  31.9672146  16.4520116  92.5247222  32.4444226
  36.8703082 114.4935183  22.5631223  37.5081492 114.3741930  21.8594563
  36.7523925 115.4416027  22.6219175  33.6792789 114.4462611  22.4992747
  33.3411300 114.3303676  21.6113282  34.5482557 114.0453776  22.4793753
  34.1612572 115.5997463  28.4578953  34.1501212 115.2050261  27.5859457
  34.3233211 114.8663536  29.0512724  36.4244351 112.2186637  19.6384431
  37.2107440 111.8006060  19.2874848  36.6883055 113.1232729  19.8066079
  41.8252778 112.1561870  20.5417409  42.5577950 111.5861087  20.7755239
  41.0692134 111.7683471  20.9823915  33.4428898 114.5789112  17.7380752
  33.0787105 114.0519733  18.4493673  34.2996013 114.1887581  17.5647237
  39.3478198 105.8683444  25.0012018  39.0161523 106.7378855  24.7773233
  38.7523812 105.5519728  25.6806048  39.2406862 110.5878530  22.0805368
  38.3323739 110.5193939  21.7864129  39.1894457 111.0650475  22.9087193
  33.3147727 112.0068176  30.0240265  32.5381061 112.5662096  30.0143130
  33.9538290 112.4924959  30.5455135  41.1068508 108.7894969  23.8583242
  40.4642888 109.0827502  23.2123036  40.6023436 108.6747889  24.6636438
  38.7608672 112.5358142  14.5469101  39.6726528 112.7685529  14.3716799
  38.2518319 113.1195186  13.9844180  33.3980509 111.8955377  25.5563951
  34.2441704 112.3194790  25.6998600  33.3379147 111.2389001  26.2502514
  36.5479955 109.5559745  27.2145124  36.3040887 110.3101806  26.6779400
  36.8239885 109.9345093  28.0492371  38.5018417 116.0998357  25.8922390
  38.7135313 116.7430117  25.2156771  38.4548166 115.2660674  25.4244320
  36.1044646 108.7116178  22.7958962  35.2429125 109.0097432  23.0875700
  36.1307081 108.9286577  21.8639995  30.3055463 111.9693278  30.3873542
  29.6754124 112.6509558  30.6208939  30.1991551 111.8576359  29.4426680
  47.7070238 115.3209061  20.4129719  46.9533947 114.7516459  20.2573723
  47.8417780 115.2871726  21.3600353  29.5836206 106.2714043  32.7498793
  29.1903152 105.7180242  33.4246437  30.4002346 106.5824622  33.1405311
  32.5004167 107.6871922  30.3419050  33.2413880 108.2879076  30.2623512
  32.7322090 106.9449560  29.7837092  36.4461330 103.7153025  24.6183331
  36.1025599 104.6054667  24.5422442  36.8140293 103.5254683  23.7552916
  33.9958724 108.5511337  18.1841005  33.1400320 108.1618188  18.0046644
  34.4085676 108.6303298  17.3240790  35.5257870 106.0857681  22.5832565
  35.0222666 106.0487816  21.7700370  35.8188477 106.9950423  22.6429221
  31.7700756 106.1696410  21.5898746  32.6353753 105.9739219  21.2304636
  31.8378265 105.9406762  22.5168103  41.3845887 116.4593991  15.0608940
  40.6075330 116.1205151  14.6164102  42.0637368 116.4646614  14.3863905
  36.1997916 111.5788729  14.9515548  35.8948051 111.8934878  15.8025691
  37.1528358 111.6570149  14.9942881  39.6237194 115.9327972  21.7175548
  38.9660868 116.6227234  21.8055677  40.4277593 116.3224404  22.0609534
  29.3763075 108.3998618  18.9615113  29.9506827 108.1773800  18.2288306
  29.9634058 108.4687313  19.7143715  38.4342653 114.2872345  19.7679490
  38.9474534 114.9202337  20.2701199  39.0843876 113.6873541  19.4022850
  31.6785743 105.2739867  17.6890183  31.0250155 104.9588884  17.0646797
  31.6366217 104.6515608  18.4150006  34.9123483 111.7621801  22.0137830
  33.9946045 111.9836748  21.8559518  35.3283627 111.8368111  21.1549538
  35.6958531 113.1613216  17.1440511  36.4430350 113.6734614  16.8347633
  35.9650121 112.8397269  18.0044904  38.1437368 110.1970333  19.1259300
  37.4060125 109.6847719  19.4569542  38.3964142 109.7570714  18.3142577
  38.2448996 102.9746585  19.7201069  38.5507872 102.1143948  19.4326984
  38.9701600 103.5664205  19.5200063  32.5170075 113.2700378  20.2277260
  32.5718685 112.3174214  20.1519737  31.7061277 113.4259817  20.7118559
  30.4562435 111.8877437  17.9867639  29.6430301 112.1871608  18.3932831
  30.9521430 111.4933126  18.7042121  36.0536647 112.3519262  26.8182533
  36.4086035 112.5790735  27.6776999  36.7008778 112.6837639  26.1959788
  41.7834384 115.4737698  17.5231862  41.6452283 115.6639294  16.5953051
  41.4270603 116.2357081  17.9799913  29.9476510 109.4595793  23.6028874
  30.5875889 109.3184552  22.9051837  29.1154041 109.1730306  23.2267476
  41.8103764 117.5414225  22.5343133  42.2440270 117.4489514  23.3826187
  42.5235344 117.5171725  21.8963149  26.9505127 109.4296118  18.3801861
  27.2111944 110.3441451  18.2711021  27.7722299 108.9620561  18.5298474
  28.4230052 110.8433875  25.5500685  29.0953105 110.6351237  24.9013334
  27.5959838 110.6455961  25.1105918  42.6719313 117.5837925  25.0676019
  42.8655203 118.4883736  25.3135294  42.5719931 117.1245345  25.9014604
  34.3255624 107.4695816  27.5666346  33.6783539 108.1685766  27.4730823
  35.0956639 107.9031960  27.9342594  34.5019758 115.3076581  25.6263166
  35.4311818 115.4587741  25.4532133  34.0810788 115.3960602  24.7711812
  31.4539850 113.8296437  25.7986802  32.1639468 113.1889630  25.7573421
  31.4109158 114.0809332  26.7212983  30.1668784 110.8161655  27.6182442
  29.6306141 110.3652394  28.2704038  29.5785492 110.9507564  26.8752906
  25.9007905 109.9517663  24.7035436  25.8166094 109.3443333  23.9685846
  25.0790611 110.4426681  24.7044932  36.0731619 108.4371227  20.0705631
  36.5700318 107.6841189  19.7506701  35.3018600 108.4735543  19.5048840
  43.9261376 114.1411592  21.7123923  43.9151253 115.0236307  21.3417856
  43.0578756 113.7883143  21.5178460  32.6566588 110.5788610  19.7977316
  32.2864375 110.0259650  20.4858221  33.1525680 109.9746743  19.2452316
  40.5433951 113.0360233  18.1794089  41.0094403 113.8688225  18.1054391
  40.9941451 112.5705215  18.8839347  38.5150614 105.4040820  22.2184990
  37.6013693 105.6345047  22.3867197  38.9443715 105.4879264  23.0699022
  38.2857072 113.5930712  24.7184884  37.6328522 113.8406619  24.0637337
  38.6637452 112.7794850  24.3847361  34.3344645 114.3350523  31.2050921
  33.6585282 114.2344652  31.8753296  35.1572279 114.1789737  31.6686918
  28.0531921 107.9892600  26.0430422  28.1173248 108.8507431  25.6307820
  27.9899042 107.3766602  25.3102780  27.5284194 110.0615733  29.6903456
  28.1556233 109.6792810  30.3040980  26.6712113 109.8429935  30.0559149
  27.8343984 109.9448159  21.6049360  27.1130569 110.5584126  21.4656833
  28.6237239 110.4805923  21.5266005  30.6370297 107.2802585  27.8790011
  31.1604699 107.5264882  28.6416321  30.4182630 108.1122620  27.4593149
  31.8422842 108.2216280  25.5639682  31.5019662 107.4224093  25.9660362
  31.1361848 108.5217991  24.9916515  32.4939314 105.3065593  24.0167005
  33.3165383 104.8326071  23.8945895  32.7377377 106.0856076  24.5165691
  35.2778671 109.0399000  15.2488239  35.4942286 109.9223638  14.9477067
  34.7972738 108.6485213  14.5193881  30.0177893 111.9984713  21.8258983
  29.8722473 112.3125016  22.7183265  29.5403096 112.6169614  21.2729882
  31.8774276 108.9887261  21.8739873  31.8635844 108.0928354  21.5372171
  32.5946704 108.9957925  22.5078159  33.7300406 109.4224601  23.9193000
  33.4718184 110.3441672  23.9177331  33.1985447 109.0255036  24.6093465
  31.2811172 107.8701641  17.1427443  31.4027083 106.9418288  17.3418331
  30.9913214 107.8840327  16.2305759  34.1502362 105.5556552  20.2794163
  34.1724059 105.6195885  19.3246143  34.5670421 104.7161061  20.4734669
  44.5285986 115.2911811  18.3173386  44.9717132 114.5419137  17.9192509
  43.6512497 115.2821948  17.9347118  30.7652251 109.3833639  31.3517376
  30.8140407 110.2595762  30.9695145  31.3074765 108.8411032  30.7789019
  41.3704972 116.7767228  27.9451241  41.4202977 116.6117236  28.8866764
  41.2618895 115.9094487  27.5549122  38.6608734 112.7598156  29.2610548
  39.5618597 112.6204621  28.9694546  38.7356709 112.9252611  30.2008725
  32.9951539 110.1365011  28.1063734  32.1254849 110.4298577  27.8346323
  33.2311020 110.7205456  28.8270998  44.0718851 116.7617050  20.7095833
  44.9065742 117.2006854  20.8733393  44.2077980 116.2855703  19.8904079
  41.1210357 114.3196785  26.6573321  41.5964478 114.5124431  25.8492172
  40.1975922 114.3755970  26.4116705  35.6990573 106.3544628  25.6229155
  36.2172517 107.0905655  25.2975643  35.3445706 106.6608621  26.4575914
  35.9503167 102.7744911  21.1430051  36.2304921 102.1068100  21.7690478
  36.7353774 102.9674006  20.6304715  39.8212026 111.1962545  24.8901626
  40.7729449 111.2960642  24.9113851  39.6515476 110.4040813  25.3999711
  37.8426405 108.2818128  25.0761027  37.2476337 108.5623141  24.3807516
  37.5576102 108.7712029  25.8477769  42.3000104 114.4168664  24.0043926
  42.2676424 113.4784665  24.1903610  42.9100727 114.4952701  23.2709751
  42.4494592 111.2079708  24.0502209  41.9333641 110.4238164  23.8632138
  43.3334541 110.8798424  24.2148729  40.1105319 104.9520723  20.0098022
  39.9130140 104.6435812  20.8941354  40.7205025 105.6782362  20.1395952
  48.1176653 115.4784671  23.1449963  48.8480042 115.2169959  23.7057666
  47.5083599 114.7413393  23.1852031  46.1991951 113.6192534  23.7424414
  45.4725114 113.4848499  23.1340906  45.7839237 113.9269362  24.5481132
  33.9388417 105.7551583  16.1370257  33.1289146 105.4098668  16.5125503
  34.6272834 105.4459127  16.7257868  35.8678966 104.8329630  17.7594553
  36.4210004 105.2525084  18.4184576  36.1049052 103.9065378  17.8017509
  31.8912065 110.8216704  33.5397317  31.7908792 111.7711061  33.4709408
  31.6733607 110.4934943  32.6673387  39.2457773 106.9430155  17.2673218
  38.6656442 107.6014959  16.8851270  38.9793705 106.1207500  16.8560635
  37.6961339 106.3435213  19.4694538  38.1961117 106.4551748  18.6608857
  38.3396947 106.0396266  20.1095346  38.0282651 109.1030246  16.3229566
  37.1408506 109.3879896  16.1049761  38.4436640 108.9424009  15.4756843
  41.3797187 109.1276767  20.0383905  42.1557577 109.6173219  20.3108522
  40.6545321 109.5534821  20.4955775  43.8169746 109.8404386  21.0957846
  44.4114236 109.6000122  20.3851154  43.8896329 109.1211517  21.7231382
  38.0023675 114.6184782  16.5379856  37.9458876 115.0753333  15.6987488
  38.5552017 113.8575466  16.3602699  41.8128480 110.4074514  17.3629976
  41.5565415 110.0071149  18.1938183  41.1881348 111.1218308  17.2380115
  46.1240818 113.1470587  19.8701267  45.5640376 113.2163776  20.6432829
  45.5184322 112.9711571  19.1500763  38.7358454 115.8089563  13.8332385
  38.6807258 115.6433834  12.8920829  38.1104509 116.5165596  13.9894575
  23.5250969 111.0457627  27.6593807  24.1709832 110.5356581  28.1481033
  23.3168120 111.7826309  28.2337233  32.0454579 105.3097672  13.4117704
  32.0333249 106.2539512  13.5685974  32.9378001 105.1267817  13.1177165
  35.8606699 101.9040449  17.6663640  35.0939095 101.3498935  17.8120323
  36.2717404 101.9762317  18.5277792  27.8648460 108.1925244  31.7568822
  28.7279921 107.8362049  31.9672146  27.2913870 107.8539139  32.4444226
  47.2855085 119.0444943  24.6183331  46.9419354 119.9346585  24.5422442
  47.6534047 118.8546601  23.7552916  49.0842750 118.3038502  19.7201069
  49.3901627 117.4435866  19.4326984  49.8095355 118.8956122  19.5200063
  46.7896922 118.1036828  21.1430051  47.0698676 117.4360017  21.7690478
  47.5747529 118.2965924  20.6304715  50.9499074 120.2812641  20.0098022
  50.7523895 119.9727729  20.8941354  51.5598779 121.0074280  20.1395952
  46.7000453 117.2332366  17.6663640  45.9332849 116.6790853  17.8120323
  47.1111158 117.3054235  18.5277792   6.9245366  51.7850160  15.4438688
   6.8657912  51.1009380  14.7769271   7.3264885  52.5269150  14.9919314
   5.4097040  51.4865078  18.0202498   5.9536944  52.0995036  17.5257453
   4.8283885  52.0444656  18.5369511   8.7325835  50.9461132  17.3563819
   7.9421378  50.9285270  16.8168319   8.4959189  51.4849425  18.1112856
  10.3541906  50.2150540  14.9138570  10.0626715  50.5780520  15.7502030
   9.7414038  49.5017548  14.7351902   3.5323099  49.1324844  19.8831255
   4.4014258  49.3065497  19.5217890   3.0529850  49.9519261  19.7606984
  15.1915575  60.8413470   9.2876529  15.8293984  60.7220218   8.5839869
  15.0736417  61.7894314   9.3464481  12.0005281  60.7940898   9.2238054
  11.6623792  60.6781963   8.3358589  12.8695049  60.3932064   9.2039060
  12.4825064  61.9475750  15.1824259  12.4713705  61.5528548  14.3104763
  12.6445703  61.2141823  15.7758031   9.2032325  64.7312862  14.1303443
   8.9122191  65.6358493  14.0150110   9.8389309  64.7729390  14.8447513
  10.1288532  62.1089711  10.7204803  10.7252104  61.8845733  10.0061766
  10.1863503  61.3674456  11.3230251  20.1465270  58.5040157   7.2662716
  20.8790442  57.9339374   7.5000545  19.3904626  58.1161758   7.7069221
  17.6690690  52.2161732  11.7257324  17.3374015  53.0857142  11.5018539
  17.0736304  51.8998016  12.4051355  14.1622210  64.4174277  11.1253237
  13.8622933  65.3199316  11.0169044  13.8173270  64.1506461  11.9774390
  17.5619354  56.9356818   8.8050674  16.6536231  56.8672226   8.5109435
  17.5106950  57.4128763   9.6332500  11.6360220  58.3546463  16.7485572
  10.8593554  58.9140383  16.7388436  12.2750783  58.8403246  17.2700442
  19.4281000  55.1373256  10.5828548  18.7855380  55.4305789   9.9368343
  18.9235929  55.0226176  11.3881745   9.8906592  61.1631917  16.3103539
  10.6321276  61.7016961  16.0338362   9.1843577  61.7898205  16.4675091
  15.3661932  63.3061057  14.9075700  15.7745288  62.8643468  14.1630333
  14.6439193  62.7313685  15.1609893  11.7193002  58.2433664  12.2809257
  12.5654197  58.6673077  12.4243906  11.6591639  57.5867288  12.9747820
  15.6890746  63.8662248   8.6627989  15.0599609  64.0307962   7.9604057
  15.3016408  64.2803857   9.4338953  19.5679978  64.8016686   6.0172353
  18.8831016  65.1815587   5.4669386  19.6523827  65.4112012   6.7504301
  14.8692447  55.9038032  13.9390431  14.6253379  56.6580093  13.4024707
  15.1452377  56.2823380  14.7737678  16.8230910  62.4476645  12.6167696
  17.0347805  63.0908404  11.9402077  16.7760658  61.6138961  12.1489626
   8.1342789  63.1508137   8.8657837   8.7044146  63.5795406   8.2275322
   8.7250901  62.8690722   9.5642023   8.6267956  58.3171565  17.1118849
   7.9966616  58.9987846  17.3454246   8.5204044  58.2054646  16.1671987
  17.9376738  65.3248600  10.7890054  18.7594181  64.9228787  10.5072735
  17.9339140  65.2216834  11.7406170  11.7033341  64.8732643  12.9450764
  11.7677774  65.3353051  13.7808936  10.9944265  64.2430008  13.0733074
  26.0282731  61.6687348   7.1375025  25.2746439  61.0994747   6.9819030
  26.1630272  61.6350013   8.0845660   7.9048698  52.6192331  19.4744100
   7.5115644  52.0658529  20.1491744   8.7214839  52.9302909  19.8650617
  10.8216659  54.0350210  17.0664356  11.5626373  54.6357363  16.9868819
  11.0534582  53.2927848  16.5082399   5.9657997  59.2206577  15.3442586
   5.8511512  58.3191834  15.6449685   5.1102515  59.4670274  14.9927403
  13.0449835  67.1624317  16.9430087  12.6013689  66.3760696  16.6250991
  13.7067049  67.3503468  16.2773977   7.8036956  68.6920119  11.4690765
   8.3544381  68.5637182  10.6967759   6.9648432  68.9915008  11.1185658
  15.1431073  67.4427117  14.9711488  15.1249549  68.2635998  14.4791757
  16.0650993  67.3181192  15.1961629  11.6004127  64.9571247  15.8134996
  12.1332464  64.1959535  15.5834304  11.0718208  64.6644899  16.5559151
  17.9449686  62.2806260   8.4420855  17.2873360  62.9705521   8.5300983
  18.7490085  62.6702692   8.7854841  16.7555145  60.6350632   6.4924796
  17.2687027  61.2680624   6.9946506  17.4056369  60.0351828   6.1268156
  13.2335976  58.1100088   8.7383137  12.3158537  58.3315035   8.5804825
  13.6496119  58.1846398   7.8794844  17.5216941  65.6156634   4.6203939
  17.0679268  64.7747544   4.6769129  16.8910908  66.2518032   4.9578719
  15.9649880  67.4533131   5.5553757  16.2572855  68.0138188   4.8366123
  16.4748501  67.7461692   6.3106916  14.3749139  58.6997549  13.5427840
  14.7298527  58.9269022  14.4022305  15.0221271  59.0315926  12.9205095
  20.1046876  61.8215985   4.2477169  19.9664775  62.0117581   3.3198358
  19.7483095  62.5835368   4.7045220  20.1316256  63.8892512   9.2588440
  20.5652763  63.7967801  10.1071494  20.8447837  63.8650013   8.6208456
  13.8644151  67.4894606  10.7921541  13.9181173  68.0585542  11.5599257
  12.9958932  67.6596491  10.4275578   6.7442544  57.1912162  12.2745992
   7.4165598  56.9829524  11.6258641   5.9172331  56.9934248  11.8351224
  20.9931805  63.9316213  11.7921326  21.1867695  64.8362023  12.0380600
  20.8932424  63.4723632  12.6259911  12.6468116  53.8174103  14.2911653
  11.9996031  54.5164053  14.1976129  13.4169132  54.2510247  14.6587901
  16.0546914  64.0822955  17.3662206  15.9032420  63.8533507  16.4492290
  16.0451594  65.0393557  17.3793551  12.8232250  61.6554868  12.3508473
  13.7524310  61.8066028  12.1777440  12.4023281  61.7438889  11.4957119
  11.6220582  65.6805533  10.1207010  11.4831668  65.3124317  10.9932948
  10.8335178  66.1953172   9.9490968  13.1725797  65.0587135   7.5095848
  12.8375630  65.0187905   8.4053498  12.6729743  64.3931851   7.0366258
   7.1470041  60.4654765  13.0348429   7.0089839  59.7335004  13.6359968
   8.0574965  60.3763665  12.7532617   9.7752342  60.1774725  12.5232109
  10.4851961  59.5367917  12.4818727   9.7321650  60.4287620  13.4458290
  17.7639121  67.1142078  15.4438688  17.7051667  66.4301298  14.7769271
  18.1658639  67.8561068  14.9919314   8.4881276  57.1639943  14.3427748
   7.9518633  56.7130681  14.9949345   7.8997984  57.2985851  13.5998213
  17.7656528  65.0781662  13.6752668  16.8783307  64.7407584  13.7979067
  18.3355079  64.3464693  13.9121433  11.2957681  69.7383114  10.6413911
  11.2227853  70.5438086  11.1533215  10.8535074  69.9375080   9.8161932
  22.2473869  60.4889879   8.4369229  22.2363745  61.3714595   8.0663162
  21.3791248  60.1361430   8.2423766  13.7556365  69.6369948  12.7972070
  14.4684337  70.2717413  12.7247971  13.2646394  69.7333814  11.9812071
   8.8068278  67.3864392  13.6177640   9.5077738  68.0200875  13.7707035
   8.3363393  67.7279123  12.8573280  16.6069564  59.9408999  11.4430191
  15.9541015  60.1884907  10.7882643  16.9849944  59.1273137  11.1092668
  12.6557137  60.6828810  17.9296228  11.9797774  60.5822940  18.5998603
  13.4784771  60.5268024  18.3932225  11.3979920  71.9895738  12.1653844
  11.9498228  72.1527359  12.9302929  11.7386114  72.5800176  11.4933869
   5.8496686  56.4094020  16.4148763   6.4768725  56.0271097  17.0286287
   4.9924605  56.1908222  16.7804455  16.2490795  66.8156995  18.0202498
  16.7930699  67.4286954  17.5257453  15.6677639  67.3736574  18.5369511
  14.5348308  69.9377713   9.1517526  14.4099447  69.1367453   8.6428471
  15.1927399  70.4323907   8.6631496  16.5983216  67.7386733  10.7797076
  15.6513552  67.6192085  10.7075403  16.9465989  66.8509231  10.8623337
   8.9582789  53.6280872  14.6035318   9.4817191  53.8743169  15.3661627
   8.7395123  54.4600907  14.1838455  13.6029649  67.5339450   6.9801428
  13.4554612  66.6056157   7.1608998  14.4283143  67.5559540   6.4958503
  17.2063771  68.3568008   8.0666301  18.1310319  68.1510870   7.9290752
  17.0379074  68.1084409   8.9755642  10.1635334  54.5694567  12.2884988
   9.8232155  53.7702380  12.6905668   9.4574341  54.8696278  11.7161822
  12.0512899  55.7702889  10.6438307  11.7930676  56.6919959  10.6422637
  11.5197939  55.3733323  11.3338771  16.9959087  68.8753676   3.4228392
  17.1695965  68.3100098   2.6702245  17.4887979  69.6754571   3.2407882
   2.8136047  60.8868345  11.4891951   2.2689515  61.6628153  11.6212226
   3.6915397  61.2339149  11.3311073  22.8498478  61.6390099   5.0418692
  23.2929625  60.8897424   4.6437815  21.9724989  61.6300235   4.6592424
   3.6002069  60.0138241  14.3822108   2.8583805  60.1620876  14.9686739
   3.2794813  60.2746507  13.5188858  19.8825683  65.6420146   2.0512621
  20.4077007  65.9807418   1.3261942  19.7948035  64.7067161   1.8675756
  11.5445732  69.5554219  14.1802498  11.8532858  69.3103366  15.0525198
  12.3421214  69.7600858  13.6921368   9.0864743  55.7311926  18.0762682
   9.1352899  56.6074049  17.6940452   9.6287258  55.1889319  17.5034326
  19.5719589  66.2753049  17.3563819  18.7815133  66.2577188  16.8168319
  19.3352944  66.8141343  18.1112856  19.6917464  63.1245516  14.6696548
  19.7415469  62.9595523  15.6112071  19.5831387  62.2572775  14.2794429
  16.9821226  59.1076444  15.9855855  17.8831089  58.9682909  15.6939852
  17.0569201  59.2730899  16.9254032  11.3164032  56.4843298  14.8309041
  10.4467341  56.7776865  14.5591630  11.5523512  57.0683743  15.5516305
  21.1935661  65.5442457  14.9138570  20.9020469  65.9072438  15.7502030
  20.5807792  64.8309465  14.7351902  22.3931343  63.1095337   7.4341140
  23.2278235  63.5485141   7.5978700  22.5290472  62.6333990   6.6149386
  19.4422849  60.6675072  13.3818628  19.9176971  60.8602718  12.5737479
  18.5188414  60.7234258  13.1362011  14.0203066  52.7022915  12.3474461
  14.5385009  53.4383942  12.0220950  13.6658198  53.0086909  13.1821221
  18.1424518  57.5440832  11.6146933  19.0941941  57.6438930  11.6359157
  17.9727969  56.7519100  12.1245017  16.1638898  54.6296415  11.8006334
  15.5688830  54.9101428  11.1052823  15.8788594  55.1190316  12.5723075
  20.6212596  60.7646952  10.7289233  20.5888916  59.8262952  10.9148917
  21.2313220  60.8430988   9.9955058  20.7707084  57.5557995  10.7747516
  20.2546133  56.7716452  10.5877445  21.6547033  57.2276712  10.9394035
  26.4389146  61.8262958   9.8695270  27.1692534  61.5648247  10.4302973
  25.8296091  61.0891680   9.9097338  24.5204443  59.9670821  10.4669721
  23.7937606  59.8326786   9.8586212  24.1051730  60.2747650  11.2726439
  12.3434619  63.6860751  18.2317094  13.2637629  63.8639350  18.4257140
  12.3084202  62.7416796  18.0796793   5.3396692  61.5961785  10.8739875
   5.5582702  62.5278893  10.8927909   5.7522466  61.2369760  11.6594679
  10.2124557  57.1694991  20.2642624  10.1121284  58.1189348  20.1954715
   9.9946099  56.8413230  19.3918694  10.0755827  60.5992130  19.0807686
   9.5922909  61.3992490  19.2871575  10.1616766  60.6100075  18.1275130
   6.0029165  64.4896665  11.1176119   6.9572418  64.4580607  11.0506051
   5.8041688  64.0287288  11.9326345   6.5928547  63.0597781  13.6846917
   7.4121436  63.5541859  13.7081754   6.8665355  62.1429749  13.6564484
  22.1382238  56.1882673   7.8203152  22.7326729  55.9478409   7.1096461
  22.2108822  55.4689804   8.4476689  24.4453311  59.4948874   6.5946574
  23.8852869  59.5642063   7.3678136  23.8396814  59.3189859   5.8746070
   1.8463461  57.3935915  14.3839114   2.4922325  56.8834869  14.8726339
   1.6380612  58.1304596  14.9582539  14.3716853  64.4616762  19.8831255
  15.2408013  64.6357414  19.5217890  13.8923605  65.2811179  19.7606984
   8.5403033  71.5813863  11.5620688   9.4430280  71.6137473  11.8787183
   8.3140404  70.6514314  11.5767024   6.1860952  54.5403532  18.4814128
   7.0492414  54.1840337  18.6917453   5.6126363  54.2017426  19.1689533
  26.0309329  76.1705388   9.2876529  26.6687739  76.0512135   8.5839869
  25.9130172  77.1186232   9.3464481  22.8399035  76.1232816   9.2238054
  22.5017547  76.0073881   8.3358589  23.7088803  75.7223981   9.2039060
  23.3218818  77.2767668  15.1824259  23.3107459  76.8820466  14.3104763
  23.4839458  76.5433740  15.7758031  20.0426079  80.0604780  14.1303443
  19.7515945  80.9650411  14.0150110  20.6783064  80.1021307  14.8447513
  20.9682286  77.4381628  10.7204803  21.5645859  77.2137651  10.0061766
  21.0257258  76.6966374  11.3230251  25.5850597  73.8956842   6.3629737
  26.3713687  73.4776265   6.0120154  25.8489302  74.8002934   6.5311386
  30.9859025  73.8332075   7.2662716  31.7184197  73.2631292   7.5000545
  30.2298380  73.4453676   7.7069221  22.6035144  76.2559317   4.4626058
  22.2393352  75.7289938   5.1738980  23.4602260  75.8657786   4.2892544
  28.5084445  67.5453649  11.7257324  28.1767770  68.4149060  11.5018539
  27.9130058  67.2289933  12.4051355  25.0015964  79.7466195  11.1253237
  24.7016688  80.6491234  11.0169044  24.6567024  79.4798378  11.9774390
  18.4528446  76.1979992   7.1589942  17.5278942  76.0656206   7.3667633
  18.7012859  76.9774211   7.6559884  28.4013108  72.2648735   8.8050674
  27.4929986  72.1964144   8.5109435  28.3500704  72.7420680   9.6332500
  22.4753974  73.6838381  16.7485572  21.6987308  74.2432301  16.7388436
  23.1144537  74.1695164  17.2700442  30.2674755  70.4665174  10.5828548
  29.6249135  70.7597707   9.9368343  29.7629683  70.3518094  11.3881745
  27.9214918  74.2128347   1.2714408  28.8332774  74.4455734   1.0962105
  27.4124565  74.7965391   0.7089486  20.7300346  76.4923834  16.3103539
  21.4715031  77.0308878  16.0338362  20.0237332  77.1190123  16.4675091
  26.2055686  78.6352975  14.9075700  26.6139042  78.1935385  14.1630333
  25.4832948  78.0605602  15.1609893  22.5586756  73.5725582  12.2809257
  23.4047951  73.9964995  12.4243906  22.4985394  72.9159206  12.9747820
  26.5284501  79.1954165   8.6627989  25.8993363  79.3599880   7.9604057
  26.1410163  79.6095775   9.4338953  30.4073733  80.1308603   6.0172353
  29.7224771  80.5107505   5.4669386  30.4917582  80.7403930   6.7504301
  25.7086201  71.2329950  13.9390431  25.4647133  71.9872010  13.4024707
  25.9846132  71.6115298  14.7737678  27.6624664  77.7768562  12.6167696
  27.8741559  78.4200322  11.9402077  27.6154412  76.9430879  12.1489626
  25.2650893  70.3886383   9.5204269  24.4035372  70.6867636   9.8121006
  25.2913328  70.6056782   8.5885301  22.0812463  78.9328573   5.9278074
  22.5450808  79.2116276   5.1382697  21.8169261  78.0312018   5.7451165
  18.9736544  78.4800055   8.8657837  19.5437901  78.9087323   8.2275322
  19.5644655  78.1982640   9.5642023  19.4661710  73.6463482  17.1118849
  18.8360371  74.3279763  17.3454246  19.3597798  73.5346564  16.1671987
  28.7770492  80.6540518  10.7890054  29.5987936  80.2520705  10.5072735
  28.7732895  80.5508752  11.7406170  22.5427096  80.2024561  12.9450764
  22.6071528  80.6644968  13.7808936  21.8338019  79.5721926  13.0733074
  13.0444386  73.5665769  10.4699764  13.2952424  74.4512779  10.7357340
  13.5803934  73.3870370   9.6974856  36.8676485  76.9979266   7.1375025
  36.1140194  76.4286664   6.9819030  37.0024026  76.9641931   8.0845660
  18.7442453  67.9484248  19.4744100  18.3509398  67.3950447  20.1491744
  19.5608593  68.2594827  19.8650617  21.6610414  69.3642127  17.0664356
  22.4020127  69.9649281  16.9868819  21.8928337  68.6219765  16.5082399
  16.8051752  74.5498495  15.3442586  16.6905267  73.6483752  15.6449685
  15.9496270  74.7962191  14.9927403  23.8843590  82.4916235  16.9430087
  23.4407444  81.7052614  16.6250991  24.5460803  82.6795385  16.2773977
  18.6430711  84.0212037  11.4690765  19.1938136  83.8929100  10.6967759
  17.8042187  84.3206926  11.1185658  25.9824828  82.7719035  14.9711488
  25.9643303  83.5927916  14.4791757  26.9044748  82.6473110  15.1961629
  22.4397882  80.2863164  15.8134996  22.9726219  79.5251453  15.5834304
  21.9111963  79.9936816  16.5559151  25.6067577  65.3923230  11.3428638
  25.2631846  66.2824872  11.2667749  25.9746539  65.2024888  10.4798223
  23.1564971  70.2281542   4.9086312  22.3006567  69.8388393   4.7291950
  23.5691922  70.3073503   4.0486097  24.6864117  67.7627886   9.3077871
  24.1828913  67.7258021   8.4945677  24.9794724  68.6720628   9.3674528
  20.9307003  67.8466615   8.3144053  21.7960000  67.6509424   7.9549943
  20.9984512  67.6176967   9.2413410  30.5452134  78.1364196   1.7854247
  29.7681576  77.7975356   1.3409409  31.2243615  78.1416819   1.1109212
  25.3604163  73.2558934   1.6760854  25.0554298  73.5705083   2.5270998
  26.3134605  73.3340353   1.7188187  28.7843441  77.6098177   8.4420855
  28.1267115  78.2997439   8.5300983  29.5883840  77.9994609   8.7854841
  18.5369322  70.0768823   5.6860420  19.1113074  69.8544005   4.9533613
  19.1240305  70.1457518   6.4389021  27.5948899  75.9642550   6.4924796
  28.1080781  76.5972542   6.9946506  28.2450123  75.3643746   6.1268156
  20.8391990  66.9510072   4.4135489  20.1856402  66.6359089   3.7892104
  20.7972464  66.3285813   5.1395312  24.0729730  73.4392006   8.7383137
  23.1552292  73.6606953   8.5804825  24.4889874  73.5138316   7.8794844
  24.8564778  74.8383421   3.8685817  25.6036597  75.3504818   3.5592939
  25.1256368  74.5167474   4.7290211  28.3610696  80.9448552   4.6203939
  27.9073023  80.1039461   4.6769129  27.7304662  81.5809950   4.9578719
  27.3043615  71.8740538   5.8504606  26.5666372  71.3617924   6.1814849
  27.5570389  71.4340919   5.0387883  26.8043635  82.7825048   5.5553757
  27.0966609  83.3430105   4.8366123  27.3142255  83.0753609   6.3106916
  27.4055242  64.6516790   6.4446376  27.7114119  63.7914153   6.1572291
  28.1307847  65.2434410   6.2445370  21.6776322  74.9470583   6.9522567
  21.7324932  73.9944419   6.8765043  20.8667524  75.1030022   7.4363865
  19.6168682  73.5647642   4.7112946  18.8036548  73.8641813   5.1178138
  20.1127676  73.1703331   5.4287428  25.2142894  74.0289467  13.5427840
  25.5692282  74.2560940  14.4022305  25.8615025  74.3607844  12.9205095
  30.9440631  77.1507903   4.2477169  30.8058529  77.3409499   3.3198358
  30.5876850  77.9127286   4.7045220  19.1082757  71.1365998  10.3274181
  19.7482136  70.9954757   9.6297144  18.2760287  70.8500511   9.9512783
  30.9710010  79.2184430   9.2588440  31.4046517  79.1259719  10.1071494
  31.6841591  79.1941930   8.6208456  24.7037905  82.8186524  10.7921541
  24.7574928  83.3877460  11.5599257  23.8352687  82.9888409  10.4275578
  16.1111373  71.1066323   5.1047167  16.3718191  72.0211656   4.9956328
  16.9328546  70.6390765   5.2543780  17.5836299  72.5204080  12.2745992
  18.2559352  72.3121442  11.6258641  16.7566085  72.3226166  11.8351224
  31.8325560  79.2608130  11.7921326  32.0261450  80.1653941  12.0380600
  31.7326178  78.8015549  12.6259911  23.4861871  69.1466021  14.2911653
  22.8389786  69.8455971  14.1976129  24.2562886  69.5802165  14.6587901
  26.8940669  79.4114873  17.3662206  26.7426175  79.1825425  16.4492290
  26.8845348  80.3685475  17.3793551  23.6626005  76.9846786  12.3508473
  24.5918065  77.1357945  12.1777440  23.2417035  77.0730807  11.4957119
  22.4614337  81.0097450  10.1207010  22.3225422  80.6416235  10.9932948
  21.6728933  81.5245090   9.9490968  24.0119552  80.3879053   7.5095848
  23.6769385  80.3479823   8.4053498  23.5123498  79.7223769   7.0366258
  17.9863796  75.7946683  13.0348429  17.8483594  75.0626922  13.6359968
  18.8968719  75.7055583  12.7532617  20.6146097  75.5066642  12.5232109
  21.3245715  74.8659835  12.4818727  20.5715405  75.7579537  13.4458290
  28.6032875  82.4433996  15.4438688  28.5445421  81.7593216  14.7769271
  29.0052394  83.1852986  14.9919314  19.3275031  72.4931860  14.3427748
  18.7912388  72.0422599  14.9949345  18.7391739  72.6277769  13.5998213
  28.6050282  80.4073580  13.6752668  27.7177061  80.0699501  13.7979067
  29.1748834  79.6756611  13.9121433  15.0614152  71.6287868  11.4280743
  14.9772340  71.0213537  10.6931153  14.2396858  72.1196886  11.4290239
  22.1351436  85.0675032  10.6413911  22.0621607  85.8730003  11.1533215
  21.6928829  85.2666998   9.8161932  25.2337866  70.1141431   6.7950938
  25.7306565  69.3611394   6.4752008  24.4624847  70.1505748   6.2294147
  33.0867623  75.8181797   8.4369229  33.0757499  76.7006512   8.0663162
  32.2185002  75.4653348   8.2423766  24.5950119  84.9661866  12.7972070
  25.3078092  85.6009331  12.7247971  24.1040148  85.0625732  11.9812071
  26.3167646  78.8713119   4.3689361  25.3823925  78.9914581   4.1994066
  26.4944315  77.9685585   4.1049371  21.8172834  72.2558814   6.5222622
  21.4470622  71.7029855   7.2103528  22.3131927  71.6516948   5.9697622
  29.7040198  74.7130438   4.9039395  30.1700650  75.5458430   4.8299698
  30.1547698  74.2475420   5.6084654  19.6462033  82.7156309  13.6177640
  20.3471492  83.3492792  13.7707035  19.1757148  83.0571041  12.8573280
  27.7716429  81.0574259   1.9025547  28.0476273  80.9430854   2.8119421
  26.9020928  80.6591744   1.8637720  27.6756860  67.0811025   8.9430297
  26.7619940  67.3115252   9.1112504  28.1049962  67.1649469   9.7944329
  27.4463319  75.2700917  11.4430191  26.7934769  75.5176824  10.7882643
  27.8243699  74.4565055  11.1092668  23.4950892  76.0120728  17.9296228
  22.8191529  75.9114857  18.5998603  24.3178526  75.8559942  18.3932225
  22.2373675  87.3187655  12.1653844  22.7891983  87.4819277  12.9302929
  22.5779868  87.9092093  11.4933869  17.2138168  69.6662805  12.7675728
  17.2779495  70.5277636  12.3553126  17.1505288  69.0536807  12.0348087
  16.6890441  71.7385938  16.4148763  17.3162479  71.3563015  17.0286287
  15.8318359  71.5200140  16.7804455  27.0884549  82.1448913  18.0202498
  27.6324453  82.7578871  17.5257453  26.5071394  82.7028491  18.5369511
  25.3742062  85.2669631   9.1517526  25.2493202  84.4659371   8.6428471
  26.0321153  85.7615824   8.6631496  16.9950230  71.6218363   8.3294666
  16.2736816  72.2354331   8.1902139  17.7843486  72.1576128   8.2511312
  27.4376970  83.0678651  10.7797076  26.4907306  82.9484002  10.7075403
  27.7859744  82.1801149  10.8623337  19.7976544  68.9572790  14.6035318
  20.3210946  69.2035086  15.3661627  19.5788877  69.7892825  14.1838455
  24.4423404  82.8631367   6.9801428  24.2948366  81.9348075   7.1608998
  25.2676897  82.8851458   6.4958503  28.0457526  83.6859926   8.0666301
  28.9704073  83.4802787   7.9290752  27.8772829  83.4376327   8.9755642
  21.0029089  69.8986485  12.2884988  20.6625909  69.0994298  12.6905668
  20.2968095  70.1988196  11.7161822  21.6545561  66.9835797  10.7412311
  22.4771630  66.5096276  10.6191202  21.8983624  67.7626281  11.2410998
  24.4384918  70.7169205   1.9733545  24.6548532  71.5993843   1.6722374
  23.9578985  70.3255418   1.2439187  19.1784139  73.6754918   8.5504290
  19.0328720  73.9895221   9.4428572  18.7009343  74.2939818   7.9975189
  21.0380522  70.6657466   8.5985180  21.0242091  69.7698559   8.2617478
  21.7552950  70.6728130   9.2323466  22.8906653  71.0994806  10.6438307
  22.6324431  72.0211877  10.6422637  22.3591693  70.7025241  11.3338771
  27.8352842  84.2045593   3.4228392  28.0089719  83.6392016   2.6702245
  28.3281733  85.0046488   3.2407882  13.6529802  76.2160263  11.4891951
  13.1083270  76.9920070  11.6212226  14.5309151  76.5631067  11.3311073
  20.4417418  69.5471846   3.8672750  20.5633329  68.6188493   4.0663637
  20.1519461  69.5610532   2.9551065  23.3108609  67.2326757   7.0039470
  23.3330305  67.2966090   6.0491449  23.7276668  66.3931265   7.1979976
  33.6892233  76.9682016   5.0418692  34.1323379  76.2189342   4.6437815
  32.8118743  76.9592153   4.6592424  14.4395823  75.3430159  14.3822108
  13.6977560  75.4912794  14.9686739  14.1188568  75.6038424  13.5188858
  30.7219437  80.9712063   2.0512621  31.2470762  81.3099336   1.3261942
  30.6341790  80.0359079   1.8675756  22.3839486  84.8846137  14.1802498
  22.6926613  84.6395284  15.0525198  23.1814968  85.0892775  13.6921368
  19.9258498  71.0603844  18.0762682  19.9746653  71.9365967  17.6940452
  20.4681012  70.5181237  17.5034326  30.4113343  81.6044967  17.3563819
  29.6208887  81.5869106  16.8168319  30.1746698  82.1433261  18.1112856
  30.5311219  78.4537433  14.6696548  30.5809223  78.2887441  15.6112071
  30.4225142  77.5864692  14.2794429  27.8214981  74.4368361  15.9855855
  28.7224844  74.2974826  15.6939852  27.8962955  74.6022816  16.9254032
  22.1557786  71.8135216  14.8309041  21.2861096  72.1068782  14.5591630
  22.3917267  72.3975661  15.5516305  32.0329415  80.8734375  14.9138570
  31.7414224  81.2364355  15.7502030  31.4201547  80.1601383  14.7351902
  33.2325098  78.4387255   7.4341140  34.0671989  78.8777059   7.5978700
  33.3684226  77.9625908   6.6149386  30.2816604  75.9966990  13.3818628
  30.7570725  76.1894636  12.5737479  29.3582169  76.0526175  13.1362011
  24.8596820  68.0314833  12.3474461  25.3778764  68.7675860  12.0220950
  24.5051953  68.3378826  13.1821221  25.1109414  64.4515116   7.8675358
  25.3911168  63.7838305   8.4935785  25.8960021  64.6444211   7.3550022
  28.9818273  72.8732750  11.6146933  29.9335696  72.9730847  11.6359157
  28.8121723  72.0811018  12.1245017  27.0032652  69.9588333  11.8006334
  26.4082584  70.2393346  11.1052823  26.7182349  70.4482234  12.5723075
  31.4606350  76.0938869  10.7289233  31.4282671  75.1554870  10.9148917
  32.0706974  76.1722906   9.9955058  31.6100839  72.8849913  10.7747516
  31.0939888  72.1008369  10.5877445  32.4940787  72.5568629  10.9394035
  29.2711566  66.6290928   6.7343329  29.0736387  66.3206016   7.6186661
  29.8811271  67.3552567   6.8641258  37.2782900  77.1554876   9.8695270
  38.0086289  76.8940164  10.4302973  36.6689846  76.4183598   9.9097338
  35.3598197  75.2962739  10.4669721  34.6331361  75.1618704   9.8586212
  34.9445484  75.6039567  11.2726439  23.1828374  79.0152668  18.2317094
  24.1031383  79.1931267  18.4257140  23.1477957  78.0708714  18.0796793
  16.1790446  76.9253703  10.8739875  16.3976456  77.8570811  10.8927909
  16.5916220  76.5661677  11.6594679  23.0994664  67.4321788   2.8615563
  22.2895392  67.0868873   3.2370809  23.7879081  67.1229332   3.4503175
  25.0285212  66.5099835   4.4839860  25.5816251  66.9295289   5.1429883
  25.2655299  65.5835583   4.5262816  21.0518312  72.4986909  20.2642624
  20.9515039  73.4481266  20.1954715  20.8339854  72.1705148  19.3918694
  28.4064020  68.6200360   3.9918524  27.8262689  69.2785164   3.6096577
  28.1399952  67.7977705   3.5805942  26.8567586  68.0205418   6.1939845
  27.3567364  68.1321953   5.3854163  27.5003194  67.7166471   6.8340653
  20.9149582  75.9284048  19.0807686  20.4316663  76.7284408  19.2871575
  21.0010521  75.9391993  18.1275130  16.8422919  79.8188582  11.1176119
  17.7966173  79.7872525  11.0506051  16.6435443  79.3579206  11.9326345
  17.4322301  78.3889698  13.6846917  18.2515190  78.8833777  13.7081754
  17.7059109  77.4721667  13.6564484  27.1888898  70.7800451   3.0474873
  26.3014753  71.0650101   2.8295067  27.6042887  70.6194214   2.2002149
  30.5403434  70.8046972   6.7629212  31.3163824  71.2943424   7.0353829
  29.8151568  71.2305026   7.2201081  32.9775992  71.5174591   7.8203152
  33.5720483  71.2770327   7.1096461  33.0502576  70.7981721   8.4476689
  27.1629921  76.2954987   3.2625163  27.1065123  76.7523538   2.4232795
  27.7158264  75.5345671   3.0848005  30.9734727  72.0844719   4.0875282
  30.7171661  71.6841354   4.9183490  30.3487595  72.7988512   3.9625421
  35.2847065  74.8240792   6.5946574  34.7246623  74.8933981   7.3678136
  34.6790568  74.6481776   5.8746070  27.8964701  77.4859768   0.5577692
  27.8413504  77.3204039  -0.3833864  27.2710756  78.1935801   0.7139882
  12.6857216  72.7227832  14.3839114  13.3316079  72.2126786  14.8726339
  12.4774367  73.4596514  14.9582539  25.2110608  79.7908680  19.8831255
  26.0801767  79.9649332  19.5217890  24.7317359  80.6103097  19.7606984
  21.2060826  66.9867877   0.1363010  21.1939496  67.9309717   0.2931281
  22.0984248  66.8038022  -0.1577529  19.3796788  86.9105781  11.5620688
  20.2824035  86.9429391  11.8787183  19.1534158  85.9806232  11.5767024
  25.0212946  63.5810654   4.3908947  24.2545341  63.0269140   4.5365629
  25.4323650  63.6532522   5.2523099  17.0254707  69.8695449  18.4814128
  17.8886168  69.5132254  18.6917453  16.4520117  69.5309344  19.1689533
  36.8703083  91.4997306   9.2876529  37.5081493  91.3804053   8.5839869
  36.7523926  92.4478150   9.3464481  33.6792790  91.4524734   9.2238054
  33.3411301  91.3365798   8.3358589  34.5482558  91.0515899   9.2039060
  34.1612573  92.6059586  15.1824259  34.1501214  92.2112384  14.3104763
  34.3233212  91.8725658  15.7758031  30.8819834  95.3896697  14.1303443
  30.5909700  96.2942328  14.0150110  31.5176818  95.4313225  14.8447513
  31.8076041  92.7673546  10.7204803  32.4039613  92.5429568  10.0061766
  31.8651012  92.0258291  11.3230251  36.4244352  89.2248760   6.3629737
  37.2107441  88.8068183   6.0120154  36.6883056  90.1294852   6.5311386
  41.8252779  89.1623993   7.2662716  42.5577951  88.5923210   7.5000545
  41.0692135  88.7745593   7.7069221  33.4428899  91.5851234   4.4626058
  33.0787106  91.0581855   5.1738980  34.2996015  91.1949703   4.2892544
  39.3478199  82.8745567  11.7257324  39.0161524  83.7440978  11.5018539
  38.7523813  82.5581851  12.4051355  35.8409719  95.0758113  11.1253237
  35.5410442  95.9783152  11.0169044  35.4960779  94.8090296  11.9774390
  29.2922200  91.5271910   7.1589942  28.3672697  91.3948124   7.3667633
  29.5406614  92.3066129   7.6559884  39.2406863  87.5940653   8.8050674
  38.3323740  87.5256061   8.5109435  39.1894459  88.0712598   9.6332500
  33.3147729  89.0130299  16.7485572  32.5381063  89.5724219  16.7388436
  33.9538292  89.4987082  17.2700442  41.1068509  85.7957091  10.5828548
  40.4642889  86.0889625   9.9368343  40.6023438  85.6810012  11.3881745
  38.7608673  89.5420265   1.2714408  39.6726529  89.7747651   1.0962105
  38.2518320  90.1257309   0.7089486  31.5694101  91.8215752  16.3103539
  32.3108785  92.3600796  16.0338362  30.8631086  92.4482041  16.4675091
  37.0449441  93.9644892  14.9075700  37.4532797  93.5227303  14.1630333
  36.3226702  93.3897520  15.1609893  33.3980511  88.9017499  12.2809257
  34.2441706  89.3256913  12.4243906  33.3379148  88.2451124  12.9747820
  37.3678255  94.5246083   8.6627989  36.7387118  94.6891797   7.9604057
  36.9803917  94.9387693   9.4338953  41.2467487  95.4600521   6.0172353
  40.5618525  95.8399422   5.4669386  41.3311336  96.0695848   6.7504301
  36.5479956  86.5621868  13.9390431  36.3040888  87.3163928  13.4024707
  36.8239886  86.9407215  14.7737678  38.5018419  93.1060480  12.6167696
  38.7135314  93.7492240  11.9402077  38.4548167  92.2722797  12.1489626
  36.1044648  85.7178301   9.5204269  35.2429127  86.0159554   9.8121006
  36.1307082  85.9348699   8.5885301  32.9206217  94.2620491   5.9278074
  33.3844563  94.5408194   5.1382697  32.6563015  93.3603936   5.7451165
  29.8130298  93.8091973   8.8657837  30.3831655  94.2379241   8.2275322
  30.4038410  93.5274557   9.5642023  30.3055465  88.9755400  17.1118849
  29.6754125  89.6571681  17.3454246  30.1991553  88.8638482  16.1671987
  39.6164247  95.9832435  10.7890054  40.4381690  95.5812623  10.5072735
  39.6126649  95.8800670  11.7406170  33.3820850  95.5316479  12.9450764
  33.4465283  95.9936886  13.7808936  32.6731774  94.9013844  13.0733074
  23.8838140  88.8957687  10.4699764  24.1346178  89.7804697  10.7357340
  24.4197688  88.7162288   9.6974856  47.7070240  92.3271184   7.1375025
  46.9533948  91.7578582   6.9819030  47.8417781  92.2933848   8.0845660
  29.5836207  83.2776166  19.4744100  29.1903153  82.7242365  20.1491744
  30.4002348  83.5886744  19.8650617  32.5004168  84.6934045  17.0664356
  33.2413882  85.2941198  16.9868819  32.7322091  83.9511683  16.5082399
  27.6445506  89.8790412  15.3442586  27.5299021  88.9775670  15.6449685
  26.7890024  90.1254109  14.9927403  34.7237344  97.8208153  16.9430087
  34.2801198  97.0344531  16.6250991  35.3854558  98.0087303  16.2773977
  29.4824465  99.3503954  11.4690765  30.0331890  99.2221018  10.6967759
  28.6435941  99.6498843  11.1185658  36.8218582  98.1010953  14.9711488
  36.8037058  98.9219834  14.4791757  37.7438502  97.9765028  15.1961629
  33.2791636  95.6155082  15.8134996  33.8119973  94.8543370  15.5834304
  32.7505717  95.3228734  16.5559151  36.4461331  80.7215148  11.3428638
  36.1025601  81.6116790  11.2667749  36.8140294  80.5316806  10.4798223
  33.9958725  85.5573460   4.9086312  33.1400321  85.1680310   4.7291950
  34.4085677  85.6365421   4.0486097  35.5257872  83.0919803   9.3077871
  35.0222667  83.0549938   8.4945677  35.8188479  84.0012546   9.3674528
  31.7700758  83.1758533   8.3144053  32.6353754  82.9801342   7.9549943
  31.8378266  82.9468885   9.2413410  41.3845888  93.4656114   1.7854247
  40.6075331  93.1267273   1.3409409  42.0637369  93.4708737   1.1109212
  36.1997917  88.5850851   1.6760854  35.8948053  88.8997000   2.5270998
  37.1528359  88.6632271   1.7188187  39.6237195  92.9390095   8.4420855
  38.9660869  93.6289356   8.5300983  40.4277594  93.3286527   8.7854841
  29.3763077  85.4060741   5.6860420  29.9506829  85.1835922   4.9533613
  29.9634059  85.4749435   6.4389021  38.4342654  91.2934468   6.4924796
  38.9474536  91.9264460   6.9946506  39.0843878  90.6935663   6.1268156
  31.6785744  82.2801990   4.4135489  31.0250157  81.9651007   3.7892104
  31.6366218  81.6577730   5.1395312  34.9123485  88.7683923   8.7383137
  33.9946046  88.9898870   8.5804825  35.3283628  88.8430234   7.8794844
  35.6958532  90.1675339   3.8685817  36.4430351  90.6796736   3.5592939
  35.9650122  89.8459392   4.7290211  39.2004450  96.2740469   4.6203939
  38.7466777  95.4331379   4.6769129  38.5698417  96.9101868   4.9578719
  38.1437370  87.2032455   5.8504606  37.4060126  86.6909841   6.1814849
  38.3964143  86.7632837   5.0387883  37.6437389  98.1116966   5.5553757
  37.9360364  98.6722023   4.8366123  38.1536010  98.4045527   6.3106916
  38.2448997  79.9808707   6.4446376  38.5507874  79.1206071   6.1572291
  38.9701602  80.5726327   6.2445370  32.5170077  90.2762500   6.9522567
  32.5718686  89.3236337   6.8765043  31.7061279  90.4321939   7.4363865
  30.4562437  88.8939560   4.7112946  29.6430302  89.1933731   5.1178138
  30.9521431  88.4995249   5.4287428  36.0536648  89.3581385  13.5427840
  36.4086036  89.5852858  14.4022305  36.7008780  89.6899761  12.9205095
  41.7834385  92.4799820   4.2477169  41.6452284  92.6701416   3.3198358
  41.4270604  93.2419203   4.7045220  29.9476511  86.4657916  10.3274181
  30.5875891  86.3246675   9.6297144  29.1154042  86.1792429   9.9512783
  41.8103765  94.5476347   9.2588440  42.2440271  94.4551636  10.1071494
  42.5235346  94.5233848   8.6208456  35.5431660  98.1478442  10.7921541
  35.5968682  98.7169378  11.5599257  34.6746441  98.3180327  10.4275578
  26.9505128  86.4358241   5.1047167  27.2111945  87.3503574   4.9956328
  27.7722300  85.9682683   5.2543780  28.4230053  87.8495998  12.2745992
  29.0953107  87.6413360  11.6258641  27.5959840  87.6518084  11.8351224
  42.6719314  94.5900048  11.7921326  42.8655204  95.4945859  12.0380600
  42.5719933  94.1307467  12.6259911  34.3255625  84.4757939  14.2911653
  33.6783540  85.1747888  14.1976129  35.0956641  84.9094083  14.6587901
  37.7334423  94.7406791  17.3662206  37.5819929  94.5117342  16.4492290
  37.7239103  95.6977392  17.3793551  34.5019759  92.3138704  12.3508473
  35.4311819  92.4649863  12.1777440  34.0810789  92.4022724  11.4957119
  33.3008091  96.3389368  10.1207010  33.1619177  95.9708152  10.9932948
  32.5122687  96.8537007   9.9490968  34.8513306  95.7170971   7.5095848
  34.5163139  95.6771741   8.4053498  34.3517252  95.0515687   7.0366258
  28.8257550  91.1238601  13.0348429  28.6877348  90.3918840  13.6359968
  29.7362474  91.0347501  12.7532617  31.4539851  90.8358560  12.5232109
  32.1639470  90.1951752  12.4818727  31.4109159  91.0871455  13.4458290
  39.4426630  97.7725913  15.4438688  39.3839176  97.0885133  14.7769271
  39.8446148  98.5144903  14.9919314  30.1668785  87.8223778  14.3427748
  29.6306142  87.3714516  14.9949345  29.5785493  87.9569687  13.5998213
  39.4444037  95.7365497  13.6752668  38.5570816  95.3991419  13.7979067
  40.0142588  95.0048529  13.9121433  25.9007906  86.9579786  11.4280743
  25.8166095  86.3505455  10.6931153  25.0790613  87.4488804  11.4290239
  32.9745190 100.3966950  10.6413911  32.9015362 101.2021921  11.1533215
  32.5322583 100.5958915   9.8161932  36.0731620  85.4433349   6.7950938
  36.5700320  84.6903311   6.4752008  35.3018602  85.4797666   6.2294147
  43.9261378  91.1473715   8.4369229  43.9151254  92.0298430   8.0663162
  43.0578757  90.7945265   8.2423766  35.4343874 100.2953784  12.7972070
  36.1471846 100.9301248  12.7247971  34.9433903 100.3917650  11.9812071
  37.1561401  94.2005036   4.3689361  36.2217680  94.3206499   4.1994066
  37.3338069  93.2977503   4.1049371  32.6566589  87.5850732   6.5222622
  32.2864376  87.0321772   7.2103528  33.1525681  86.9808866   5.9697622
  40.5433952  90.0422356   4.9039395  41.0094404  90.8750347   4.8299698
  40.9941453  89.5767337   5.6084654  30.4855787  98.0448227  13.6177640
  31.1865247  98.6784710  13.7707035  30.0150902  98.3862959  12.8573280
  38.6110183  96.3866177   1.9025547  38.8870027  96.2722771   2.8119421
  37.7414682  95.9883662   1.8637720  38.5150615  82.4102943   8.9430297
  37.6013695  82.6407169   9.1112504  38.9443716  82.4941387   9.7944329
  38.2857073  90.5992835  11.4430191  37.6328524  90.8468742  10.7882643
  38.6637453  89.7856973  11.1092668  34.3344646  91.3412646  17.9296228
  33.6585283  91.2406775  18.5998603  35.1572280  91.1851859  18.3932225
  33.0767429 102.6479573  12.1653844  33.6285737 102.8111195  12.9302929
  33.4173623 103.2384011  11.4933869  28.0531923  84.9954723  12.7675728
  28.1173249  85.8569554  12.3553126  27.9899043  84.3828725  12.0348087
  27.5284195  87.0677855  16.4148763  28.1556234  86.6854933  17.0286287
  26.6712114  86.8492057  16.7804455  37.9278304  97.4740831  18.0202498
  38.4718208  98.0870789  17.5257453  37.3465148  98.0320409  18.5369511
  36.2135817 100.5961549   9.1517526  36.0886956  99.7951288   8.6428471
  36.8714908 101.0907742   8.6631496  27.8343985  86.9510281   8.3294666
  27.1130571  87.5646249   8.1902139  28.6237241  87.4868046   8.2511312
  38.2770725  98.3970569  10.7797076  37.3301060  98.2775920  10.7075403
  38.6253498  97.5093067  10.8623337  30.6370298  84.2864708  14.6035318
  31.1604700  84.5327004  15.3661627  30.4182632  85.1184742  14.1838455
  35.2817158  98.1923285   6.9801428  35.1342121  97.2639992   7.1608998
  36.1070652  98.2143376   6.4958503  38.8851280  99.0151844   8.0666301
  39.8097828  98.8094705   7.9290752  38.7166583  98.7668245   8.9755642
  31.8422843  85.2278403  12.2884988  31.5019664  84.4286216  12.6905668
  31.1361850  85.5280114  11.7161822  32.4939315  82.3127715  10.7412311
  33.3165385  81.8388193  10.6191202  32.7377379  83.0918199  11.2410998
  35.2778673  86.0461123   1.9733545  35.4942287  86.9285760   1.6722374
  34.7972740  85.6547336   1.2439187  30.0177894  89.0046836   8.5504290
  29.8722475  89.3187139   9.4428572  29.5403098  89.6231736   7.9975189
  31.8774277  85.9949384   8.5985180  31.8635846  85.0990477   8.2617478
  32.5946705  86.0020048   9.2323466  33.7300408  86.4286724  10.6438307
  33.4718185  87.3503795  10.6422637  33.1985448  86.0317159  11.3338771
  38.6746596  99.5337511   3.4228392  38.8483474  98.9683934   2.6702245
  39.1675488 100.3338406   3.2407882  24.4923556  91.5452180  11.4891951
  23.9477024  92.3211988  11.6212226  25.3702906  91.8922985  11.3311073
  31.2811173  84.8763764   3.8672750  31.4027084  83.9480410   4.0663637
  30.9913215  84.8902450   2.9551065  34.1502363  82.5618674   7.0039470
  34.1724060  82.6258008   6.0491449  34.5670422  81.7223183   7.1979976
  44.5285987  92.2973934   5.0418692  44.9717134  91.5481259   4.6437815
  43.6512498  92.2884070   4.6592424  25.2789578  90.6722076  14.3822108
  24.5371314  90.8204712  14.9686739  24.9582322  90.9330342  13.5188858
  41.5613192  96.3003981   2.0512621  42.0864516  96.6391254   1.3261942
  41.4735544  95.3650996   1.8675756  33.2233241 100.2138055  14.1802498
  33.5320367  99.9687201  15.0525198  34.0208723 100.4184693  13.6921368
  30.7652252  86.3895761  18.0762682  30.8140408  87.2657884  17.6940452
  31.3074767  85.8473154  17.5034326  41.2507098  96.9336885  17.3563819
  40.4602642  96.9161024  16.8168319  41.0140453  97.4725178  18.1112856
  41.3704973  93.7829351  14.6696548  41.4202978  93.6179358  15.6112071
  41.2618896  92.9156610  14.2794429  38.6608735  89.7660279  15.9855855
  39.5618598  89.6266744  15.6939852  38.7356710  89.9314734  16.9254032
  32.9951541  87.1427134  14.8309041  32.1254850  87.4360700  14.5591630
  33.2311021  87.7267579  15.5516305  42.8723170  96.2026293  14.9138570
  42.5807978  96.5656273  15.7502030  42.2595301  95.4893301  14.7351902
  44.0718852  93.7679172   7.4341140  44.9065744  94.2068976   7.5978700
  44.2077981  93.2917826   6.6149386  41.1210358  91.3258907  13.3818628
  41.5964480  91.5186553  12.5737479  40.1975923  91.3818093  13.1362011
  35.6990575  83.3606751  12.3474461  36.2172518  84.0967778  12.0220950
  35.3445707  83.6670744  13.1821221  35.9503169  79.7807033   7.8675358
  36.2304923  79.1130222   8.4935785  36.7353776  79.9736129   7.3550022
  39.8212027  88.2024667  11.6146933  40.7729450  88.3022765  11.6359157
  39.6515478  87.4102936  12.1245017  37.8426407  85.2880250  11.8006334
  37.2476339  85.5685263  11.1052823  37.5576103  85.7774151  12.5723075
  42.3000105  91.4230787  10.7289233  42.2676425  90.4846788  10.9148917
  42.9100729  91.5014824   9.9955058  42.4494593  88.2141830  10.7747516
  41.9333642  87.4300287  10.5877445  43.3334542  87.8860547  10.9394035
  40.1105320  81.9582846   6.7343329  39.9130141  81.6497934   7.6186661
  40.7205026  82.6844485   6.8641258  48.1176655  92.4846794   9.8695270
  48.8480043  92.2232082  10.4302973  47.5083600  91.7475516   9.9097338
  46.1991952  90.6254656  10.4669721  45.4725115  90.4910621   9.8586212
  45.7839239  90.9331485  11.2726439  34.0222128  94.3444586  18.2317094
  34.9425138  94.5223185  18.4257140  33.9871711  93.4000631  18.0796793
  27.0184201  92.2545621  10.8739875  27.2370211  93.1862729  10.8927909
  27.4309975  91.8953595  11.6594679  33.9388419  82.7613706   2.8615563
  33.1289147  82.4160791   3.2370809  34.6272836  82.4521250   3.4503175
  35.8678967  81.8391753   4.4839860  36.4210006  82.2587206   5.1429883
  36.1049053  80.9127501   4.5262816  31.8912066  87.8278826  20.2642624
  31.7908793  88.7773183  20.1954715  31.6733608  87.4997065  19.3918694
  39.2457774  83.9492278   3.9918524  38.6656443  84.6077082   3.6096577
  38.9793707  83.1269623   3.5805942  37.6961340  83.3497336   6.1939845
  38.1961119  83.4613870   5.3854163  38.3396948  83.0458389   6.8340653
  31.7543336  91.2575965  19.0807686  31.2710418  92.0576325  19.2871575
  31.8404275  91.2683910  18.1275130  27.6816674  95.1480500  11.1176119
  28.6359927  95.1164442  11.0506051  27.4829197  94.6871124  11.9326345
  28.2716056  93.7181616  13.6846917  29.0908945  94.2125695  13.7081754
  28.5452864  92.8013584  13.6564484  38.0282652  86.1092368   3.0474873
  37.1408507  86.3942019   2.8295067  38.4436641  85.9486132   2.2002149
  41.3797188  86.1338889   6.7629212  42.1557578  86.6235342   7.0353829
  40.6545322  86.5596944   7.2201081  43.8169747  86.8466509   7.8203152
  44.4114238  86.6062245   7.1096461  43.8896330  86.1273639   8.4476689
  38.0023676  91.6246904   3.2625163  37.9458877  92.0815456   2.4232795
  38.5552018  90.8637589   3.0848005  41.8128482  87.4136636   4.0875282
  41.5565416  87.0133272   4.9183490  41.1881350  88.1280430   3.9625421
  46.1240820  90.1532709   6.5946574  45.5640378  90.2225899   7.3678136
  45.5184323  89.9773694   5.8746070  38.7358455  92.8151686   0.5577692
  38.6807259  92.6495957  -0.3833864  38.1104510  93.5227718   0.7139882
  23.5250970  88.0519750  14.3839114  24.1709834  87.5418704  14.8726339
  23.3168121  88.7888432  14.9582539  36.0504362  95.1200597  19.8831255
  36.9195522  95.2941250  19.5217890  35.5711114  95.9395014  19.7606984
  32.0454581  82.3159795   0.1363010  32.0333250  83.2601634   0.2931281
  32.9378002  82.1329940  -0.1577529  30.2190542 102.2397698  11.5620688
  31.1217789 102.2721309  11.8787183  29.9927913 101.3098149  11.5767024
  35.8606700  78.9102571   4.3908947  35.0939096  78.3561058   4.5365629
  36.2717405  78.9824440   5.2523099  27.8648461  85.1987367  18.4814128
  28.7279923  84.8424172  18.6917453  27.2913872  84.8601262  19.1689533
  47.7096838 106.8289223   9.2876529  48.3475248 106.7095971   8.5839869
  47.5917681 107.7770067   9.3464481  44.5186544 106.7816651   9.2238054
  44.1805056 106.6657716   8.3358589  45.3876312 106.3807817   9.2039060
  45.0006327 107.9351503  15.1824259  44.9894968 107.5404301  14.3104763
  45.1626967 107.2017576  15.7758031  41.7213588 110.7188615  14.1303443
  41.4303454 111.6234246  14.0150110  42.3570573 110.7605143  14.8447513
  42.6469795 108.0965464  10.7204803  43.2433367 107.8721486  10.0061766
  42.7044767 107.3550209  11.3230251  50.1871954  98.2037485  11.7257324
  49.8555279  99.0732895  11.5018539  49.5917567  97.8873769  12.4051355
  46.6803473 110.4050031  11.1253237  46.3804197 111.3075069  11.0169044
  46.3354533 110.1382214  11.9774390  40.1315955 106.8563827   7.1589942
  39.2066451 106.7240041   7.3667633  40.3800368 107.6358047   7.6559884
  50.0800617 102.9232571   8.8050674  49.1717495 102.8547979   8.5109435
  50.0288213 103.4004516   9.6332500  44.1541483 104.3422216  16.7485572
  43.3774817 104.9016136  16.7388436  44.7932046 104.8278999  17.2700442
  51.9462264 101.1249009  10.5828548  51.3036644 101.4181542   9.9368343
  51.4417192 101.0101929  11.3881745  42.4087855 107.1507670  16.3103539
  43.1502540 107.6892714  16.0338362  41.7024841 107.7773958  16.4675091
  47.8843195 109.2936810  14.9075700  48.2926551 108.8519221  14.1630333
  47.1620457 108.7189438  15.1609893  44.2374265 104.2309417  12.2809257
  45.0835460 104.6548830  12.4243906  44.1772903 103.5743041  12.9747820
  47.3873710 101.8913785  13.9390431  47.1434642 102.6455846  13.4024707
  47.6633641 102.2699133  14.7737678  49.3412173 108.4352398  12.6167696
  49.5529068 109.0784158  11.9402077  49.2941921 107.6014714  12.1489626
  46.9438402 101.0470218   9.5204269  46.0822881 101.3451472   9.8121006
  46.9700837 101.2640617   8.5885301  40.6524053 109.1383890   8.8657837
  41.2225410 109.5671159   8.2275322  41.2432164 108.8566475   9.5642023
  41.1449219 104.3047318  17.1118849  40.5147880 104.9863599  17.3454246
  41.0385307 104.1930399  16.1671987  44.2214605 110.8608396  12.9450764
  44.2859037 111.3228804  13.7808936  43.5125528 110.2305761  13.0733074
  34.7231895 104.2249604  10.4699764  34.9739933 105.1096614  10.7357340
  35.2591443 104.0454206   9.6974856  40.4229962  98.6068084  19.4744100
  40.0296907  98.0534282  20.1491744  41.2396102  98.9178662  19.8650617
  43.3397923 100.0225963  17.0664356  44.0807636 100.6233116  16.9868819
  43.5715846  99.2803601  16.5082399  38.4839261 105.2082330  15.3442586
  38.3692776 104.3067587  15.6449685  37.6283779 105.4546027  14.9927403
  45.5631099 113.1500070  16.9430087  45.1194953 112.3636449  16.6250991
  46.2248312 113.3379221  16.2773977  40.3218220 114.6795872  11.4690765
  40.8725645 114.5512935  10.6967759  39.4829696 114.9790761  11.1185658
  47.6612337 113.4302870  14.9711488  47.6430812 114.2511751  14.4791757
  48.5832257 113.3056945  15.1961629  44.1185391 110.9447000  15.8134996
  44.6513728 110.1835288  15.5834304  43.5899472 110.6520652  16.5559151
  47.2855086  96.0507066  11.3428638  46.9419355  96.9408707  11.2667749
  47.6534048  95.8608723  10.4798223  44.8352480 100.8865378   4.9086312
  43.9794076 100.4972228   4.7291950  45.2479431 100.9657338   4.0486097
  46.3651626  98.4211721   9.3077871  45.8616422  98.3841856   8.4945677
  46.6582233  99.3304464   9.3674528  42.6094512  98.5050451   8.3144053
  43.4747509  98.3093259   7.9549943  42.6772021  98.2760802   9.2413410
  40.2156831 100.7352659   5.6860420  40.7900583 100.5127840   4.9533613
  40.8027814 100.8041353   6.4389021  42.5179499  97.6093907   4.4135489
  41.8643911  97.2942925   3.7892104  42.4759973  96.9869648   5.1395312
  45.7517239 104.0975841   8.7383137  44.8339801 104.3190788   8.5804825
  46.1677383 104.1722151   7.8794844  49.0842751  95.3100625   6.4446376
  49.3901628  94.4497988   6.1572291  49.8095356  95.9018245   6.2445370
  43.3563831 105.6054418   6.9522567  43.4112441 104.6528254   6.8765043
  42.5455033 105.7613857   7.4363865  41.2956191 104.2231478   4.7112946
  40.4824057 104.5225648   5.1178138  41.7915185 103.8287166   5.4287428
  46.8930403 104.6873302  13.5427840  47.2479790 104.9144775  14.4022305
  47.5402534 105.0191679  12.9205095  40.7870266 101.7949833  10.3274181
  41.4269645 101.6538592   9.6297144  39.9547796 101.5084347   9.9512783
  37.7898882 101.7650158   5.1047167  38.0505700 102.6795491   4.9956328
  38.6116055 101.2974601   5.2543780  39.2623808 103.1787915  12.2745992
  39.9346861 102.9705278  11.6258641  38.4353594 102.9810001  11.8351224
  45.1649380  99.8049856  14.2911653  44.5177295 100.5039806  14.1976129
  45.9350395 100.2386000  14.6587901  48.5728178 110.0698708  17.3662206
  48.4213684 109.8409260  16.4492290  48.5632857 111.0269310  17.3793551
  45.3413514 107.6430621  12.3508473  46.2705574 107.7941781  12.1777440
  44.9204544 107.7314642  11.4957119  44.1401846 111.6681286  10.1207010
  44.0012931 111.3000070  10.9932948  43.3516442 112.1828925   9.9490968
  39.6651305 106.4530518  13.0348429  39.5271103 105.7210757  13.6359968
  40.5756228 106.3639418  12.7532617  42.2933606 106.1650478  12.5232109
  43.0033224 105.5243670  12.4818727  42.2502914 106.4163373  13.4458290
  50.2820384 113.1017831  15.4438688  50.2232930 112.4177051  14.7769271
  50.6839903 113.8436821  14.9919314  41.0062539 103.1515696  14.3427748
  40.4699897 102.7006434  14.9949345  40.4179248 103.2861604  13.5998213
  50.2837791 111.0657415  13.6752668  49.3964570 110.7283337  13.7979067
  50.8536343 110.3340446  13.9121433  36.7401661 102.2871703  11.4280743
  36.6559849 101.6797373  10.6931153  35.9184367 102.7780722  11.4290239
  46.9125375 100.7725267   6.7950938  47.4094074 100.0195229   6.4752008
  46.1412356 100.8089583   6.2294147  43.4960343 102.9142650   6.5222622
  43.1258131 102.3613690   7.2103528  43.9919436 102.3100783   5.9697622
  41.3249542 113.3740145  13.6177640  42.0259001 114.0076628  13.7707035
  40.8544657 113.7154876  12.8573280  49.3544369  97.7394860   8.9430297
  48.4407449  97.9699087   9.1112504  49.7837471  97.8233304   9.7944329
  49.1250828 105.9284752  11.4430191  48.4722278 106.1760660  10.7882643
  49.5031208 105.1148890  11.1092668  45.1738401 106.6704563  17.9296228
  44.4979038 106.5698693  18.5998603  45.9966035 106.5143777  18.3932225
  38.8925677 100.3246641  12.7675728  38.9567003 101.1861471  12.3553126
  38.8292797  99.7120642  12.0348087  38.3677950 102.3969773  16.4148763
  38.9949988 102.0146850  17.0286287  37.5105868 102.1783975  16.7804455
  48.7672058 112.8032748  18.0202498  49.3111962 113.4162707  17.5257453
  48.1858903 113.3612327  18.5369511  38.6737739 102.2802199   8.3294666
  37.9524325 102.8938167   8.1902139  39.4630995 102.8159964   8.2511312
  41.4764053  99.6156625  14.6035318  41.9998455  99.8618922  15.3661627
  41.2576386 100.4476660  14.1838455  42.6816598 100.5570320  12.2884988
  42.3413418  99.7578133  12.6905668  41.9755604 100.8572031  11.7161822
  43.3333070  97.6419633  10.7412311  44.1559139  97.1680111  10.6191202
  43.5771133  98.4210117  11.2410998  40.8571648 104.3338753   8.5504290
  40.7116229 104.6479057   9.4428572  40.3796852 104.9523654   7.9975189
  42.7168031 101.3241301   8.5985180  42.7029600 100.4282395   8.2617478
  43.4340459 101.3311965   9.2323466  44.5694162 101.7578642  10.6438307
  44.3111940 102.6795712  10.6422637  44.0379202 101.3609076  11.3338771
  35.3317311 106.8744098  11.4891951  34.7870779 107.6503906  11.6212226
  36.2096660 107.2214902  11.3311073  42.1204927 100.2055682   3.8672750
  42.2420838  99.2772328   4.0663637  41.8306970 100.2194368   2.9551065
  44.9896118  97.8910592   7.0039470  45.0117814  97.9549925   6.0491449
  45.4064177  97.0515101   7.1979976  36.1183332 106.0013994  14.3822108
  35.3765068 106.1496629  14.9686739  35.7976077 106.2622260  13.5188858
  44.0626995 115.5429972  14.1802498  44.3714122 115.2979119  15.0525198
  44.8602477 115.7476611  13.6921368  41.6046007 101.7187679  18.0762682
  41.6534162 102.5949802  17.6940452  42.1468521 101.1765072  17.5034326
  52.0900852 112.2628802  17.3563819  51.2996396 112.2452941  16.8168319
  51.8534207 112.8017096  18.1112856  52.2098728 109.1121269  14.6696548
  52.2596732 108.9471276  15.6112071  52.1012651 108.2448528  14.2794429
  49.5002490 105.0952197  15.9855855  50.4012353 104.9558662  15.6939852
  49.5750464 105.2606652  16.9254032  43.8345295 102.4719052  14.8309041
  42.9648605 102.7652618  14.5591630  44.0704776 103.0559497  15.5516305
  53.7116924 111.5318210  14.9138570  53.4201733 111.8948191  15.7502030
  53.0989056 110.8185219  14.7351902  51.9604113 106.6550825  13.3818628
  52.4358234 106.8478471  12.5737479  51.0369678 106.7110011  13.1362011
  46.5384329  98.6898668  12.3474461  47.0566273  99.4259695  12.0220950
  46.1839462  98.9962662  13.1821221  46.7896923  95.1098951   7.8675358
  47.0698677  94.4422140   8.4935785  47.5747530  95.3028047   7.3550022
  50.6605782 103.5316585  11.6146933  51.6123204 103.6314683  11.6359157
  50.4909232 102.7394854  12.1245017  48.6820161 100.6172168  11.8006334
  48.0870093 100.8977181  11.1052823  48.3969858 101.1066069  12.5723075
  53.2888348 103.5433748  10.7747516  52.7727397 102.7592205  10.5877445
  54.1728296 103.2152465  10.9394035  50.9499075  97.2874764   6.7343329
  50.7523896  96.9789852   7.6186661  51.5598780  98.0136403   6.8641258
  44.8615883 109.6736504  18.2317094  45.7818892 109.8515103  18.4257140
  44.8265466 108.7292549  18.0796793  37.8577955 107.5837538  10.8739875
  38.0763965 108.5154646  10.8927909  38.2703729 107.2245513  11.6594679
  44.7782173  98.0905624   2.8615563  43.9682901  97.7452709   3.2370809
  45.4666590  97.7813167   3.4503175  46.7072721  97.1683671   4.4839860
  47.2603760  97.5879124   5.1429883  46.9442808  96.2419419   4.5262816
  42.7305821 103.1570744  20.2642624  42.6302548 104.1065101  20.1954715
  42.5127363 102.8288983  19.3918694  48.5355095  98.6789253   6.1939845
  49.0354873  98.7905788   5.3854163  49.1790703  98.3750306   6.8340653
  42.5937091 106.5867883  19.0807686  42.1104172 107.3868243  19.2871575
  42.6798030 106.5975828  18.1275130  38.5210428 110.4772418  11.1176119
  39.4753682 110.4456360  11.0506051  38.3222952 110.0163041  11.9326345
  39.1109810 109.0473534  13.6846917  39.9302699 109.5417612  13.7081754
  39.3846618 108.1305502  13.6564484  34.3644725 103.3811668  14.3839114
  35.0103588 102.8710622  14.8726339  34.1561876 104.1180349  14.9582539
  46.8898117 110.4492515  19.8831255  47.7589276 110.6233167  19.5217890
  46.4104868 111.2686932  19.7606984  41.0584297 117.5689616  11.5620688
  41.9611544 117.6013226  11.8787183  40.8321667 116.6390067  11.5767024
  46.7000454  94.2394489   4.3908947  45.9332850  93.6852976   4.5365629
  47.1111159  94.3116358   5.2523099  38.7042216 100.5279285  18.4814128
  39.5673677 100.1716090  18.6917453  38.1307626 100.1893180  19.1689533
  51.2623716 113.9360001  19.4744100  50.8690662 113.3826200  20.1491744
  52.0789857 114.2470580  19.8650617  54.1791677 115.3517880  17.0664356
  54.9201391 115.9525034  16.9868819  54.4109600 114.6095518  16.5082399
  49.2071704 117.7261691  16.4148763  49.8343743 117.3438768  17.0286287
  48.3499623 117.5075893  16.7804455  52.4439761 117.0479597  18.0762682
  52.4927917 117.9241720  17.6940452  52.9862275 116.5056990  17.5034326
  53.5699575 118.4862662  20.2642624  53.4696302 119.4357019  20.1954715
  53.3521117 118.1580901  19.3918694  45.2038479 118.7103585  14.3839114
  45.8497343 118.2002539  14.8726339  44.9955630 119.4472267  14.9582539
  49.5435970 115.8571202  18.4814128  50.4067432 115.5008007  18.6917453
  48.9701381 115.5185097  19.1689533  28.6032876  59.4496118   2.1683995
  28.5445423  58.7655338   1.5014578  29.0052395  60.1915108   1.7164621
  27.0884550  59.1511036   4.7447805  27.6324454  59.7640994   4.2502760
  26.5071395  59.7090614   5.2614818  30.4113345  58.6107090   4.0809126
  29.6208888  58.5931228   3.5413626  30.1746699  59.1495383   4.8358163
  32.0329417  57.8796497   1.6383876  31.7414225  58.2426478   2.4747337
  31.4201548  57.1663506   1.4597208  25.2110609  56.7970802   6.6076561
  26.0801769  56.9711455   6.2463196  24.7317360  57.6165219   6.4852291
  36.8703085  68.5059428  -3.9878164  37.5081495  68.3866176  -4.6914824
  36.7523928  69.4540272  -3.9290212  33.6792791  68.4586856  -4.0516639
  33.3411303  68.3427921  -4.9396105  34.5482559  68.0578021  -4.0715633
  34.1612574  69.6121708   1.9069566  34.1501215  69.2174506   1.0350070
  34.3233214  68.8787781   2.5003338  30.8819835  72.3958820   0.8548750
  30.5909701  73.3004451   0.7395416  31.5176820  72.4375348   1.5692820
  31.8076042  69.7735668  -2.5549890  32.4039614  69.5491691  -3.2692927
  31.8651014  69.0320414  -1.9524442  41.8252780  66.1686115  -6.0091978
  42.5577952  65.5985332  -5.7754148  41.0692136  65.7807716  -5.5685472
  39.3478201  59.8807689  -1.5497369  39.0161526  60.7503100  -1.7736154
  38.7523814  59.5643973  -0.8703339  35.8409720  72.0820235  -2.1501456
  35.5410443  72.9845274  -2.2585649  35.4960780  71.8152419  -1.2980303
  39.2406864  64.6002776  -4.4704019  38.3323741  64.5318184  -4.7645258
  39.1894460  65.0774721  -3.6422193  33.3147730  66.0192421   3.4730878
  32.5381064  66.5786341   3.4633743  33.9538293  66.5049204   3.9945749
  41.1068510  62.8019214  -2.6926145  40.4642891  63.0951747  -3.3386350
  40.6023439  62.6872134  -1.8872948  31.5694102  68.8277875   3.0348845
  32.3108786  69.3662919   2.7583669  30.8631088  69.4544163   3.1920397
  37.0449442  70.9707015   1.6321007  37.4532798  70.5289426   0.8875639
  36.3226703  70.3959643   1.8855200  33.3980512  65.9079622  -0.9945436
  34.2441707  66.3319035  -0.8510787  33.3379149  65.2513246  -0.3006873
  37.3678256  71.5308206  -4.6126704  36.7387119  71.6953920  -5.3150636
  36.9803918  71.9449815  -3.8415740  41.2467488  72.4662644  -7.2582340
  40.5618526  72.8461545  -7.8085307  41.3311338  73.0757970  -6.5250393
  36.5479957  63.5683990   0.6635737  36.3040889  64.3226051   0.1270013
  36.8239888  63.9469338   1.4982985  38.5018420  70.1122603  -0.6586997
  38.7135315  70.7554362  -1.3352616  38.4548168  69.2784919  -1.1265067
  29.8130299  70.8154095  -4.4096856  30.3831656  71.2441364  -5.0479371
  30.4038411  70.5336680  -3.7112670  30.3055466  65.9817523   3.8364155
  29.6754126  66.6633804   4.0699552  30.1991554  65.8700604   2.8917294
  39.6164248  72.9894558  -2.4864640  40.4381692  72.5874745  -2.7681958
  39.6126651  72.8862792  -1.5348524  33.3820851  72.5378601  -0.3303929
  33.4465284  72.9999008   0.5054243  32.6731775  71.9075966  -0.2021619
  47.7070241  69.3333306  -6.1379668  46.9533949  68.7640705  -6.2935664
  47.8417782  69.2995971  -5.1909033  29.5836209  60.2838289   6.1989406
  29.1903154  59.7304487   6.8737051  30.4002349  60.5948867   6.5895924
  32.5004170  61.6996168   3.7909663  33.2413883  62.3003321   3.7114125
  32.7322092  60.9573805   3.2327706  27.6445508  66.8852535   2.0687893
  27.5299023  65.9837792   2.3694992  26.7890025  67.1316232   1.7172709
  34.7237345  74.8270275   3.6675393  34.2801200  74.0406654   3.3496298
  35.3854559  75.0149426   3.0019284  29.4824467  76.3566077  -1.8063928
  30.0331892  76.2283140  -2.5786934  28.6435942  76.6560966  -2.1569035
  36.8218583  75.1073075   1.6956795  36.8037059  75.9281956   1.2037064
  37.7438503  74.9827150   1.9206936  33.2791638  72.6217205   2.5380303
  33.8119974  71.8605493   2.3079611  32.7505719  72.3290856   3.2804457
  39.6237196  69.9452218  -4.8333839  38.9660871  70.6351479  -4.7453710
  40.4277596  70.3348650  -4.4899852  38.4342655  68.2996590  -6.7829897
  38.9474537  68.9326582  -6.2808187  39.0843879  67.6997786  -7.1486537
  34.9123486  65.7746046  -4.5371556  33.9946047  65.9960993  -4.6949868
  35.3283630  65.8492356  -5.3959849  39.2004451  73.2802592  -8.6550754
  38.7466778  72.4393502  -8.5985564  38.5698418  73.9163990  -8.3175974
  37.6437391  75.1179088  -7.7200936  37.9360365  75.6784146  -8.4388571
  38.1536011  75.4107649  -6.9647777  36.0536650  66.3643507   0.2673146
  36.4086037  66.5914980   1.1267612  36.7008781  66.6961884  -0.3549598
  41.7834386  69.4861943  -9.0277525  41.6452285  69.6763539  -9.9556336
  41.4270605  70.2481326  -8.5709474  41.8103766  71.5538470  -4.0166253
  42.2440273  71.4613759  -3.1683199  42.5235347  71.5295970  -4.6546237
  35.5431661  75.1540564  -2.4833153  35.5968683  75.7231500  -1.7155437
  34.6746442  75.3242449  -2.8479116  28.4230054  64.8558120  -1.0008701
  29.0953108  64.6475482  -1.6496052  27.5959841  64.6580206  -1.4403469
  42.6719316  71.5962171  -1.4833368  42.8655206  72.5007981  -1.2374093
  42.5719934  71.1369590  -0.6494783  34.3255626  61.4820061   1.0156959
  33.6783541  62.1810011   0.9221436  35.0956642  61.9156205   1.3833208
  37.7334424  71.7468913   4.0907513  37.5819931  71.5179465   3.1737596
  37.7239104  72.7039515   4.1038858  34.5019761  69.3200826  -0.9246221
  35.4311821  69.4711986  -1.0977253  34.0810791  69.4084847  -1.7797574
  33.3008093  73.3451491  -3.1547683  33.1619178  72.9770275  -2.2821745
  32.5122689  73.8599130  -3.3263725  34.8513308  72.7233093  -5.7658845
  34.5163140  72.6833863  -4.8701196  34.3517253  72.0577809  -6.2388435
  28.8257552  68.1300723  -0.2406264  28.6877350  67.3980962   0.3605275
  29.7362475  68.0409623  -0.5222076  31.4539852  67.8420683  -0.7522585
  32.1639471  67.2013875  -0.7935966  31.4109160  68.0933577   0.1703596
  39.4426631  74.7788036   2.1683995  39.3839177  74.0947256   1.5014578
  39.8446149  75.5207026   1.7164621  30.1668786  64.8285900   1.0673055
  29.6306143  64.3776639   1.7194651  29.5785495  64.9631809   0.3243519
  39.4444038  72.7427620   0.3997974  38.5570817  72.4053542   0.5224373
  40.0142589  72.0110651   0.6366740  32.9745192  77.4029072  -2.6340782
  32.9015363  78.2084044  -2.1221478  32.5322585  77.6021038  -3.4592761
  43.9261379  68.1535837  -4.8385464  43.9151255  69.0360553  -5.2091531
  43.0578758  67.8007388  -5.0330927  35.4343875  77.3015906  -0.4782624
  36.1471847  77.9363371  -0.5506722  34.9433904  77.3979772  -1.2942622
  30.4855789  75.0510350   0.3422947  31.1865248  75.6846833   0.4952341
  30.0150904  75.3925081  -0.4181414  38.2857075  67.6054957  -1.8324503
  37.6328525  67.8530865  -2.4872050  38.6637455  66.7919095  -2.1662025
  34.3344648  68.3474768   4.6541534  33.6585285  68.2468898   5.3243910
  35.1572282  68.1913982   5.1177532  33.0767431  79.6541696  -1.1100850
  33.6285739  79.8173317  -0.3451764  33.4173624  80.2446134  -1.7820825
  27.5284196  64.0739978   3.1394069  28.1556235  63.6917055   3.7531594
  26.6712115  63.8554180   3.5049762  37.9278305  74.4802953   4.7447805
  38.4718209  75.0932911   4.2502760  37.3465150  75.0382532   5.2614818
  36.2135818  77.6023671  -4.1237167  36.0886957  76.8013411  -4.6326222
  36.8714909  78.0969865  -4.6123197  38.2770726  75.4032691  -2.4957617
  37.3301062  75.2838042  -2.5679291  38.6253499  74.5155189  -2.4131356
  30.6370300  61.2926830   1.3280625  31.1604701  61.5389127   2.0906934
  30.4182633  62.1246865   0.9083762  35.2817160  75.1985408  -6.2953265
  35.1342122  74.2702115  -6.1145695  36.1070653  75.2205498  -6.7796190
  38.8851281  76.0213966  -5.2088392  39.8097829  75.8156828  -5.3463941
  38.7166585  75.7730367  -4.2999051  31.8422845  62.2340525  -0.9869705
  31.5019665  61.4348338  -0.5849025  31.1361851  62.5342236  -1.5592872
  33.7300409  63.4348847  -2.6316386  33.4718187  64.3565917  -2.6332056
  33.1985449  63.0379281  -1.9415922  38.6746598  76.5399634  -9.8526301
  38.8483475  75.9746056 -10.6052448  39.1675489  77.3400529 -10.0346811
  24.4923557  68.5514303  -1.7862742  23.9477025  69.3274111  -1.6542468
  25.3702907  68.8985107  -1.9443621  44.5285989  69.3036057  -8.2336001
  44.9717135  68.5543382  -8.6316878  43.6512499  69.2946193  -8.6162269
  25.2789579  67.6784199   1.1067415  24.5371315  67.8266834   1.6932045
  24.9582324  67.9392465   0.2434164  41.5613193  73.3066104 -11.2242072
  42.0864517  73.6453376 -11.9492752  41.4735546  72.3713119 -11.4078937
  33.2233242  77.2200177   0.9047805  33.5320368  76.9749324   1.7770504
  34.0208724  77.4246816   0.4166675  30.7652254  63.3957884   4.8007989
  30.8140409  64.2720007   4.4185759  31.3074768  62.8535277   4.2279632
  41.2507099  73.9399007   4.0809126  40.4602643  73.9223146   3.5413626
  41.0140454  74.4787301   4.8358163  41.3704974  70.7891474   1.3941855
  41.4202979  70.6241481   2.3357377  41.2618898  69.9218733   1.0039735
  38.6608737  66.7722402   2.7101161  39.5618599  66.6328867   2.4185159
  38.7356711  66.9376857   3.6499339  32.9951542  64.1489256   1.5554348
  32.1254851  64.4422822   1.2836936  33.2311022  64.7329701   2.2761611
  42.8723171  73.2088415   1.6383876  42.5807979  73.5718396   2.4747337
  42.2595302  72.4955423   1.4597208  44.0718853  70.7741295  -5.8413554
  44.9065745  71.2131099  -5.6775993  44.2077982  70.2979948  -6.6605308
  41.1210359  68.3321030   0.1063934  41.5964481  68.5248676  -0.7017214
  40.1975925  68.3880216  -0.1392682  35.6990576  60.3668873  -0.9280232
  36.2172520  61.1029900  -1.2533743  35.3445709  60.6732867  -0.0933473
  39.8212028  65.2086790  -1.6607760  40.7729451  65.3084888  -1.6395536
  39.6515479  64.4165058  -1.1509676  37.8426408  62.2942373  -1.4748359
  37.2476340  62.5747386  -2.1701871  37.5576105  62.7836274  -0.7031618
  42.3000106  68.4292910  -2.5465461  42.2676426  67.4908910  -2.3605777
  42.9100730  68.5076946  -3.2799636  42.4494595  65.2203953  -2.5007177
  41.9333643  64.4362410  -2.6877249  43.3334543  64.8922670  -2.3360658
  48.1176656  69.4908916  -3.4059424  48.8480044  69.2294205  -2.8451720
  47.5083601  68.7537638  -3.3657356  46.1991953  67.6316779  -2.8084973
  45.4725117  67.4972744  -3.4168481  45.7839240  67.9393608  -2.0028255
  34.0222130  71.3506709   4.9562400  34.9425139  71.5285308   5.1502447
  33.9871713  70.4062754   4.8042100  27.0184202  69.2607743  -2.4014818
  27.2370212  70.1924851  -2.3826785  27.4309976  68.9015718  -1.6160015
  31.8912067  64.8340949   6.9887931  31.7908794  65.7835306   6.9200022
  31.6733609  64.5059188   6.1164001  31.7543337  68.2638088   5.8052992
  31.2710419  69.0638448   6.0116881  31.8404276  68.2746033   4.8520436
  27.6816675  72.1542623  -2.1578574  28.6359928  72.1226565  -2.2248642
  27.4829199  71.6933246  -1.3428348  28.2716057  70.7243739   0.4092224
  29.0908946  71.2187817   0.4327061  28.5452865  69.8075707   0.3809791
  43.8169748  63.8528631  -5.4551541  44.4114239  63.6124367  -6.1658233
  43.8896332  63.1335762  -4.8278005  46.1240821  67.1594832  -6.6808120
  45.5640379  67.2288021  -5.9076558  45.5184324  66.9835817  -7.4008624
  23.5250971  65.0581873   1.1084421  24.1709835  64.5480827   1.5971646
  23.3168122  65.7950554   1.6827846  36.0504364  72.1262720   6.6076561
  36.9195523  72.3003372   6.2463196  35.5711115  72.9457137   6.4852291
  30.2190544  79.2459821  -1.7134005  31.1217790  79.2783431  -1.3967510
  29.9927914  78.3160272  -1.6987669  27.8648462  62.2049490   5.2059435
  28.7279924  61.8486294   5.4162759  27.2913873  61.8663384   5.8934839
  47.7096839  83.8351346  -3.9878164  48.3475249  83.7158093  -4.6914824
  47.5917682  84.7832190  -3.9290212  44.5186546  83.7878774  -4.0516639
  44.1805057  83.6719839  -4.9396105  45.3876314  83.3869939  -4.0715633
  45.0006329  84.9413626   1.9069566  44.9894969  84.5466424   1.0350070
  45.1626968  84.2079698   2.5003338  41.7213590  87.7250738   0.8548750
  41.4303456  88.6296368   0.7395416  42.3570574  87.7667265   1.5692820
  42.6469797  85.1027586  -2.5549890  43.2433369  84.8783609  -3.2692927
  42.7044768  84.3612332  -1.9524442  50.1871955  75.2099607  -1.5497369
  49.8555280  76.0795018  -1.7736154  49.5917569  74.8935891  -0.8703339
  46.6803475  87.4112153  -2.1501456  46.3804198  88.3137192  -2.2585649
  46.3354534  87.1444336  -1.2980303  40.1315956  83.8625950  -6.1164752
  39.2066453  83.7302164  -5.9087060  40.3800369  84.6420169  -5.6194809
  50.0800619  79.9294693  -4.4704019  49.1717496  79.8610102  -4.7645258
  50.0288214  80.4066638  -3.6422193  44.1541484  81.3484339   3.4730878
  43.3774818  81.9078259   3.4633743  44.7932047  81.8341122   3.9945749
  51.9462265  78.1311132  -2.6926145  51.3036645  78.4243665  -3.3386350
  51.4417193  78.0164052  -1.8872948  42.4087857  84.1569792   3.0348845
  43.1502541  84.6954836   2.7583669  41.7024842  84.7836081   3.1920397
  47.8843196  86.2998933   1.6321007  48.2926552  85.8581343   0.8875639
  47.1620458  85.7251560   1.8855200  44.2374266  81.2371539  -0.9945436
  45.0835462  81.6610953  -0.8510787  44.1772904  80.5805164  -0.3006873
  47.3873712  78.8975908   0.6635737  47.1434644  79.6517968   0.1270013
  47.6633642  79.2761255   1.4982985  49.3412174  85.4414520  -0.6586997
  49.5529070  86.0846280  -1.3352616  49.2941923  84.6076837  -1.1265067
  46.9438403  78.0532341  -3.7550425  46.0822882  78.3513594  -3.4633687
  46.9700838  78.2702740  -4.6869392  40.6524054  86.1446013  -4.4096856
  41.2225411  86.5733281  -5.0479371  41.2432166  85.8628598  -3.7112670
  41.1449220  81.3109440   3.8364155  40.5147881  81.9925721   4.0699552
  41.0385308  81.1992522   2.8917294  44.2214606  87.8670519  -0.3303929
  44.2859038  88.3290926   0.5054243  43.5125530  87.2367884  -0.2021619
  34.7231896  81.2311727  -2.8054930  34.9739934  82.1158737  -2.5397354
  35.2591444  81.0516328  -3.5779838  40.4229963  75.6130206   6.1989406
  40.0296909  75.0596405   6.8737051  41.2396103  75.9240785   6.5895924
  43.3397924  77.0288085   3.7909663  44.0807637  77.6295238   3.7114125
  43.5715847  76.2865723   3.2327706  38.4839262  82.2144453   2.0687893
  38.3692777  81.3129710   2.3694992  37.6283780  82.4608149   1.7172709
  45.5631100  90.1562193   3.6675393  45.1194954  89.3698571   3.3496298
  46.2248313  90.3441343   3.0019284  40.3218221  91.6857995  -1.8063928
  40.8725646  91.5575058  -2.5786934  39.4829697  91.9852884  -2.1569035
  47.6612338  90.4364993   1.6956795  47.6430813  91.2573874   1.2037064
  48.5832258  90.3119068   1.9206936  44.1185392  87.9509122   2.5380303
  44.6513729  87.1897411   2.3079611  43.5899473  87.6582774   3.2804457
  47.2855087  73.0569188  -1.9326055  46.9419356  73.9470830  -2.0086945
  47.6534050  72.8670846  -2.7956470  44.8352481  77.8927500  -8.3668382
  43.9794077  77.5034351  -8.5462743  45.2479433  77.9719461  -9.2268596
  46.3651627  75.4273843  -3.9676822  45.8616423  75.3903979  -4.7809017
  46.6582234  76.3366586  -3.9080165  42.6094513  75.5112573  -4.9610640
  43.4747510  75.3155382  -5.3204751  42.6772022  75.2822925  -4.0341284
  40.2156832  77.7414781  -7.5894274  40.7900584  77.5189963  -8.3221081
  40.8027815  77.8103476  -6.8365672  42.5179500  74.6156030  -8.8619204
  41.8643912  74.3005047  -9.4862589  42.4759974  73.9931770  -8.1359381
  45.7517240  81.1037964  -4.5371556  44.8339802  81.3252911  -4.6949868
  46.1677384  81.1784274  -5.3959849  49.0842753  72.3162747  -6.8308318
  49.3901629  71.4560111  -7.1182403  49.8095357  72.9080368  -7.0309324
  43.3563832  82.6116541  -6.3232127  43.4112442  81.6590377  -6.3989650
  42.5455034  82.7675980  -5.8390828  41.2956192  81.2293600  -8.5641748
  40.4824058  81.5287771  -8.1576556  41.7915187  80.8349289  -7.8467265
  46.8930404  81.6935425   0.2673146  47.2479792  81.9206898   1.1267612
  47.5402535  82.0253802  -0.3549598  40.7870267  78.8011956  -2.9480513
  41.4269646  78.6600715  -3.6457549  39.9547798  78.5146469  -3.3241911
  37.7898884  78.7712281  -8.1707526  38.0505701  79.6857614  -8.2798365
  38.6116056  78.3036723  -8.0210913  39.2623809  80.1850038  -1.0008701
  39.9346862  79.9767400  -1.6496052  38.4353595  79.9872124  -1.4403469
  45.1649381  76.8111979   1.0156959  44.5177296  77.5101929   0.9221436
  45.9350396  77.2448123   1.3833208  48.5728179  87.0760831   4.0907513
  48.4213685  86.8471383   3.1737596  48.5632858  88.0331432   4.1038858
  45.3413515  84.6492744  -0.9246221  46.2705575  84.8003903  -1.0977253
  44.9204545  84.7376765  -1.7797574  44.1401847  88.6743408  -3.1547683
  44.0012933  88.3062193  -2.2821745  43.3516443  89.1891048  -3.3263725
  39.6651306  83.4592641  -0.2406264  39.5271104  82.7272880   0.3605275
  40.5756230  83.3701541  -0.5222076  42.2933607  83.1712600  -0.7522585
  43.0033225  82.5305792  -0.7935966  42.2502915  83.4225495   0.1703596
  50.2820385  90.1079954   2.1683995  50.2232932  89.4239174   1.5014578
  50.6839904  90.8498944   1.7164621  41.0062541  80.1577818   1.0673055
  40.4699898  79.7068557   1.7194651  40.4179249  80.2923727   0.3243519
  50.2837793  88.0719538   0.3997974  49.3964571  87.7345459   0.5224373
  50.8536344  87.3402569   0.6366740  36.7401662  79.2933826  -1.8473951
  36.6559851  78.6859495  -2.5823541  35.9184368  79.7842844  -1.8464454
  46.9125376  77.7787389  -6.4803756  47.4094075  77.0257352  -6.8002685
  46.1412357  77.8151706  -7.0460546  43.4960345  79.9204772  -6.7532071
  43.1258132  79.3675813  -6.0651165  43.9919437  79.3162906  -7.3057071
  41.3249543  90.3802267   0.3422947  42.0259003  91.0138750   0.4952341
  40.8544658  90.7216999  -0.4181414  49.3544371  74.7456983  -4.3324397
  48.4407450  74.9761210  -4.1642190  49.7837472  74.8295427  -3.4810364
  49.1250829  82.9346875  -1.8324503  48.4722279  83.1822782  -2.4872050
  49.5031209  82.1211013  -2.1662025  45.1738402  83.6766686   4.6541534
  44.4979039  83.5760815   5.3243910  45.9966036  83.5205900   5.1177532
  38.8925678  77.3308763  -0.5078965  38.9567005  78.1923594  -0.9201567
  38.8292799  76.7182765  -1.2406606  38.3677951  79.4031896   3.1394069
  38.9949990  79.0208973   3.7531594  37.5105870  79.1846098   3.5049762
  48.7672059  89.8094871   4.7447805  49.3111963  90.4224829   4.2502760
  48.1858904  90.3674449   5.2614818  38.6737741  79.2864321  -4.9460027
  37.9524326  79.9000289  -5.0852554  39.4630996  79.8222086  -5.0243381
  41.4764054  76.6218748   1.3280625  41.9998456  76.8681044   2.0906934
  41.2576387  77.4538783   0.9083762  42.6816599  77.5632443  -0.9869705
  42.3413419  76.7640256  -0.5849025  41.9755605  77.8634154  -1.5592872
  43.3333071  74.6481755  -2.5342382  44.1559140  74.1742234  -2.6563492
  43.5771134  75.4272239  -2.0343696  40.8571650  81.3400876  -4.7250403
  40.7116230  81.6541179  -3.8326122  40.3796853  81.9585776  -5.2779505
  42.7168033  78.3303424  -4.6769514  42.7029601  77.4344517  -5.0137216
  43.4340461  78.3374088  -4.0431228  44.5694163  78.7640764  -2.6316386
  44.3111941  79.6857835  -2.6332056  44.0379204  78.3671199  -1.9415922
  35.3317312  83.8806220  -1.7862742  34.7870780  84.6566028  -1.6542468
  36.2096662  84.2277025  -1.9443621  42.1204929  77.2117804  -9.4081944
  42.2420840  76.2834451  -9.2091056  41.8306971  77.2256490 -10.3203628
  44.9896119  74.8972715  -6.2715224  45.0117816  74.9612048  -7.2263244
  45.4064178  74.0577223  -6.0774718  36.1183334  83.0076117   1.1067415
  35.3765070  83.1558752   1.6932045  35.7976078  83.2684382   0.2434164
  44.0626996  92.5492095   0.9047805  44.3714123  92.3041242   1.7770504
  44.8602478  92.7538733   0.4166675  41.6046008  78.7249802   4.8007989
  41.6534164  79.6011924   4.4185759  42.1468522  78.1827195   4.2279632
  52.0900854  89.2690925   4.0809126  51.2996397  89.2515064   3.5413626
  51.8534208  89.8079219   4.8358163  52.2098729  86.1183391   1.3941855
  52.2596734  85.9533399   2.3357377  52.1012652  85.2510650   1.0039735
  49.5002491  82.1014319   2.7101161  50.4012354  81.9620784   2.4185159
  49.5750466  82.2668774   3.6499339  43.8345296  79.4781174   1.5554348
  42.9648606  79.7714740   1.2836936  44.0704777  80.0621619   2.2761611
  53.7116926  88.5380333   1.6383876  53.4201734  88.9010313   2.4747337
  53.0989057  87.8247341   1.4597208  51.9604114  83.6612947   0.1063934
  52.4358235  83.8540594  -0.7017214  51.0369679  83.7172133  -0.1392682
  46.5384330  75.6960791  -0.9280232  47.0566274  76.4321818  -1.2533743
  46.1839463  76.0024784  -0.0933473  46.7896924  72.1161074  -5.4079335
  47.0698678  71.4484263  -4.7818909  47.5747531  72.3090169  -5.9204672
  50.6605783  80.5378708  -1.6607760  51.6123206  80.6376805  -1.6395536
  50.4909233  79.7456976  -1.1509676  48.6820162  77.6234291  -1.4748359
  48.0870094  77.9039303  -2.1701871  48.3969859  78.1128192  -0.7031618
  53.2888349  80.5495871  -2.5007177  52.7727398  79.7654327  -2.6877249
  54.1728298  80.2214587  -2.3360658  50.9499076  74.2936886  -6.5411365
  50.7523897  73.9851974  -5.6568033  51.5598782  75.0198525  -6.4113435
  44.8615884  86.6798626   4.9562400  45.7818893  86.8577225   5.1502447
  44.8265467  85.7354672   4.8042100  37.8577957  84.5899661  -2.4014818
  38.0763966  85.5216769  -2.3826785  38.2703730  84.2307635  -1.6160015
  44.7782174  75.0967746 -10.4139130  43.9682903  74.7514831 -10.0383884
  45.4666591  74.7875290  -9.8251518  46.7072723  74.1745793  -8.7914833
  47.2603761  74.5941247  -8.1324810  46.9442809  73.2481541  -8.7491877
  42.7305822  80.1632867   6.9887931  42.6302549  81.1127224   6.9200022
  42.5127364  79.8351106   6.1164001  48.5355096  75.6851376  -7.0814849
  49.0354874  75.7967911  -7.8900530  49.1790704  75.3812429  -6.4414040
  42.5937092  83.5930006   5.8052992  42.1104174  84.3930366   6.0116881
  42.6798031  83.6037950   4.8520436  38.5210429  87.4834540  -2.1578574
  39.4753683  87.4518483  -2.2248642  38.3222953  87.0225164  -1.3428348
  39.1109812  86.0535656   0.4092224  39.9302701  86.5479735   0.4327061
  39.3846619  85.1367624   0.3809791  34.3644726  80.3873790   1.1084421
  35.0103589  79.8772744   1.5971646  34.1561877  81.1242472   1.6827846
  46.8898118  87.4554638   6.6076561  47.7589278  87.6295290   6.2463196
  46.4104869  88.2749055   6.4852291  41.0584298  94.5751739  -1.7134005
  41.9611545  94.6075349  -1.3967510  40.8321668  93.6452190  -1.6987669
  46.7000456  71.2456611  -8.8845746  45.9332852  70.6915098  -8.7389064
  47.1111161  71.3178480  -8.0231595  38.7042217  77.5341407   5.2059435
  39.5673678  77.1778212   5.4162759  38.1307627  77.1955302   5.8934839
  51.2623718  90.9422124   6.1989406  50.8690663  90.3888323   6.8737051
  52.0789858  91.2532702   6.5895924  54.1791679  92.3580003   3.7909663
  54.9201392  92.9587156   3.7114125  54.4109601  91.6157641   3.2327706
  49.2071705  94.7323813   3.1394069  49.8343744  94.3500891   3.7531594
  48.3499624  94.5138015   3.5049762  52.4439763  94.0541719   4.8007989
  52.4927918  94.9303842   4.4185759  52.9862277  93.5119112   4.2279632
  53.5699576  95.4924784   6.9887931  53.4696303  96.4419141   6.9200022
  53.3521118  95.1643023   6.1164001  45.2038480  95.7165708   1.1084421
  45.8497344  95.2064662   1.5971646  44.9955631  96.4534390   1.6827846
  49.5435971  92.8633325   5.2059435  50.4067433  92.5070130   5.4162759
  48.9701382  92.5247220   5.8934839  50.2820387  67.1142076 -11.1070699
  50.2232933  66.4301296 -11.7740116  50.6839905  67.8561066 -11.5590073
  48.7672061  66.8156993  -8.5306889  49.3111965  67.4286952  -9.0251934
  48.1858905  67.3736572  -8.0139876  52.0900855  66.2753048  -9.1945567
  51.2996399  66.2577186  -9.7341068  51.8534210  66.8141341  -8.4396531
  53.7116927  65.5442455 -11.6370817  53.4201735  65.9072436 -10.8007356
  53.0989058  64.8309464 -11.8157485  46.8898119  64.4616760  -6.6678132
  47.7589279  64.6357413  -7.0291497  46.4104871  65.2811177  -6.7902403
  51.2623719  67.9484247  -7.0765287  50.8690664  67.3950445  -6.4017643
  52.0789859  68.2594825  -6.6858769  54.1791680  69.3642126  -9.4845030
  54.9201393  69.9649279  -9.5640568  54.4109603  68.6219763 -10.0426988
  49.2071707  71.7385936 -10.1360624  49.8343745  71.3563013  -9.5223100
  48.3499625  71.5200138  -9.7704931  52.4439764  71.0603842  -8.4746704
  52.4927919  71.9365965  -8.8568935  52.9862278  70.5181235  -9.0475061
  53.5699578  72.4986907  -6.2866763  53.4696305  73.4481264  -6.3554672
  53.3521120  72.1705146  -7.1590693  45.2038482  72.7227830 -12.1670273
  45.8497345  72.2126784 -11.6783048  44.9955633  73.4596512 -11.5926847
  49.5435973  69.8695448  -8.0695258  50.4067434  69.5132252  -7.8591934
  48.9701383  69.5309342  -7.3819854
 121.9984564 121.9984564 121.9984564 109.4712190 109.4712190 109.4712190
