default_name
127282
  76.3004390  33.1083831  48.1559264  75.8268505  33.2553639  47.2760334
  75.6964260  33.4154212  48.9049232  76.6828914  32.1736547  48.1665434
  77.5065695  34.0372977  48.2050981  77.3998992  34.7826912  48.9932030
  78.8809035  33.3235926  48.3495934  79.6653619  34.0466184  48.1260780
  79.0897158  32.7657439  49.7499902  78.3058490  32.0422495  49.9740644
  80.0619783  32.2761117  49.8053680  79.0510938  33.5787407  50.4750031
  79.0394338  32.2594586  47.2671110  78.1346049  32.2704555  46.6594408
  79.1303508  31.2941172  47.7650576  80.2300427  32.4820386  46.3913744
  81.1353568  32.4707097  46.9983158  80.2846626  31.6909098  45.6435569
  80.1396118  33.4470497  45.8927004  77.6786694  34.9259359  47.0038601
  77.1889649  34.6817196  45.8945171  78.4790345  35.9299412  47.2452995
  79.0471645  35.9208446  48.0803114  78.5856174  37.0315747  46.3787172
  78.7049440  36.7028403  45.3463442  77.2905083  37.8605474  46.4850921
  76.4903469  37.1682696  46.7469937  77.4345314  38.5727216  47.2975976
  76.9216673  38.6001553  45.2310353  76.8717495  39.6663050  45.4522454
  77.6889226  38.4214506  44.4777186  75.5984568  38.1365964  44.7136262
  74.8186911  38.3910361  45.4314875  75.3892655  38.6255732  43.7621851
  75.5916308  36.7116018  44.5110807  76.3609925  36.1680654  44.8754296
  74.6023999  36.0790028  43.9135837  73.5728182  36.7696527  43.4266584
  73.5550640  37.7753867  43.5176740  72.8145869  36.2844545  42.9686545
  74.6600289  34.7645031  43.7554838  75.4624608  34.2529425  44.0938752
  73.9012538  34.2803011  43.2973270  79.8110935  37.8806283  46.8192060
  79.8173551  38.4406026  47.9172008  80.8065227  37.9951309  45.9342970
  80.7252329  37.5234948  45.0448867  81.9833804  38.7736178  46.1855198
  81.8527802  39.4104792  47.0604199  83.1250274  37.8177722  46.4496926
  82.8739254  37.3993079  47.4243385  83.0816698  37.0320819  45.6954308
  84.5400196  38.4041770  46.4951621  84.8926233  38.4718669  45.4659928
  84.6247991  39.7789259  47.1531499  84.2727721  39.7119355  48.1825614
  85.6590279  40.1230275  47.1450458  84.0032209  40.4848812  46.6023614
  85.4526133  37.4194589  47.2219201  85.4620157  36.4695725  46.6873859
  86.4643620  37.8229665  47.2625102  85.0839619  37.2617687  48.2354925
  82.2756662  39.6065655  44.9591037  82.7377184  39.0713141  43.9791426
  81.9446125  40.9141015  44.9935250  80.8172512  41.5297304  45.7129015
  81.1536410  41.8463642  46.7001630  80.0182995  40.7960193  45.8198740
  80.4146547  42.7010075  44.8293744  79.9908379  43.5080419  45.4270147
  79.6900236  42.3866854  44.0782335  81.6705757  43.1032289  44.2051777
  82.2556081  43.7067171  44.8991792  81.5329607  43.6524382  43.2737644
  82.3920488  41.7795863  43.9299053  82.0854610  41.3321965  42.9844189
  83.8713291  41.9779047  43.9291139  84.4530937  42.4991954  44.9242259
  84.4492701  41.5310777  42.8015556  83.8282570  41.2734736  42.0478433
  85.8680185  41.4500958  42.5745073  86.3853296  41.0618006  43.4518415
  86.1521607  40.5459932  41.3737685  85.5214023  40.8546798  40.5401278
  87.6191831  40.6460326  40.9654774  88.2505919  40.3370418  41.7985130
  87.8038390  39.9964880  40.1098521  87.8524414  41.6761234  40.6960289
  85.7835498  39.0999973  41.7168645  86.4860025  38.7661723  42.4805541
  84.7766316  39.1196451  42.1337928  85.8248670  38.1369163  40.5314726
  86.8316567  38.1163804  40.1142765  85.5501756  37.1364652  40.8657501
  85.1222870  38.4698549  39.7675138  86.3345164  42.8245651  42.2393540
  85.8411301  43.4007438  41.2641473  87.3531511  43.3039464  42.9627031
  87.7790486  42.7408525  43.6849468  87.9133867  44.6194643  42.6933601
  87.1248496  45.2659041  42.3081015  88.5420280  45.2858094  43.8802970
  89.5173032  44.8461321  44.0891544  88.7121795  46.7660214  43.5480231
  87.7372086  47.2065266  43.3394855  89.1684190  47.2788871  44.3947312
  89.3525761  46.8710618  42.6722603  87.6844197  45.1037437  45.1097429
  87.5724245  44.0402968  45.3210242  88.1582292  45.5946140  45.9598314
  86.7026634  45.5447085  44.9371004  89.0111963  44.5630965  41.7158523
  89.0758575  45.3836409  40.8276480  89.9713620  43.6851647  41.9598271
  90.0628927  43.2555003  42.8692829  91.0165807  43.4350607  40.9656612
  90.5900399  43.4518840  39.9627260  92.1154924  44.5374799  41.0583334
  91.6959681  45.3774111  41.6120610  92.9515221  44.1161823  41.6166009
  92.6111262  45.0259256  39.6811926  91.8053278  44.9691389  38.7251559
  93.8015940  45.4651407  39.5749586  91.6273149  41.9865129  41.0202319
  91.5934914  41.2694328  42.0557188  92.1908954  41.6056590  39.8781368
  92.1207600  42.2342271  39.0906837  92.8855430  40.3469100  39.6929433
  92.7270462  39.6929314  40.5504338  92.3375287  39.6539782  38.4406654
  92.7988184  38.6668327  38.4114275  91.2637701  39.5482469  38.5954664
  92.5954077  40.3825070  37.1024822  93.6429353  40.6837525  37.0963320
  92.4206061  39.6612766  36.3041257  91.7088851  41.6132839  36.8818106
  90.7236152  41.2743844  36.5616710  91.6193118  42.1466294  37.8281819
  92.2891437  42.5400811  35.8331581  91.6243329  43.3955529  35.7135959
  93.2666098  42.8845981  36.1707485  92.4342491  41.8379879  34.5271579
  91.5285567  41.5190466  34.2139528  92.8219751  42.4734736  33.8445698
  93.0505798  41.0455037  34.6376318  94.3800967  40.6523590  39.5400146
  94.7673752  41.4806111  38.6821855  95.2052883  40.1130411  40.4383086
  94.8574445  39.5827145  41.2243479  96.6422348  40.3798365  40.3627124
  96.8261228  41.0204340  39.5002049  97.2043342  41.0695186  41.6152203
  98.1783445  41.3315670  41.2020209  96.6675927  41.9793156  41.8840659
  97.3939584  40.2121114  42.8495373  96.2981751  39.7802640  43.5963075
  95.2963188  39.9600565  43.2063612  96.4649476  39.1276567  44.8236394
  95.5910733  38.8033632  45.3886875  97.7551190  38.8887721  45.3265368
  97.9370211  38.2250032  46.5479091  97.1097514  37.9732260  46.9648416
  98.8511408  39.3218973  44.5962684  99.8598961  39.1204779  44.9567451
  98.6619247  40.0201163  43.3921499  99.5201198  40.4276540  42.8578144
  97.3362488  39.1133745  40.0725613  97.7455501  38.4195901  40.9788866
  97.4152266  38.7734429  38.7983125  97.1529724  39.3879386  38.0408713
  97.9248811  37.4819720  38.4752501  97.1918828  36.7122677  38.7168449
  98.2216038  37.4195389  36.9872358  97.3552013  37.8343917  36.4721212
  99.0887362  38.0553426  36.8085318  98.5006168  36.0278333  36.4635332
  99.1631287  35.5241673  37.1674504  97.5551834  35.4884776  36.4056270
  99.1540999  36.0591448  35.0827894  99.5300962  37.0695306  34.9220211
  99.9898215  35.3596138  35.1008248  98.2036873  35.6853814  33.9520773
  98.7863452  35.1337931  33.2142693  97.4433259  35.0303221  34.3773384
  97.5457034  36.8480785  33.2957277  98.2500808  37.4549759  32.9012309
  96.9351841  36.5190689  32.5614806  97.0054029  37.3590829  33.9791375
  99.1752907  37.3629494  39.2675281 100.0908886  38.1537805  39.1402777
  99.1886160  36.3403100  40.0984458  98.4078079  35.7008945  40.0586218
 100.2905468  36.0201197  40.9715915 101.2313879  36.2602690  40.4763688
 100.2061296  36.8106518  42.2584737 100.5854254  37.8096614  42.0434996
  99.1614272  36.8768186  42.5623139 101.0169569  36.1937273  43.3747192
 100.7546171  35.0415728  43.7832727 101.9218247  36.8814841  43.8700229
  99.9649821  34.6028002  41.2533060  98.8323524  34.2043338  41.0498251
 100.9374407  33.8102068  41.6980474 101.8608163  34.1959346  41.8347626
 100.7235367  32.3919060  42.0061612 101.6368622  31.8212276  42.1742738
  99.8175909  32.2280485  43.2182305 100.3245923  32.6075148  44.1053912
  98.8948345  32.7865096  43.0609353  99.4907279  30.7512231  43.4125800
  98.9832639  30.3711394  42.5259474 100.4130204  30.1921438  43.5704059
  98.4131657  30.5398163  44.8514216  98.2091581  28.7717050  44.8276812
  99.1825193  28.2917367  44.9291572  97.5670855  28.4683882  45.6546288
  97.7527645  28.4707297  43.8846965 100.0720931  31.8317096  40.7588545
 100.4402658  32.2487782  39.6571133  99.0755348  30.9676771  40.9097897
  98.7853897  30.6001021  41.8046661  98.3685440  30.5304571  39.7277539
  99.0403755  30.2176872  38.9284313  97.6560384  29.7322824  39.9359658
  97.6060765  31.7709515  39.2777748  97.6438554  32.1752626  38.1201042
  96.9219140  32.3849808  40.2421786  96.9541707  31.9874562  41.1700972
  96.1441110  33.6010101  40.0378645  96.7815319  34.3461808  39.5619293
  94.9261906  33.3547030  39.1420895  94.3310435  32.5462259  39.5666659
  94.0847381  34.5987412  39.0443927  94.6791120  35.4075896  38.6194414
  93.2236958  34.4062725  38.4043450  93.7411430  34.8846038  40.0385384
  95.3646848  33.0010442  37.8313503  94.6017456  32.8465621  37.2695146
  95.6416654  34.1044551  41.3768934  95.6745081  33.3738087  42.3598676
  95.1477430  35.3339481  41.4217108  95.1921333  35.9644848  40.6339595
  94.5653603  35.8339891  42.6905297  93.8781695  35.0811629  43.0766911
  95.6411935  36.1516994  43.8008036  96.0203179  37.1570587  43.6174558
  95.0746687  36.0709847  45.2235066  94.6957455  35.0657154  45.4077665
  95.8618000  36.2993945  45.9420843  94.2631969  36.7903908  45.3333706
  96.7908024  35.1790861  43.7143806  97.2602342  35.2568240  42.7337214
  97.5235582  35.4122862  44.4869001  96.4205674  34.1642811  43.8599745
  93.7384640  37.0758563  42.4185676  94.0087942  37.8503109  41.4667868
  92.7945814  37.2791243  43.3409047  92.8576657  36.7404505  44.1929319
  91.6863373  38.1542280  43.1773400  91.8800701  38.9935549  42.5094349
  90.5155739  37.3456304  42.6187588  90.7560782  36.2877041  42.7238726
  89.2151869  37.6410942  43.3365831  88.9737678  38.6988174  43.2315139
  88.4153396  37.0414817  42.9020609  89.3191937  37.3959416  44.3935526
  90.3800056  37.6060683  41.1265298  91.2985626  37.3090735  40.6204179
  89.5446516  37.0284310  40.7307795  90.1995043  38.6676270  40.9573750
  91.3407833  38.8186901  44.5052088  91.3462293  38.1954016  45.5610439
  90.9252984  40.0660956  44.4040067  90.7823364  40.4465289  43.4793815
  90.6171060  40.9135116  45.5592458  90.9560249  40.4604450  46.4908916
  91.3560074  42.2103125  45.3580364  91.3808438  42.3365496  44.2756564
  90.8052852  43.0368062  45.8071614  92.7578525  42.1954494  45.8916639
  92.9647581  41.2203339  46.3326183  93.7461233  42.4619432  44.7621441
  93.5401258  43.4371512  44.3209717  94.7619943  42.4496598  45.1570569
  93.6439461  41.6898534  43.9995580  92.8224989  43.2303541  47.0288160
  92.1122787  42.9579501  47.8095098  93.8295195  43.2506913  47.4454660
  92.5715510  44.2164677  46.6380424  89.1305830  41.2890480  45.7332542
  88.4504423  41.6168620  44.7638592  88.7099674  41.5160723  46.9599157
  89.2148663  41.2259698  47.7851533  87.4660223  42.2139260  47.1326688
  87.5753203  43.1898750  46.6597241  86.6997067  41.6413342  46.6101762
  87.0459584  42.4060870  48.5503650  87.8367398  42.1975131  49.4680838
  85.8345782  42.9483043  48.7081576  85.4511219  43.5155264  47.9656486
  85.0264994  42.7418797  49.9124742  85.6691455  42.3800099  50.7150671
  84.3500454  44.0297080  50.3726375  85.1287348  44.7672295  50.5670706
  83.7111945  44.3815595  49.5625942  83.5110687  43.8317782  51.6326152
  82.5404203  43.4373220  51.3320377  84.0191173  43.1029567  52.2641275
  83.3136613  45.1280708  52.4108033  82.9815767  45.8960696  51.7122358
  82.5398345  44.9598065  53.1597884  84.6034115  45.5897562  53.1030035
  84.9847581  44.7355183  53.6624254  85.3089178  45.8511612  52.3143163
  84.4337859  46.7561749  54.0274993  83.7804122  46.5140119  54.7586352
  85.3257503  46.9929421  54.4379147  84.0808337  47.5479639  53.5092389
  83.9496813  41.7446270  49.6352975  83.2622558  41.8323625  48.6112742
  83.6910797  40.9201870  50.6451980  84.0859404  41.1346076  51.5497466
  82.8813466  39.7124519  50.5120242  82.8047535  39.4080902  49.4681867
  83.5650307  38.5872363  51.3023575  84.5652244  38.6704088  50.8771583
  83.5869417  38.9022916  52.3456024  83.0929498  37.1275160  51.2183615
  83.9419918  36.4984903  50.9508634  82.5204606  36.6664206  52.5493480
  81.6710310  37.2947256  52.8173051  82.1929967  35.6301861  52.4651680
  83.2863670  36.7433326  53.3210814  82.1136940  36.8736338  50.0869027
  82.5852992  37.1195623  49.1354790  81.8223569  35.8232892  50.0866553
  81.2291601  37.4954623  50.2248456  81.4728191  39.9608090  51.0475641
  81.2741110  39.9847636  52.2678388  80.5146318  40.1644768  50.1384005
  80.7112770  40.0050036  49.1606488  79.2179387  40.7814122  50.5024645
  79.2965757  41.1990908  51.5061875  78.8061293  41.9129397  49.5258563
  78.3103648  41.4240065  48.6872496  78.0861067  42.5300453  50.0633023
  79.9558395  42.8044077  48.9966860  80.8266667  42.1562220  49.0947476
  79.7834308  43.0234765  47.9429388  80.2079699  44.1288882  49.7655915
  79.3449462  44.6030852  50.5554284  81.2683285  44.7530674  49.5100194
  78.0309467  39.7797269  50.7052910  77.1780053  40.0137181  51.5447319
  78.0151036  38.6514358  50.0035274  78.5926757  38.5337749  49.1833654
  77.0948519  37.5641157  50.3702055  76.4628938  37.9015028  51.1917272
  76.1931322  37.1352435  49.2006987  75.6382109  38.0110069  48.8642465
  76.8339570  36.7797390  48.3938157  75.2674020  36.0938392  49.5733536
  74.7274949  35.8592412  48.8150239  77.8669218  36.3534612  50.8928783
  78.5810812  35.6941051  50.1467396  77.6855192  36.0461167  52.1724944
  77.4192330  36.7671364  52.8277209  77.8606586  34.6754622  52.6769728
  77.1868081  34.5617380  53.5261439  77.5533697  34.0016640  51.8771798
  79.2735658  34.3139629  53.1138430  80.1280902  35.1777466  53.2748234
  79.4651820  33.0286696  53.4066472  78.7018093  32.3797734  53.2789942
  80.7180570  32.5218878  53.9388890  81.3737702  33.3573776  54.1840343
  80.4823322  31.6890336  55.2159296  79.7211135  32.1865498  55.8168647
  80.1253400  30.7016667  54.9230762  81.6701843  31.5550577  55.9757275
  81.4904323  31.0332941  56.7612540  81.3884104  31.6816432  52.8717919
  80.7368103  31.1200115  51.9920731  82.7018556  31.6019793  52.9598856
  83.1893742  32.0094217  53.7450070  83.4861338  31.0740995  51.8642868
  82.9441233  30.3716946  51.2310798  84.0484100  32.2132834  51.0002732
  83.2164765  32.7753297  50.5759019  84.9187752  33.1453893  51.8304473
  85.7512410  32.5841162  52.2547985  85.3050048  33.9434536  51.1963962
  84.3244180  33.5772222  52.6356547  84.7675509  31.6468157  49.7744973
  85.8406182  31.6792110  49.9631184  84.4534295  30.6114085  49.6427429
  84.4530861  32.4306240  48.5236858  84.7673688  33.4660991  48.6545203
  84.9842715  31.9943659  47.6777424  83.3801790  32.3982984  48.3341461
  84.5744073  30.0901286  52.3344166  85.5697764  30.4735806  52.9706319
  84.3134119  28.8050046  52.0688385  83.5424153  28.5848002  51.4546939
  85.0904850  27.7019655  52.6273428  85.4373342  27.9695279  53.6254437
  84.2336573  26.4113751  52.7293011  84.0042703  26.0649372  51.7215999
  84.8120411  25.6495574  53.2519922  82.6195408  26.5221697  53.6113360
  82.2815998  25.2468099  53.4435520  86.2665334  27.4816834  51.6861229
  86.1517834  27.8126985  50.4944575  87.4137593  27.0360221  52.2430940
  87.4397857  26.8929058  53.2425637  88.6657636  26.7938497  51.4585154
  88.9213056  27.7006092  50.9102592  89.8531847  26.4150870  52.3644133
  90.0452198  27.2237064  53.0696483  89.6159087  25.5037176  52.9132356
  91.0929697  26.1835963  51.5071096  90.9018413  25.3747498  50.8018877
  91.3311550  27.0947384  50.9583019  92.2682104  25.8087169  52.4037142
  92.4602452  26.6173348  53.1089508  92.0309340  24.8973466  52.9525344
  93.5079957  25.5772284  51.5464096  93.3168680  24.7683827  50.8411867
  93.7461809  26.4883712  50.9976055  94.6408496  25.2158674  52.4106777
  94.4205148  24.3713668  52.9189799  95.4619539  25.0625547  51.8428899
  94.8183909  25.9654120  53.0639471  88.4147599  25.6921501  50.4334587
  87.7013080  24.7281660  50.7263323  88.8953201  25.8981231  49.2057902
  89.4729709  26.7093706  49.0375752  88.6187891  24.9868242  48.0732771
  89.2345116  25.3686862  47.2589267  89.0059598  24.0213370  48.3989035
  87.1724086  24.8028154  47.5658137  86.9216536  23.8809079  46.7745000
  86.2433874  25.6996629  47.9557934  86.5572836  26.5223700  48.4504867
  84.7718621  25.5399755  47.7013877  84.4913098  24.5032361  47.8872934
  83.9578036  26.4518055  48.6541809  84.1863465  26.1937583  49.6882404
  84.2211229  27.4939954  48.4736175  82.4676557  26.2526957  48.3983707
  82.2382519  26.5110036  47.3645662  82.2034736  25.2107678  48.5791911
  81.6317016  27.1327966  49.3165689  82.1737741  27.8779683  50.1297824
  80.3061338  27.0450480  49.1846839  79.7051575  27.6077040  49.7697884
  79.9103120  26.4164089  48.5004038  84.3836723  25.9032821  46.2633202
  84.1983798  27.0671740  45.9810381  84.2124355  24.9231770  45.3670736
  84.2616030  23.9550329  45.6505854  83.9513398  25.2264434  43.9323651
  84.8825664  25.5109780  43.4425118  83.3774323  24.0091309  43.2177417
  82.6989900  23.5178311  43.9151941  82.8131152  24.3766184  42.3606542
  84.4288697  23.0113178  42.7437013  85.3132153  23.1101998  43.3731900
  84.0232623  22.0045224  42.8434397  84.8356009  23.2290391  41.2988801
  86.0375869  23.2899573  40.9771354  83.8356296  23.3483125  40.4083088
  84.0479629  23.4947160  39.4317936  82.8765721  23.2909740  40.7197929
  82.9661270  26.3665900  43.7835850  82.0048460  26.4287742  44.5432394
  83.2178849  27.2623102  42.8172883  84.0001479  27.1011518  42.1990716
  82.3982473  28.4758595  42.6094074  81.3920499  28.2963071  42.9881248
  82.9851002  29.6922187  43.3351891  83.9835583  29.7536737  42.9022872
  82.4115233  30.5744730  43.0510466  83.0934579  29.6246253  44.8532364
  83.7066301  28.7674383  45.1313571  83.7299090  30.8961625  45.3864735
  83.1170175  31.7537998  45.1091268  83.8031811  30.8386079  46.4724843
  84.7269949  31.0100310  44.9610865  81.7507867  29.3618078  45.5552145
  81.3429344  28.4097140  45.2156954  81.9048262  29.3265993  46.6337011
  81.0515102  30.1625501  45.3145424  82.3173687  28.8205310  41.1581631
  82.9168982  28.1484312  40.3083153  81.6165209  29.9089987  40.8736558
  81.1158469  30.3972322  41.6023896  81.5384280  30.4267266  39.5186546
  82.3420037  30.0377880  38.8932811  80.1936180  30.0856259  38.8585133
  79.3955151  30.4471776  39.5069046  80.0532897  30.7228549  37.4727351
  80.8508319  30.3614016  36.8235981  79.0874359  30.4542492  37.0448592
  80.1216001  31.8070287  37.5621923  80.0367775  28.5714306  38.7650315
  80.0677694  28.1399666  39.7655215  79.0820373  28.3327677  38.2964050
  80.8482792  28.1578551  38.1662651  81.6987172  31.9191567  39.5629897
  81.5992036  32.5327751  40.6312704  81.9915380  32.4926469  38.3988355
  82.0113513  31.9330365  37.5582744  82.3118696  33.8973472  38.2940938
  81.8514507  34.4597181  39.1064069  83.8060183  34.0573369  38.3847127
  84.1579081  33.4023183  39.1817218  84.2286321  33.7316126  37.4342385
  84.2401034  35.4699040  38.6684633  83.6153866  36.1798719  38.1264529
  84.1863982  35.6809835  39.7364817  85.9089179  35.6366917  38.1282838
  85.6658977  35.4293896  36.3467741  84.9966430  36.2066789  35.9779673
  86.6264129  35.5058397  35.8371992  85.2280722  34.4506249  36.1507390
  81.8110543  34.4978793  36.9918111  82.1145903  34.0111690  35.8876671
  81.0606869  35.5778757  37.1288712  81.2083039  36.2348574  37.8816551
  79.9523502  35.7678742  36.2868068  79.6115559  34.8088706  35.8965882
  78.8048777  36.4141768  37.0668189  79.0383591  36.3098782  38.1263978
  78.7911937  37.4710879  36.8006392  77.4276161  35.7975310  36.7834757
  76.9009764  35.7973640  37.7378087  76.9319786  36.4826581  36.0956920
  77.3953273  34.1087263  36.0780884  76.0173538  34.2681540  34.9337751
  76.2386466  35.0469978  34.2040279  75.8616724  33.3208854  34.4174940
  75.1152979  34.5333536  35.4851965  80.3824419  36.5516132  35.0738459
  81.5446131  36.6331239  34.7856233  79.4456547  37.2303791  34.4406985
  79.6659191  38.6676392  34.6327267  80.7359497  38.8582439  34.7152174
  79.1688190  38.9870906  35.5486641  79.0583680  39.2938350  33.3990212
  79.6690903  40.1400004  33.0841858  78.0500258  39.6391648  33.6272640
  79.0326069  38.2354461  32.3705080  79.9616833  38.1380179  31.8088819
  78.2094759  38.4216931  31.6806768  78.7697400  36.9615353  33.1606386
  77.7119278  36.8651176  33.4052508  79.2297138  35.7167566  32.3613970
  78.4772147  35.2159968  31.4946019  80.4271095  35.2099623  32.6561645
  80.9279181  35.5421459  33.4679183  81.0766374  34.2209978  31.7979542
  80.6549101  34.2444160  30.7931175  82.5597362  34.5559511  31.7112017
  83.0246348  34.3814109  32.6815131  83.0188347  33.9055586  30.9666762
  82.8026354  36.0015809  31.3092294  81.9101535  36.6723032  30.7883555
  84.0116729  36.4904188  31.5582387  84.2274385  37.4457471  31.3114740
  84.7100864  35.9047112  31.9932859  80.8962713  32.7625463  32.2632212
  81.4213996  31.8232252  31.6506332  80.1798759  32.5929481  33.3688871
  79.8145512  33.4052878  33.8450609  79.8715455  31.2886864  33.9056289
  79.3566957  31.4026984  34.8595839  78.9604994  30.4839289  32.9442547
  79.2197153  30.8206571  31.9405015  79.2531600  29.4407897  33.0638813
  77.4653513  30.6153996  33.1502564  76.9603649  30.0467497  32.3694063
  77.2152310  30.1952588  34.1244348  77.0159171  32.0579144  33.0934592
  75.9268785  32.0469685  33.0490282  77.3363582  32.5245364  34.0249531
  77.5680258  32.8568165  31.9051342  77.3528482  33.9032657  32.1213358
  78.6465245  32.6990802  31.9128271  77.0261753  32.5064043  30.5669763
  76.0268851  32.6529065  30.5595037  77.4574501  33.0911973  29.8654642
  77.2258327  31.5368940  30.3662633  81.1374478  30.5007157  34.0802270
  81.1301759  29.3328094  33.7851810  82.2558870  31.1149608  34.4405777
  82.3370092  32.1191749  34.5117997  83.4621987  30.3048283  34.6339329
  83.4436377  29.4795005  33.9221824  84.7515998  31.0975230  34.4286010
  84.4405029  32.1395547  34.5026814  85.5568838  30.9079684  35.1383099
  85.3304344  30.9224425  33.0727359  86.1693787  29.8778698  32.7639746
  86.5051143  29.1921743  33.4251878  86.4588800  29.9209561  31.4742945
  87.1202229  29.1766727  31.0307106  85.8290869  30.9529889  30.9367352
  85.0890921  31.5760732  31.9090616  84.4631185  32.4310475  31.6535676
  83.4650148  29.6274191  35.9948729  83.4209271  30.2959817  37.0365247
  83.5046899  28.2930366  35.9683760  83.2752425  27.8069181  35.1133076
  83.8676834  27.5022677  37.1359437  83.1050049  27.6233203  37.9052077
  83.9820007  26.0202528  36.7916556  84.3413094  25.9216009  35.7673196
  84.6985511  25.5618595  37.4732209  82.6853754  25.3019147  36.9117061
  81.6226497  25.9053585  37.1528424  82.7476588  23.9964020  36.7390264
  81.9069761  23.4406012  36.8056431  83.6357688  23.5580934  36.5409179
  85.1825289  27.9537485  37.6819211  86.0126197  28.5093491  36.9500700
  85.4103243  27.6138672  38.9385722  84.7125490  27.1038717  39.4611750
  86.6377948  27.9491425  39.5934666  87.5056984  27.5304583  39.0840099
  86.8029005  29.4743724  39.6714912  86.6703719  29.8847466  38.6704276
  85.7929346  30.1041041  40.6139942  85.9251593  29.6945361  41.6154291
  85.9436794  31.1833032  40.6405586  84.7838160  29.8872366  40.2636376
  88.2030101  29.8229928  40.0991859  88.9143749  29.4234367  39.3764016
  88.3084310  30.9066423  40.1510479  88.4017602  29.3917587  41.0803263
  86.5990371  27.3744474  40.9820188  85.5657804  27.4224928  41.6278813
  87.6869125  26.7727652  41.4343668  88.4682179  26.5676932  40.8280610
  87.7499781  26.3155837  42.8346485  86.7558189  26.3602545  43.2793409
  88.2943947  24.8631082  42.9775626  87.6317450  24.1731175  42.4551571
  89.2931370  24.8046696  42.5448979  88.3570064  24.4906546  44.4395676
  89.0198798  25.1799705  44.9625811  87.3584886  24.5484161  44.8728401
  88.8906880  23.0668272  44.5796638  90.1381773  22.9274942  44.6890164
  88.0457805  22.1320983  44.5759916  88.6069006  27.3131254  43.5821397
  89.6052910  27.8281414  43.0355859  88.1789806  27.6541701  44.7975319
  87.2508170  27.4101147  45.1122520  89.0720380  28.3256502  45.7339757
  89.3739765  29.2906827  45.3269812  88.4646054  28.5495366  47.1350751
  88.0681573  27.6055215  47.5089248  89.5371965  29.0681689  48.0957300
  89.9338175  30.0124603  47.7227602  89.0986125  29.2229434  49.0815238
  90.3441564  28.3390014  48.1680642  87.2983059  29.5227397  47.0823755
  86.5223909  29.1256817  46.4278506  86.8926006  29.6590722  48.0848307
  87.6423319  30.4823855  46.6965947  90.2427024  27.4123352  45.9307459
  90.0556064  26.2112786  46.1883194  91.4420818  27.9624580  45.7370759
  91.5471570  28.7501725  45.1137265  92.6318582  27.4195449  46.3664108
  92.4811967  26.3603416  46.5749503  93.8601223  27.5708013  45.4552338
  94.1648603  28.5953842  45.6684566  94.6121243  26.8813134  45.8388996
  93.7216229  27.3838037  43.9381274  93.2617778  28.2678243  43.4963685
  95.1110327  27.1811271  43.3404841  95.5713570  26.2969608  43.7814495
  95.0271894  27.0468950  42.2620349  95.7283917  28.0545521  43.5504772
  92.8041419  26.2328967  43.5671049  91.8086060  26.4163540  43.9712720
  92.7454636  26.1496530  42.4818729  93.1985774  25.3050435  43.9813610
  92.8546816  28.1332471  47.7091621  92.6853020  27.5304745  48.7784173
  93.1215025  29.4399374  47.6444161  92.8215597  29.9721857  46.8401492
  93.8428962  30.1397441  48.7110105  93.9135350  29.4639548  49.5633122
  94.8437506  30.3652110  48.3428332  93.1786416  31.4292848  49.1569878
  92.9432960  32.3402330  48.3530159  92.9987764  31.5483261  50.4624649
  93.3697675  30.8514535  51.0924122  92.2576639  32.6329392  51.0154121
  91.9922913  33.3802315  50.2675947  91.0015692  32.1147615  51.6771332
  91.2716654  31.3888395  52.4440659  90.2360112  33.2732757  52.3190638
  89.9651508  33.9994330  51.5526235  89.3317768  32.8929177  52.7942360
  90.8648633  33.7541035  53.0683627  90.1886276  31.3639202  50.6218733
  90.0816566  32.0315878  49.7669593  90.7732571  30.4915093  50.3299710
  88.8261990  30.9220686  51.0868169  88.2407836  31.7940361  51.3784693
  88.3178488  30.3979269  50.2775241  88.9323842  30.2539590  51.9414830
  93.0967976  33.3743498  52.0116972  93.1839914  32.9852517  53.1789285
  93.7228676  34.4468301  51.5246743  93.4997605  34.7451093  50.5858707
  94.7566726  35.2013177  52.2755248  95.1726845  34.5512279  53.0452108
  95.9534865  35.7168750  51.3374996  95.3664422  36.4963059  50.8517367
  96.6164342  36.1686780  52.0753847  96.8247375  34.9442665  50.2406287
  97.3612298  34.1585181  50.7724899  96.0312219  34.3256510  49.0769807
  95.4947949  35.1109043  48.5443250  96.7178272  33.8270084  48.3928538
  95.3179852  33.6000873  49.4680703  97.9421941  35.8205013  49.6366276
  98.6174062  36.1457513  50.4280824  98.4992515  35.2425633  48.8992160
  97.5003596  36.6929961  49.1553438  94.1015162  36.4164710  52.9785580
  94.7616198  37.4558210  53.1219033  92.8959740  36.2098754  53.4859191
  92.5043795  35.2788936  53.4808301  92.1159513  37.2753300  54.0596977
  91.6966505  37.9037942  53.2740014  90.9680617  36.6812204  54.8743862
  90.1722228  36.4066961  54.1820163  91.3391890  35.7862745  55.3738223
  90.4611477  37.5867626  55.8421365  89.7448272  37.1696561  56.3263956
  92.9410865  38.1234811  54.9648373  93.6277805  37.6572965  55.8604987
  92.8739515  39.4077401  54.6473479  92.2938634  39.6795007  53.8664873
  93.5622252  40.4336253  55.3710226  93.3432110  41.4132116  54.9461197
  93.1004284  40.4172185  56.8106241  92.0913621  40.0072196  56.8528774
  93.7800082  39.7658685  57.3601825  93.1104598  41.7810087  57.4260603
  94.2108000  42.3527424  57.5636865  92.0193468  42.2887366  57.7532526
  95.0147241  40.0644218  55.2700981  95.4268676  39.4233213  54.3118414
  95.7930447  40.4289223  56.2739066  95.4620394  40.9945403  57.0424189
  97.1707797  40.0392322  56.2620028  97.6509135  40.2409591  55.3044658
  97.9736028  40.7287515  57.3661528  97.9893076  41.8038683  57.1873330
  97.5102357  40.5283608  58.3321934  99.4032554  40.1922609  57.3666854
 100.2441618  40.7931144  56.6459545  99.6408045  39.1867071  58.0878177
  97.1557068  38.5254439  56.4360482  97.9206287  37.8027562  55.8125524
  96.2613363  38.0552174  57.2975349  95.6537909  38.6974024  57.7859880
  96.1716534  36.6129119  57.6288621  97.1402071  36.1358194  57.7784809
  95.3172370  36.4196007  58.9170051  95.7719121  36.9961428  59.7225913
  93.8783612  36.8835520  58.7092772  93.4228452  36.3071066  57.9040960
  93.3115592  36.7339221  59.6282151  93.8714674  37.9414885  58.4469330
  95.3503490  34.9809825  59.4066795  96.3781778  34.6971464  59.6327484
  94.7422144  34.8888425  60.3065584  94.9544353  34.3238700  58.6323692
  95.5953394  35.7670630  56.4708259  94.9701329  36.3003155  55.5573263
  95.8626079  34.4617959  56.4789640  96.6858781  34.1145142  56.9498365
  95.0175875  33.5069973  55.7673803  94.4134759  34.0289487  55.0252785
  95.8847274  32.4544563  55.0454199  95.5748191  32.4763389  54.0006342
  96.9130549  32.8067391  55.1262875  95.7941821  31.0274563  55.5719163
  96.8049673  30.6362188  55.6874466  95.3151311  31.0891561  56.5490562
  94.9886352  30.0966081  54.6683529  95.4639252  28.9698245  54.4070254
  93.8733800  30.4728748  54.2382804  94.0899810  32.8915102  56.8118500
  94.4520973  32.8269391  57.9804600  92.8643318  32.5410108  56.4172918
  92.4588002  32.9680388  55.5967489  92.0486483  31.5801478  57.1800760
  92.6803530  31.0060099  57.8578768  90.9381946  32.2783543  58.0090431
  90.4418646  31.5285835  58.6251604  91.5239424  33.3823397  58.9147967
  92.0200658  34.1327674  58.2993136  90.7203742  33.8519198  59.4821343
  92.2456356  32.9430806  59.6034990  89.9627883  32.8448179  57.1280877
  89.2775297  33.2758098  57.6440983  91.4188749  30.5520638  56.2167226
  91.5154129  30.6961187  54.9966089  90.8552558  29.4813120  56.7733078
  90.8461744  29.3902172  57.7791501  90.2798806  28.3858202  55.9654024
  90.9172439  28.2003635  55.1008372  90.1695155  27.0858613  56.7832228
  90.3315649  27.3401938  57.8306741  89.1618507  26.6896641  56.6577657
  91.1719974  26.0486173  56.3587562  92.3804115  26.3770843  56.3539805
  90.7525284  24.9143989  56.0257270  88.9058284  28.7558899  55.4223490
  88.5934446  28.4726411  54.2677753  88.0621484  29.3048687  56.2885305
  88.3053491  29.3455500  57.2679680  86.7849372  29.8584030  55.8724005
  86.7466385  29.9418290  54.7862732  85.5929925  28.9899999  56.3442797
  84.7202207  29.2472088  55.7441022  85.8926135  27.4901232  56.1954642
  86.7650444  27.2320514  56.7957665  85.0337579  26.9119452  56.5363106
  86.0918631  27.2610021  55.1486100  85.2876750  29.2793394  57.7167362
  84.5482243  28.7372202  58.0012002  86.6555469  31.2330635  56.4751317
  87.2750426  31.5295056  57.4871109  85.8260080  32.0676192  55.8753351
  85.2984635  31.7844337  55.0619458  85.6866570  33.4348979  56.3446148
  85.6698171  33.5132587  57.4316636  86.8267496  34.3292735  55.8020264
  87.7841590  33.8650703  56.0386310  86.7033301  34.4959092  54.2970094
  85.7463001  34.9605077  54.0596432  87.5135495  35.1278269  53.9332444
  86.7614640  33.5191162  53.8168036  86.8596404  35.6755632  56.5094473
  87.0187661  35.5219586  57.5767742  87.6717944  36.2794915  56.1047546
  85.9119589  36.1912879  56.3544351  84.3386213  33.9689187  55.9117484
  83.8451488  33.6139154  54.8417630  83.7482529  34.8114323  56.7605080
  84.2804359  35.1600431  57.5449512  82.3478853  35.2271594  56.6306168
  81.7960485  34.5748648  55.9537954  81.6858851  35.1782205  58.0012742
  82.2218667  35.8335704  58.6878165  80.6507476  35.5092161  57.9174149
  81.7105599  34.1567992  58.3809964  82.2925356  36.6434339  56.0348846
  83.3298988  37.2886341  55.9149714  81.0876606  37.1273754  55.6491567
  79.7793679  36.6187983  56.0865495  79.6723555  36.7688484  57.1608556
  79.7093699  35.5548894  55.8600609  78.8045378  37.4401372  55.2888066
  77.8690228  37.5333326  55.8403729  78.6147423  36.9534666  54.3321296
  79.4460535  38.7500809  55.0936219  79.2285828  39.3836603  55.9534955
  79.1255203  39.2536430  54.1816004  80.9567441  38.4562284  55.0285018
  81.3479545  38.3880753  54.0134117  81.6932213  39.5287656  55.7767733
  81.9579287  39.3924523  56.9708896  81.9298805  40.6400178  55.1020911
  81.6746642  40.7093712  54.1273327  82.5624445  41.7947853  55.7365987
  82.0900481  42.7079032  55.3744433  82.4368314  41.7252471  56.8171010
  84.0333375  41.8436687  55.4163252  84.5213016  42.8103369  54.8308974
  84.7220306  40.7523042  55.6998992  84.2654180  39.9463565  56.1024568
  86.1463293  40.7361062  55.5830745  86.5739899  41.5480893  56.1711978
  86.7120676  39.4096523  56.0964855  86.1739274  38.6028534  55.5989115
  87.7656479  39.3674138  55.8202889  86.5750213  39.2529548  57.6230389
  86.7467394  40.2522986  58.0229460  85.5591795  38.9368684  57.8602185
  87.5724829  38.2750472  58.2487818  87.1182772  37.4122938  59.0481351
  88.8028401  38.3989256  57.9878655  86.6259191  41.0714116  54.1551830
  85.8333041  41.2578653  53.2067831  87.9350424  41.2539286  54.0600842
  88.5019755  41.0360499  54.8670632  88.5953337  41.7443200  52.8704537
  87.8598915  42.0069610  52.1100304  89.4095944  42.9976772  53.2187929
  89.7356872  42.8698538  54.2509866  90.2816140  43.0990349  52.5727213
  88.5890812  44.2634926  53.1247429  87.8852918  44.4751929  52.1369269
  88.7240050  45.1475452  54.1180941  88.1960611  46.0083668  54.0990874
  89.3532865  44.9507139  54.8831843  89.5211757  40.6656867  52.3371603
  90.7025464  40.6293655  52.6735961  89.0093642  39.8632365  51.4205014
  88.1140619  40.0686183  51.0005590  89.7200906  38.7089192  50.9696229
  90.3643255  38.3267013  51.7614373  88.7423400  37.6412477  50.5915709
  88.1676407  38.1206028  49.7990820  89.3030268  36.8033828  50.1771885
  87.8005323  37.1368721  51.6625464  88.2272862  36.2130762  52.0531653
  87.5710090  38.1157798  52.8101630  87.1438078  39.0397115  52.4203578
  86.8840843  37.6749178  53.5325728  88.5209325  38.3330322  53.2985760
  86.4807224  36.7692637  51.0012486  86.6510316  35.9918019  50.2565021
  85.7852489  36.4024530  51.7561445  86.0589071  37.6497724  50.5166093
  90.5425211  39.0169127  49.7388719  90.0453130  39.6003953  48.7661242
  91.7714578  38.5322384  49.7363519  92.3300651  38.5154872  50.5776465
  92.3650273  38.0520591  48.5109192  91.8741875  38.5215432  47.6584170
  93.8642181  38.3866693  48.4599568  94.3269551  37.8268097  49.2726873
  94.2267874  38.0063728  47.5049605  94.2267199  39.8658047  48.5896636
  93.8015872  40.3915194  47.7346857  93.7759208  40.2423172  49.5078796
  95.7596050  40.1022455  48.6317466  96.1839897  39.4525154  49.3971533
  96.1727154  39.8349549  47.6591239  96.1070582  41.5631081  48.9509438
  95.5423585  42.1808908  48.2526894  95.7608050  41.7544426  49.9666205
  97.5530912  41.8960754  48.8494883  97.8740343  41.7192585  47.9083023
  97.6906494  42.8710270  49.0745377  98.0764861  41.3240343  49.4967330
  92.1397733  36.5250386  48.4171161  92.1656805  35.7964725  49.4368132
  91.8770917  36.0546871  47.2013523  91.9743201  36.6627964  46.4008218
  91.5156306  34.6609429  46.9709070  91.7793874  34.0234830  47.8148124
  90.0026197  34.4961492  46.6501095  89.7889924  34.9914311  45.7029244
  89.6227516  33.0148302  46.5486985  89.8356763  32.5189455  47.4957265
  88.5598951  32.9263400  46.3237399  90.2021352  32.5441823  45.7544035
  89.0969277  35.2344226  47.6709941  89.6635851  36.1017930  48.0096220
  88.2204858  35.5679780  47.1153954  88.6534832  34.4185450  48.8736685
  89.5294282  34.0850064  49.4300607  88.0261277  35.0333212  49.5190943
  88.0863305  33.5511897  48.5358335  92.2549177  34.1688359  45.7576855
  92.0441191  34.6860003  44.6519509  93.0932463  33.1525863  45.9433516
  93.4220261  32.9016666  46.8647866  93.6530219  32.4504430  44.7948016
  93.8631464  33.1775415  44.0104071  94.9548972  31.6990437  45.1309994
  95.4913399  32.2977907  45.8670908  94.6705870  30.7456938  45.5764112
  95.8694302  31.4445154  43.9078168  95.5794772  30.4827720  43.4846410
  95.6665271  32.2348723  43.1851354  97.3635817  31.4266510  44.2375778
  97.6229229  30.4266010  44.5850560  97.9157902  31.6479519  43.3242372
  97.7511113  32.3989639  45.2694699  97.9944148  33.3210804  44.9368983
  97.8287333  32.1528084  46.5816316  97.5380347  30.9471721  47.0712127
  97.2547653  30.2064077  46.4458116  97.6024289  30.7801879  48.0652295
  98.1748299  33.1310281  47.4168987  98.3764801  34.0521662  47.0550396
  98.2340138  32.9471156  48.4082474  92.6351711  31.5114578  44.1645417
  92.0551714  30.6545284  44.8279430  92.4704160  31.6826834  42.8557447
  93.0966636  32.3248103  42.3914320  91.4784984  30.9732769  42.0462585
  90.7815719  30.4327887  42.6867780  90.6860286  31.9914773  41.2058512
  91.4257348  32.7791615  41.0627159  90.4512289  31.5351658  40.2442125
  89.4121879  32.5912713  41.8108860  88.6771731  31.7962156  41.9363471
  89.6984896  33.2367573  43.1633357  90.4331265  34.0322748  43.0385988
  88.7771753  33.6541458  43.5696208  90.0900014  32.4856608  43.8493918
  88.7757715  33.5794718  40.8291692  88.5217178  33.0611744  39.9045483
  87.8715589  33.9990722  41.2701187  89.4804278  34.3825154  40.6131148
  92.1830926  30.0259302  41.0821018  93.2351131  30.3871555  40.5523186
  91.6036711  28.8419191  40.8191715  90.8360641  28.5161872  41.3890642
  92.0489151  27.9928890  39.6873475  92.8697308  28.4809980  39.1618856
  92.5266623  26.6468247  40.1860957  93.4743862  26.8083263  40.6997453
  91.7858049  26.2823633  40.8977123  92.7179369  25.6164821  39.0801621
  92.6172706  26.1260126  38.1218585  93.7241686  25.2070573  39.1694436
  91.7011191  24.4859414  39.1628261  90.7164043  24.8999315  38.9459207
  91.9575148  23.7442155  38.4063848  91.6827511  23.8239315  40.5386355
  92.3176867  24.4099013  41.2031629  90.6572605  23.8417669  40.9076209
  92.1736966  22.4101344  40.4981953  93.1240726  22.3934256  40.1567192
  92.1429674  22.0163769  41.4277709  91.5852289  21.8668918  39.8828155
  90.9432678  27.7297683  38.7219877  89.9726181  27.1051602  39.0995562
  91.1343535  28.0779244  37.4521001  92.0356991  28.3972242  37.1269494
  90.0325301  28.0058623  36.4867969  89.5312635  27.0447173  36.6009514
  89.3284077  28.8099450  36.7007174  90.5139280  28.1413469  35.0684147
  91.7074660  28.3166631  34.8455576  89.6071893  27.9901376  34.0989083
  88.6782260  27.6586518  34.3162643  89.9697377  28.1792010  32.6766394
  90.9709859  27.8022251  32.4680959  88.9320113  27.5178356  31.6642380
  87.9237671  27.7521340  32.0057759  89.1211357  28.0393463  30.2289709
  90.1290675  27.8049927  29.8865492  88.3944370  27.5637510  29.5703217
  88.9740651  29.1192434  30.2118942  88.9942937  25.9545230  31.7013801
  89.4648917  25.6970619  32.6502490  87.9586568  25.6146196  31.7060059
  89.7457364  25.2772128  30.5618338  90.7816418  25.6162924  30.5568531
  89.7184422  24.1963173  30.6997435  89.2754079  25.5338522  29.6126093
  90.1599748  29.6938424  32.4355805  90.8606970  30.0837665  31.5026944
  89.6412505  30.5329468  33.3444110  89.1055561  30.1700326  34.1199264
  89.7507183  32.0023548  33.1931033  90.3550257  32.2444224  32.3188522
  88.3550275  32.6155194  33.0098591  87.7270956  31.8523736  32.5500664
  87.9737743  32.8484041  34.0040978  88.3352984  33.8795783  32.1473095
  87.5240269  34.5306710  32.4729131  89.2913020  34.3639886  32.3460631
  88.2026347  33.6116500  30.6511117  87.0659589  33.3387941  30.1918680
  89.2195261  33.7321391  29.9277748  90.4934714  32.6968422  34.3591234
  89.9193424  32.8477781  35.4682723  91.7251213  33.1872082  34.0710196
  91.9725106  33.3092446  33.0994205  92.7876920  33.3858928  35.1030758
  92.3426644  33.5104413  36.0902624  93.6866584  32.1684182  35.1278924
  94.2347627  32.1377247  34.1862243  94.3890705  32.2876726  35.9528141
  92.9085215  30.8661233  35.3063997  92.4267815  30.6908179  34.3444769
  93.6124344  30.0596813  35.5119653  91.8325101  30.9098656  36.4227975
  92.1976812  30.9815414  37.6119605  90.6103046  30.8250371  36.1188159
  93.6162870  34.7108323  35.0414668  94.2954040  35.0842435  35.9723901
  93.5121286  35.4247655  33.9505262  93.6172968  34.9625642  33.0586692
  93.2907941  36.8608478  33.9603184  92.7615321  37.1497789  34.8683381
  94.6343018  37.6035623  33.9179971  94.4911153  38.4945700  34.5293089
  95.3471060  36.9391547  34.4064363  95.1788114  38.0127213  32.5318676
  94.5519960  38.7390065  32.0144576  96.0838574  38.5039108  32.8892523
  95.5697691  36.8486672  31.5344233  94.8156432  36.6294267  30.5361053
  96.7150157  36.2992614  31.6119956  92.4257808  36.7987209  32.6637702
  92.0811184  35.6944591  32.2685592  91.9579252  37.9314271  32.2012782
  92.3214083  38.8142874  32.5307279  90.9139711  37.9502827  31.2201599
  91.0206830  38.8491400  30.6128978  90.9500399  36.7411865  30.3063522
  91.8662936  36.8014795  29.7190336  90.9818903  35.8536248  30.9382699
  89.7473138  36.6542305  29.3663242  90.0862265  36.1035409  28.4888392
  88.9551846  36.0937516  29.8628055  89.2135745  38.0148306  28.9366455
  90.0206383  38.9523350  28.8065129  87.9857730  38.1492500  28.7600532
  89.5787518  37.9741923  32.0430225  88.5084012  37.7067742  31.5206487
  89.6723570  38.2764582  33.3423590  90.6071366  38.4125035  33.6998196
  88.5537324  38.4285818  34.2605155  87.6321731  38.2011834  33.7246819
  88.6826629  37.4979788  35.4731382  87.7048640  37.3560402  35.9334243
  89.2197594  36.1676489  35.0161584  90.1978130  36.3087270  34.5561488
  89.3144833  35.4999292  35.8724752  88.5363538  35.7298621  34.2885605
  89.6163787  38.0310889  36.5559981  90.5913294  38.1980578  36.0980754
  89.2108191  38.9815685  36.9027104  89.7645195  37.0966142  37.7201030
  90.1704926  36.1460083  37.3742214  90.4408767  37.5343474  38.4542895
  88.7899811  36.9295172  38.1788551  88.6691716  39.8887800  34.6525626
  89.7558623  40.3277450  34.9632558  87.5861841  40.6399946  34.6571186
  86.6729277  40.2516530  34.4693612  87.6829961  42.0566690  34.9575430
  88.7192637  42.3379155  35.1450241  87.1733460  42.8488978  33.7699832
  86.1572447  42.4729821  33.6502973  87.1395565  43.8888766  34.0946407
  87.9039509  42.7570209  32.4475990  88.8178251  43.3473658  32.5141390
  88.2532788  41.3232526  32.1105418  87.3398145  40.7323466  32.0433711
  88.7771144  41.2913292  31.1552000  88.8948106  40.9121799  32.8900010
  87.0276395  43.3672774  31.3734173  86.8273134  44.4107481  31.6166002
  87.5377693  43.3103139  30.4118436  86.0863163  42.8205558  31.3176930
  86.8791568  42.5046266  36.1348779  85.9455795  41.8477302  36.5338032
  87.2329623  43.6410787  36.7032628  88.6188887  44.1907259  36.7484840
  88.7493593  44.9072231  35.9374911  89.3338714  43.3763272  36.6316359
  88.6987486  44.8320788  38.1022361  89.3723351  45.6885880  38.0744461
  89.0563550  44.1130358  38.8392545  87.2725198  45.2575896  38.4073672
  86.9745323  46.2092307  37.9672745  87.1467385  45.3029086  39.4891366
  86.4178487  44.1263758  37.8290259  86.3885973  43.3047433  38.5446814
  84.9759603  44.5819833  37.5096365  84.6828083  45.2645491  36.4840909
  84.0967254  44.2288822  38.4469159  84.4339265  43.8973660  39.3393798
  82.6627770  44.3013843  38.2371312  82.1537716  44.3276169  39.2006272
  82.4213041  45.2032176  37.6745595  82.1934451  43.1154226  37.4743925
  81.3110475  43.2315205  36.6214553  82.9728487  42.0466535  37.6004386
  83.9735098  42.1264953  37.4890748  82.4196708  40.7494806  37.8880750
  81.3868358  40.7316649  37.5401761  83.1945112  39.5834595  37.2064142
  84.2078635  39.4945458  37.5979634  82.6463797  38.6626696  37.4059083
  83.3198772  39.6956547  35.7011709  82.5727226  40.6244532  34.9616884
  81.8366302  41.2413524  35.4771525  82.7617577  40.7660670  33.5774152
  82.1938586  41.5163226  33.0272262  83.6691530  39.9536567  32.9091180
  83.7992480  40.0389735  31.8302777  84.4184899  39.0211243  33.6317691
  85.1436039  38.3930662  33.1142242  84.2408324  38.8915723  35.0157922
  84.8228761  38.1580259  35.5736764  82.4708383  40.5701066  39.3942738
  83.0488291  41.3952977  40.1359923  81.9922099  39.3830768  39.7727775
  81.9012711  38.7069722  39.0279876  81.6667454  38.9603171  41.1395859
  82.3087441  39.4973106  41.8378514  80.1814995  39.2492407  41.4768719
  79.8024173  38.4362126  42.0960508  80.0283416  40.5608004  42.2174849
  80.4068105  41.3744175  41.5987045  78.9749819  40.7329204  42.4386382
  80.5928098  40.5206711  43.1490773  79.3554091  39.3193328  40.1909139
  79.7059169  40.1909673  39.6381950  79.5785355  38.4159500  39.6232753
  77.8619479  39.4247235  40.4033952  77.6379914  40.3281703  40.9706053
  77.3592019  39.4689214  39.4372729  77.5106102  38.5531534  40.9556880
  81.8617084  37.4287723  41.1438090  81.7958731  36.7925466  40.1036650
  82.1323290  36.8341518  42.2830381  82.4342359  37.3389042  43.1041207
  81.9967314  35.4034514  42.3727021  82.3031139  34.9410107  41.4344176
  82.8630848  34.8699224  43.4755668  82.6427770  35.4897652  44.3446805
  82.6231604  33.8307902  43.7008236  84.3305849  34.9850743  43.1341517
  84.5237353  35.9788264  42.7301088  85.1856966  34.7671351  44.3756912
  84.9934242  33.7733478  44.7800636  86.2396218  34.8536201  44.1113756
  84.9368309  35.5182585  45.1253444  84.7130666  34.0116339  42.0315332
  84.1290568  34.2275089  41.1368657  85.7743518  34.1160580  41.8059879
  84.5105053  32.9921684  42.3597984  80.5383173  35.1222266  42.6590965
  79.8167736  36.0137685  43.1075135  80.0672645  33.9200283  42.3506203
  80.6126906  33.2630587  41.8111756  78.7149253  33.5353434  42.7488767
  78.4523681  34.0756220  43.6584161  77.6609904  33.8502804  41.6666190
  77.7816682  33.1420199  40.8469221  76.6688861  33.7345532  42.1030092
  77.6903939  35.5205940  40.9047331  76.6605935  35.3188251  40.0876048
  78.6760899  32.0700047  43.0670123  79.1859551  31.2406207  42.3119642
  78.0698750  31.7665245  44.2076333  78.0291992  32.4723518  44.9289187
  77.4885569  30.4377471  44.4937605  78.2770404  29.7311227  44.7527489
  76.5049238  30.5404215  45.6856451  77.0799916  30.5142214  46.6112313
  76.0016715  31.5033389  45.5983113  75.4599264  29.4171642  45.7012505
  75.8306443  28.2771942  46.0445095  74.2646086  29.6766575  45.3894867
  76.7571264  29.8608557  43.2567194  75.8988546  30.5261973  42.6691693
  77.0665094  28.6073534  42.8910691  78.1528484  27.7818115  43.4528860
  77.9817064  27.6415080  44.5201843  79.1049792  28.2904849  43.3018982
  78.0618120  26.5067131  42.6860102  77.4645461  25.7933464  43.2538837
  79.0655350  26.1065998  42.5426545  77.4250915  26.8293730  41.3760610
  76.8099089  26.0116710  41.0005442  78.2038641  27.0608241  40.6493952
  76.5490661  28.0737761  41.6224944  76.7619689  28.8266534  40.8635831
  75.0284305  27.7339055  41.6036969  74.4260532  27.6481701  40.5247951
  74.4037990  27.6097781  42.7714177  74.9096925  27.7163739  43.6390630
  72.9909211  27.2146227  42.8333968  72.7830543  26.4702409  42.0647706
  72.6595513  26.6139586  44.1960694  72.5561045  27.3792280  44.9653292
  71.7098312  26.0936665  44.0718597  73.6979094  25.6197195  44.6431120
  74.6320857  25.3074752  43.8972145  73.5911962  25.1714932  45.8887458
  74.2613199  24.5028001  46.2407166  72.8404112  25.5013854  46.4783166
  72.0645549  28.3838098  42.4999014  71.6009669  28.4968848  41.3654213
  71.8045844  29.2577202  43.4720485  71.8980136  28.9947851  44.4427367
  71.3149438  30.5918285  43.1631651  70.7310155  30.5562168  42.2434593
  70.4271052  31.1417772  44.2864265  70.6015108  30.5506002  45.1854214
  70.6956590  32.1807271  44.4776381  68.9381819  31.0774309  43.9401711
  68.3112733  29.9960008  43.9172889  68.3652241  32.2367863  43.6601437
  67.3839619  32.2674105  43.4228960  68.9117862  33.0857598  43.6849373
  72.5140670  31.4799377  42.9127224  73.2452590  31.8214537  43.8387581
  72.8266503  31.6538021  41.6311855  72.3418618  31.1066235  40.9342816
  73.9015543  32.5427213  41.1905563  74.5627240  32.7597398  42.0295180
  74.7333511  31.8885826  40.0619321  75.4532210  32.6766278  39.8408633
  75.2477850  31.0469073  40.5256567  74.0657982  31.4250779  38.7585877
  73.3457434  30.6454996  39.0073441  73.3544625  32.5604419  38.0354363
  74.0740077  33.3402483  37.7859257  72.8993230  32.1805999  37.1207402
  72.5800664  32.9744749  38.6811822  75.1032789  30.7910292  37.8440184
  75.5522690  29.9324179  38.3433119  74.6237729  30.4642993  36.9212927
  75.8781246  31.5214790  37.6113033  73.3081761  33.8911129  40.7536552
  72.1239444  34.1415420  40.9610427  74.1325633  34.7563023  40.1669841
  75.0297697  34.4403337  39.8274494  73.8113544  36.1730492  40.0545787
  73.1262174  36.4677507  40.8494607  75.0880145  37.0018327  40.1785389
  75.7420796  36.8522213  39.3195194  74.8624638  38.0631788  40.2823240
  76.0644281  36.5499796  41.6389030  77.0421432  37.4269044  41.4292023
  73.0949183  36.4673183  38.7469495  73.3486292  35.8114586  37.7302524
  72.1106602  37.3673499  38.8167280  71.8726557  37.7779401  39.7082822
  71.3802365  37.8159001  37.6281268  71.1363541  36.9488167  37.0142971
  70.0687667  38.5487245  37.9910048  70.2501147  39.4858935  38.5172427
  69.5437058  38.7523775  37.0577649  69.1324430  37.7532726  38.8439838
  68.7250178  36.4781449  38.5086032  69.0159943  35.9807557  37.6791236
  67.9039650  36.0237500  39.4386455  67.4812307  35.0217749  39.3648850
  67.7487526  36.9661399  40.3543454  68.4778319  38.0700042  39.9895113
  68.4447561  38.9715572  40.6012380  72.3004485  38.7776774  36.9466012
  73.1912994  39.3261890  37.5937841  72.0802803  39.0028392  35.6541832
  71.3764616  38.4751563  35.1579077  72.9027158  39.9435244  34.8971666
  72.9730748  40.8920318  35.4295974  74.3076784  39.3788944  34.7200729
  75.0312810  40.1877163  34.8215897  74.4897658  38.6302739  35.4911186
  74.4400633  38.7940200  33.4666267  75.3284106  38.4433346  33.3693705
  72.2629442  40.2944174  33.5425344  71.0298850  40.2830078  33.4188217
  73.0864056  40.6142647  32.5465821  74.0744591  40.4218579  32.6292216
  72.6022068  41.2451351  31.3162472  73.1882913  40.9278430  30.4537336
  71.5503830  41.0168922  31.1439938  72.7576776  42.7279602  31.4938660
  73.3825208  43.1297835  32.4455525  72.1496221  43.5369727  30.6175452
  71.4136478  43.1553572  30.0406476  72.6407172  44.9169371  30.3189403
  73.2144530  45.2898283  31.1673968  73.5544013  44.9282722  29.0562744
  74.1790677  45.8126599  29.1817709  74.1681127  44.0332097  29.1578687
  72.9047198  44.9511334  27.6520450  72.2128608  45.7920951  27.6049776
  73.6911672  45.0863307  26.9095330  72.1441579  43.6444228  27.3614194
  72.4291068  43.2842961  26.3728792  72.4201279  42.9029120  28.1111539
  70.6678798  43.8291215  27.3943179  70.3171805  44.6072626  26.8543125
  69.7824864  43.0532292  28.0568855  70.1698239  42.0021682  28.7820672
  71.1507248  41.7698707  28.8450857  69.4803209  41.4437420  29.2646078
  68.4826555  43.3440892  28.0059917  68.1673291  44.1419612  27.4730099
  67.8190350  42.7652757  28.5006445  71.5957348  46.0545111  30.2418816
  71.9558158  47.2132906  30.0891930  70.3083367  45.7087041  30.2994386
  70.0429043  44.7397250  30.1958802  69.2527481  46.6963062  30.5399314
  69.7110125  47.6782125  30.4218085  68.0008568  46.6066955  29.5862753
  67.3593809  45.7866509  29.9089761  67.2209176  47.9093669  29.6369506
  67.8616447  48.7298666  29.3139200  66.3567602  47.8420022  28.9760473
  66.8839430  48.0922360  30.6572974  68.3690552  46.3822458  28.2103094
  67.5765384  46.3352065  27.6705828  68.7726815  46.4471596  31.9230406
  68.8074248  45.3118636  32.3853844  68.2822723  47.5100157  32.5679195
  68.5004416  48.4244642  32.1987509  67.5369410  47.4268502  33.8668031
  66.7291985  46.7021237  33.7647119  68.4569627  46.9858174  35.0508108
  67.9259828  46.7401670  35.9704930  68.9922011  46.1055820  34.6947129
  69.4935482  47.9987460  35.4132846  70.6605553  48.0761948  34.6932332
  70.8381888  47.3683634  33.8835907  71.5915098  49.0265040  34.9831817
  72.5240966  49.0560114  34.4196998  71.3612738  49.9444844  35.9788169
  72.1027228  50.7088747  36.2113269  70.1981451  49.8935641  36.6753057
  70.0100961  50.6164975  37.4690973  69.2559467  48.9318196  36.3819208
  68.3109747  48.9111244  36.9247831  66.7782817  48.7383275  34.2387565
  67.1082613  49.8447076  33.7760497  65.7864451  48.5596434  35.1185849
  65.6473181  47.6234985  35.4712545  64.9298700  49.6194020  35.6216155
  64.9306748  50.4708917  34.9411275  63.5036053  49.0847628  35.7326460
  63.6194748  48.2135203  36.3773243  62.8310588  49.7998159  36.2064397
  62.9169028  48.6477445  34.3827541  63.1253350  49.3772636  33.3779596
  62.1521796  47.6330440  34.3553620  65.3926047  50.0340878  37.0041759
  65.7564390  49.1854204  37.8326167  65.3184191  51.3135777  37.3076346
  65.0650085  52.0380865  36.6511521  65.6863812  51.6972680  38.6256083
  65.1857264  51.0274226  39.3247157  67.1715845  51.5693379  38.8177957
  67.6865450  52.2409060  38.1308372  67.4296725  51.8319883  39.8437127
  67.4771329  50.5422137  38.6184084  65.2516528  53.0604462  38.9342785
  64.9472803  53.8564099  38.0371892  65.3060977  53.3304866  40.2286166
  65.8706660  52.7192022  40.8010617  64.6692777  54.4588974  40.8570808
  63.9432367  54.9080349  40.1794090  63.9390363  53.9979645  42.1205231
  63.5394552  53.0114611  41.8854799  64.7084277  53.9045930  42.8869556
  62.8262109  54.8832976  42.6299155  63.2745863  55.7132144  43.1760825
  62.2515871  55.2708599  41.7886634  61.8661663  54.1290284  43.5782796
  62.2132530  53.0952281  44.1644183  60.6400196  54.6470169  43.7110739
  59.9683945  54.1980379  44.3172414  60.3914559  55.4847328  43.2045666
  65.7973104  55.3592391  41.2373754  66.6256553  55.0059615  42.0711012
  65.7819982  56.5608821  40.6964090  64.9010200  56.9773384  40.4308138
  66.9889913  57.2803419  40.4072822  67.8637295  56.9159089  40.9459110
  67.2408179  57.1789428  38.8920282  66.4018312  56.6402962  38.4515041
  67.3812948  58.5560721  38.2118414  68.2204262  59.0951601  38.6515495
  67.5573306  58.4186716  37.1449613  66.4655461  59.1290011  38.3576357
  68.4766398  56.3054496  38.6394892  69.3229591  56.8239528  39.0900433
  68.3066684  55.3648777  39.1634488  68.7793731  56.0202754  37.1623954
  68.9499271  56.9604128  36.6378453  69.6698969  55.3962230  37.0873940
  67.9336348  55.5013395  36.7112501  66.8772667  58.7448507  40.8889341
  66.4075200  59.6065380  40.1565196  67.3429047  59.0538259  42.0914172
  67.8179260  58.3855634  42.6812301  67.1335703  60.4087211  42.6062378
  66.7214036  61.3403273  42.2185167  67.1320138  60.4720660  44.1314282
  66.2453370  61.0474067  44.3976735  67.1231073  59.1647440  44.8754523
  68.0097804  58.5890039  44.6100560  67.1229082  59.3567311  45.9484114
  66.2301693  58.5998375  44.6077881  67.4852743  61.7777178  44.8064019
  66.7794364  62.5491329  44.4984836  67.4371145  61.6527852  45.8881469
  68.4943582  62.0740343  44.5199633  68.1943727  61.3782073  42.1109725
  69.3274056  61.3452266  42.5286873  67.7519732  62.3157224  41.3056315
  66.7751558  62.2949396  41.0497113  68.5653860  63.3774522  40.7940101
  69.4936733  63.0136940  40.3534855  67.7722791  64.1454324  39.7442263
  66.7926082  64.3900136  40.1547447  68.4724030  65.3944242  39.3596032
  69.4520363  65.1506072  38.9485404  67.8856396  65.9241300  38.6091225
  68.5949966  66.0280974  40.2379700  67.5396149  63.2440838  38.5441951
  66.5652201  62.7773870  38.6885891  67.5051540  63.8925494  37.6687498
  68.5889939  62.1687335  38.3354935  68.6237162  61.5195505  39.2103967
  68.3347181  61.5781476  37.4553507  69.5636511  62.6347133  38.1905596
  68.9350444  64.3343796  41.8942535  68.0577063  65.0043716  42.4792164
  70.2206625  64.3727592  42.2151570  70.8723658  63.7486539  41.7614228
  70.7175407  65.2413549  43.2635003  69.8496532  65.5628655  43.8392619
  71.6863818  64.5037411  44.1761661  71.8232668  65.0806501  45.0907910
  71.1477738  63.1418978  44.5187157  71.0110533  62.5641961  43.6045665
  71.8514734  62.6260858  45.1720498  70.1898943  63.2470406  45.0281381
  73.0018778  64.2725143  43.4972047  72.8403405  63.6476135  42.6188508
  73.4129174  65.2335606  43.1881159  73.9652338  63.5918629  44.4245061
  73.5550612  62.6304727  44.7336781  74.9138453  63.4335219  43.9115114
  74.1276364  64.2164193  45.3029448  71.3897399  66.5019449  42.7876045
  71.2679560  67.5437330  43.4083680  72.1314574  66.3972239  41.7032403
  72.2233407  65.5302988  41.1932426  72.8124856  67.5593875  41.2003581
  72.4518453  68.4673657  41.6836937  74.2807844  67.3990904  41.5095867
  74.3354150  66.9690585  42.5096803  74.6673735  66.6825040  40.7849123
  75.1078603  68.6616049  41.4590149  75.2842381  68.9140659  40.4134265
  74.5489692  69.4660223  41.9371912  76.4364198  68.4804391  42.1657134
  77.2886637  69.3766650  42.0681821  76.6408982  67.4386436  42.8199181
  72.6919772  67.7314377  39.7370569  73.0944451  66.8670993  38.9998414
  72.1343163  68.8398930  39.3054341  71.6121357  69.4489459  39.9190147
  72.1051846  69.1073049  37.8936639  73.1233150  69.0708658  37.5061308
  71.2794499  68.1219031  37.1512661  71.6752833  67.1180118  37.3049455
  70.2360618  68.1524774  37.4651238  71.2895167  68.3617358  35.6928282
  70.8957674  69.5616642  35.1462504  70.5749471  70.3606987  35.6741878
  71.0064484  69.4934028  33.8341437  70.7300946  70.3427382  33.2093583
  71.4726685  68.2993041  33.5162881  71.6612167  67.5747413  34.6630084
  72.0481926  66.5572670  34.6073598  71.7325014  70.5157852  37.5558187
  70.8236518  71.0688850  38.1189591  72.4469375  71.0905410  36.6206622
  73.2426398  70.6042131  36.2327931  72.2102066  72.4524721  36.2082239
  72.1312597  72.9947881  37.1504341  73.4103084  72.9833164  35.4413726
  74.3155115  72.8257967  36.0277974  73.4971963  72.4561695  34.4912849
  73.2274299  74.4745837  35.1800264  72.3226090  74.6328643  34.5932155
  73.1409266  75.0024928  36.1297270  74.4315561  75.0072091  34.4106010
  75.3367600  74.8496882  34.9970241  74.5184419  74.4800629  33.4605131
  74.2486777  76.4984772  34.1492571  73.3438565  76.6567589  33.5624471
  74.1621775  77.0263844  35.0989576  75.4093754  77.0118921  33.4075799
  75.4894541  76.5231500  32.5273423  75.2882572  77.9995517  33.2344938
  76.2478560  76.8657083  33.9513442  70.9566742  72.7105853  35.4245511
  70.3965093  73.7849366  35.4774917  70.5455955  71.7411772  34.6410498
  71.0106549  70.8452837  34.6064966  69.4110621  71.9600462  33.7676768
  68.8671399  72.8507609  34.0821210  69.8795192  72.1573987  32.3332979
  69.0161570  72.4333015  31.7278372  70.6059458  72.9699566  32.3208864
  70.4781447  70.9755843  31.7979960  70.7594238  71.1402028  30.8950106
  68.5065049  70.7395795  33.9007084  68.0419819  70.4762362  35.0182976
  68.4012363  69.9076895  32.8456835  69.1494435  69.8747035  32.1680426
  67.2660495  68.9726831  32.6833045  66.8061119  68.7289893  33.6409944
  66.1719896  69.5106866  31.7012483  66.1186884  68.8380405  30.8452070
  64.7934695  69.5926468  32.3742571  64.8458687  70.2655222  33.2301740
  64.0617784  69.9703604  31.6600713  64.4932637  68.6002950  32.7107292
  66.5569978  70.8494792  31.1001860  66.1235840  71.6333653  31.7212946
  67.6439449  70.9276598  31.1232832  66.0684365  71.0085099  29.6704189
  64.9814641  70.9309034  29.6465824  66.3710068  71.9836854  29.2888653
  66.5018236  70.2251958  29.0485712  67.6033172  67.6433464  32.0559413
  67.0801009  67.3653595  30.9521216  68.1061540  66.7115198  32.8622715
  68.3565521  66.9179193  33.8187230  68.3643510  65.3226589  32.3404673
  68.9857739  65.3802616  31.4468148  69.0069132  64.3529652  33.3507800
  69.7381264  63.7431612  32.8201513  69.6856238  65.0815997  34.4776911
  68.9549021  65.6913019  35.0091135  70.1246179  64.3592632  35.1658880
  70.4699929  65.7231153  34.0760419  67.9653764  63.3901954  33.8828791
  67.0733337  63.9523832  34.1591136  67.7148336  62.6734911  33.1007904
  68.4794703  62.6669409  35.0684875  68.7298094  63.3830046  35.8512282
  67.7162253  61.9806032  35.4352258  69.3713111  62.1041140  34.7929051
  67.1238073  64.5563027  31.8041657  66.0913502  64.5174903  32.4477742
  67.3306492  63.7694391  30.7458722  68.2610061  63.4206375  30.5645640
  66.3033310  63.5490685  29.7398925  65.4302615  63.0437462  30.1528067
  65.8789911  64.9437414  29.2529704  64.9721048  65.2385822  29.7809149
  66.6765496  65.6516227  29.4785906  65.5285314  65.1332767  27.5360893
  65.2260100  66.4269358  27.5979375  66.7470516  62.5112121  28.6204104
  67.8791209  62.5296359  28.1624971  65.8532569  61.5517676  28.2648822
  64.5257606  61.9473214  27.7221522  64.6444735  62.8550534  27.1305188
  63.8498689  62.1426691  28.5546837  64.0863479  60.7622373  26.8874060
  64.4003989  60.8899935  25.8514768  63.0027536  60.6510566  26.9269473
  64.7678224  59.5901778  27.5251131  64.8997238  58.8429320  26.7426013
  64.2553262  59.1391372  28.3748246  66.1389112  60.1331009  27.9666014
  66.5818589  59.6722485  28.8495004  67.0627463  60.0088477  26.8361542
  66.8806192  60.6743261  25.8309924  68.0104386  59.1222768  26.9436600
  67.9612546  58.3515311  27.5945296  69.1878295  59.2371870  26.0996013
  69.6506360  58.2518777  26.0441497  68.8530797  59.5372002  25.1066088
  70.2271146  60.2500143  26.6040282  71.1474680  60.6416932  25.8633271
  70.0706122  60.6564227  27.8694010  69.1497338  60.6038049  28.2808784
  71.1685944  61.1851095  28.6867444  71.6105549  62.0425410  28.1792196
  70.6795200  61.6369014  30.0901796  69.8469042  62.3323229  29.9841654
  70.3153805  60.6946841  30.4997270  71.7171266  62.2291082  31.0284321
  72.2997608  63.4727911  30.7246358  72.0134164  63.9702999  29.7980338
  73.2262398  64.0707794  31.5803582  73.6664921  65.0352392  31.3271842
  73.5499354  63.4458965  32.8069728  74.5133916  64.0863352  33.5936687
  74.8468631  64.8935595  33.1951898  72.9502470  62.2042785  33.1582442
  73.1966688  61.7125190  34.0992805  72.0327376  61.6135660  32.2777709
  71.5504854  60.6728689  32.5435190  72.1924125  60.1036421  28.8395732
  71.8994694  58.9718649  29.3144984  73.4110665  60.4952666  28.5000375
  73.5552766  61.3492244  27.9803656  74.5210233  59.6660025  28.7411702
  74.2026552  58.6386372  28.9179792  75.4050518  59.6906618  27.5437119
  74.8959456  60.5155250  27.0452033  76.4700836  59.9114868  27.6147314
  75.2283091  58.4606518  26.7276786  74.4685255  58.4843453  25.7647448
  75.6469710  57.3188248  27.2912735  75.5549609  56.4476936  26.7885168
  76.0525369  57.3347915  28.2161314  75.2697873  59.9919077  30.0096990
  75.4170044  61.1712484  30.3614071  75.6813053  58.9414418  30.7320614
  75.3990601  58.0104298  30.4606695  76.4868292  59.0985893  31.9576934
  77.2526024  59.8498663  31.7646299  75.6194676  59.5736886  33.1216030
  74.8534690  58.8275377  33.3328019  76.2418499  59.7148770  34.0052355
  75.1431961  60.5181949  32.8585962  77.1903019  57.8128837  32.3294895
  76.9138048  56.7780799  31.7716898  78.0921628  57.9020329  33.2947825
  78.2425206  58.7966984  33.7387031  78.8030410  56.7332844  33.8264261
  78.9601785  55.9626253  33.0717795  80.1823344  57.0824220  34.4796899
  80.0061616  57.5745748  35.4361668  81.0085967  55.8137941  34.7036785
  81.1855823  55.3213026  33.7475252  81.9635688  56.0771149  35.1584212
  80.4659437  55.1381523  35.3648422  80.9882509  58.1354403  33.6866401
  80.4141163  59.0596872  33.6215306  81.9324020  58.3298969  34.1954278
  81.1875866  57.7606619  32.6826943  77.9927220  56.1822929  34.9604387
  77.3151856  56.9251966  35.6442512  78.1950512  54.9162078  35.2555395
  78.9570572  54.4041503  34.8345367  77.3411950  54.2297254  36.1631240
  76.7669171  54.9455113  36.7513031  76.3596751  53.3327196  35.3837105
  75.4826979  53.9641224  35.2410893  76.8237765  53.1328407  34.4179164
  75.9345651  52.0041470  36.0327978  76.7866962  51.3248160  36.0547727
  75.4512496  52.2540129  37.4479692  74.5987788  52.9329407  37.4267706
  75.1516742  51.3095532  37.9022281  76.2553357  52.6994357  38.0337545
  74.8462390  51.3514410  35.2153442  75.2153894  51.1551268  34.2087221
  74.5530501  50.4119799  35.6839104  73.9833075  52.0152438  35.1622976
  78.1712423  53.4056356  37.0709777  78.6809472  52.3829283  36.6812885
  78.2780817  53.7953806  38.3132330  77.8297842  54.6270944  38.6701376
  79.1152820  53.0184792  39.2193289  79.8217977  52.4179345  38.6463709
  79.8963799  53.9391026  40.1408840  79.2057478  54.5683162  40.7023257
  80.5073202  53.3618899  40.8349138  80.8164112  54.8530967  39.4257321
  82.1464132  54.9621857  39.7580925  82.6024573  54.4640694  40.5090942
  82.7205252  55.8216931  38.9351396  83.7789070  56.0603696  39.0398316
  81.8121451  56.2569435  38.0739214  80.6023590  55.6964166  38.3839893
  79.7134754  55.9692515  37.8151761  78.3078142  52.0785876  40.0318193
  77.7596177  52.4823135  41.0375722  78.3512504  50.8135503  39.6982343
  78.8982159  50.4796912  38.9175511  77.6916581  49.8534499  40.5216067
  77.0791602  50.3420487  41.2793776  76.8277529  48.9566726  39.6819376
  77.4602275  48.3566644  39.0276697  76.0180895  48.0467881  40.5702485
  75.3849771  48.6461072  41.2245312  75.3936710  47.3989544  39.9550138
  76.6893561  47.4364717  41.1744125  75.9451597  49.8222666  38.8131394
  75.5465799  50.6222926  39.4369929  76.5686513  50.2505622  38.0283334
  74.8127680  49.0623179  38.1920611  74.1885281  48.6340876  38.9763080
  74.2143230  49.7369482  37.5798218  75.2105999  48.2623553  37.5676498
  78.7731409  48.9959007  41.0981529  79.5293612  48.3940001  40.3662885
  78.8751859  48.9667340  42.4109138  78.3746927  49.6575064  42.9516904
  79.8632251  48.1461035  43.0880001  80.0905186  48.6141812  44.0457788
  79.4114299  46.7099011  43.3418523  80.2697952  46.1924553  43.7702892
  78.5694843  46.6484257  44.0313799  79.0200100  45.9486937  42.1221721
  79.5139402  44.6956304  41.8525382  80.1811997  44.2059372  42.4313863
  78.9822886  44.2461157  40.7330964  79.2598708  43.2688049  40.3382413
  78.1452189  45.1564368  40.2780096  78.1350541  46.2212309  41.1405640
  77.4807313  47.0716562  40.9488880  81.2297098  48.2571983  42.4536031
  81.6768723  49.3470683  42.1553729  81.8773671  47.1299006  42.2120048
  81.4816051  46.2270774  42.4319639  83.1783922  47.1733880  41.6006355
  83.8440738  47.8119387  42.1813422  83.8158797  45.7963426  41.4705751
  84.8542688  45.9186209  41.1625226  83.7655209  45.0594378  42.7690193
  82.7273553  44.9363605  43.0775055  84.2270641  44.0792687  42.6492465
  84.3053448  45.6242246  43.5290895  83.1424191  45.0513181  40.4558148
  83.5454099  44.1837416  40.3751314  83.0688225  47.7363845  40.2171922
  83.8912298  48.5140751  39.8068221  82.0414848  47.3545461  39.4919297
  81.3606604  46.7035075  39.8562457  81.9102818  47.7868145  38.1166803
  82.8276736  47.5695835  37.5695953  80.7702051  47.0636082  37.4505694
  80.9992988  46.0064114  37.3165912  79.8498504  47.1653629  38.0256288
  80.4088687  47.7042975  35.8175616  79.4069140  46.8687621  35.5589775
  81.7372100  49.2569753  37.8871624  81.2730308  49.9630772  38.7373909
  82.1291808  49.6883697  36.6956748  82.5813700  49.0432056  36.0637036
  82.0245846  51.0571024  36.3049196  81.1329939  51.4664772  36.7798696
  83.2922328  51.8645018  36.7829906  84.0857810  51.1617499  37.0370016
  83.7691752  52.7868623  35.6943001  82.9762710  53.4902563  35.4400550
  84.6444626  53.3364670  36.0405766  84.0328277  52.2030670  34.8123876
  82.9839731  52.7717475  38.0137705  83.4517994  53.7317222  37.7953950
  81.9005653  52.8907331  38.0267936  83.4594188  52.2715680  39.3831856
  84.5428587  52.1527768  39.3710780  83.1822034  52.9941015  40.1507767
  82.9916260  51.3117859  39.6024756  81.8083602  51.1541826  34.8004484
  82.7697477  51.2636044  34.0371386  80.5702396  51.0017667  34.3552802
  79.8027729  50.7910993  34.9771431  80.3131693  51.0207238  32.9266534
  81.2574344  51.1715898  32.4034880  79.6793953  49.7255233  32.4255704
  80.2211467  48.8947394  32.8776797  78.6435335  49.7104960  32.7644872
  79.7192931  49.5905333  30.8966479  78.7243499  49.9148545  30.5916816
  80.4655996  50.2631600  30.4739196  79.9745746  48.1395233  30.3796380
  81.0450897  47.5269218  30.7190949  79.1460552  47.6462114  29.5604500
  79.4913327  52.1824816  32.4999305  78.6905091  52.6750587  33.2273310
  79.7605990  52.6603246  31.3051035  80.4684259  52.2239095  30.7318476
  79.0740735  53.8020779  30.7833189  79.0821369  54.6104511  31.5144598
  79.7638354  54.2865696  29.5142738  80.7631484  54.6173586  29.7972075
  79.8412570  53.4310996  28.8432471  79.0415280  55.4113593  28.8136125
  78.2405977  55.7491117  29.4712863  79.7400984  56.2303786  28.6424225
  78.4542110  54.9650598  27.4919603  79.2624935  54.6534159  26.5815502
  77.1987203  54.9413843  27.3555836  77.6811150  53.3422315  30.5027250
  77.4601109  52.1478664  30.3400135  76.7297077  54.2702315  30.5689541
  77.0012798  55.2334625  30.7050937  75.2869784  53.9453588  30.5433248
  75.0635671  53.1290992  29.8563700  74.7604448  53.5605968  31.9646346
  75.3750737  52.7457419  32.3471813  74.8180770  54.7324840  32.9276013
  74.2032729  55.5476196  32.5459325  74.4431585  54.4210504  33.9025606
  75.8492466  55.0715247  33.0268091  73.3587813  53.0208311  31.8879699
  73.3450190  52.1324485  31.2565518  73.0140419  52.7601231  32.8886125
  72.6999736  53.7781675  31.4630993  74.4459879  55.1006925  29.9509702
  74.9076875  56.2633483  29.8300249  73.2369489  54.7409588  29.5348291
  72.9724070  53.7704232  29.6252592  72.2606409  55.6760676  28.9828750
  72.5774166  56.7059973  29.1471832  72.1490900  55.4339307  27.4798906
  73.1102990  55.7260277  27.0569772  72.0108416  54.3595443  27.3587242
  71.0409119  56.1674393  26.7638372  70.0973067  55.9428949  27.2611197
  71.2422224  57.2364353  26.8332686  70.9501732  55.7579775  25.2830845
  71.9835448  55.3085023  24.7106054  69.8363421  55.8807818  24.6890035
  70.9293937  55.3902452  29.6428381  70.6082903  54.2391028  29.9338720
  70.1712131  56.4191201  29.9578295  70.4926738  57.3755209  29.9124448
  68.8516830  56.1667450  30.4728063  68.7724347  55.1196942  30.7652159
  68.4954506  57.0503341  31.6549653  67.6624361  56.5977604  32.1928912
  69.6803131  57.2037691  32.5934362  70.5136285  57.6567364  32.0563081
  69.4000055  57.8409710  33.4321866  69.9785982  56.2238393  32.9660791
  68.0334883  58.4146424  31.1908147  68.7740664  58.7937065  30.4865738
  67.0794645  58.2855930  30.6796549  67.8661980  59.4073166  32.3348907
  68.8199844  59.5372445  32.8462713  67.5333989  60.3666099  31.9385317
  67.1253836  59.0291295  33.0393539  67.9310258  56.3487559  29.3028066
  67.8659878  57.4078317  28.6883356  67.3356208  55.2331449  28.9285796
  67.1295664  54.5352840  29.6290302  66.9411218  54.9711926  27.5644144
  67.6433447  55.4536430  26.8845440  66.9215619  53.4639526  27.2622519
  66.3784677  53.2860133  26.3340889  68.3199870  52.9668668  27.1224415
  68.8636104  53.1440521  28.0504385  68.3065660  51.8982156  26.9081901
  68.8137576  53.4943524  26.3063226  66.2732796  52.7466653  28.3193569
  66.2700182  51.8087639  28.1145870  65.5659921  55.4759429  27.2902495
  65.3424541  56.0589478  26.2253528  64.6003774  55.0722952  28.1336111
  64.4024829  54.0891314  28.2533022  63.6907114  56.0450262  28.7495909
  64.1816062  56.9929571  28.5292536  62.2761264  56.0625540  28.1207395
  61.7685331  55.1233508  28.3406180  61.7030088  56.8908827  28.5372824
  62.3594677  56.1857855  27.0409398  63.6279579  55.9226044  30.2629632
  64.1265511  54.9578058  30.8893828  63.2613177  57.0712093  30.8137869
  63.5208548  57.9169723  30.3265243  62.6043584  57.1926943  32.0923341
  62.8980476  56.3726996  32.7476619  63.0093253  58.5170844  32.7525657
  62.2762081  58.6635554  33.5457773  63.9947535  58.3648997  33.1928736
  63.0391703  59.7555999  31.8497675  63.8967725  59.6466197  31.1858830
  61.7709099  59.9570874  31.0157895  60.9128871  60.0666154  31.6790387
  61.8751152  60.8546083  30.4061189  61.6206238  59.0936714  30.3676944
  63.2490423  60.9569371  32.7101440  64.1942080  60.8611218  33.2445415
  63.2735611  61.8509398  32.0870395  62.4328513  61.0373658  33.4281011
  61.0558710  57.0596727  31.9538714  60.4678332  57.3108129  30.8608553
  60.4476023  56.7144894  33.1049629  60.8260794  57.1274594  33.9453856
  59.2207157  55.8682823  33.2215459  58.8735156  55.5562293  32.2365717
  59.4018705  54.6056668  34.1363125  59.6337228  54.9133706  35.1559513
  58.1057340  53.8194666  34.1284744  57.8734454  53.5109995  33.1091654
  58.2116683  52.9369505  34.7593816  57.2988195  54.4443552  34.5112307
  60.5914384  53.7414408  33.7298622  61.1936718  54.3386237  33.0451810
  61.1615823  53.5453736  34.6379333  60.2263438  52.4196198  33.0641896
  59.6565424  52.6149045  32.1557348  61.1365989  51.8757718  32.8116737
  59.6244505  51.8216552  33.7484868  58.1094238  56.6457954  33.9266997
  57.1525575  57.0867886  33.3158913  58.2551983  56.7592037  35.2324540
  59.1093399  56.4426268  35.6687115  57.2829609  57.3503012  36.0360255
  56.5826643  57.9152904  35.4208255  56.5250653  56.2984460  36.7786607
  56.5316398  55.3429028  36.2542628  56.9043576  56.1593401  37.7910276
  54.8054596  56.7570372  36.9520889  54.4376875  55.6674048  37.6201781
  57.9810827  58.1932899  37.0116346  58.6842510  57.6963111  37.8633266
  57.6912266  59.4704630  36.9680632  57.2141103  59.8491813  36.1624381
  58.0553328  60.3774409  38.0417129  59.1314407  60.5489344  38.0678093
  57.3633957  61.6929222  37.7754930  57.1972439  61.6665188  36.6985549
  56.4099141  61.8263470  38.2865414  58.2777351  62.8386470  38.1135113
  58.8039834  62.5937743  39.0361168  59.3083308  63.1113113  36.9879320
  58.7828023  63.3567241  36.0650609  59.9476549  63.9463417  37.2744450
  59.9201714  62.2228481  36.8317758  57.3914575  64.0294618  38.4958645
  56.7763692  63.7639693  39.3556781  58.0192549  64.8838471  38.7488418
  56.7476376  64.2885374  37.6553440  57.6419642  59.8314142  39.4326687
  56.8643258  58.9272734  39.4756806  58.2075977  60.3241218  40.5465781
  59.1239739  60.7464466  40.5019055  57.5889083  60.1257810  41.8801242
  56.5112878  60.2737636  41.9503696  57.9456790  58.7630832  42.5306189
  57.0266212  58.1849538  42.6265269  58.9523241  57.9786896  41.7149766
  59.8718776  58.5560238  41.6190208  59.1675929  57.0337283  42.2137833
  58.5429981  57.7809992  40.7242837  58.2974938  58.8722377  44.0281290
  57.4467575  59.2816644  44.5728488  58.5364530  57.8831038  44.4187852
  59.1582891  59.5292096  44.1527089  57.8276710  61.2246750  42.8847287
  58.9736756  61.6430739  43.0985927  56.7473636  61.6577917  43.5438705
  55.8421866  61.2671145  43.3244960  56.8118037  62.7694702  44.4957668
  57.5758560  63.4756350  44.1707213  55.4647502  63.5129399  44.5968481
  55.4015604  64.2939826  43.8391683  54.7193188  62.7451824  44.3895309
  55.1957373  64.1332299  46.0089622  56.1055438  64.7854973  46.6047503
  54.0237541  64.0266094  46.4911287  57.3014527  62.2678271  45.8529702
  57.0206972  61.1259731  46.3043811  58.1265109  63.1199235  46.4489909
  58.2102611  64.0583375  46.0850344  58.9680515  62.7383535  47.5662012
  59.3419019  61.7247475  47.4215015  60.1766610  63.7005303  47.6769966
  59.7837667  64.7170556  47.6567588  60.6512656  63.5141095  48.6403749
  61.1938299  63.5325917  46.5745207  61.4076133  62.4713975  46.4469884
  60.7831025  63.9338549  45.6480258  62.4700439  64.2654582  46.9184372
  62.2157669  65.3079542  47.1098638  62.8779501  63.8190776  47.8253310
  63.5158742  64.1918019  45.7972169  63.4082199  63.2076013  45.3412999
  63.2434584  64.9591055  45.0725556  64.9500325  64.3927955  46.2279135
  65.2027925  63.6816363  46.8990801  65.5558788  64.3262151  45.4225458
  65.0500950  65.3048897  46.6500163  58.1530032  62.7202152  48.8576020
  58.2657631  61.8194228  49.6686182  57.3169657  63.7157953  49.0309186
  57.2445640  64.4735726  48.3671182  56.5237421  63.7741462  50.2099714
  57.1562030  63.9124769  51.0868734  55.5695981  64.9436779  50.1128851
  55.2214473  64.9895229  49.0809992  54.7277771  64.7270235  50.7705313
  56.1842021  66.2800529  50.5000991  56.7172520  66.1672892  51.4441558
  56.8834758  66.5894547  49.7233180  55.0912927  67.3417085  50.6549810
  55.1628331  68.0200930  49.8048190  54.1273761  66.8332836  50.6333392
  55.2180937  68.1383781  51.9546379  56.0821901  67.7518078  52.4950095
  55.3941031  69.1801425  51.6865956  53.9943091  68.0450244  52.8313302
  53.8312881  67.0798290  53.0801709  54.1386181  68.5891596  53.6698955
  53.1935840  68.4035749  52.3309504  55.7478745  62.4573551  50.4403508
  55.7869972  61.8935524  51.5308460  55.1010612  61.9457266  49.3870124
  55.1944151  62.3905845  48.4850778  54.1516713  60.8293824  49.5192942
  53.7776744  60.7977272  50.5426335  52.9354907  60.9818623  48.5470413
  52.4976854  59.9918638  48.4192578  52.2133711  61.6379345  49.0330584
  53.2790716  61.5156737  47.2746328  52.4900850  61.5818344  46.7317490
  54.8329179  59.4639136  49.3512850  54.9624330  58.7139964  50.3201141
  55.3371575  59.1923982  48.1358295  55.6884801  59.9587176  47.5795684
  55.4046405  57.8135345  47.5648602  56.4490843  57.5359787  47.4227369
  54.9349624  57.1158965  48.2582598  54.6789841  57.7390936  46.2124101
  54.6565434  56.6765106  45.5126223  54.0552676  58.8642974  45.8626172
  54.2959118  59.7465801  46.2912976  53.0282064  58.8507843  44.8766108
  52.3682700  58.0046511  45.0680310  52.1866012  60.1440725  44.8841206
  51.5528933  60.1193749  45.7706325  52.8762099  60.9852611  44.9544165
  51.3086729  60.3044477  43.6308853  51.9593281  60.6694466  42.8362002
  50.9496114  59.3072171  43.3765133  50.1213834  61.2467461  43.7878291
  49.5274912  61.5590266  42.7302190  49.7763484  61.6700888  44.9380207
  53.7308170  58.7016397  43.5811845  54.3249916  59.6477142  43.0918672
  53.6917752  57.5123369  43.0119819  53.4520010  56.6709091  43.5165678
  54.0403100  57.3973158  41.6167361  55.0951958  57.6337779  41.4774494
  53.7931476  55.9927346  41.1292648  53.1844791  55.4899630  41.8808249
  53.2321426  56.0657598  40.1975778  55.0616086  55.1988204  40.8936043
  54.8626216  54.4722837  40.1057912  55.8353517  55.8911120  40.5617067
  55.5376733  54.4669250  42.1555744  55.8528190  55.2053582  42.8927980
  54.7093171  53.8835552  42.5575760  56.7162038  53.5293577  41.8322880
  57.5650073  54.1645601  41.5790072  56.9376660  52.9743238  42.7438751
  56.4585356  52.5597034  40.7027488  56.2537265  53.0738135  39.8578560
  57.2773126  51.9863649  40.5578794  55.6723193  51.9707309  40.9374279
  53.2479502  58.3693366  40.7692985  52.3500946  59.0285668  41.2412825
  53.6349362  58.5122492  39.5245343  54.2863366  57.8846962  39.0751413
  53.1172338  59.5897417  38.7736160  52.6027858  60.2807563  39.4414043
  54.2024258  60.3312084  38.0630758  54.9195771  60.7297614  38.7806752
  54.7165741  59.6704001  37.3651618  53.6087688  61.3943815  37.3525412
  54.2884603  61.8867916  36.8865459  52.1697659  59.1132137  37.7628071
  52.1723979  57.9592631  37.3758200  51.4634448  60.0595633  37.1924476
  51.7910220  61.0149521  37.1974093  50.2197665  59.7670063  36.5249652
  49.7275966  58.9112281  36.9870383  49.3017029  60.9798432  36.6432527
  49.7255596  61.7779357  36.0337503  48.3266750  60.6983907  36.2455028
  49.1414878  61.4718419  38.0931208  48.2200458  62.0520511  38.1421387
  49.0502522  60.5915943  38.7294716  50.3082439  62.3290667  38.5754567
  50.9397518  61.7330903  39.2343262  50.8899805  62.6564145  37.7137576
  49.7961983  63.5379761  39.3262946  48.8324199  63.3034936  39.7782345
  50.5069222  63.8084230  40.1072102  49.6369048  64.6820894  38.3810600
  48.9780443  64.4318476  37.6576089  49.2949515  65.4887646  38.8834971
  50.5299346  64.8998033  37.9624941  50.5576036  59.5154950  35.1215974
  50.5238000  58.3867277  34.6434388  51.1493100  60.5436622  34.5606929
  51.1298328  61.4411711  35.0235078  51.7442733  60.4626184  33.2718498
  51.2495475  59.7197716  32.6461309  51.6522461  61.8502605  32.5654834
  52.6168735  62.0856690  32.1158422  50.5371330  61.8217921  31.4386502
  49.5720752  61.5868875  31.8876301  50.4842682  62.7968627  30.9543549
  50.7873812  61.0620256  30.6982238  51.3546329  62.8769670  33.5364619
  51.2993748  63.7279584  33.0955985  53.2120833  59.9502968  33.3546773
  53.7784645  59.7496869  34.4400330  53.7516517  59.6387407  32.1752025
  53.1188537  59.5099157  31.3986266  55.2035310  59.5797381  31.9124015
  55.6632027  58.8283310  32.5544205  55.4759633  59.2038514  30.4396796
  54.4951833  59.0628313  29.9854956  55.9585128  60.0755762  29.9977044
  56.3296020  57.9734057  30.1918221  57.3635772  58.2150537  30.4379976
  55.9790999  57.1729057  30.8433203  56.2452633  57.5129022  28.7197170
  55.3046548  57.8637565  28.2951515  57.0776566  57.9485413  28.1670512
  56.3048445  56.0681076  28.5881014  55.6529039  55.6419105  27.9451171
  57.1280538  55.2707943  29.2886697  58.0536858  55.7691335  30.1100651
  58.1457290  56.7694745  30.2146879  58.6581657  55.1437847  30.6235264
  57.0631212  53.9477699  29.1374242  56.3937675  53.5482230  28.4952187
  57.6835801  53.3511077  29.6657458  55.7223563  60.9368069  32.0791178
  54.9998955  61.8888147  31.8031874  57.0203566  61.0372555  32.3621909
  57.8656916  60.1059231  33.1316600  58.6426595  59.6862345  32.4926900
  57.2594907  59.2990375  33.5434307  58.4187783  61.0050548  34.1953701
  59.4654622  60.7462747  34.3553227  57.8586843  60.8363581  35.1151186
  58.2677668  62.4456455  33.7231837  59.2824716  62.8265206  33.6073933
  57.7040238  63.1087162  34.3794083  57.5874517  62.3602298  32.3607478
  56.7968574  63.0950814  32.2089188  58.5881547  62.4717080  31.2579603
  59.3356388  61.5279166  31.0131928  58.5478686  63.5924967  30.5474536
  57.7918254  64.2437142  30.7037027  59.4894297  63.8660195  29.4472732
  59.4353180  63.0047924  28.7813460  59.0197085  65.1228966  28.6708017
  57.9902369  64.9831948  28.3409976  59.0769102  65.9952446  29.3218293
  59.9176896  65.3353798  27.4566744  60.9473260  65.4756242  27.7857354
  59.8606517  64.4635765  26.8049016  59.4556219  66.5717834  26.6928521
  58.4261498  66.4320836  26.3630491  59.5128258  67.4441308  27.3438800
  60.3058688  66.8099561  25.5051000  61.0665476  66.1715136  25.3210936
  60.1140153  67.8263063  24.6689629  59.1340740  68.7081979  24.8446983
  58.5098052  68.6144071  25.6331091  59.0186789  69.4676416  24.1889324
  60.9383631  67.9460189  23.6321310  61.6815016  67.2746011  23.5015808
  60.8174467  68.7077964  22.9800781  61.0217463  63.9879708  29.9196385
  61.9488618  63.9174426  29.0865259  61.2489838  64.0632669  31.2460139
  60.4830204  63.8765020  31.8772969  62.5628799  64.3508461  31.8169992
  63.2535604  63.5290612  31.6279773  63.0991176  65.5765625  31.1788774
  64.0707206  65.8508813  31.5897741  63.1928336  65.4105123  30.1056837
  62.2318632  66.7374565  31.3474179  62.2453234  67.4530661  32.5339725
  62.8742882  67.1059364  33.3537310  61.4863174  68.5772335  32.6850076
  61.5144117  69.1396527  33.6182793  60.6911573  68.9951081  31.6621839
  60.0733965  69.8862651  31.7731379  60.6698527  68.2794627  30.4728973
  60.0456430  68.6271068  29.6497290  61.4261559  67.1428068  30.3283223
  61.3790161  66.5710455  29.4015177  62.5390039  64.6428224  33.3132324
  61.5490256  65.0444678  33.8569133  63.6703959  64.6027077  33.9480450
  64.5570546  64.4986385  33.4757047  63.6758888  64.8013206  35.3483680
  63.1459193  65.4154249  36.0764529  64.1719833  63.5131293  36.0542855
  63.4066829  63.2876695  36.7969715  64.4243791  62.3148717  35.2285640
  65.1899569  62.5394353  34.4858913  64.7653999  61.4990330  35.8659120
  63.5043157  62.0205570  34.7236245  64.7834083  63.6105718  37.4097556
  64.0604289  64.0368316  38.1052450  65.0724372  62.6164828  37.7508552
  65.6652254  64.2497813  37.3660447  64.6845269  65.8761325  35.5966472
  65.8444070  65.6485351  35.2465864  64.3241767  66.9478812  36.3416140
  63.3411813  67.1046187  36.5126484  65.3207967  67.9628711  36.8806679
  66.1693111  68.0361136  36.2004046  64.6826833  69.3420739  37.0143274
  64.1410381  69.3419772  37.9602236  65.5024975  70.0585649  37.0657602
  63.7385455  69.7333199  35.8906992  64.2772767  70.3928777  35.2103661
  63.4476687  68.8257261  35.3617700  62.4655560  70.4579096  36.4155199
  61.6459432  70.1914675  35.7481802  62.2623809  70.0685347  37.4131203
  62.5970138  71.9932957  36.4802152  61.7130772  72.3766159  36.9899429
  63.4840995  72.2215661  37.0710372  62.7157618  72.6414037  35.1260299
  61.8936713  72.4303626  34.5785552  62.7982353  73.6418203  35.2376755
  63.5350133  72.2866643  34.6537103  65.9600710  67.5961063  38.2588975
  65.9463689  66.4532369  38.7070747  66.5392990  68.5765401  38.9269466
  66.5003911  69.5392752  38.6240827  67.3292542  68.2537670  40.1252484
  68.0337018  67.4563816  39.8885433  68.1304635  69.4925420  40.6320395
  68.4055513  70.0456756  39.7340033  67.4192365  70.0777232  41.2149795
  69.3990750  69.2248272  41.4827156  69.1681975  68.9465012  42.5109816
  69.9169905  68.4011039  40.9914464  70.3357404  70.4564715  41.5022164
  71.0450337  70.7375718  40.5329720  70.2640748  71.2226875  42.5602774
  70.8520942  72.0410577  42.6281371  69.6210648  70.9922433  43.3042767
  66.4051548  67.7409476  41.1707461  65.2076118  67.8065883  41.0128596
  66.9531834  67.3727673  42.3080666  67.8822505  66.9784659  42.3462785
  66.2079148  67.5320757  43.5724770  66.7793960  67.1024255  44.3952218
  65.9605164  69.0459466  43.8731344  66.2621103  69.5426453  42.9509464
  64.9061384  69.2453290  44.0645342  66.8114226  69.5861495  45.0534790
  66.7024501  68.9807137  46.1553975  67.5050684  70.6657692  44.8942846
  64.8408018  66.8369351  43.5238284  63.9591740  67.1876046  44.3511334
  64.7644699  65.7639530  42.6817009  65.6545817  65.3333579  42.4758169
  63.5176370  65.1608566  42.0720055  62.6605121  65.3150519  42.7274901
  63.2385305  65.8307524  40.7464230  63.1776340  66.8962943  40.9678080
  64.1187932  65.6372860  40.1333909  61.9883680  65.3970649  39.9907016
  62.0567757  64.3572539  39.6709918  61.1320933  65.5169863  40.6544144
  61.7757321  66.2789636  38.7507602  62.6512408  67.0476923  38.3966744
  60.6620399  66.1465463  38.0813006  60.4980453  66.7145922  37.2624409
  59.9700639  65.4767250  38.3856195  63.7306616  63.6624359  41.8164007
  64.8297535  63.2459540  41.6506750  62.6968589  62.8457418  41.8082858
  61.7521547  63.1923531  41.8948527  62.8991517  61.3779893  41.6519044
  63.9553797  61.1560061  41.4995727  62.3949619  60.5666336  42.8601964
  61.3080293  60.6369876  42.9017553  62.8064988  59.0974984  42.7399255
  63.8933928  59.0263011  42.6987759  62.4391761  58.5447862  43.6046126
  62.3804510  58.6735664  41.8306034  62.9185270  61.1373983  44.1575569
  62.5795365  62.1677789  44.2648111  62.5460447  60.5441168  44.9926459
  64.0082340  61.1126322  44.1524472  62.1412796  60.8713249  40.4437425
  61.1311084  61.4501170  40.0833680  62.6412552  59.8136121  39.7943882
  63.5087886  59.4112009  40.1192735  61.9562779  59.1747247  38.6323177
  60.8879562  59.3837536  38.6879487  62.4894664  59.7027291  37.2968992
  61.9689023  59.2275910  36.4654210  62.3594707  60.7832600  37.2364496
  64.3069876  59.3839143  37.0194849  64.3684136  59.9614933  35.8230203
  62.2518029  57.7128458  38.7103510  63.0085211  57.2749891  39.5875967
  61.6288058  56.9478149  37.8269420  60.8916284  57.3311969  37.2527582
  61.9874025  55.5221254  37.6494713  62.8900040  55.3082690  38.2219005
  60.8677568  54.5236483  38.0560236  60.6780847  53.8335549  37.2338947
  61.3134308  53.7373083  39.2881074  61.5028580  54.4267358  40.1108514
  60.5298252  53.0362002  39.5753534  62.2259704  53.1872799  39.0582392
  59.5792345  55.3002206  38.3099818  59.8533605  56.1228031  38.9705222
  59.2763384  55.6981248  37.3414645  58.4383253  54.5319247  38.9143861
  58.7403361  54.1340768  39.8832032  57.5824213  55.1941080  39.0449266
  58.1633155  53.7093966  38.2541460  62.2762489  55.3690646  36.2024640
  61.6982674  56.0828240  35.3951388  63.3295310  54.6373891  35.8887369
  63.8148626  54.0576720  36.5584239  63.8320532  54.7068721  34.5833306
  63.0206223  54.7741712  33.8586583  64.6907504  55.9156167  34.4496271
  65.5131246  55.8584075  35.1627385  65.0913446  55.9671746  33.4372209
  64.0973897  56.8075335  34.6508898  64.5740614  53.4857594  34.2773998
  64.9906410  52.7685964  35.1990047  64.6054189  53.1804429  32.9780093
  64.1094049  53.7739976  32.3285771  65.2860595  52.0208749  32.4605856
  65.5540956  51.3564221  33.2820223  64.3958008  51.2597532  31.4905628
  63.4274758  51.1304949  31.9740275  64.2782213  51.8821270  30.6034743
  64.9532884  49.8820731  31.0810715  65.9314689  50.0635357  30.6357232
  65.0740130  49.3106386  32.0013923  64.0717865  49.0785665  30.0846320
  64.6416535  48.9446814  29.1651619  63.8657718  48.1047460  30.5288516
  62.7933590  49.7265990  29.7564032  62.8524712  50.5905251  29.2365603
  61.5908564  49.2816515  30.1143182  61.4695815  48.1230084  30.7577345
  62.2935360  47.5805967  30.9745028  60.5541468  47.7914262  31.0263089
  60.4968081  49.9870400  29.7965581  60.5890874  50.8538960  29.2865137
  59.5848744  49.6486588  30.0685394  66.5720335  52.4246003  31.7606950
  66.6741419  53.5162472  31.1966144  67.5524861  51.5242221  31.7929871
  67.3173953  50.5463029  31.8852133  68.9604196  51.8897558  31.6848332
  69.0694373  52.8431436  31.1678554  69.5513362  52.0262714  33.0961128
  68.8762736  51.4596880  33.7374964  70.5154868  51.5201835  33.0472392
  69.7410866  53.4262660  33.6694259  70.1814605  54.0641796  32.9031115
  68.4408791  53.9980194  34.1016386  68.0000853  53.3608542  34.8683328
  68.5996497  54.9971334  34.5074266  67.7669712  54.0564308  33.2469242
  70.6678281  53.4109306  34.8739403  71.6427242  53.0234803  34.5780361
  70.7816809  54.4245217  35.2583515  70.2446623  52.7737754  35.6505116
  69.7205554  50.7752218  30.9180734  69.6601415  49.6142679  31.3278455
  70.4160873  51.1243759  29.8139539  70.2741925  52.0469174  29.4281011
  71.3172183  50.1713702  29.0732501  71.2311979  49.1825605  29.5237553
  70.9533254  50.0641918  27.5693985  70.9504835  51.0761596  27.1644142
  71.7390350  49.4826242  27.0871749  69.5878274  49.4013403  27.3041286
  69.3311422  48.8496809  28.2084988  68.8738008  50.2119609  27.1586567
  69.5396722  48.4548006  26.0968719  69.8683867  47.4678276  26.4223407
  68.5086187  48.3970551  25.7480257  70.3902633  48.8899217  24.9812494
  71.2091048  48.3285565  24.7955962  70.1720559  49.9677495  24.2247061
  69.1159701  50.7536907  24.4290103  68.4637670  50.5358232  25.1687839
  68.9723524  51.5638072  23.8431906  71.0101194  50.2480316  23.2363942
  71.8030939  49.6464709  23.0648826  70.8517376  51.0618253  22.6595461
  72.7996087  50.5207039  29.2200350  73.2682837  51.5666921  28.7756967
  73.5340002  49.5900394  29.7886531  73.0858788  48.7602187  30.1501556
  74.9752067  49.6921870  29.8911214  75.2733997  50.7118083  30.1351551
  75.5140322  48.7428258  30.9892878  76.5010012  49.0859353  31.2995592
  74.5944457  48.7287374  32.1745031  73.6073349  48.3852673  31.8650839
  74.9909697  48.0557124  32.9347038  74.5159328  49.7349831  32.5860924
  75.6515607  47.4032950  30.4758297  75.9860652  46.8281247  31.1678457
  75.6099012  49.2757653  28.5654405  75.5142335  48.1141857  28.1687079
  76.3450701  50.1766621  27.9251776  76.5088814  51.0908864  28.3219886
  76.8430208  49.9058452  26.5612298  75.9496022  49.7041951  25.9702648
  77.5494745  51.1324621  25.9771793  78.4511167  51.3415140  26.5528864
  77.8188846  50.9372804  24.9391896  76.8820123  51.9929749  26.0231273
  77.7565092  48.6675688  26.4593405  78.3549775  48.4230161  25.3891468
  77.8666170  47.9022909  27.5518079  77.6544879  48.2875532  28.4610238
  78.2904052  46.5048605  27.4726504  78.3282153  46.2254438  26.4197516
  79.2891606  46.4328304  27.9032298  77.3644419  45.5458626  28.2065230
  76.2801954  45.1958341  27.6940197  77.8416642  45.0469691  29.3548675
  78.7294665  45.3837173  29.6991158  77.1388365  44.0195697  30.1315971
  76.0646410  44.2041458  30.1199863  77.4021963  42.5934933  29.5852094
  77.9908491  42.6922619  28.6731607  78.1604220  41.6823454  30.5961046
  77.5721279  41.5827233  31.5082916  78.3141552  40.6978755  30.1541946
  79.1262429  42.1280324  30.8341249  76.1544696  41.9931540  29.2518283
  76.3058466  41.1082214  28.9118585  77.5919720  44.0830478  31.5485233
  78.7645730  44.3309090  31.8328395  76.6831539  43.7908115  32.4400061
  75.7865458  43.4156789  32.1652904  76.9161803  44.0399317  33.8243441
  77.9381674  44.3897539  33.9701730  75.9281454  45.1272336  34.2974470
  74.9446383  44.8858757  33.8942591  75.8462828  45.2187604  35.7995570
  76.8293849  45.4605639  36.2034654  75.1376177  45.9985640  36.0784852
  75.5125573  44.2634429  36.2046434  76.3436350  46.4967598  33.7944018
  76.2120644  46.5029006  32.7123887  75.6741749  47.2292027  34.2454560
  77.7791536  46.8502100  34.1306149  78.4492777  46.1184226  33.6794821
  78.0103019  47.8419504  33.7418725  77.9113887  46.8447225  35.2125501
  76.7375384  42.7213161  34.5467277  76.5833549  41.6945433  33.8989731
  76.8542404  42.7202989  35.8726710  77.5721567  43.2723409  36.3198233
  76.0679927  41.7855246  36.7057895  75.2430389  41.3751058  36.1234607
  76.9435124  40.6370598  37.1850045  76.8246979  40.4592199  38.2538147
  76.7352094  39.7170950  36.6387677  78.6923897  40.9856495  36.9279204
  79.1382850  39.8378817  37.4306180  75.2645306  42.4356513  37.8903695
  75.7761191  42.6039749  39.0220595  73.9752400  42.7017739  37.6096890
  73.6267220  42.4203005  36.7044778  73.0539988  43.3473320  38.5336865
  73.5351622  44.1907610  39.0288719  71.8614015  43.8592503  37.7565667
  71.5601814  43.0064022  37.1482774  71.0439772  44.1370855  38.4219427
  72.1975821  45.0290988  36.8542973  73.2769882  45.0804383  36.7116522
  71.5140769  44.8406918  35.5016405  70.4345419  44.7897240  35.6434337
  71.7553383  45.6818546  34.8517645  71.8638236  43.9158342  35.0429293
  71.8211990  46.3566133  37.5295735  72.3746863  46.4598309  38.4628995
  72.0699189  47.1853711  36.8667010  70.7515544  46.3678966  37.7389351
  72.5236255  42.4182712  39.5954285  72.4909147  41.2080046  39.3988684
  72.0690829  43.0163152  40.7027069  72.5366051  43.8534324  41.0201294
  70.9351717  42.5134935  41.4859450  70.4517808  41.6983360  40.9474743
  71.3994355  41.9930600  42.8452732  71.8830108  42.8261901  43.3553207
  70.5048205  41.7009639  43.3952222  72.3623311  40.8112543  42.7764747
  73.1552179  41.0928395  42.0835525  72.7820387  40.6789501  43.7736910
  71.7248949  39.5030093  42.3153595  70.4989895  39.2912341  42.5661110
  72.4909516  38.6938828  41.7010863  69.9209809  43.6205297  41.7048345
  70.2528493  44.7888788  41.6498621  68.6876442  43.2491384  42.0163517
  68.4182851  42.2768345  41.9697667  67.6702541  44.2367891  42.4096054
  67.7972945  45.1363360  41.8072970  66.2320386  43.7097662  42.2122528
  65.5365373  44.5458923  42.2848566  66.0841381  43.0384612  40.8368361
  66.7790467  42.2018929  40.7636582  65.0637950  42.6740514  40.7176526
  66.3045812  43.7628850  40.0527981  65.9203293  42.7553134  43.2244441
  65.0255021  42.4325347  43.0952216  67.8820905  44.5903986  43.8548776
  68.2742782  43.7533296  44.6412879  67.6098614  45.8309610  44.1711200
  67.1776127  46.4576950  43.5074447  67.7911712  46.2818150  45.4988905
  68.8382280  46.1846944  45.7858379  67.3930650  47.7308517  45.6127066
  67.7804373  48.2648198  44.7449970  66.3094770  47.8418159  45.6530047
  67.9385096  48.4225924  46.8185735  68.5451358  47.7280843  47.8263353
  68.6398251  46.6451496  47.7464201  69.0302552  48.3763501  48.9252405
  69.5278680  47.8126938  49.7144008  68.8923271  49.7312128  49.0362887
  69.2757424  50.2503154  49.9147107  68.2733088  50.4341030  48.0449640
  68.1540786  51.5144038  48.1276357  67.8017471  49.7774118  46.9445762
  67.3068341  50.3336079  46.1484563  66.7379807  45.4161460  46.0774507
  66.0146929  44.7954906  45.3234462  66.6878270  45.2954468  47.3913781
  67.3308445  45.8031472  47.9820287  65.6973355  44.4468678  48.0239453
  65.6240572  44.6072930  49.0995815  64.3143450  44.6406009  47.4063833
  63.9687967  45.6562389  47.5991918  64.3697181  44.4742941  46.3305693
  63.3377211  43.6457864  48.0245857  63.6823846  42.6298466  47.8317792
  63.2814603  43.8117919  49.1004011  61.9564974  43.8392701  47.4078117
  61.6109490  44.8549083  47.6006179  62.0118715  43.6729613  46.3319982
  60.9798735  42.8444562  48.0260163  61.3245366  41.8285162  47.8332112
  60.9236119  43.0104649  49.1018299  59.6484654  43.0309609  47.4314849
  59.7002935  42.8767562  46.4346727  59.0016514  42.3721018  47.8409191
  59.3287263  43.9721603  47.6103976  66.1467279  43.0436659  47.7996082
  66.3628900  42.3097804  48.7452798  66.3183427  42.6611379  46.5461663
  66.1446601  43.2762398  45.7641284  66.7892533  41.3191136  46.2727856
  66.1048715  40.5957875  46.7160914  66.8663543  41.0618449  44.7813979
  65.9647704  41.4622717  44.3178205  67.7381168  41.5901745  44.3953953
  66.9857409  39.6001913  44.4621841  67.2610053  38.8128158  45.3849047
  66.7998617  39.2331372  43.2895481  68.1665947  41.2578990  46.8868935
  68.5476227  40.2829351  47.5084054  68.8961494  42.3452549  46.7031899
  68.4832746  43.1019353  46.1768169  70.2286336  42.5294566  47.2404623
  70.3052784  42.0001238  48.1902157  71.2925975  42.0037032  46.3080948
  70.8851617  41.7693537  45.3246439  72.0845409  42.7455704  46.2053397
  71.9309694  40.7714622  46.8046163  72.5414749  40.7663015  48.0319391
  72.5582160  41.6825154  48.6221694  73.1270244  39.6257315  48.5193371
  73.6114941  39.6324944  49.4957305  73.1016602  38.4720813  47.7727709
  73.5667196  37.5624724  48.1528121  72.4869616  38.4677905  46.5426046
  72.4637117  37.5569006  45.9444079  71.9005536  39.6172247  46.0678039
  71.4055397  39.6154741  45.0966921  70.3663934  44.0104631  47.3683016
  69.6142662  44.7257449  46.7209325  71.3279105  44.4780926  48.2451872
  72.2754244  43.9817730  49.3209703  73.2919850  43.9319581  48.9308122
  71.9691122  42.9930947  49.6627115  72.1166226  45.0301949  50.3850391
  73.1084135  45.3657498  50.6881115  71.6092022  44.5805427  51.2385254
  71.3130629  46.1498299  49.8178149  71.7773491  47.1015958  50.0760374
  70.2697171  46.1577117  50.1331990  71.3990599  45.9242742  48.3253578
  70.5758280  46.3196678  47.7303357  72.7012127  46.5068635  47.8314187
  72.7058683  47.3635386  46.9675228  73.8091232  46.0215252  48.3528225
  73.7739964  45.2978244  49.0564720  75.1022034  46.5790253  48.0034871
  75.1026753  47.6530124  48.1896340  76.2014962  45.9416988  48.8356615
  77.0863309  45.8888407  48.2013329  76.3939627  46.6142877  49.6715327
  75.8770072  44.5624564  49.3634145  75.0394225  44.1591898  48.7942670
  76.7452656  43.9153492  49.2389892  75.5003769  44.5875618  50.8218412
  75.5837962  45.6198848  51.4728546  75.0914142  43.4489906  51.3448422
  74.8266897  43.4104015  52.3187689  75.0446394  42.6203569  50.7692732
  75.4461500  46.4755255  46.5433013  76.2583627  47.2209365  46.0315896
  74.8391214  45.5248209  45.8803811  74.1746995  44.9277332  46.3516870
  75.1098020  45.2790052  44.4874807  76.0305659  45.7796215  44.1880204
  75.2685112  43.8120834  44.2596725  74.3091102  43.4234504  43.9181855
  76.0143876  43.6765434  43.4764756  75.7037325  43.0610937  45.5095916
  76.4350362  43.6752592  46.0350404  74.8268427  42.9206097  46.1415968
  76.4312554  41.4591017  45.1441025  76.0522862  41.2305844  43.3838945
  76.5042543  42.0372200  42.8066919  76.4527635  40.2745720  43.0466129
  74.9719218  41.2425286  43.2397717  74.0207247  45.7951858  43.5832765
  74.1129118  45.6775196  42.3578598  73.0113251  46.4148913  44.1798588
  72.9378886  46.4082136  45.1871631  71.9805355  47.1216699  43.4121572
  72.2630656  47.0268266  42.3636913  71.0485448  46.5840988  43.5868283
  71.7706047  48.6013274  43.7392838  70.7942640  49.1987320  43.3005634
  72.5694496  49.1494797  44.6418562  73.1543363  48.5905781  45.2465345
  72.5941400  50.5776786  44.8000215  71.6571464  50.9793628  44.4142858
  72.7615314  51.0361553  46.2661147  72.3618498  52.0490810  46.3144411
  72.1386122  50.3713893  46.8645776  74.1995334  51.0253422  46.8166618
  74.8610100  50.6667122  46.0280338  74.4690528  52.0484103  47.0789459
  74.3426811  50.1259983  48.0524738  73.8184994  49.1957955  47.8332587
  75.4060871  49.9222984  48.1780661  73.8212254  50.6734972  49.2998302
  73.3731342  51.5780438  49.2665254  73.8968550  50.0433205  50.4734142
  73.4040758  50.6207664  51.5747197  72.9756722  51.5334006  51.5141462
  73.4626404  50.1415180  52.4618447  74.4567924  48.8294429  50.5543592
  74.8234769  48.3893331  49.7225263  74.5098313  48.3596385  51.4468666
  73.7307304  50.9765158  43.9617739  74.5793056  50.1772660  43.6554491
  73.6162355  52.1474390  43.4128023  72.8604357  52.7687777  43.6634101
  74.5619544  52.5933752  42.4722819  75.5757404  52.3724009  42.8062095
  74.3146897  51.8709585  41.1727357  75.1960134  51.9230372  40.5334740
  74.0722241  50.8271274  41.3720527  73.1890080  52.4246365  40.3877795
  73.3504696  53.5288236  39.6139539  74.3098418  54.0452037  39.5814508
  72.2979941  53.9926060  38.8714431  72.4602689  54.8526744  38.2217894
  71.0496449  53.3958683  38.9314456  70.2144986  53.7824727  38.3473501
  70.8758777  52.3231998  39.7259147  69.8965577  51.8542644  39.8214762
  71.9589900  51.8153953  40.4267909  71.8451687  50.9123490  41.0265008
  74.4088313  54.0596686  42.2360487  73.3108969  54.6013901  42.3569115
  75.4379752  54.6592254  41.6919573  76.2344711  54.1387461  41.3531432
  75.4481853  56.0633385  41.5530786  74.4950625  56.5095650  41.8368709
  76.5343884  56.6477509  42.4269367  76.1129682  56.8598259  43.4095503
  77.7112329  55.6786789  42.5748504  78.1334954  55.4664794  41.5926257
  78.4753900  56.1283663  43.2088412  77.3635077  54.7505660  43.0284959
  76.9746472  57.8706991  41.8751943  77.6644973  58.2421002  42.4299631
  75.7297893  56.3132109  40.1208464  76.7762109  55.9605085  39.6512786
  74.8128873  56.9295554  39.4010436  73.8424231  56.9701926  39.6778959
  75.2140114  57.6185681  38.1714758  75.6343515  56.8882149  37.4801020
  74.0573547  58.3110215  37.4963281  73.3163180  58.4826030  38.2770481
  74.3979488  59.2686628  37.1026037  73.4330918  57.4966823  36.3763583
  74.1588022  57.3601627  35.5746054  73.0239129  56.1671980  36.9065112
  72.2978093  56.3028938  37.7080466  72.5751564  55.5787759  36.1062126
  73.8987397  55.6450683  37.2940147  72.2338813  58.1809033  35.7473670
  72.5399240  59.1399921  35.3295321  71.8306277  57.5515960  34.9539817
  71.4683195  58.3433857  36.5060590  76.2041240  58.6653257  38.5230931
  76.1475950  59.1705979  39.6282308  77.0821533  59.0150826  37.5776061
  76.9645746  58.6445094  36.6454312  78.2296930  59.9086006  37.8364638
  77.9318886  60.7159642  38.5054749  79.3587059  59.1265510  38.4907704
  78.9134508  58.2539762  38.9687457  80.0304015  58.8017441  37.6961475
  80.1359388  59.9181985  39.5136924  81.1989364  59.8146817  39.2959284
  79.8489149  60.9664229  39.4303560  79.8609732  59.4327730  40.9112879
  80.2788546  60.1501983  41.6175280  78.7819086  59.3711323  41.0524241
  80.4496529  58.1063143  41.1805767  79.9354009  57.3047409  40.8442369
  81.5944789  57.8979821  41.8507649  82.3333709  58.9308181  42.2815053
  82.0276913  59.8764086  42.1011761  83.1921992  58.7584280  42.7842928
  82.0231067  56.6474971  42.0775169  81.4822113  55.8630150  41.7426737
  82.8848255  56.4959990  42.5820837  78.6752467  60.4855455  36.4939764
  78.6709594  59.7914303  35.5059057  78.8495774  61.7901379  36.4027321
  78.7227558  62.3909221  37.2046510  79.1835222  62.4148288  35.1044574
  79.7389283  61.7016009  34.4954178  77.9044195  62.8431853  34.3268167
  77.2285021  61.9978143  34.1980424  77.4340510  63.5895614  34.9669544
  78.2176260  63.4756103  32.9338895  78.5994696  62.7521741  31.9722052
  78.0069497  64.6922645  32.7819945  80.0810307  63.6031514  35.3837292
  79.8809239  64.3078043  36.3941161  81.0981402  63.8068244  34.5397176
  81.1369829  63.3324540  33.6488959  82.1551933  64.7689156  34.8609284
  82.9840036  64.6539797  34.1623854  81.6214437  66.2101794  34.7585422
  80.7793213  66.2632338  35.4485526  82.4268603  66.8499766  35.1191855
  81.1775060  66.6818187  33.3780956  82.0878560  66.9444891  32.8392376
  80.6765756  65.8606363  32.8654288  80.2387488  67.9053853  33.4282829
  80.2401263  68.6805024  32.4562780  79.5249352  68.1184929  34.4439177
  82.5944345  64.5426520  36.3263082  82.7300804  65.5063536  37.0833852
  82.6120080  63.2892346  36.7842307  82.2233173  62.5361505  36.2347917
  83.1933748  62.9675312  38.0931480  83.3060462  61.8841295  38.1337084
  84.1768636  63.4361544  38.1283819  82.3794993  63.4283311  39.3013268
  82.5287235  62.8590412  40.3978678  81.4302223  64.3504187  39.0752881
  81.4427161  64.8873974  38.2199536  80.3320695  64.5864663  40.0342203
  80.7558790  64.8614646  41.0000674  79.4099501  65.6957804  39.5773143
  79.3176003  65.6120874  38.4944633  78.4387838  65.5177803  40.0391065
  79.8859661  67.0676932  39.9319029  79.0578549  67.6401429  40.3497955
  80.6844108  66.9929743  40.6701476  80.4096916  67.7686182  38.6887337
  81.4987099  67.7243465  38.7020842  80.0357769  67.2393162  37.8123053
  79.9609717  69.2256377  38.6322573  80.5424130  69.7261996  37.8580066
  78.9054693  69.2415520  38.3606682  80.1511258  69.9359436  39.9363539
  81.1291744  69.9216851  40.1879833  79.8403860  70.8927882  39.8469716
  79.6120940  69.4725234  40.6538395  79.4583997  63.3898604  40.2041657
  79.2260555  62.6312933  39.2714663  78.7888552  63.3737512  41.3354462
  79.1077865  63.9260262  42.1186285  77.6208879  62.5107723  41.5242872
  77.6997662  61.6433727  40.8689282  77.5268743  62.0183984  42.9858600
  77.2591104  62.8658055  43.6169733  76.5021854  60.9361881  43.1420986
  76.7695397  60.0881992  42.5115939  76.4662110  60.6167966  44.1836331
  75.5244043  61.3152683  42.8448734  78.8146901  61.4963697  43.3846715
  78.7675267  61.1872861  44.2923296  76.3464275  63.2210431  41.1194317
  75.9762818  64.2372782  41.6842533  75.6631239  62.6222969  40.1742041
  75.9228855  61.6893848  39.8873272  74.5956397  63.2634907  39.4922238
  74.4094532  64.2798102  39.8393957  74.9230897  63.2875256  38.0224606
  75.9908590  63.4681702  37.8986194  74.5533978  61.9524713  37.3730896
  73.4856176  61.7713415  37.4961269  74.7958485  61.9850213  36.3108943
  75.1149657  61.1485440  37.8489485  74.2219128  64.4578805  37.3498407
  73.1473726  64.3273886  37.4780437  74.5382577  65.3738281  37.8489052
  74.5470233  64.5501590  35.8701604  74.2305242  63.6346940  35.3703084
  74.0229486  65.4010140  35.4348551  75.6214104  64.6811312  35.7411699
  73.2061892  62.5825837  39.7256735  72.1626402  63.1514594  39.3518234
  73.2077108  61.3770252  40.3341047  74.1054127  60.9458093  40.5022819
  71.9823590  60.6487518  40.7664665  71.3265192  61.3124033  41.3299734
  71.2265867  60.1296761  39.5630532  71.8673382  59.4564020  38.9936328
  70.3389614  59.5913137  39.8952993  70.9281713  60.9667984  38.9319639
  72.3492625  59.4558147  41.6645488  73.4613297  58.9473293  41.6304134
  71.3859823  58.9527276  42.4164973  70.5763285  59.4983212  42.6751239
  71.5527863  57.6289659  43.0200595  72.2135785  57.0564686  42.3691372
  72.1401369  57.6735347  44.4288756  71.6232558  56.9607622  45.0714405
  73.6055764  57.3079501  44.3474818  74.1232454  58.0205970  43.7054118
  74.0431304  57.3343185  45.3454557  73.7079116  56.3051058  43.9328374
  72.0112922  59.0541136  45.0339887  72.8125729  59.1730417  45.7633077
  72.1395740  59.7813125  44.2322250  70.7004747  59.2756469  45.6981803
  70.5716714  58.5490639  46.5004189  70.6682699  60.2832602  46.1126406
  69.8986719  59.1573324  44.9693361  70.3050413  56.7910010  43.0130464
  69.1881318  57.3043819  43.1389837  70.5091876  55.4896581  42.8378127
  71.3740069  55.0758818  43.1555802  69.5180172  54.6210739  42.1944436
  68.5244131  55.0336334  42.3695000  69.7169019  54.5961147  41.1230327
  69.5680198  53.2030004  42.7400342  70.6600086  52.6318606  42.8372086
  68.4176624  52.6891306  43.2177932  67.6214257  53.2971170  43.3460860
  68.2698383  51.2711688  43.5535897  69.2305009  50.8743109  43.8818126
  67.2367431  51.0680487  44.6887270  66.2993575  51.4637405  44.2977852
  67.1522133  49.9881112  44.8099276  67.5411030  51.7233815  46.0700894
  68.1922972  51.0242660  46.5947650  68.0921043  52.6380444  45.8512480
  66.3014044  52.0626980  46.9736201  66.5461270  51.7277802  47.9816082
  66.1955622  53.1475291  46.9674332  64.9550618  51.4044343  46.5174968
  64.8024880  51.7617658  45.4990980  65.1615131  50.3343175  46.4994125
  63.7176368  51.6615066  47.3284655  63.5259147  52.6530051  47.3449904
  62.9361118  51.1743293  46.9137645  63.8586517  51.3300807  48.2720600
  67.7869025  50.6340533  42.2480547  67.1112693  51.3025925  41.4427938
  68.2295395  49.3991481  41.9761194  68.9264367  48.9540927  42.5560843
  67.7828520  48.7042926  40.7784600  67.3580511  49.3900599  40.0454071
  68.8494787  47.8262746  40.0754929  69.0429976  48.2707324  39.0992209
  70.1513939  47.7113466  40.8453787  69.9587354  47.2665144  41.8216512
  70.8476232  47.0820688  40.2909647  70.5846877  48.7027561  40.9775353
  68.2991236  46.4509728  39.7341786  67.4441017  46.5566706  39.0664455
  69.0727677  45.8612472  39.2424488  67.9853113  45.9474554  40.6485597
  66.5890280  47.8869315  41.1474549  66.4839294  47.3400042  42.2605424
  65.6514043  47.8530973  40.2233597  65.8382223  48.2176538  39.3001604
  64.3287407  47.3290540  40.5005394  64.2018389  47.1632646  41.5703566
  63.2825790  48.3350215  40.0362181  63.4985620  48.4835823  38.9782105
  62.2791029  47.9242188  40.1474694  63.3674733  49.6673787  40.7621465
  64.4098071  49.9817858  40.8149595  62.5575803  50.7192299  40.0163439
  61.5149770  50.4057217  39.9635265  62.6240107  51.6709211  40.5435741
  62.9531702  50.8350804  39.0072910  62.9020458  49.5004547  42.2104872
  63.5387048  48.7742516  42.7158522  62.9651815  50.4589223  42.7257105
  61.8702910  49.1491332  42.2229092  64.1221038  46.0033281  39.8019744
  63.9881776  44.9884943  40.4520107  64.0705615  46.0414145  38.4659775
  64.1389238  46.9363223  38.0027647  63.8988057  44.8421360  37.6396144
  63.6683185  43.9922680  38.2820311  62.7505843  45.0159070  36.6194633
  62.1327960  45.8427870  36.9697580  63.2064337  45.2822066  35.6658460
  61.8746982  43.7626034  36.4370829  62.5361342  42.8968577  36.4041036
  61.2196086  43.6858462  37.3048778  61.0250191  43.8071322  35.1562329
  60.7824617  44.8494735  34.9493768  61.6254236  43.4054575  34.3399784
  59.7319124  42.9984141  35.2838376  59.2628913  42.9313978  34.3021917
  59.9788474  41.9972390  35.6370666  58.7907506  43.6436181  36.2401468
  58.5614707  44.5711809  35.9127974  57.9473421  43.0919213  36.3064249
  59.2250033  43.7054262  37.1499288  65.1983558  44.5814090  36.9116584
  66.2379117  45.1561464  37.2358490  65.1507627  43.6730854  35.9577694
  64.3359962  43.0827741  35.8695232  66.2409494  43.4755725  35.0354789
  66.8337343  44.3867031  34.9545700  67.1612426  42.3266008  35.5439013
  66.5482631  41.4601811  35.2955620  68.0442048  42.3414967  34.9049523
  67.6036646  42.2398806  37.0426059  67.5264342  43.2455782  37.4557747
  66.7655795  41.2644159  37.9013794  66.8426951  40.2583580  37.4890694
  67.1403176  41.2667479  38.9249353  65.7221564  41.5796028  37.8963043
  69.0799901  41.8636030  37.1087151  69.6720226  42.6217934  36.5961291
  69.3934127  41.8018221  38.1508526  69.2312758  40.8978576  36.6264833
  65.5768408  43.1342250  33.6906285  64.7353440  42.2632978  33.6178822
  65.8681613  43.8866378  32.6506856  66.6187687  44.5613346  32.6890522
  65.0230921  43.8609837  31.4654970  64.1264080  43.2566481  31.6027387
  64.5992428  45.2992952  31.1303228  65.5021257  45.8921868  30.9840997
  63.7362358  45.3710483  29.8764024  62.8328832  44.7787292  30.0220494
  63.4626824  46.4080678  29.6818270  64.2949772  44.9777418  29.0271559
  63.8516626  45.8733035  32.3216264  64.5036704  45.8725176  33.1951178
  63.5434422  46.8950286  32.0998659  62.9706888  45.2648247  32.5259292
  65.7491442  43.1188197  30.3254010  67.0020693  43.1622707  30.2591540
  64.9746262  42.3913980  29.4567213  64.4198871  42.9457382  28.1996992
  64.8252823  43.9447034  28.0390028  63.3345213  43.0035264  28.2818009
  64.8724806  41.9476043  27.1285223  65.4638841  42.4795014  26.3832529
  63.9893097  41.5204670  26.6534811  65.6835566  40.8797155  27.8144050
  66.7548033  41.0723062  27.7557666  65.4703161  39.8896796  27.4113455
  65.2165047  40.9622977  29.2787768  64.2580942  40.4620516  29.4177066
  66.2437465  40.3626444  30.2294855  65.8595631  39.8300974  31.2670753
  67.4460406  40.4783975  30.0024763  47.4602768  40.1545592  66.5828928
  48.2381883  39.5114499  66.5459445  46.9953820  40.1535284  65.6862479
  46.9324638  39.9774906  67.4256025  48.0067570  41.5349699  66.7423722
  47.6942531  42.1588697  65.9050016  47.4804502  42.1661919  68.0523378
  47.5246005  41.4361110  68.8605036  48.1228957  43.0131945  68.2930665
  46.0197326  42.6732303  67.9213982  45.7622050  43.7368536  67.3460183
  45.0650617  41.8960798  68.4304143  44.0986246  42.1831631  68.3697315
  45.3120390  41.0233187  68.8747014  49.5415231  41.5726914  66.6224426
  50.1664539  40.5629061  66.2242100  50.1045052  42.7787362  66.7642809
  49.5347408  43.5326986  67.1206634  51.4858761  43.0844732  66.3422675
  52.0487226  42.1575360  66.2323107  51.4951971  43.8379000  64.9773257
  52.2680832  43.3360643  64.3951684  50.5503763  43.7997659  64.4351454
  51.8945681  45.3104766  65.0565285  51.2338244  46.1908897  65.9070058
  50.4320727  45.8156714  66.5430132  51.5853205  47.5353851  65.9518540
  51.0998153  48.1972323  66.6690316  52.5466443  48.0340057  65.0913826
  52.8000759  49.0940065  65.1078321  53.1869765  47.1834468  64.2083462
  53.9557084  47.5679047  63.5380153  52.8482552  45.8358862  64.1770038
  53.3276793  45.1699702  63.4595024  52.2067358  43.8830453  67.4457012
  51.5512433  44.3922269  68.3643010  53.5430876  43.9198995  67.3859713
  54.0246657  43.5187855  66.5939552  54.3471435  44.4417834  68.4982978
  53.8809467  44.1522975  69.4400821  55.7713727  43.9047869  68.4752533
  55.6976692  42.8232026  68.3619282  56.3018155  44.3238668  67.6202080
  56.5328175  44.2303881  69.7542274  55.9279745  44.1608205  70.8548986
  57.7251566  44.5854629  69.6576333  54.3586979  45.9781377  68.5368351
  55.0258097  46.6477160  67.7308223  53.6314665  46.5208810  69.5098054
  53.1694219  45.9254457  70.1821676  53.3886030  47.9852678  69.5814066
  53.1377288  48.3876550  68.5999557  52.2425702  48.3490824  70.5776765
  51.5564230  49.0256081  70.0681519  51.4691236  47.1055514  71.0688030
  52.1545709  46.4287282  71.5788736  50.6838480  47.4145112  71.7587199
  51.0223683  46.5946257  70.2158874  52.7761151  49.0612889  71.7014121
  52.0651843  49.2806712  72.3080825  54.6227929  48.8437732  69.9305020
  54.5789662  50.0643627  69.8338857  55.7146855  48.1991872  70.3436949
  55.6797506  47.2000326  70.4871133  56.9736465  48.9046404  70.6438067
  56.7578494  49.8928268  71.0500314  57.7900567  48.1179689  71.6763396
  58.8258018  48.4546459  71.6318442  57.3852586  48.3197278  72.6680714
  57.7347170  46.7243138  71.4179528  58.2525174  46.2559178  72.0768062
  57.8357904  49.1319858  69.3893973  58.7362502  49.9640397  69.4020667
  57.5001207  48.4162218  68.3194362  56.7381185  47.7564009  68.3833760
  58.2820959  48.4587699  67.0765567  59.3153524  48.3054976  67.3879852
  57.8760914  47.3068216  66.1249563  57.9597156  46.3549930  66.6494833
  56.8465935  47.4512892  65.7972930  58.7993856  47.3008194  64.9112363
  58.7159593  48.2522207  64.3859017  60.2397682  47.0980615  65.3692911
  60.3240854  46.1465829  65.8943415  60.9001468  47.0936939  64.5021223
  60.5260558  47.9087798  66.0392730  58.3995016  46.1662399  63.9739813
  57.3700045  46.3107095  63.6463173  59.0591507  46.1615003  63.1062591
  58.4831237  45.2144110  64.4985078  58.2206166  49.8279867  66.3434819
  59.2497130  50.3422914  65.8760460  57.0192639  50.4152889  66.2328797
  55.6934682  49.8894593  66.5853255  55.4628810  50.1416317  67.6203805
  55.6855578  48.8061027  66.4654299  54.7871105  50.5800598  65.6080720
  53.7955587  50.6932592  66.0463757  54.7150109  49.9883307  64.6955153
  55.4151955  51.9017419  65.3359989  55.1080566  52.6007116  66.1139488
  55.1641999  52.3135963  64.3585140  56.9228397  51.6524509  65.4261817
  57.3882671  51.4624555  64.4590327  57.6130009  52.8401486  66.0987571
  58.1450718  53.6912680  65.4057742  57.6194719  52.8816789  67.4328150
  57.1643088  52.1439271  67.9511278  58.2153454  53.9853206  68.1788303
  57.9660665  54.9423586  67.7205318  57.6975022  53.9854183  69.6360219
  56.6082797  54.0205528  69.6145725  58.1544486  52.7316063  70.3989875
  59.2436398  52.6960242  70.4212585  57.7716530  52.7666799  71.4189563
  57.7725289  51.8417901  69.8985227  58.1739090  55.1463230  70.3158203
  57.8506200  55.1430492  71.2197417  59.7648305  53.9661988  68.2022261
  60.4088000  54.9792435  68.5141262  60.3403870  52.8107949  67.8832487
  59.7574901  51.9957035  67.7569295  61.7958222  52.6415390  67.8188528
  62.2825580  53.4101847  68.4191621  62.2054832  51.2625107  68.3605268
  63.2162070  51.0439033  68.0159292  62.1944302  51.3035445  69.4496981
  61.3284331  50.2480193  67.9192113  61.6123595  49.4026470  68.2746423
  62.3735468  52.8742237  66.4139737  63.5752841  52.7000760  66.2036379
  61.5122275  53.2278576  65.4567709  60.5282001  53.1224909  65.6584814
  61.9051172  53.6587314  64.1059946  61.0480956  53.5934360  63.4356591
  62.3949506  55.0814154  64.1230342  63.2297053  55.1383703  64.8216328
  62.7178846  55.4313488  63.1425444  61.3754893  56.0433571  64.6016329
  60.6365168  56.8226225  63.7439900  60.7266741  56.8174929  62.7380352
  59.8024588  57.5670891  64.4438197  59.1382343  58.2727741  63.9449075
  59.9568226  57.2788649  65.7228618  60.9259851  56.3175837  65.8469327
  61.1882650  55.9320732  66.8321698  62.9234661  52.7775296  63.4362709
  63.9321513  53.2520217  62.8910704  62.6297864  51.4813507  63.4378099
  61.7593904  51.1599387  63.8368142  63.5750023  50.4858510  62.9491870
  64.5390836  50.6416100  63.4333209  63.1092092  49.0379560  63.2298410
  63.1842244  48.4594730  62.3090639  63.9751301  48.3887443  64.3116738
  63.9002558  48.9664484  65.2329509  63.6292165  47.3710249  64.4924780
  65.0135950  48.3656682  63.9812820  61.7471836  49.0392620  63.6662175
  61.4654487  48.1378118  63.8383026  63.8539912  50.6576735  61.4482572
  64.8981734  50.2200569  60.9639060  62.9319894  51.3107917  60.7385880
  62.0977279  51.6056454  61.2255872  63.0422635  51.6065719  59.3079421
  63.2251973  50.6932759  58.7417928  61.7285008  52.2276647  58.8238426
  61.7971755  52.2874051  57.7376501  60.9150813  51.5565364  59.0995882
  61.4568621  53.6141639  59.3919582  60.8190613  53.7820871  60.6229402
  60.5106672  52.8980099  61.1809724  60.5782223  55.0364514  61.1336388
  60.0967949  55.1563508  62.1041817  60.9398114  56.1492665  60.4000069
  60.6993979  57.4100574  60.8841438  60.2740492  57.4065995  61.7447635
  61.5581832  56.0162841  59.1785983  61.8402106  56.8979877  58.6031334
  61.8208334  54.7569200  58.6833035  62.3213739  54.6429113  57.7217624
  64.1896302  52.5727247  58.9514266  64.4098417  52.8749399  57.7705452
  64.8795823  53.0786641  59.9695560  64.6667230  52.7721481  60.9080857
  65.9067258  54.0651069  59.7925194  65.7390184  54.6402555  58.8819276
  65.8708980  55.0089123  60.9737496  65.3401214  54.4625595  61.7534123
  66.9017170  55.1766338  61.2858102  65.1930083  56.3386898  60.7405795
  64.1229829  56.1921183  60.5933952  65.4224890  57.2188953  61.9716242
  66.4923452  57.3663059  62.1191930  64.9402020  58.1850466  61.8231264
  64.9985692  56.7330316  62.8504467  65.7268913  57.0346410  59.4877104
  65.5501062  56.4028426  58.6172638  65.2145512  57.9874610  59.3545079
  66.7970555  57.2103277  59.5971713  67.2786712  53.4235491  59.6852469
  68.2542524  54.0576130  59.3523243  67.3585581  52.1674623  60.0503043
  66.5338387  51.6275472  60.2703702  68.6457237  51.5208886  60.1466225
  68.7000813  50.7737532  59.3548314  69.4099857  52.2804016  59.9818713
  68.8983075  50.8512522  61.4696593  68.3275895  51.1712179  62.4972526
  69.7872672  49.8704796  61.4472632  70.4985309  49.8256113  60.7315886
  69.7269650  48.8041072  62.4213431  68.6912072  48.4756736  62.5075768
  70.5745500  47.6266821  61.9280999  71.6160157  47.9375085  61.8454193
  70.4973727  46.8011804  62.6356951  70.2140392  47.3026199  60.9518239
  70.1958765  49.2308005  63.8083384  69.5279657  49.0131674  64.8270337
  71.3815189  49.8256583  63.8358020  71.9631498  49.8130063  63.0101842
  71.8990796  50.4604072  65.0309717  71.1049694  50.5139333  65.7757020
  73.0503856  49.5933144  65.5967646  72.6808169  48.5894739  65.8061026
  73.8571303  49.5378465  64.8658841  73.5744302  50.2215720  66.8861051
  73.0313481  49.8613312  67.9644789  74.5128237  51.0557372  66.7803427
  72.4051868  51.9054674  64.7762550  73.0661511  52.1872549  63.7806889
  72.0408063  52.8076574  65.6810612  71.3696343  52.5667408  66.3963141
  72.6326387  54.1024789  65.7191337  73.2998395  54.2335610  64.8672183
  71.5511247  55.1708897  65.6585637  71.3269734  55.4613045  66.6849723
  71.9696294  56.0233192  65.1234771  70.2763046  54.7191836  64.9713138
  70.5427735  53.9590396  64.2369595  69.6252522  54.2806259  65.7275545
  69.4019018  56.0638055  64.1429897  68.1522640  55.0272575  63.3808613
  67.5918899  54.5037267  64.1554549  67.4718501  55.6472024  62.7970754
  68.6325322  54.3000053  62.7262255  73.3208577  54.2236652  67.0551121
  72.9127495  53.5829122  68.0072557  74.3498220  55.0555337  67.1391436
  74.7363144  55.4580425  66.2972946  74.9774841  55.3996043  68.4326789
  75.3216411  54.4969030  68.9374417  76.1880242  56.3496019  68.2357571
  76.9419954  55.8559271  67.6226406  75.8574940  57.2620986  67.7395721
  76.7808300  56.6949430  69.5809043  76.0275302  57.1890993  70.1944593
  77.1120335  55.7829291  70.0775270  77.9723690  57.6300325  69.3870740
  77.7388615  58.8682066  69.3876009  79.1047118  57.0972414  69.2403306
  73.9370889  56.0685951  69.3324646  73.2348477  56.9692716  68.9321707
  73.8449364  55.6071182  70.5774597  74.4454138  54.8515795  70.8752642
  72.8046039  56.0750102  71.5016650  72.1170460  56.7338041  70.9712369
  72.0062419  54.8959582  72.0817843  72.6296820  54.4373741  72.8493273
  71.1117901  55.3145251  72.5431493  71.5975677  53.8263098  71.0434338
  70.6570053  53.3858535  71.3742530  71.4395051  54.3561803  70.1040975
  72.6484347  52.7037613  70.8332754  73.4301867  52.4247690  71.7785754
  72.6926120  52.0792852  69.7307601  73.4194883  56.9632183  72.5787814
  74.5941703  56.8007919  72.9865877  72.6247544  57.9095975  73.0580052
  71.6631072  57.9626759  72.7538396  73.1027677  58.9001495  74.0238515
  74.1055126  58.6367035  74.3603007  73.1514617  60.2816844  73.3831300
  72.1591039  60.3956727  72.9468596  73.3578289  61.1260596  74.0408101
  74.1161625  60.3691563  72.2676324  73.8760126  59.6733784  71.1131164
  72.9488077  59.1118622  70.9987028  74.7764776  59.6824619  70.1281792
  74.5709590  59.1631136  69.1921556  75.9805073  60.3576279  70.2990809
  76.7119528  60.3414101  69.4911055  76.2547838  61.0351510  71.4579718
  77.1843100  61.5885190  71.5916318  75.3375716  61.0053651  72.4499050
  75.5524612  61.4837769  73.4054386  72.1477135  58.9068197  75.2004573
  70.9764617  59.2576080  75.0526511  72.6719391  58.4972977  76.3678657
  73.6023087  58.1042399  76.3720352  71.9205747  58.5055492  77.6147924
  70.9148616  58.1276679  77.4308195  72.5986045  57.6079915  78.6636077
  72.6578483  56.5874079  78.2854561  73.6034578  57.9791334  78.8651608
  71.8899466  57.5349225  79.9949853  72.3756328  56.7668230  81.0467603
  73.2136599  56.2032497  81.0327793  71.5493226  56.9032689  82.0670520
  71.7469677  56.3794307  83.0022680  70.5753380  57.7086338  81.7223185
  70.7484309  58.1254163  80.4393801  70.0271855  58.8047254  79.9850174
  71.7540808  59.9719438  78.0988468  72.6568553  60.5616635  78.7328492
  70.5919723  60.5263187  77.7936432  70.0248360  60.1519619  77.0464399
  70.0965667  61.6878900  78.5218488  69.0223103  61.7302719  78.3421931
  70.2803002  61.4919131  79.5782268  70.7137609  63.0290172  78.1523167
  70.5615852  63.5156415  77.0250725  71.5331196  63.5883400  79.0434257
  72.5106251  63.6048531  78.7898320  71.1276425  64.2047156  80.3441299
  70.2094421  63.7702527  80.7394135  72.2656779  63.8966097  81.3074445
  72.1412664  64.5365225  82.1810191  72.1719326  62.8525491  81.6061907
  73.6664340  64.1328389  80.6901317  74.2887678  64.5189678  81.4974148
  74.0310056  63.1507617  80.3889441  73.7305507  65.1040100  79.4764872
  73.3884530  64.5949930  78.5753935  73.1004704  65.9735961  79.6633517
  75.0929247  65.5538631  79.2670784  75.5976749  65.1719966  78.4799923
  75.7083337  66.4393119  80.0469791  76.9928453  66.7104046  79.8453269
  77.4937644  66.2437812  79.1027351  77.4627914  67.3819246  80.4355060
  75.0421586  67.0621196  81.0295321  74.0644609  66.8585999  81.1804857
  75.5209829  67.7320363  81.6143720  70.8847541  65.7151743  80.5334230
  70.8737426  66.1963405  81.6670397  70.8029295  66.4570834  79.4526586
  70.6360650  66.0369543  78.5494714  71.0208627  67.9092981  79.5161220
  71.5406639  68.1678649  80.4386453  71.8651958  68.4356930  78.2994109
  72.8647273  68.6719531  78.6644017  71.9675298  67.3950875  77.1385935
  70.9683485  67.1586673  76.7727494  72.5617713  67.8134668  76.3262297
  72.4439664  66.4860818  77.5057684  71.2789232  69.6405859  77.7824995
  71.7990921  69.9566020  77.0400990  69.6823134  68.6460492  79.5840893
  68.9506728  68.6758417  78.5882196  69.3434690  69.2028366  80.7623382
  69.7582663  68.8576283  81.6160793  68.2755149  70.2075810  80.8631520
  67.9374936  70.4770575  79.8625405  67.0650781  69.6674174  81.6660219
  67.5604463  69.1331537  82.4767449  66.4592634  70.4736278  82.0796806
  66.1464471  68.6784303  80.8748856  66.0471339  69.0456248  79.8534132
  66.7262788  67.2536369  80.8531624  66.8254576  66.8855648  81.8743310
  66.0588488  66.5976759  80.2942769  67.7059397  67.2667357  80.3754664
  64.6720811  68.6551249  81.3431514  64.2384088  69.6486352  81.2292875
  64.1098730  67.9425010  80.7396695  64.6277399  68.3577963  82.3908768
  68.8173307  71.5096475  81.4144202  69.6677084  71.5044689  82.2736530
  68.3565366  72.6352096  80.8446337  67.5674857  72.5518850  80.2196898
  68.8222803  73.9699535  81.1944318  69.8484758  73.8952923  81.5542202
  68.7865858  74.9612955  79.9955140  67.8374922  75.3614120  79.6388245
  69.3593637  75.7566741  80.4723770  69.5578385  74.5460269  78.7843037
  70.8932249  74.2004348  78.8366801  71.4332491  74.1121174  79.6856051
  71.3413025  74.0068467  77.6050328  72.3608762  73.6616616  77.4335228
  70.3696997  74.2991203  76.7562849  69.2577729  74.6866379  77.4683789
  68.3644327  75.0241997  76.9429300  67.8072471  74.5770296  82.1532458
  66.5876056  74.4895875  81.9118468  68.3015624  75.1946520  83.2082144
  69.2985573  75.2945612  83.3351740  67.4158138  75.6210311  84.2967167
  66.6605541  74.8538217  84.4672209  68.1981230  75.8451199  85.6115504
  69.2260300  76.0560300  85.3165532  67.7870545  76.7075066  86.1363473
  68.1727239  74.6077975  86.5502486  67.1547317  74.3917211  87.2556732
  69.1910805  73.8878819  86.6023779  66.5664543  76.8594425  83.9037238
  66.9223013  77.6240331  82.9799532  65.4295596  77.0050217  84.5786780
  65.2718192  76.4960621  85.4366858  64.3227867  77.7606816  84.0112964
  64.2109905  77.5281597  82.9522713  63.0333740  77.3928048  84.7282765
  62.8612617  78.0548423  85.5769125  62.2459209  77.5385877  83.9888408
  63.0216356  75.9265928  85.2094642  64.1115691  75.3917603  85.5368006
  61.9223647  75.3384959  85.3230014  64.5955540  79.2844486  83.9624990
  65.3891308  79.8714759  84.7369387  63.9574776  79.8996850  82.9867820
  63.5050217  79.2929228  82.3180349  64.0225856  81.3558773  82.6870339
  63.3786686  81.5693011  81.8338514  63.5613506  82.2272110  83.8871722
  64.0564660  81.9170925  84.8073822  63.8847782  83.2339566  83.6226768
  61.9888396  82.2167266  84.1034058  61.2872738  81.5005457  83.3651508
  61.4713157  82.8630905  85.0676858  65.3623563  81.8108420  82.1035970
  65.5086234  82.9707277  81.7255123  66.2981000  80.8641063  81.9405711
  66.0943914  79.9209233  82.2389131  67.6246191  81.1505115  81.4175252
  68.0935705  81.9397786  82.0050974  68.5105136  79.8884183  81.4907083
  69.5202401  80.1688227  81.1908332  68.5214181  79.5450964  82.5251700
  68.0449888  78.8547101  80.6590394  68.6256007  78.0943016  80.7382129
  67.5911180  81.6919267  79.9707826  66.5578184  81.6389985  79.2751596
  68.7182135  82.2910677  79.5484463  69.4286485  82.5608592  80.2137238
  68.8827530  82.6962593  78.1622347  67.9791602  82.4315707  77.6130908
  69.1250621  84.1854633  78.0077174  69.8455869  84.5663205  78.7315206
  69.4469079  84.4516242  77.0009038  67.5931237  85.0947834  78.3003613
  68.1092031  86.3043035  78.1013099  69.9481205  81.8758615  77.4939709
  71.1176600  81.9181679  77.8615148  69.5153175  81.1185264  76.4937159
  68.5449267  81.1809646  76.2206911  70.3736298  80.1960164  75.7756301
  71.3865685  80.2319930  76.1765790  69.8398046  78.7810027  75.9305524
  68.9730392  78.7036443  75.2741739  70.6247768  78.1134648  75.5751486
  69.4453707  78.3909025  77.3302483  68.8463523  79.1059853  77.8941050
  68.8631447  77.4855776  77.1584872  70.6442850  78.0389530  78.1328847
  70.8053457  76.8992373  78.5667793  71.5795893  78.9472025  78.1795699
  72.4225065  78.7729837  78.7080014  71.4564095  79.8203373  77.6870623
  70.4160407  80.5648521  74.2852222  69.4749197  81.1368241  73.7303391
  71.4897559  80.1547926  73.6425093  72.3495446  80.0045815  74.1507409
  71.5379578  80.1503307  72.1971060  70.6076124  80.4589388  71.7203275
  72.6717825  81.0415424  71.6806080  73.2592555  81.3648324  72.5399439
  73.5817317  80.3248354  70.6819892  72.9950138  80.0016334  69.8221034
  74.3660407  81.0055265  70.3509008  74.0336030  79.4558047  71.1602146
  72.0696118  82.3337753  71.1060773  71.5178610  82.8567464  71.8872140
  72.8696891  82.9747615  70.7357901  71.3936472  82.0875022  70.2872230
  71.4865376  78.7085812  71.6887181  72.2703192  77.8485288  72.0999591
  70.4769180  78.4210969  70.8941420  69.7498126  79.1030901  70.7319620
  70.3492386  77.0997706  70.2572403  71.2159851  76.4855609  70.5013636
  69.1012011  76.4371400  70.7802299  68.2381123  76.8872227  70.2897163
  69.1138930  74.9474276  70.5115130  69.9765047  74.4965427  71.0021293
  68.1997254  74.4996105  70.9012029  69.1746019  74.7719515  69.4374451
  69.0013844  76.6504449  72.2806830  69.8569304  76.1564743  72.7412641
  69.0590025  77.7231212  72.4654674  67.7163432  76.1014923  72.8802430
  67.6582374  75.0287061  72.6962504  67.7080109  76.2863512  73.9544204
  66.8603090  76.5953518  72.4204517  70.2965557  77.1995908  68.7198342
  69.6359937  78.0595278  68.1828359  71.0640075  76.3460439  68.0099009
  71.8584535  75.2383219  68.5731224  71.4052984  74.8824582  69.4983855
  72.8777128  75.5693386  68.7722142  71.7923082  74.2281551  67.4772836
  70.8829167  73.6322990  67.5551397  72.6607890  73.5701024  67.5057273
  71.7944842  75.0603863  66.2372370  71.3906361  74.4775643  65.4093938
  72.7737595  75.4517772  65.9616781  70.8676390  76.1884310  66.5648619
  71.0887345  77.1507932  66.1032625  69.4731702  75.7522209  66.1759257
  68.8976762  74.9596272  66.8723968  68.9445218  76.2579750  65.0781508
  69.4605938  76.9532116  64.5581363  67.6768246  75.7647512  64.5159391
  67.2130636  75.0031508  65.1428281  66.6739271  76.9285599  64.3279499
  67.0947471  77.6525738  63.6302295  65.3491403  76.4026425  63.7781846
  64.9274552  75.6788665  64.4756306  64.6532052  77.2318413  63.6508887
  65.5201971  75.9214477  62.8152242  66.4403693  77.7002221  65.6249319
  67.3842242  78.1187736  65.9742950  65.7300070  78.5072034  65.4453039
  66.0399398  77.0262449  66.3822375  67.9057444  75.2532827  63.1574854
  68.2731672  76.0742644  62.3172315  67.6079602  73.9624616  62.8947585
  67.2660885  73.3308483  63.6048907  67.7666516  73.4400180  61.4906592
  68.7280576  73.7990251  61.1233560  67.7200386  71.9152719  61.3326517
  66.6992132  71.7839485  60.9738077  68.4187148  71.7157690  60.5201554
  67.9833662  70.9480727  62.4761141  67.3761772  71.2532011  63.3283576
  67.6391673  69.5052416  62.0949953  68.2463327  69.1992253  61.2430546
  67.8420590  68.8474013  62.9400881  66.5837873  69.4407436  61.8302059
  69.4280826  71.0108019  62.9284551  69.6594364  72.0202926  63.2683128
  69.5839895  70.3078269  63.7467585  70.0816139  70.7494776  62.0961658
  66.7084193  73.9009225  60.5513247  65.5500802  73.7648849  60.8431691
  67.1081136  74.2631777  59.3795629  68.3113499  73.6718134  58.7999833
  68.1357147  72.6229759  58.5608336  69.1423465  73.7498639  59.5010196
  68.5176568  74.5299407  57.5554674  68.6727401  73.8778068  56.6959503
  69.3974218  75.1574236  57.6982264  67.2528289  75.3880181  57.3882112
  66.8843698  75.2674822  56.3694826  67.4006376  76.4474563  57.5975980
  66.2537801  74.7989606  58.3724606  65.6074340  75.5432225  58.8376587
  65.3712805  73.6933374  57.6903084  65.7058816  72.4495976  57.6313219
  64.2136291  74.1046241  57.2643781  63.9423453  75.0767530  57.3027159
  63.3023679  73.1465907  56.5940580  62.6358411  73.7077580  55.9391286
  64.0415556  72.0849270  55.7527871  64.4414949  71.3946071  56.4954890
  63.2455200  71.5941536  55.1928149  65.1402839  72.4966915  54.8071275
  64.9004102  73.4476576  54.3314964  66.0586713  72.6014132  55.3847951
  65.3659651  71.4462851  53.7150371  66.4825967  70.9472864  53.5223609
  64.2849417  71.0808392  53.0133992  64.3718485  70.3918051  52.2800640
  63.3879047  71.4960028  53.2209208  62.5468376  72.2925611  57.5608281
  61.7021540  71.5109889  57.1022197  62.9029062  72.2569491  58.8393917
  63.6888906  72.7569170  59.2297248  62.1160811  71.4305013  59.7166694
  61.7148096  70.5938892  59.1446898  62.9080261  70.8711729  60.9204143
  63.0023139  71.6456783  61.6815650  62.1810901  69.6775219  61.5028138
  62.0868216  68.9023575  60.7423307  62.7436284  69.2872241  62.3509405
  61.1887436  69.9824389  61.8350421  64.2985566  70.4541129  60.4903703
  64.8288536  71.3169057  60.0872875  64.8430285  70.0625323  61.3496227
  64.2262651  69.6822298  59.7241645  61.0174928  72.3097739  60.1816032
  61.2831784  73.3559304  60.7271054  59.7905555  71.9556130  59.8837607
  59.6021184  71.1175211  59.3525427  58.6735353  72.7641221  60.3037190
  59.0250572  73.4921418  61.0348270  58.0074883  73.5254257  59.1263884
  58.5442080  73.2481441  58.2191144  56.9770411  73.1764509  59.0593421
  58.0210202  75.0456636  59.2813446  56.9737959  75.3447017  59.2366426
  58.4070623  75.2251095  60.2847751  58.9808621  76.0370067  58.0819229
  60.5166573  75.1325225  57.8301170  60.2943288  74.1399929  57.4382573
  61.1437568  75.6710246  57.1195803  61.0431961  75.0380693  58.7798205
  57.6850889  71.8586448  60.9201803  57.1346643  71.0252658  60.2659608
  57.5118957  71.9888120  62.2220938  57.9587717  72.7556644  62.7041089
  56.7052899  71.0884141  62.9832762  55.7132516  71.0347961  62.5348519
  57.3064191  69.6629398  63.0259575  56.6018461  69.0152891  62.5042060
  58.2416939  69.7057304  62.4678088  57.5743836  69.1006603  64.4326301
  58.5367353  69.4879231  64.7673053  56.7870802  69.4661747  65.0919136
  57.6078557  67.2893971  64.4916925  56.3391961  66.9925063  65.7059716
  55.3941939  67.4057009  65.3533527  56.2298745  65.9194404  65.8630670
  56.6159957  67.4704231  66.6456943  56.6938707  71.7157701  64.3595498
  57.6474265  72.4333447  64.7293092  55.5914187  71.5914784  65.0775088
  54.7517573  71.1572766  64.7217886  55.5411313  72.2114568  66.3689247
  56.4040707  72.8729411  66.4455619  54.2681528  73.0179605  66.5504087
  53.4018350  72.3567929  66.5291712  54.3319243  73.7121945  67.8713316
  55.1977883  74.3739377  67.8931561  53.4242515  74.2973587  68.0190262
  54.4203399  72.9726448  68.6671633  54.1597897  74.0929189  65.4265413
  53.5961791  74.9222528  65.8539161  55.1794297  74.4166517  65.2176612
  53.4861329  73.6352285  64.1139268  52.4662323  73.3117632  64.3219482
  53.4666650  74.4643460  63.4066191  54.0494821  72.8061600  63.6856944
  55.7413739  71.0954659  67.3385990  54.9574111  70.1459685  67.3454615
  56.8603762  71.1120745  68.0422807  57.3967493  71.9613152  68.1480799
  57.3637267  69.8930650  68.6682593  56.8907825  69.0128247  68.2328285
  58.8578927  69.8071431  68.4311718  58.8986681  70.1360079  67.3927670
  59.3467906  70.5466207  69.0654050  59.5737495  68.4674171  68.5682714
  60.0343817  68.1944772  67.6188387  60.6570598  68.5970776  69.6419753
  60.1971095  68.8695652  70.5918674  61.1774367  67.6454939  69.7505896
  61.3691198  69.3686332  69.3491051  58.6374233  67.2757315  68.8360635
  57.9298228  67.1768276  68.0128873  59.2260881  66.3622262  68.9202254
  58.0922622  67.4429288  69.7650109  57.0560243  69.9201857  70.1688628
  57.1285705  70.9959078  70.7989168  56.6470830  68.7884395  70.7261190
  56.7120237  67.9117665  70.2287997  56.1443907  68.7716604  72.0865913
  56.0548281  69.7873250  72.4719523  54.8118839  68.0752633  72.1922503
  54.9207725  67.0306541  71.9006425  54.3179420  68.1516284  73.6328886
  54.2083593  69.1960013  73.9250830  53.3541278  67.6490831  73.7141971
  55.0377609  67.6644669  74.2906375  53.7922075  68.6851381  71.2270059
  53.2424345  69.4587692  71.7630519  54.3401068  69.1364586  70.3998327
  52.8134409  67.6508922  70.6834284  52.2648040  67.1994387  71.5100402
  52.1120938  68.1354278  70.0041371  53.3624770  66.8771265  70.1468227
  57.0902081  67.9961133  72.9732577  57.5729063  66.9357006  72.5873027
  57.3759653  68.5386227  74.1606179  57.2165895  69.9429912  74.5280529
  56.1610177  70.2119806  74.4891551  57.7760125  70.5673500  73.8314030
  57.7795513  69.9982190  75.9331842  57.1393102  70.6203418  76.5586070
  58.7836429  70.4215946  75.9076001  57.8089163  68.5782519  76.4201958
  56.8388691  68.2747365  76.8138781  58.5790163  68.3903691  77.1683572
  58.1130242  67.8126691  75.1712941  59.1714081  67.8754526  74.9183515
  57.7043834  66.3570777  75.2736776  56.5010083  66.0448003  75.3768733
  58.6904634  65.4631970  75.1835804  59.6388095  65.7762108  75.0327118
  58.4446789  64.0274039  75.2968644  59.3278078  63.5748626  75.7478510
  57.5887028  63.8891002  75.9573765  58.1639275  63.3496272  73.9830736
  58.2894126  62.1273198  73.8851496  57.7581642  64.1312197  72.9702719
  57.6840524  65.1288363  73.1094407  57.4518732  63.5939592  71.6536645
  56.7574435  62.7601628  71.7568649  56.8178605  64.6463335  70.7575394
  55.8596859  64.9416610  71.1850698  57.4772528  65.5130491  70.7116489
  56.6030229  64.1080529  69.3738185  57.5476239  64.1835094  68.8351756
  56.2969234  63.0631595  69.4248372  55.5698839  64.8689914  68.6282567
  54.7048139  64.2676783  67.9388561  55.6437426  66.2046727  68.7203995
  54.9691783  66.7793086  68.2357780  56.3736015  66.6300266  69.2740073
  58.7323070  63.1569137  71.0008442  59.7496968  63.7800590  71.1838033
  58.6807741  62.1124469  70.1951156  57.8740229  61.5065695  70.1485922
  59.8509423  61.7290369  69.4918005  60.7198729  62.2218387  69.9279257
  60.0746359  60.2380106  69.5264670  59.5728699  59.8243016  70.4012104
  59.5105358  59.5766344  68.2485865  60.0121831  59.9895318  67.3733921
  59.6805142  58.5007789  68.2903159  58.4405014  59.7724836  68.1795203
  61.4783901  59.9909461  69.6319766  61.6358154  59.0442242  69.6551113
  59.8501089  62.3035506  68.0686865  58.8173740  62.4282217  67.4434140
  61.0294617  62.6989083  67.5886571  61.8550800  62.5747809  68.1570287
  61.1819698  63.3116140  66.2668436  60.2470790  63.2078564  65.7161052
  61.5337611  64.8115223  66.3633424  60.5786645  65.2596225  66.6373788
  62.2484995  64.9570525  67.1733238  62.0708989  65.4874260  65.0713772
  62.9461988  64.9298457  64.7381277  61.0244507  65.5164545  63.9475834
  60.1489836  66.0742985  64.2799479  61.4492554  65.9987322  63.0672142
  60.7313823  64.4969629  63.6968876  62.5819103  66.8927589  65.3550615
  63.3910899  66.8454765  66.0838222  62.9509290  67.3390478  64.4316155
  61.7701932  67.5016124  65.7531970  62.3074716  62.6061252  65.4873692
  63.4649105  62.7281006  65.8520089  61.9625093  61.9367310  64.3677141
  60.6474838  61.6042250  63.8137379  60.2076352  62.4967966  63.3688229
  60.0011535  61.2409175  64.6127146  60.9577881  60.5216313  62.7759421
  60.8947852  60.9377173  61.7704562  60.2512780  59.6972246  62.8723710
  62.3220700  60.0815641  63.0891893  62.7863600  59.7398513  62.1641129
  62.4299397  59.3131309  63.8546788  62.9772462  61.3641948  63.5498502
  63.8686403  61.1883724  64.1520141  63.3248065  62.3329411  62.3788999
  62.4534839  63.1188705  61.9073982  64.5978013  62.3195447  61.9673494
  65.2678957  61.7039356  62.4056396  65.0632408  63.2200562  60.9569933
  64.2409103  63.6262258  60.3680128  65.7358809  64.3368121  61.6654335
  66.0259491  63.9576272  62.6453205  66.6132574  64.7361155  61.1566433
  64.7143815  65.4272873  61.8326867  63.7684557  64.9730390  62.1276168
  65.1461444  66.4392382  62.8940787  66.0918308  66.8942742  62.5995989
  64.3850253  67.2136474  62.9894146  65.2698673  65.9323498  63.8510830
  64.4821075  66.0599603  60.4305915  64.1183011  65.2966765  59.7427381
  63.7444888  66.8585847  60.5094510  65.4205553  66.4685410  60.0557895
  65.9849654  62.5534671  59.9323257  66.5940173  61.5105457  60.2166317
  66.0235239  63.1005366  58.7178361  65.2816468  63.7196503  58.4238703
  67.0087729  62.6980628  57.7390024  67.8897046  62.3514878  58.2793211
  66.5554855  61.6020821  56.7998097  65.5081119  61.7864893  56.5608499
  67.1537576  61.6790887  55.8919328  66.7032598  60.2054928  57.3875920
  67.7259446  60.1114576  57.7527961  66.0077837  60.0516921  58.2126740
  66.4594641  59.1258017  56.3364265  67.3134026  58.8790007  55.4723297
  65.2928747  58.5154076  56.3704902  65.0841777  57.7935440  55.6956124
  64.6123805  58.7720179  57.0713326  67.5296123  63.8895431  57.0123099
  66.7800210  64.6993274  56.4318201  68.8420619  64.0633105  57.1464213
  69.3994296  63.3875275  57.6491717  69.4884301  65.3044153  56.6988290
  68.7450019  65.9994786  56.3085718  70.1921343  65.9562820  57.8713801
  70.9805489  65.2850650  58.2119231  70.6280330  66.9151189  57.5908019
  69.1785910  66.1673678  59.0005802  68.6327587  65.2338407  59.1373104
  69.8264649  66.5640318  60.2994467  70.3721407  67.4977804  60.1636148
  69.0595791  66.6996039  61.0620784  70.5176602  65.7824607  60.6148768
  68.1812610  67.2387634  58.5833295  67.6612573  66.9198140  57.6800206
  67.4572576  67.3932746  59.3833587  68.7100275  68.1715585  58.3873750
  70.3966345  65.0639182  55.5005877  71.1218318  64.0631335  55.4197502
  70.2729195  65.9404529  54.5046593  69.7526960  66.7961237  54.6361673
  70.9013383  65.7009661  53.1979697  71.4113557  64.7377129  53.1867981
  69.8310134  65.6898623  52.1432577  69.1622604  66.5485404  52.2027591
  70.3367380  65.6900840  51.1776788  68.9767643  64.4865240  52.1722474
  68.4349589  64.0160230  53.3738970  68.6437795  64.5568209  54.2969525
  67.6508838  62.8911151  53.4005866  67.2331219  62.5235781  54.3378658
  67.3893463  62.2132383  52.2043918  66.8269470  61.2801165  52.2374154
  67.8406572  62.7192142  50.9718509  67.5751626  62.2368624  50.0311333
  68.6358367  63.8511263  50.9684558  69.0029376  64.2564512  50.0255621
  71.9142714  66.8099920  52.8405130  73.0360376  66.5232424  52.3539627
  71.5490451  68.0417289  53.1705991  70.6379872  68.2363115  53.5607406
  72.4144048  69.1611287  52.8534968  72.8960136  68.9911161  51.8905598
  71.6283828  70.4364913  52.7777829  71.2747187  71.0485008  53.6075210
  72.4325683  70.9583128  52.2590460  70.5059960  70.3316076  51.8210754
  69.2840364  69.8412880  52.2164177  69.0206896  69.6624065  53.1749319
  68.5268486  69.6468682  51.1562891  67.4893223  69.3288719  51.2588385
  69.2523190  69.9024371  50.0834665  70.5144887  70.2722317  50.4750333
  71.2861963  70.4530267  49.7267808  73.5522204  69.2389336  53.8218955
  73.3797641  69.0272288  55.0310134  74.7680754  69.4670546  53.2784193
  75.0605858  69.9898737  51.9434249  74.3611817  70.7901176  51.7014669
  74.9664505  69.1910142  51.2078564  76.4659630  70.4775062  52.0778248
  76.4682297  71.5325429  52.3516706  76.9960600  70.3463832  51.1344769
  77.0690294  69.6377292  53.1467610  77.8819306  70.1955144  53.6116978
  77.4331271  68.6592879  52.8334162  75.9323336  69.4746489  54.1267960
  76.0023457  68.5213236  54.6505968  75.8278310  70.5962972  55.1350213
  76.3944527  70.4137186  56.2212799  75.0592733  71.6830319  54.8333859
  74.7374739  71.8448138  53.8897911  74.7386343  72.6866396  55.8619948
  75.6847422  73.1635306  56.1180299  73.7097719  73.7862083  55.5129495
  73.0306972  73.8396730  56.3638893  74.2775458  74.7140238  55.4430125
  72.9377018  73.5932145  54.2843380  72.5260359  72.5852686  54.3360784
  72.1296157  74.3075045  54.1265764  73.8682806  73.6669613  53.1297340
  73.9830693  72.7248195  52.3582799  74.6372404  74.7619065  53.0575277
  75.2897734  74.8675382  52.2938890  74.5608185  75.4766195  53.7670673
  74.2417654  72.0429843  57.1305196  74.8918267  72.1633460  58.1741758
  73.0883350  71.3610117  57.0300123  72.5806959  71.3969463  56.1575957
  72.4871365  70.6404854  58.1536502  72.2891607  71.3282916  58.9757375
  71.1595527  70.0012585  57.7177187  71.4166715  69.1953650  57.0303142
  70.7098015  69.5811338  58.6173403  70.1438207  70.9661142  57.0307726
  69.6191205  71.4901866  57.8296083  70.7369398  71.6788113  56.4577352
  69.1018379  70.2766914  56.0869616  69.2213550  69.0566777  55.7521239
  68.1422986  70.9815442  55.6809459  73.4717112  69.5979946  58.7169517
  73.7317006  69.5799296  59.9054937  74.0326152  68.7800529  57.8327791
  73.8476124  68.9466195  56.8539386  74.9009170  67.6674902  58.1916948
  74.4507725  66.8828266  58.7997837  75.3532028  67.0641602  56.8826989
  75.5919851  67.8772074  56.1971068  76.5719457  66.1751698  57.0571354
  76.3337785  65.3615688  57.7422855  76.8626257  65.7625719  56.0910255
  77.3954672  66.7623629  57.4634828  74.1956435  66.3305098  56.2570388
  73.3772263  67.0277086  56.0775698  74.5119414  65.8910557  55.3110286
  73.8590549  65.5412021  56.9292013  76.1395788  68.0960821  59.0101518
  76.6534653  67.3357898  59.8633957  76.5961288  69.3268069  58.7749913
  76.2126748  69.8690271  58.0140316  77.6483188  69.9316524  59.5987336
  78.4916835  69.2476581  59.6935337  78.1478502  71.2490636  58.9301044
  78.4230772  71.0062899  57.9037467  77.3105141  71.9468816  58.9258157
  79.2692056  71.8511529  59.5966540  79.5230416  72.6534575  59.1346210
  77.1501372  70.2681883  60.9749267  77.7612474  69.8782867  62.0031514
  76.0475574  71.0031064  61.0055705  75.6491382  71.2813993  60.1201810
  75.4659258  71.5107774  62.1927057  76.0956444  72.2447721  62.6955032
  74.1848866  72.2136522  61.7036182  74.2910875  73.2553923  62.0062701
  74.2137472  72.1470575  60.6160373  72.8745518  71.6793413  62.2024814
  72.1007768  71.8617331  61.4567560  72.9632340  70.6073208  62.3785770
  72.4202047  72.4926031  63.7342539  73.8407873  73.5777537  64.0971622
  73.9749346  74.2869251  63.2803517  73.6557502  74.1218606  65.0233423
  74.7417669  72.9738359  64.2049600  75.2584160  70.4064232  63.2667520
  75.5006762  70.6180417  64.4340063  74.8400050  69.2338396  62.8268725
  74.7963751  69.1274150  61.8234436  74.5605494  68.0879305  63.6457502
  73.9425806  68.2817301  64.5224802  73.8456893  67.0608774  62.7597802
  74.4430691  66.8904526  61.8641285  73.6607039  65.7426016  63.5058629
  73.0629868  65.9121528  64.4014562  73.1515914  65.0272868  62.8599297
  74.6352161  65.3454059  63.7898756  72.5282300  67.6145269  62.2535054
  72.7129159  68.5157315  61.6688487  72.0373385  66.8698323  61.6269632
  71.8858962  67.8566350  63.1002001  75.8330775  67.3712328  64.1085796
  76.0188015  67.0824259  65.3067378  76.6992497  67.0751081  63.1375318
  76.4524355  67.2715045  62.1780473  77.9489106  66.3660406  63.3998196
  77.7197286  65.3618003  63.7562970  78.8312313  66.2515736  62.1281996
  78.1705710  66.4355288  61.2809761  79.5675337  67.0525312  62.1947254
  79.5625503  64.8889900  61.9302165  80.4727266  64.9142765  62.5294165
  78.9038567  64.1050139  62.3038556  79.9247973  64.5978768  60.4550863
  79.6639895  65.4757510  59.8639727  81.0001399  64.4288900  60.3986854
  79.2297104  63.4212482  59.8883797  78.6750645  62.8641636  60.5225123
  79.2805887  63.0614763  58.5980752  79.9857554  63.7800272  57.7187582
  80.4852772  64.6016767  58.0277407  80.0158254  63.4980242  56.7493926
  78.6353433  61.9701722  58.1803269  78.1081234  61.4155887  58.8395510
  78.6772969  61.7040214  57.2069296  78.6931829  67.0342384  64.5665811
  79.1847375  66.3365705  65.4809271  78.7188386  68.3655431  64.5618306
  78.3774201  68.8665648  63.7540497  79.2945550  69.1354810  65.6621853
  80.1869263  68.6424737  66.0478230  79.6770961  70.4927487  65.1602017
  78.7604921  70.9050151  64.7383335  80.0474133  71.1563983  65.9415687
  80.7265902  70.4066149  64.0557112  80.3947668  70.1548945  62.8935834
  82.0111459  70.5069795  64.4348532  82.7443939  70.4561881  63.7421286
  82.2380314  70.6327893  65.4109657  78.3963453  69.2816881  66.8900663
  78.8746226  69.4034769  68.0085703  77.0913351  69.2880948  66.6634185
  76.7480485  69.2719575  65.7136852  76.1168929  69.3331100  67.7517080
  76.2747242  70.2405171  68.3346324  74.7138508  69.3312881  67.2425995
  74.6994111  69.7444841  66.2340561  74.2627451  68.3390479  67.2346592
  73.9276900  70.2357578  68.1699261  74.0334081  69.8542881  69.1855074
  74.4159025  71.6818022  68.1162786  74.3100563  72.0641373  67.1010371
  73.8224179  72.2917080  68.7973745  75.4641846  71.7231214  68.4120791
  72.4738942  70.1506259  67.7875043  72.1307641  69.1209942  67.8885973
  71.8870551  70.7945927  68.4425064  72.3499138  70.4745725  66.7541668
  76.2907874  68.1368748  68.6707106  76.1810928  68.2734484  69.8875836
  76.5963412  66.9843881  68.0885281  76.6009198  66.8999756  67.0820725
  76.8056428  65.7952770  68.8746640  75.9163840  65.6470266  69.4873139
  77.0398227  64.6094068  68.0655778  77.9858780  64.6893729  67.5301478
  77.0946181  63.4197844  69.0193608  76.1486761  63.3388881  69.5548513
  77.2694018  62.5059285  68.4515415  77.9049770  63.5634563  69.7340468
  75.9035858  64.4523326  67.0805095  75.5890569  65.4454823  66.7598446
  76.2713942  63.8929004  66.2203630  74.7354412  63.7288037  67.6852947
  74.3667686  64.2879124  68.5452818  73.9411113  63.6371013  66.9445317
  75.0491068  62.7353307  68.0058024  77.9140167  65.9444434  69.9021365
  77.8130783  65.4157614  71.0008433  78.9714640  66.6203346  69.5250391
  79.0666180  67.0145360  68.6000254  80.0702549  66.7446003  70.4310162
  80.3967011  65.7614764  70.7701319  81.2229158  67.4191333  69.7256544
  81.0137732  68.4874851  69.6710375  82.1269281  67.2559324  70.3123631
  81.4232970  66.8719029  68.3269931  80.6375125  67.2874212  67.6961301
  82.3967556  67.1707299  67.9381706  81.3291205  65.3668380  68.2858931
  80.9201074  64.7890599  67.2874484  81.6754820  64.7284996  69.3908722
  81.6326635  63.7198960  69.4222857  81.9812642  65.2524682  70.1983717
  79.7076854  67.4823126  71.6706190  80.0887032  67.0757132  72.7535762
  78.9545642  68.5560188  71.5309032  78.7101319  68.9265262  70.6236676
  78.6020915  69.3250001  72.7026731  79.3340466  69.0290422  73.4541716
  78.7636322  70.8219338  72.4252831  79.7682909  71.0160355  72.0496707
  78.0312891  71.1352070  71.6812175  78.5436498  71.6046153  73.7154930
  77.5389689  71.4113664  74.0914877  79.2759715  71.2921978  74.4599407
  78.7045591  73.0957178  73.4391840  79.7092168  73.2898204  73.0635698
  77.9722146  73.4089901  72.6951198  78.4845787  73.8783986  74.7293953
  77.4798984  73.6851496  75.1053912  79.2169020  73.5659822  75.4738399
  78.6396827  75.3157232  74.4630505  77.9609015  75.6055079  73.7735720
  78.4939921  75.8340894  75.3175508  79.5707163  75.4950662  74.1150394
  77.2339359  68.9875497  73.2760259  77.0326376  67.9143084  73.8179347
  76.3054670  69.9178227  73.1478903  76.5701405  70.7588995  72.6553082
  74.9580990  69.8246650  73.6737249  74.9717322  69.6623634  74.7514872
  74.2428041  71.1375784  73.3885889  74.6948025  71.5639268  72.4930311
  73.1914296  70.9228238  73.1972978  74.3548458  72.1144970  74.5170634
  74.3909763  71.6694614  75.6775473  74.3925380  73.3289374  74.2457648
  74.0510002  68.7409215  73.1636691  73.2070449  68.2355613  73.8804979
  74.1688359  68.4240027  71.9001663  74.8814767  68.8229272  71.3059428
  73.1895540  67.5041324  71.2954418  73.5064296  67.2943261  70.2738399
  73.0435520  66.1615302  72.0539954  72.5815986  66.4175153  73.0074995
  72.3469287  65.5691551  71.4607772  74.2872873  65.3690044  72.2999859
  74.9030171  65.3849742  71.4006958  74.8387365  65.8193942  73.1253070
  73.9403541  63.9406099  72.6468597  73.4452017  63.4807989  71.7915837
  74.8598024  63.3986846  72.8682897  73.0568530  63.8514596  73.8008251
  72.0728708  63.9870147  73.6177866  73.4452205  63.6018482  75.0604678
  74.7320856  63.4356483  75.3797433  75.4394823  63.4975242  74.6615084
  74.9914710  63.2489096  76.3378391  72.5339897  63.5225950  76.0219674
  71.5571194  63.6503729  75.7994874  72.8215385  63.3348663  76.9717949
  71.7549969  68.0230906  71.1221754  70.8897074  67.3111692  70.6182329
  71.4949300  69.2531925  71.5632203  72.2442149  69.8007713  71.9617536
  70.1625106  69.8535396  71.4850734  69.4677531  69.1128263  71.0891503
  69.5664235  70.4382884  72.8290972  68.7549215  71.1163804  72.5649836
  69.0472810  69.3718343  73.7531513  69.8583776  68.6935808  74.0180930
  68.6515397  69.8347694  74.6571308  68.2550420  68.8129323  73.2550684
  70.5318281  71.2191644  73.5241711  70.1445636  71.5606445  74.3335029
  70.1591631  71.0050474  70.5378013  71.0757558  71.8717502  70.5564019
  69.1177542  71.0056792  69.7172520  68.4521609  70.2492062  69.7867756
  68.8674686  72.0532733  68.7501431  69.5867010  72.8589471  68.8974304
  68.9971945  71.5457513  67.3437311  68.7025089  72.3633877  66.6859087
  70.0045078  71.2182160  67.0865526  68.1046095  70.4266809  67.0457540
  68.2525048  69.2237492  67.7144664  68.9227206  69.1627253  68.5718967
  67.5695219  68.1254244  67.3085330  67.7231437  67.1632301  67.7970851
  66.6763730  68.2338105  66.2702477  66.1329140  67.3512609  65.9328186
  66.4660268  69.4475539  65.6569880  65.7274331  69.5391420  64.8606268
  67.1837662  70.5357454  66.0478118  67.0226127  71.4980973  65.5620049
  67.4428209  72.5240302  68.9542431  66.7123770  71.9160525  69.7220406
  67.0663347  73.5671260  68.2346118  67.6482773  73.8700432  67.4667034
  65.8561920  74.3087141  68.5117809  65.3829659  73.9908228  69.4408133
  66.2316729  75.7590715  68.6357114  66.6985542  76.0944636  67.7096261
  65.3368327  76.3515869  68.8262019  66.9322717  75.8842796  69.4612920
  64.8188301  74.1103632  67.3711042  65.1499161  74.1786304  66.1688635
  63.5770734  73.8449682  67.7654337  63.3506372  73.7799623  68.7475744
  62.5208714  73.6714079  66.8113917  62.8267543  73.7254588  65.7665887
  61.9345035  72.3313886  67.0653146  61.5669311  72.2813492  68.0902467
  60.7927345  72.0995855  66.1110196  61.1596423  72.1490193  65.0858192
  60.3592866  71.1163991  66.2942350  60.0317194  72.8653297  66.2613308
  63.0376189  71.2822137  66.9530715  63.8142369  71.4906440  67.6889542
  62.6189685  70.2928986  67.1376983  63.4684523  71.3128738  65.9523001
  61.4928636  74.7448680  67.0455039  61.0992157  74.9829988  68.1993479
  61.0058039  75.3706164  65.9658328  61.3070539  75.0949475  65.0420609
  60.1803175  76.5664288  66.0959788  60.0989676  76.8382248  67.1484085
  60.7942266  77.7571484  65.3242480  60.7593388  77.4319551  64.2844733
  60.1557491  78.6311962  65.4526491  62.2669643  78.1265105  65.7060194
  62.9038625  77.2786284  65.4539133  62.7590381  79.3624071  64.9771512
  62.1228675  80.2108697  65.2291376  63.7850613  79.5768032  65.2761688
  62.7232898  79.1889221  63.9016395  62.5157633  78.3398101  67.1879233
  62.2737991  77.4271587  67.7325518  63.5642369  78.5909165  67.3483912
  61.8881922  79.1547618  67.5486270  58.7071402  76.3162987  65.7387949
  58.4046213  75.6948092  64.7620128  57.8321547  76.8936268  66.5400281
  58.1432380  77.2011065  67.4504031  56.4527367  77.0813984  66.1933917
  56.0497660  76.2491623  65.6162463  55.6368656  77.2384819  67.4412993
  56.0226506  78.0739514  68.0254745  54.5977067  77.4313508  67.1747460
  55.6962127  76.3245152  68.0322664  56.3595030  78.3477047  65.2900376
  56.8685391  79.4435895  65.6138336  55.8575172  78.1311941  64.1024925
  55.7252095  77.1852985  63.7740483  55.4465579  79.2184319  63.2437134
  55.7432361  80.1802464  63.6620363  56.1409624  79.0391716  61.8818363
  56.0311665  78.0329584  61.4773872  55.5257507  79.7307148  61.3061780
  57.6001037  79.4646818  61.7938711  58.6418760  78.5675279  62.0643951
  58.4056794  77.5623795  62.4136621  59.9598265  78.9474641  61.8919480
  60.7747233  78.2569780  62.1093740  60.2391415  80.2259485  61.4070101
  61.5248428  80.6641063  61.2799087  62.1726219  80.0106548  61.5537389
  59.2286002  81.0940933  61.0662287  59.4536384  82.0815697  60.6633036
  57.9237724  80.7042691  61.2388278  57.1125548  81.3681316  60.9399755
  53.9092319  79.0839880  63.0885954  53.4446709  78.0564766  62.5637321
  53.1253730  80.1412024  63.3982483  53.3702299  80.7697002  64.1500029
  51.8522048  80.3925805  62.6479832  51.2401165  79.4913685  62.6835361
  51.0378326  81.5667470  63.2395336  50.4158986  81.1873561  64.0503108
  51.7313461  82.3105608  63.6318092  50.1999639  82.1737745  62.2350995
  49.7057387  82.8981518  62.6257640  52.3026116  80.6935388  61.1828140
  53.1671193  81.5297450  61.0036418  51.7147519  80.0950547  60.1659528
  50.9440671  79.4518445  60.2774199  52.2183197  80.3424315  58.8230004
  53.2464453  79.9894241  58.7427340  51.3785381  79.6344322  57.7732338
  51.4078002  78.5590148  57.9485062  50.3480371  79.9842068  57.8350848
  51.9035398  79.9133170  56.3721333  52.8870050  80.6313925  56.2059858
  51.2436606  79.3422370  55.3618606  51.5506042  79.4948689  54.4118138
  50.4405035  78.7601648  55.5522060  52.2214179  81.8147025  58.5608986
  52.9923192  82.3184329  57.7687144  51.3462439  82.5159861  59.2380632
  50.7061950  82.0758715  59.8836140  51.2708395  83.9456730  59.0686865
  51.0916724  84.1749079  58.0182343  50.1219031  84.5359587  59.9034157
  49.1780676  84.0895749  59.5903415  50.3603459  84.2368390  61.3796598
  51.3038431  84.6833296  61.6936026  49.5462941  84.6550000  61.9717421
  50.4015729  83.1580837  61.5302885  50.0643734  86.0453304  59.6933874
  49.8939784  86.2596439  58.6383342  49.2502064  86.4642116  60.2848011
  51.0077604  86.4925014  60.0066922  52.5641971  84.6253391  59.4980419
  52.8739643  85.7213848  59.0488502  53.3251886  83.9840211  60.3693479
  53.0571374  83.0824913  60.7374401  54.5199815  84.6186123  60.9022129
  54.1610867  85.5148385  61.4082488  55.1954695  83.7156420  61.9302137
  54.4741594  83.4349171  62.6976799  55.5682030  82.8179767  61.4368914
  56.3590398  84.4612333  62.5750563  57.0810405  84.7419011  61.8082177
  55.9869980  85.3588402  63.0690086  57.0607836  83.5924536  63.6091076
  56.6707451  82.4482203  63.8305571  58.1002568  84.1397216  64.2433132
  58.6012879  83.6060609  64.9392123  58.3808882  85.0849147  64.0243217
  55.5247111  85.0496207  59.8630979  56.0928404  86.1308951  59.9833760
  55.7538881  84.2378031  58.8453189  55.3092630  83.3348777  58.7608578
  56.7106953  84.6329073  57.8249476  56.8963168  83.7980688  57.1491603
  56.1926521  85.8139383  57.0099618  55.2628650  85.5342702  56.5146023
  56.0107228  86.6607693  57.6716862  57.2197290  86.1982887  55.9719405
  58.1497121  86.4785457  56.4666002  57.4018530  85.3520484  55.3095152
  56.7012065  87.3804177  55.1561996  56.9765702  88.5356553  55.5771537
  56.0346955  87.1169171  54.1198934  58.0299043  84.9923693  58.4818553
  58.6095780  86.0357375  58.1987045  58.4687518  84.1159325  59.3763861
  57.8146164  83.4020564  59.6637658  59.7385089  84.2236317  60.0958636
  59.9553637  83.1625693  60.2192323  60.8019206  84.8349364  59.2061630
  60.7867713  84.3457241  58.2322322  60.6034881  85.8993466  59.0806420
  62.1721466  84.6459090  59.8483263  62.1882125  85.1352801  60.8221634
  62.3714979  83.5816583  59.9737518  63.2423728  85.2611323  58.9529263
  63.2272231  84.7719220  57.9789946  63.0439403  86.3255425  58.8274075
  64.5885537  85.0963865  59.5454268  64.6695957  84.6212546  60.4329973
  65.6964557  85.5454249  58.9624875  65.6704397  86.1803824  57.7941328
  64.7890073  86.3325488  57.3250675  66.5322348  86.5074820  57.3813196
  66.8549330  85.3428942  59.5836256  66.8711861  84.8603597  60.4707538
  67.7131019  85.6725590  59.1653363  59.7949569  84.8727455  61.4625635
  60.8323397  84.7955158  62.1082742  58.7187497  85.4871603  61.9234449
  57.8619961  85.5597101  61.3935305  58.7551958  86.0617724  63.2493599
  59.7286936  86.4289755  63.5742646  57.7414869  87.1816599  63.3942250
  58.0384660  88.0242812  62.7698117  56.7596684  86.8264426  63.0812503
  57.6806087  87.6218660  64.8373511  57.3832243  86.7798339  65.4623673
  58.6620204  87.9776743  65.1509285  56.6605374  88.7487785  64.9831263
  55.4705196  88.4195256  65.2342267  57.0810661  89.9281158  64.8419902
  58.4001151  84.8981583  64.1362697  57.3183036  84.8454765  64.6845850
  59.3005173  83.9392515  64.2655738  60.1980101  83.9794073  63.8040617
  59.0029403  82.7648897  65.1269728  57.9869599  82.3949647  64.9889926
  59.9667136  81.6321055  64.8752943  60.9880937  81.9847578  65.0185391
  59.7625257  80.8190798  65.5719984  59.8469349  81.2727661  63.8532241
  59.1418526  83.2275194  66.5653407  60.0708264  83.9997460  66.8691692
  58.1988554  82.8370898  67.4277739  57.4745956  82.1924355  67.1449881
  58.0654742  83.5128175  68.7432821  58.9716833  84.0850886  68.9417513
  56.8393005  84.4869767  68.7837874  55.9745814  83.9325950  68.4190668
  56.6803234  84.7623976  69.8263658  57.0274592  85.7765441  67.9290459
  58.0925720  85.9500961  67.7756990  56.5569624  85.5417579  66.9742631
  56.3898474  87.0736773  68.4898557  56.7750409  88.1788501  68.0897106
  55.3838254  86.9352782  69.3597398  54.9405400  87.7550490  69.7490666
  55.0718118  86.0116011  69.6235002  58.1146571  82.5435861  69.9068420
  58.6675625  82.8733185  70.9584127  57.7702401  81.2878947  69.6527338
  57.3434981  81.0668721  68.7643984  57.9367021  80.1939902  70.6466374
  58.6925081  80.4926485  71.3730392  56.5999936  79.8660952  71.4161681
  55.9048621  79.2779064  70.8170644  56.8803465  79.3014295  72.3053559
  55.8237801  81.1005568  71.9054178  55.0561212  81.8803780  71.0210584
  55.0108110  81.5916975  69.9709581  54.3569726  83.0107652  71.4682900
  53.8025500  83.6248301  70.7586136  54.3709423  83.3462312  72.8091708
  53.8301533  84.2236418  73.1638509  55.0795390  82.5578008  73.7062004
  55.0761328  82.8138069  74.7657048  55.7960965  81.4390672  73.2575119
  56.3419326  80.8200014  73.9694953  58.4530504  78.9293050  69.9485968
  58.4496175  78.8203280  68.7146773  58.8908991  77.9708977  70.7548336
  58.8820264  78.1184794  71.7539534  59.3964558  76.6820982  70.2421900
  58.6183744  76.2626897  69.6043929  60.2797402  76.8995623  69.6416757
  59.7592523  75.6737676  71.3000771  59.4600419  75.8728080  72.4618258
  60.5670456  74.7030747  70.9341109  61.0200443  74.7377420  70.0320634
  60.8352476  73.5387081  71.8106815  60.7892162  73.7479632  72.8794156
  59.7800360  72.5031727  71.4738006  60.0736537  71.9752185  70.5665227
  59.6392971  71.5103862  72.6134464  59.3452251  72.0375774  73.5210206
  58.8789086  70.7715114  72.3605188  60.5925557  71.0081712  72.7783057
  58.5354798  73.1941222  71.1776945  57.8560072  72.5511549  70.9620319
  62.2564825  72.9815702  71.5516299  62.6740064  72.8067828  70.4045344
  63.0027444  72.7248551  72.6285513  62.7014884  73.0250301  73.5446512
  64.3004749  72.0854991  72.5059396  64.8377405  72.5049700  71.6553580
  65.1851317  72.2445859  73.7825150  66.1498852  71.7671317  73.6110848
  65.3968862  73.7163480  74.0918599  64.4325378  74.1944085  74.2638772
  66.0151907  73.8153294  74.9840490  65.8951197  74.1970827  73.2499822
  64.5886134  71.6007862  74.9209898  65.1551937  71.7164378  75.6872873
  64.0766879  70.6229052  72.1673344  63.1942341  69.9708358  72.7297958
  64.8524125  70.1158608  71.2116847  65.4312802  70.7242284  70.6505249
  64.8995594  68.7080737  70.9556993  64.2804790  68.1280113  71.6400722
  64.4380377  68.4482634  69.5566434  65.0543957  69.0152439  68.8589787
  64.5256298  67.3843729  69.3362691  63.3973292  68.7555981  69.4538310
  66.3206087  68.2424200  71.1180034  67.2597278  68.8720064  70.6416673
  66.4804116  67.1241149  71.7836263  65.6475608  66.5752099  71.9422525
  67.7665157  66.5771635  72.2220853  68.5667315  67.3099799  72.1184802
  67.6244632  66.2180538  73.6909999  67.3026603  67.1395479  74.1761708
  66.8155277  65.4882994  73.7253773  68.8339400  65.6642720  74.4125182
  69.2844291  64.7326409  74.0701385  69.5278220  66.4872430  74.2412127
  68.5292151  65.5631142  75.8835624  68.8576199  66.5212269  76.6355606
  67.7561201  64.6463094  76.2303044  68.0101273  65.3028989  71.4734597
  67.1362459  64.4347347  71.4881697  69.1761049  65.1632155  70.8225351
  69.8131720  65.9379816  70.7042886  69.4235913  63.9558362  70.0772791
  68.4562161  63.5946612  69.7282275  70.3436950  64.1384459  68.9022762
  71.3784243  64.1771281  69.2427749  70.1628974  62.9479852  67.9498595
  69.1284491  62.9089184  67.6085516  70.8240595  63.0652651  67.0912498
  70.4076358  62.0233610  68.4726143  69.9862164  65.4440045  68.1747710
  69.3481862  65.1778795  67.3320400  69.4226911  66.0589115  68.8765032
  71.1828299  66.2189637  67.6749736  71.7466308  65.6048279  66.9727873
  70.8453271  67.1261437  67.1737598  71.8211372  66.4858580  68.5172510
  69.8200131  62.7934851  70.9824441  70.7543903  62.8786121  71.7735374
  69.0646851  61.6995924  70.8738464  68.2619467  61.7075891  70.2609464
  69.3373307  60.4797175  71.6505417  70.1059345  60.6850321  72.3956547
  68.0779697  59.9972059  72.3683901  68.2612666  59.2903743  73.1776432
  67.8030698  60.9651634  72.7874228  66.9306721  59.4770683  71.4831651
  66.8632628  58.1482226  71.1143697  67.6782513  57.4861320  71.4068234
  65.7968968  57.6525450  70.3924873  65.7870060  56.6127499  70.0656384
  64.7184503  58.4700222  70.1247243  63.6383241  57.9978286  69.3816484
  63.7452843  57.0855764  69.1024439  64.7268350  59.7810730  70.5567133
  63.8771468  60.4332782  70.3548252  65.8152999  60.2630919  71.2453380
  65.8140453  61.2870426  71.6190000  69.8676210  59.3197025  70.8210561
  70.2270707  58.2733650  71.3729607  69.8360383  59.4734564  69.5100522
  69.4676449  60.3197058  69.0998723  70.3218160  58.4381902  68.6255542
  71.1496303  57.8691857  69.0487050  69.2124629  57.4846233  68.2754116
  68.3797408  58.0385737  67.8420379  69.5759080  56.7527292  67.5540663
  68.8767054  56.9705844  69.1760393  70.8330446  59.1236180  67.3939463
  70.3167795  60.1615052  67.0215479  71.8512341  58.5646762  66.7610803
  72.2978398  57.7248982  67.1008090  72.3825745  59.1897117  65.5750057
  71.5898096  59.5847895  64.9397604  73.2486516  60.3394533  66.0383660
  72.5928221  61.1589767  66.3322509  73.7396975  59.9328181  66.9224597
  74.2824008  60.8464661  65.0829360  74.0284080  60.9555652  63.7394558
  73.0567342  60.6423798  63.3575338  74.9785414  61.4514529  62.8778428
  74.7680959  61.5260688  61.8109562  76.1854575  61.8590153  63.3649692
  77.1477232  62.3467782  62.5195052  76.8688254  62.3589494  61.6009915
  76.4524910  61.7778063  64.6995564  77.4162221  62.1025611  65.0918029
  75.4993188  61.2838622  65.5486401  75.6976350  61.2311339  66.6191495
  73.1583947  58.2108115  64.7380072  73.7622420  57.2945797  65.2658223
  73.1355541  58.4013837  63.4292374  72.5995402  59.1616656  63.0358421
  73.8763546  57.5494050  62.5300733  74.7600646  57.1595301  63.0352005
  73.0277415  56.3903171  62.0825767  72.1712690  56.3256838  62.7536778
  72.6809749  56.6020959  61.0711408  73.7730974  55.0827454  62.0935617
  74.6609092  55.1900155  62.7167664  73.1256338  54.3131560  62.5138297
  74.1832807  54.6870101  60.7003176  74.5010106  55.5698019  60.1454975
  75.0053809  53.9728556  60.7475827  73.0720584  54.0712197  59.9978988
  72.7186191  54.5328939  59.1720435  72.4951591  52.9462029  60.3879879
  71.4885421  52.4439620  59.6926568  71.1627680  52.9216643  58.8645434
  71.0502091  51.5850186  59.9929568  72.9214687  52.3295486  61.4816490
  73.6856655  52.7213646  62.0132348  72.4800408  51.4708516  61.7780940
  74.2474497  58.3956620  61.3524522  73.4564105  59.2078746  60.9227808
  75.4421296  58.1971365  60.8168090  76.0531202  57.4937887  61.2067984
  75.9243673  58.9816366  59.6777549  75.1199901  59.6010042  59.2809422
  77.1040744  59.8988393  60.0752680  76.7762081  60.6022136  60.8406878
  77.9209953  59.2921669  60.4660220  77.5796914  60.6614758  58.8618949
  77.9081747  59.9587304  58.0961610  76.7633892  61.2687785  58.4708279
  78.7446895  61.5672394  59.2544499  79.9049822  61.0839166  59.1665781
  78.4632112  62.7338230  59.6384456  76.3740485  58.0351983  58.5761955
  77.4861666  57.5883287  58.6051590  75.5122975  57.7831380  57.5963358
  74.5390650  58.0253426  57.7157290  75.8720759  56.9401009  56.4960668
  76.8460619  56.4958881  56.7013118  74.8659607  55.8193232  56.2568859
  75.4245307  55.0646317  55.7032256  74.6357038  55.4419767  57.2532249
  73.5735237  56.1317493  55.5230783  73.0484378  56.7830628  56.2217745
  73.7151021  56.6538419  54.5767834  72.7441340  54.8598350  55.2868674
  72.1741426  54.3296370  56.3015683  72.7813721  54.3307423  54.1265260
  76.2701737  57.7167097  55.2590321  75.6285916  58.7016700  54.8218232
  77.3571157  57.2509580  54.6672842  78.0489220  56.7330530  55.1900440
  77.6668096  57.6185295  53.2560738  76.8134427  58.1502874  52.8352440
  78.9150797  58.5210911  53.1436047  79.2241747  58.4680944  52.0996934
  78.5705299  59.5302985  53.3691837  80.1062929  58.1731282  54.0480929
  79.7833890  57.5149934  54.8547480  80.8436893  57.6578403  53.4326037
  80.7593947  59.4091001  54.6591687  81.2703976  60.2564714  53.9425406
  80.7112125  59.5262634  55.9870077  81.1304210  60.3281695  56.4356861
  80.2557400  58.8125377  56.5376815  77.7629385  56.3945618  52.3541246
  78.6765558  56.2836593  51.5467554  76.7278043  55.5754073  52.3667021
  75.9285841  55.7841935  52.9478688  76.7276129  54.3254001  51.6128116
  77.7358263  53.9130293  51.5733749  75.8132795  53.3112097  52.2851005
  74.8662227  53.8265035  52.4452723  75.6524957  52.4497025  51.6369849
  76.3544549  52.8543851  53.5896699  77.1049070  53.6637607  54.2291633
  76.0785357  51.6764232  53.9390915  76.3163887  54.5628264  50.1850674
  77.1122043  54.3327516  49.2427660  75.0847129  55.0674422  50.0370689
  74.4895055  55.1877490  50.8441338  74.5331305  55.3852001  48.7093017
  74.4390988  54.4592755  48.1419210  73.1646342  56.0556284  48.7784745
  73.0294757  57.0734530  49.1443496  72.9211631  56.0164155  47.7167381
  72.1625995  55.2198916  49.4732979  71.6335024  54.0964521  48.8191138
  71.8842055  53.9187611  47.7733252  70.7874170  53.2045254  49.5002799
  70.3342013  52.3709956  48.9636941  70.5259543  53.3842637  50.8646528
  69.8596961  52.6985522  51.3881025  71.1222586  54.4475011  51.5568879
  70.9307851  54.5852363  52.6210623  71.9709352  55.3390836  50.8730447
  72.4865544  56.1284854  51.4199282  75.5644701  56.2441213  48.0387415
  75.8042104  56.0414586  46.8677093  76.2707148  57.0941387  48.8031667
  76.1780584  57.0830950  49.8088466  77.2018189  58.0680754  48.1959883
  78.0614935  58.1805415  48.8566017  77.5321350  57.6752796  47.2343740
  76.5541385  59.4467731  47.9779246  76.8255673  60.1797592  47.0034028
  75.7105168  59.8266332  48.9032574  75.0211971  59.1948464  49.2850729
  75.7529103  61.1724587  49.4047814  76.6967397  61.6450858  49.1329195
  74.5751118  62.0607030  48.9297837  74.9078100  62.6616511  48.0834542
  73.3839417  61.2053932  48.5087363  73.0503656  60.6044630  49.3547331
  72.5702663  61.8516325  48.1794828  73.6789714  60.5481525  47.6907563
  74.1873967  63.0702906  50.0462221  73.8409368  62.4796114  50.8942578
  75.1008963  63.5978792  50.3205728  73.1133915  64.0816497  49.6588468
  72.1993826  63.5547875  49.3847961  72.9128358  64.7408887  50.5034062
  73.4593416  64.6730540  48.8111090  75.6963113  60.8652336  50.8780185
  75.2682958  59.7612464  51.2825081  76.2967629  61.7342537  51.6765571
  76.7805588  62.5309274  51.2875175  76.3256957  61.5427983  53.1519556
  76.4886748  60.4825208  53.3452136  77.4149053  62.3495853  53.8835938
  77.0760238  62.4245305  54.9168613  78.3121872  61.7322706  53.8399161
  77.7334553  63.7561770  53.3450823  78.1262605  63.6089057  52.3390425
  76.8081935  64.3299957  53.2929103  78.7671586  64.5244557  54.1926737
  78.7162129  65.7945145  54.1788046  79.6453296  63.8651835  54.8386720
  74.9678660  61.9228565  53.6609903  74.3142953  62.8335769  53.1003240
  74.4602324  61.0910731  54.5350117  75.0304889  60.3532510  54.9229879
  73.0635677  61.2120442  54.9964361  72.5689408  62.1550506  54.7636651
  72.2676705  60.0391027  54.3596960  72.9815956  59.2682409  54.0695520
  71.2442320  59.4481473  55.3063883  70.5296407  60.2183546  55.5966308
  70.7175310  58.6330251  54.8101397  71.7477631  59.0670648  56.1948317
  71.6333127  60.4671185  53.0284040  72.4166588  60.9672625  52.4589079
  71.3410986  59.5505573  52.5159336  70.4248330  61.3894237  53.1483579
  70.7163978  62.3064597  53.6603490  70.0522376  61.6322389  52.1532134
  69.6408380  60.8897549  53.7173770  73.1774860  61.0839846  56.5022390
  73.9624542  60.2729727  56.9815361  72.4468324  61.9150368  57.2495606
  71.9146714  62.6578451  56.8192820  72.4368552  61.8121852  58.6770280
  73.0140404  60.9364768  58.9738299  73.0350452  63.0478896  59.3601220
  72.3893031  63.9100537  59.1934200  73.1458593  62.7851596  60.8271919
  73.7918671  61.9233537  60.9947194  73.5704520  63.6585427  61.3221904
  72.1561919  62.5816909  61.2361670  74.4108039  63.3863757  58.8227570
  74.3442276  63.5887215  57.7537734  74.7949629  64.2680958  59.3356811
  75.0842729  62.5461413  58.9917136  71.0049613  61.5961547  59.1517875
  70.1050645  62.4015219  58.8656576  70.7974923  60.4659441  59.8362424
  71.5462653  59.7953800  59.9351475  69.5169877  60.1522570  60.4211539
  68.7867429  60.8784842  60.0641725  69.0267974  58.7585550  60.0702148
  69.3589121  58.1071302  60.8785741  67.9380333  58.8104478  60.0701296
  69.4969297  58.2125023  58.7688878  68.8219014  58.5246333  57.9720115
  70.5018949  58.5774185  58.5567953  69.5160186  56.7032865  58.8502775
  70.4069367  56.4035854  59.4021318  68.6274652  56.3805798  59.3928941
  69.5316063  56.0534270  57.4659905  70.0761555  56.7209888  56.7982121
  70.0703534  55.1100130  57.5544264  68.1669163  55.7975833  56.9104915
  67.6676883  56.6716980  56.8280614  68.2491244  55.3695880  55.9993593
  67.6623099  55.1786840  57.5289049  69.6467662  60.2818534  61.9439222
  70.5876629  59.7687340  62.5440637  68.7270362  61.0245524  62.5435012
  68.1252129  61.6153571  61.9877514  68.7119782  61.1872818  63.9692612
  69.2153899  60.3360847  64.4276708  69.4206709  62.4871927  64.4272048
  69.6819941  62.3993152  65.4817602  70.6559583  62.7078303  63.6270861
  70.3953703  62.7962748  62.5723954  71.1450358  63.6240036  63.9580394
  71.3335036  61.8650388  63.7639672  68.5452029  63.7075027  64.2686318
  67.6424895  63.5880241  64.8677439  69.0885570  64.5911102  64.6034510
  68.2717890  63.8253872  63.2200857  67.3202007  60.9914431  64.5639247
  66.3007497  61.1365299  63.8962170  67.3107499  60.5983467  65.8278815
  68.1828937  60.3287045  66.2600360  66.1009200  60.5452947  66.6281078
  65.2322028  60.8028688  66.0222322  65.9177315  59.1338587  67.1652814
  66.7412572  58.9452657  67.8540029  64.9758736  59.1210210  67.7137693
  65.8956488  58.0725036  66.1130687  65.0829027  58.2727705  65.4149012
  66.8442816  58.0761728  65.5762405  65.6869528  56.7272870  66.7522589
  66.4379365  56.5527681  67.5227559  64.6925694  56.6676600  67.1946905
  65.8206158  55.6819105  65.6750461  65.2515261  56.0323983  64.8140027
  66.8768998  55.6235484  65.4124495  65.3388626  54.3468944  66.0714180
  64.3599955  54.4006709  66.3143730  65.4600626  53.7032837  65.3025384
  65.8663534  54.0217589  66.8690015  66.2342562  61.5154500  67.7874011
  66.9975697  61.2654553  68.6846057  65.4832612  62.6105857  67.7463477
  64.9479175  62.8193261  66.9157251  65.4431563  63.5576042  68.8479450
  66.2787176  63.3449650  69.5148192  65.5929766  64.9541596  68.3222228
  64.7586706  65.1850543  67.6598626  65.6005890  65.6575219  69.1548834
  66.5287131  65.0363577  67.7692853  64.1655239  63.4526502  69.6583210
  63.1891404  62.9128348  69.1980433  64.1875301  63.9852054  70.8699569
  65.0521057  64.3766906  71.2154241  63.0254795  64.0081633  71.7399013
  62.1091384  63.7680353  71.2006826  63.2261096  62.9983521  72.8860544
  63.4656433  62.0272948  72.4527280  64.3397649  63.4246881  73.8105410
  64.1007160  64.3955202  74.2446394  64.4531968  62.6891675  74.6069349
  65.2710296  63.4978013  73.2488474  61.9489802  62.8011321  73.6837521
  62.0130534  63.4236354  74.5762123  61.1148681  63.1358456  73.0670484
  61.7276509  61.3473223  74.0927122  62.5611918  61.0120210  74.7098689
  60.8004750  61.2660518  74.6600209  61.6630089  60.7242305  73.2007044
  62.8443980  65.4200524  72.2863204  63.7927624  66.0248462  72.7544544
  61.6401872  65.9641867  72.1669219  60.8918398  65.4532460  71.7208108
  61.3580195  67.3073164  72.6714040  62.0213521  68.0063085  72.1619936
  60.3226889  67.5485635  72.4305930  61.5611360  67.4386525  74.1797675
  61.0827335  66.5913147  74.9656719  62.2575688  68.5027704  74.5874284
  62.5915221  69.1826994  73.9193932  62.6191281  68.6736367  75.9818479
  62.2457203  67.8177112  76.5440375  64.1216506  68.7794172  76.1981061
  64.4870515  69.5096979  75.4761147  64.2620502  69.1657154  77.2076415
  64.8967574  67.4790045  76.0404891  64.4927078  66.9818433  75.1586299
  65.9346698  67.7566931  75.8568348  64.8280119  66.5349982  77.2300992
  65.8361156  66.2146871  77.4932090  64.3802822  67.0557764  78.0765196
  64.0157015  65.3394295  76.9266452  63.1275796  65.5122229  76.4777785
  64.3655053  64.0703038  77.1867033  65.5355032  63.7721055  77.7587108
  66.1772852  64.5123177  78.0042750  65.7728461  62.8078308  77.9429452
  63.5230996  63.0876457  76.8779223  62.6329190  63.3046167  76.4529491
  63.7777349  62.1293197  77.0699405  61.9682994  69.8798369  76.6498794
  61.2204144  69.7228013  77.6005595  62.2804418  71.0781768  76.1961860
  62.8953055  71.1939426  75.4033176  61.7998011  72.2894990  76.8926922
  61.0287188  72.0262984  77.6167480  62.9354300  72.9376321  77.6183116
  63.5082302  73.5311925  76.9057912  62.5264068  73.5910966  78.3888856
  63.8337804  71.9152220  78.2543257  63.3108019  71.0892406  78.7363517
  64.4471536  71.5302291  77.4396750  64.7181248  72.5582191  79.2480042
  65.3232616  73.5681404  78.9459871  64.7157701  72.0581762  80.4750545
  65.3056472  72.4678962  81.1851784  64.1241079  71.2696069  80.6945897
  61.1296398  73.2970747  75.9860147  61.4830836  73.4675317  74.8236534
  60.2068264  74.0387216  76.5465120  59.8704935  73.8250545  77.4745884
  59.5917424  75.1438159  75.8274047  59.6245104  74.9529477  74.7547469
  58.1474264  75.3017214  76.2461770  58.1479082  75.6051413  77.2930941
  57.7218989  76.0994914  75.6374163  57.3117069  74.0396417  76.0843785
  57.3040032  73.7529387  75.0327879  57.7597894  73.2405943  76.6750116
  55.8855147  74.2785212  76.5547331  55.5715168  75.2765204  76.2489523
  55.2304268  73.5363619  76.0984888  55.7695670  74.1761991  78.0009611
  55.5802540  73.2545092  78.3680410  55.8762506  75.1924925  78.8573420
  56.1113361  76.4309303  78.4673462  56.2175922  76.6359246  77.4840929
  56.1839368  77.1681480  79.1538874  55.7601863  74.9490672  80.1344579
  55.5931060  74.0050730  80.4523562  55.8379998  75.7058424  80.7987885
  60.3709572  76.4289471  76.0578024  60.7781998  76.7305598  77.1714667
  60.4921695  77.2104210  75.0022498  60.2187182  76.8831989  74.0866902
  61.1109510  78.5049188  75.1071628  61.0936971  78.8275236  76.1481852
  62.5694939  78.4768904  74.6260725  63.0291680  79.4651625  74.6369064
  63.1174590  77.8145088  75.2962106  62.7592864  77.9160425  73.1965011
  62.5421280  78.7157009  72.0628615  62.2391637  79.7551921  72.1884425
  62.7097024  78.1941169  70.7964915  62.5625537  78.8289461  69.9227411
  63.0647311  76.8645641  70.6349582  63.1032413  76.4393085  69.6320751
  63.3669755  76.0829059  71.7253732  63.7182428  75.0597654  71.5916012
  63.2226145  76.6030187  72.9972182  63.4692866  75.9934785  73.8665359
  60.3704672  79.6180756  74.3900305  59.5797682  79.3643466  73.4832655
  60.7379644  80.8419507  74.7594687  61.3762880  80.9169765  75.5385794
  60.3238453  82.0602863  74.0899550  59.4325548  81.8786029  73.4893789
  60.0025838  83.1185893  75.1251240  59.7530527  82.5785858  76.0384857
  60.9245924  83.6800519  75.2759884  58.8603634  84.0917857  74.7759886
  59.2452782  84.8471190  74.0908514  58.0637551  83.5308486  74.2872486
  58.2998569  84.7847474  76.0482769  57.9378077  84.0024109  76.7153368
  59.1254073  85.3139749  76.5241806  57.1655314  85.7689598  75.7539258
  56.3213625  85.2083362  75.3524527  56.8730592  86.2442671  76.6902176
  57.5818991  86.8224367  74.7664292  57.8525398  86.3822428  73.8986259
  56.8091379  87.4507404  74.5985766  58.3638414  87.3423186  75.1384348
  61.4875195  82.5523375  73.2536118  62.6341692  82.5931051  73.7011725
  61.1851413  82.9343830  72.0209518  60.2466128  82.8002023  71.6727289
  62.1759775  83.5443194  71.1302846  63.1542434  83.0689386  71.2017555
  61.7237000  83.5100561  69.6779358  60.6798490  83.8192800  69.6245051
  62.5785782  84.4521086  68.8273852  63.6225731  84.1432195  68.8799513
  62.2408163  84.4145803  67.7917168  62.4821380  85.4705017  69.2037846
  61.7641721  82.0641603  69.1835701  61.0979444  81.4527521  69.7921937
  61.4419327  82.0262623  68.1429813  62.7815408  81.6809783  69.2625215
  62.3983417  84.9900686  71.5354197  61.4719115  85.7495492  71.6997833
  63.6496904  85.3552797  71.6814037  64.3806412  84.6599803  71.6327321
  64.0323870  86.7488014  71.8995609  63.2109617  87.3414657  72.3021882
  65.1346560  86.7137963  72.9074481  66.0056921  86.2342033  72.4609219
  65.4159519  87.6962402  73.2866271  64.6152101  85.8554902  74.0562094
  63.9425705  85.1129528  73.6269136  65.7048807  85.1559766  74.8381326
  66.3776984  85.8979360  75.2681459  65.2572664  84.5655368  75.6375842
  66.2660017  84.4996773  74.1729147  63.7988508  86.7376800  74.9702448
  62.9643041  87.1645390  74.4139872  63.4158567  86.1451829  75.8011263
  64.4262689  87.5410280  75.3563504  64.5235936  87.3612791  70.5851134
  63.8407482  88.1916802  69.9649760  65.6666900  86.8518580  70.0940465
  66.1478780  86.1517950  70.6403698  66.2144859  87.2089317  68.7925001
  65.5398710  87.8785523  68.2590189  67.5218244  87.9144320  69.0045857
  67.7764674  87.8035637  70.0586087  68.2645749  87.3989609  68.3957250
  67.5047615  89.3557774  68.6488777  67.1705169  89.4434824  67.6151035
  66.8211134  89.9019649  69.2988036  68.8680938  89.9241450  68.7770269
  69.7855528  89.1527174  69.1758984  69.0049044  91.1339625  68.5096236
  66.5393950  85.9892730  67.9063648  66.9038244  84.9298977  68.4038799
  66.6081449  86.2403496  66.6130992  66.3340510  87.1557558  66.2859857
  67.0870481  85.2661426  65.6296794  67.4272377  84.3539329  66.1198260
  65.9383773  84.9198804  64.7069514  65.3774065  85.8490526  64.6067015
  66.3703277  84.6510449  63.7429772  65.0130980  83.8216524  65.1665366
  64.7397678  83.9877407  66.2085568  63.7584757  83.8250294  64.3069805
  64.0309782  83.6585252  63.2648109  63.0884791  83.0315498  64.6380325
  63.2554858  84.7874382  64.4011656  65.7177646  82.4815209  65.0788239
  66.6034925  82.4939081  65.7139868  65.0430505  81.6931340  65.4124528
  66.0139108  82.2930073  64.0469038  68.2249649  85.8262135  64.7708670
  68.0017039  86.6925512  63.8965470  69.4213767  85.2743679  64.9632704
  69.5381005  84.5880810  65.6950390  70.6074566  85.6222308  64.1219531
  70.4483840  86.5636412  63.5960808  71.8315885  85.7765628  65.0508791
  72.2325947  84.7757114  65.2108469  72.5623007  86.3780396  64.5101523
  71.5348023  86.4288514  66.4028623  72.2777063  87.2091657  66.5681021
  70.5431746  86.8779312  66.3471499  71.5777569  85.4324358  67.5594062
  70.8805395  85.7573400  68.3316912  71.2796597  84.4507729  67.1912006
  72.9171027  85.3263954  68.1495980  73.4289951  84.4764879  67.9605931
  73.4929734  86.2626242  68.9160780  74.7012979  86.0523383  69.4178824
  75.1831938  85.1869635  69.2203912  75.1347724  86.7584088  69.9955189
  72.8703649  87.4040966  69.1935459  71.9464413  87.5748514  68.8229948
  73.3241670  88.0952493  69.7736064  70.9208684  84.5178284  63.0813775
  70.7068453  83.3787362  63.3590842  71.3472823  84.9032366  61.8787127
  71.5382475  85.8820099  61.7186049  71.4055504  83.9815840  60.7275606
  71.0746223  82.9797276  61.0011837  70.4943760  84.5107222  59.5770220
  70.9839116  84.3169656  58.6226041  69.1088025  83.8038389  59.6016627
  68.6184311  83.9975385  60.5556627  68.4898174  84.1881193  58.7909316
  69.2459580  82.7298656  59.4756853  70.3097680  85.9464525  59.6892692
  69.7475427  86.2536411  58.9743299  72.8460700  83.6581171  60.2281594
  73.2861665  84.1312743  59.1578196  73.5443526  82.7956564  60.9760578
  73.2550484  82.5623919  61.9152010  74.7870928  82.2003681  60.4609921
  75.6498585  82.8553776  60.5822229  75.0959250  80.8451846  61.1403215
  75.2840652  81.0049015  62.2020150  74.2446497  80.1752403  61.0194701
  76.3286256  80.2218983  60.4941112  76.1410636  80.0614467  59.4324255
  77.1804803  80.8911056  60.6149718  76.6663951  78.8838427  61.1359865
  75.9780173  78.4401407  62.0523402  77.7310729  78.2403309  60.6516547
  77.9988872  77.3482067  61.0421562  78.2638719  78.6485470  59.8969454
  74.5525328  82.0632480  58.9225645  73.4354643  81.6703587  58.4883917
  75.4906451  82.5610454  58.0980034  76.3662906  82.9230497  58.4477134
  75.2385842  82.6217555  56.6438309  74.2464780  83.0369871  56.4666099
  76.2640178  83.4950522  55.9380647  75.9995821  83.5690629  54.8832209
  76.2507328  84.4886635  56.3860159  77.5510709  82.9433916  56.0605459
  78.1847673  83.5065011  55.6100613  75.2641718  81.2534270  56.0264742
  75.2172840  81.1356115  54.8244696  75.5288852  80.2532789  56.8673504
  75.9361327  80.5091118  57.7554936  75.4287529  78.8045723  56.5263683
  75.7342092  78.6478860  55.4918418  76.3672918  77.9446417  57.4665178
  76.4773534  76.9321299  57.0781811  77.3277914  78.4577724  57.4192157
  75.8861718  77.8834894  58.9398602  74.9724606  77.1086133  59.1987422
  76.4672799  78.5402467  59.8369857  73.9581786  78.2361097  56.4729797
  73.7253339  76.9962156  56.5747241  72.9972863  79.1258264  56.1965306
  73.2211929  80.1083239  56.1282384  71.6316369  78.7212583  55.9897981
  71.0570131  79.5606882  55.5983085  71.5985998  77.8958658  55.2786476
  71.0134788  78.2680487  57.3028357  69.8685531  77.8241425  57.3233906
  71.7772045  78.3610256  58.3901780  72.7120459  78.7350958  58.3111689
  71.3117339  77.9440267  59.6991753  70.3545747  77.4229000  59.6798769
  72.3481462  77.0708888  60.3764173  73.3373491  77.4483114  60.1173226
  72.1874414  77.0733654  61.8659585  71.1985783  76.6956081  62.1258621
  72.9489613  76.4358517  62.3151405  72.2976965  78.0904404  62.2421252
  72.3051911  75.6613086  59.7693659  71.5284627  75.6966753  59.0054660
  73.2756174  75.5192750  59.2937623  72.0314497  74.5046272  60.7165569
  71.0609181  74.6457323  61.1922223  72.0287624  73.5691063  60.1571890
  72.8080722  74.4683336  61.4805204  71.0645750  79.1628551  60.5557094
  71.8519506  80.1058389  60.5739054  69.9901472  79.0934953  61.3553638
  69.3248867  78.3436852  61.2316196  69.7678741  80.0490657  62.4509919
  70.1628930  81.0259414  62.1721133  68.3053168  80.1897144  62.7430145
  67.8409004  79.2175745  62.5776039  68.2035542  80.4665862  63.7923412
  67.6313657  81.2148315  61.8901788  67.3586906  82.0162287  62.5768458
  68.2605572  81.6161593  61.0957254  66.3878640  80.6662275  61.2811845
  65.8069746  79.6918188  61.8000769  66.0197998  81.2001937  60.1088523
  65.1849449  80.8693291  59.6466323  66.5788604  81.9311638  59.6926367
  70.3850167  79.6034986  63.7320188  70.4083807  78.4691226  64.0129000
  70.8401615  80.5700762  64.5204355  71.0876478  81.4670357  64.1276078
  71.0766802  80.3484776  65.9488717  70.7326494  79.3469383  66.2070596
  72.5826380  80.4754865  66.3416591  72.5876631  81.0283132  67.2810508
  72.9189397  79.4541087  66.5199524  73.5248583  81.1560922  65.3440510
  72.9161340  81.6303275  64.5742092  74.1076159  81.9158027  65.8649498
  74.4960526  80.1692988  64.6657935  74.7857668  79.0985313  65.2213245
  75.0152762  80.5309757  63.4659891  75.6554401  79.9122588  62.9890394
  74.7593839  81.4173653  63.0549732  70.1834445  81.3589549  66.7137349
  70.0840035  82.5431206  66.3647708  69.3875539  80.8047903  67.6193252
  69.5990722  79.8602681  67.9078335  68.2339914  81.4687294  68.2171097
  67.9899361  82.3805985  67.6721041  67.0446436  80.5262179  68.1437209
  67.2704256  79.6120420  68.6927246  66.1713108  81.0074803  68.5839214
  66.8376987  80.2819757  67.1017906  68.4829742  81.8436569  69.6974630
  68.7932182  80.9473309  70.4995842  68.3573183  83.1502396  70.0096267
  68.2938498  83.8216587  69.2577839  68.4297246  83.6358224  71.3407047
  69.1627057  83.0482652  71.8935288  68.8370900  85.0888705  71.3935498
  69.3887596  85.3013635  70.4777951  67.9208072  85.6789925  71.4103436
  69.7011123  85.4528030  72.6062623  69.0804432  85.3883593  73.4999724
  70.5139957  84.7300068  72.6761789  70.2901013  86.8830370  72.4882086
  71.3603905  86.7747745  72.3125409  69.8252778  87.3497713  71.6197631
  70.0607727  87.7650215  73.7284097  70.3736526  88.7779397  73.4750258
  68.9924261  87.7586529  73.9444983  70.8154503  87.2968092  74.9321816
  71.8054547  87.3030461  74.7323014  70.6250305  87.9128870  75.7095416
  70.5253672  86.3583931  75.1673966  67.0962177  83.3678921  72.0570660
  66.0154179  83.7564173  71.5945196  67.1821695  82.6339742  73.1632096
  68.0406548  82.5842554  73.6929552  66.0542952  81.7801489  73.5783132
  65.0802238  82.1877548  73.3078661  66.1888268  80.3656280  72.9584149
  66.9336664  80.4123960  72.1639806  66.6090020  79.3284022  73.9855325
  65.8643646  79.2807283  74.7801037  66.6903369  78.3531692  73.5055267
  67.5742435  79.6059604  74.4090558  64.8933298  79.9634566  72.2720515
  64.6638235  80.6773821  71.4810147  65.0033604  78.9680674  71.8417107
  64.0826241  79.9561605  73.0006144  65.9581447  81.7548138  75.0999206
  66.9439257  81.4546603  75.7777596  64.7920565  82.1478246  75.6281495
  64.0801380  82.5551703  75.0387933  64.5654024  82.1212787  77.0680482
  65.4996589  81.9185758  77.5916659  64.0330078  83.4654934  77.5289147
  64.8291509  84.1855904  77.3399288  63.1816889  83.6887658  76.8858706
  63.6089727  83.5535491  78.9710920  63.5079949  82.5540055  79.3939595
  64.3679567  84.1066108  79.5244165  62.2658552  84.2854022  79.1148296
  61.9388857  85.1910787  78.3386473  61.4798163  83.8777103  80.0996520
  60.5839721  84.3214655  80.2433385  61.7798294  83.1249171  80.7024753
  63.6554729  80.9385775  77.4506292  62.5102597  80.8354350  76.9990305
  64.1862484  80.0427429  78.2849772  65.1217803  80.1714723  78.6431785
  63.4453102  78.8717065  78.7052395  63.1169208  78.2945044  77.8408915
  64.2330388  77.9839441  79.6311188  64.2942831  78.4513329  80.6139195
  63.5427168  76.6214961  79.7559312  63.4815156  76.1532593  78.7735314
  64.1168924  75.9828125  80.4271289  62.5380298  76.7579524  80.1560349
  65.6572118  77.8613424  79.1229435  66.1396251  78.8295783  79.2567243
  66.1632924  77.1159808  79.7364728  65.7372086  77.4564467  77.6727611
  65.2317090  78.2016185  77.0585225  66.7824535  77.3865750  77.3716296
  65.2553739  76.4880214  77.5382707  62.1795043  79.2523920  79.4485671
  62.2195109  80.0781824  80.3792028  61.0653445  78.6433270  79.0689070
  61.0598274  78.0659410  78.2402368  59.8227021  78.7960532  79.8120400
  59.7992161  79.7750397  80.2907186  58.6200930  78.6792789  78.8826821
  58.6894622  77.6807645  78.4511081  57.7036438  78.7589506  79.4673815
  58.6006876  79.7252781  77.7541366  59.5292346  79.6673402  77.1862064
  57.4297073  79.4484819  76.8356231  56.5007078  79.5067035  77.4027817
  57.4128017  80.1876977  76.0347642  57.5312367  78.4514499  76.4069981
  58.5260073  81.1659002  78.2732204  59.3934351  81.3721559  78.9002189
  58.5154687  81.8564226  77.4299120  57.6159471  81.2948244  78.8591111
  59.7415276  77.7302810  80.8771528  59.7897984  76.5642729  80.5814605
  59.5242345  78.1572470  82.1557496  58.9834753  79.4958910  82.4631853
  58.0486476  79.6420308  81.9220378  59.7023574  80.2560218  82.1573936
  58.7893420  79.4584234  83.9441828  57.7218088  79.5342542  84.1508748
  59.3047385  80.3150565  84.3785186  59.3633863  78.1589484  84.4692619
  58.6623879  77.8214111  85.2326548  60.3712401  78.1755882  84.8840553
  59.3116255  77.2331968  83.2808694  60.0598442  76.4411623  83.2500718
  57.9256849  76.6234190  83.1738881  56.9946383  77.3252535  82.7629677
  57.7583622  75.3406010  83.5305882  58.5491530  74.7236974  83.6496642
  56.4083636  74.7822542  83.6927110  55.7604875  75.1864168  82.9148882
  56.4031324  73.2471119  83.5884200  56.6250967  73.0028005  82.5496018
  57.2102710  72.8868992  84.2262868  55.0844585  72.5743132  84.0021387
  55.3006415  71.5817576  84.3973592  54.6925256  73.2050860  84.8000192
  54.0454191  72.4625648  82.8834433  54.3789206  71.9542055  81.7905418
  52.8710477  72.8377655  83.1194460  55.8704964  75.2523434  85.0383495
  56.4108440  74.9311843  86.1147520  54.7754678  76.0218869  84.9392470
  54.3374611  76.1707978  84.0414302  54.2845761  76.7695055  86.0727967
  55.1127608  76.9817328  86.7489392  53.6476616  78.1045778  85.6399193
  53.5453874  78.7538521  86.5094492  54.2876123  78.5863185  84.9006703
  52.0110050  78.0059252  84.8951052  51.8706564  79.3131535  84.6942205
  53.3441319  75.8663014  86.9035162  52.2893303  75.3938671  86.4453345
  53.8208803  75.5567236  88.1122290  54.6682166  76.0015449  88.4351135
  53.1881999  74.5674064  88.9747439  52.3507769  74.0622533  88.4934516
  54.1555090  73.5047442  89.5190712  53.8192195  73.1883490  90.5064428
  54.1949482  72.3028923  88.5881709  54.5316148  72.6184404  87.6006558
  54.8839421  71.5574810  88.9853484  53.1975943  71.8700808  88.5103180
  55.5351862  74.0960982  89.7840979  55.4525603  74.8978930  90.5178555
  56.1962944  73.3193292  90.1683706  55.9446994  74.4945489  88.8558540
  52.5068437  75.2070993  90.1690335  53.0879729  76.0081625  90.9254828
  51.2575625  74.7407376  90.3368795  50.9766445  73.9933822  89.7182970
  50.3078738  75.1809818  91.3803883  50.6619531  76.1111131  91.8248911
  48.9008128  75.4208348  90.7885084  48.6146191  74.3945754  90.5583256
  48.3186767  75.7779858  91.6380145  48.6273667  76.3141718  89.5689210
  48.5628348  75.6980462  88.6720789  47.3165125  77.0521138  89.7707449
  47.3804436  77.6688522  90.6672075  47.1196204  77.6869816  88.9068715
  46.5067330  76.3312199  89.8833041  49.7334816  77.3168364  89.2805905
  50.6655032  76.7852330  89.0886711  49.4675984  77.9103876  88.4058881
  49.8614045  77.9746838  90.1402250  50.1404764  74.0698201  92.4235372
  50.1387028  72.8841651  92.0584002  49.9792681  74.4520648  93.7009087
  49.7284280  75.8308131  94.1336421  48.8564218  76.2188199  93.6071858
  50.5976742  76.4445644  93.8973808  49.5012747  75.7061553  95.6092033
  48.4826372  76.0322103  95.8193574  50.2053924  76.3680039  96.1134612
  49.7152597  74.2877287  96.0207094  48.8825401  74.0334062  96.6764510
  50.6556028  74.0753619  96.5293890  49.6264373  73.4780323  94.7329659
  50.3264559  72.6430903  94.7022377  48.2142359  72.9653644  94.4801318
  47.6624656  73.2250105  93.4080519  47.6253104  72.2328008  95.4255747
  48.1317827  71.9209221  96.2418570  46.2241484  71.8311282  95.2823362
  46.0696566  71.4077163  94.2898878  45.8325765  70.7810367  96.3296300
  46.2195700  69.8121347  96.0140922  46.2798139  71.0568207  97.2846284
  44.4247205  70.7032563  96.4725837  44.2061724  70.0407026  97.1320222
  45.3361080  73.0687054  95.4246349  45.7652125  74.0823090  95.9808416
  44.0984870  72.9763225  94.9666295  43.8151315  72.1778868  94.4168028
  43.1483108  74.0492531  95.1573600  43.5585675  74.9868460  94.7822493
  41.8770747  73.7199552  94.3670743  41.0150651  73.8376147  95.0237294
  41.7298030  74.6447981  93.1658280  42.5912783  74.5273519  92.5084344
  40.8203968  74.3914804  92.6209340  41.6721960  75.6783386  93.5072604
  41.9569518  72.3620031  93.8890839  41.1628120  72.1501458  93.3930409
  42.8513459  74.3049662  96.6475599  42.4266947  75.4092830  97.0295189
  43.1138479  73.3043969  97.4874705  43.5591393  72.4640644  97.1473876
  42.7174611  73.3571742  98.8858642  41.9164881  74.0838918  99.0215949
  42.2149187  71.9891767  99.3328428  42.9794618  71.2564730  99.0745439
  42.0932040  72.0202144 100.4155811  40.8965465  71.5949778  98.6860668
  41.0890862  71.3702988  97.6369965  40.5290501  70.6995692  99.1873570
  39.6434861  72.8941416  98.7954789  38.6096023  72.4988990  97.3816675
  38.2037124  71.4939252  97.4973399  37.7909387  73.2157102  97.3178527
  39.2056388  72.5467858  96.4703231  43.8348253  73.8204837  99.8230081
  43.5776552  74.3172669 100.8952813  45.0736274  73.6190449  99.4268164
  45.2174276  73.0853061  98.5815096  46.2416889  74.0579851 100.1715001
  46.3530703  73.4766285 101.0867694  47.4840934  73.8533619  99.3096757
  47.4715654  74.5737785  98.4917869  48.3714415  74.0147636  99.9217729
  47.5082870  72.5378305  98.7801798  48.2944614  72.4243011  98.2410688
  46.2152049  75.5014901 100.6711210  47.0900774  75.8918143 101.4270166
  45.2321526  76.2892181 100.2455134  44.5188172  75.9056308  99.6420959
  45.1471259  77.7152392 100.6092886  46.1149615  78.1026538 100.9275704
  44.6658748  78.5304385  99.3984511  43.6934584  78.1601597  99.0737975
  44.5794404  79.5804607  99.6778840  45.3829421  78.4296459  98.5837398
  44.1628753  77.8912645 101.7840485  44.3079225  78.7349922 102.6485726
  43.1439833  77.0712503 101.7463423  43.2103855  76.2687715 101.1366557
  41.9385117  77.2498417 102.5090542  41.8176903  78.1336571 103.1354500
  40.7946237  77.2178074 101.4765993  41.2192658  77.4465377 100.4991227
  40.0876092  75.8582436 101.4209040  39.6622829  75.6290207 102.3979687
  39.2911975  75.8924761 100.6774950  40.8060679  75.0854400 101.1476031
  39.8645725  78.3856815 101.6719884  40.4191505  79.3164158 101.5524937
  39.0652970  78.3420422 100.9321547  39.4350302  78.3452398 102.6729672
  41.8010662  76.1117162 103.5544039  40.8616664  76.1235133 104.3708505
  42.7606395  75.1830366 103.5350134  43.5906646  75.3426846 102.9821390
  42.6463308  73.9164119 104.2696517  41.6775075  73.4533097 104.0825232
  43.7491230  72.9571088 103.7947959  43.6714127  72.9112466 102.7085376
  44.6979723  73.4166484 104.0715781  43.6817302  71.5500129 104.3672900
  44.6757476  71.1027710 104.3694742  43.3202839  71.6359199 105.3920234
  42.7414613  70.6397066 103.5955220  42.8833199  70.4617394 102.3893284
  41.7978147  70.0337067 104.2997686  41.1448213  69.4169384 103.8379268
  41.7354537  70.1910794 105.2954825  42.7662676  74.1268163 105.7672762
  43.7459468  74.6667087 106.2572546  41.7677543  73.6545345 106.4860182
  40.9332400  73.3273016 106.0206110  41.8267857  73.5688501 107.9343688
  41.8825730  74.5664163 108.3700849  40.5546710  72.8704912 108.4618062
  40.6323447  71.9026399 107.9664985  40.5971273  72.7297783 109.5418512
  39.2253118  73.5309937 108.0852921  39.1478195  73.5047814 106.9983659
  37.9939134  72.8484163 108.7031514  38.0704698  72.8746493 109.7901426
  37.0914861  73.3735789 108.3902139  37.9455697  71.8124327 108.3677394
  39.2719593  75.0297842 108.4005648  40.0759815  75.4964551 107.8314725
  38.3213377  75.4885573 108.1286325  39.4517892  75.1720194 109.4661770
  43.0358637  72.7535857 108.3379976  43.2753562  71.7176252 107.7433824
  43.8023090  73.2401739 109.3157372  43.5847298  74.1300118 109.7411159
  45.0395586  72.5661370 109.7112947  45.6108152  72.3115936 108.8185614
  45.9049347  73.4549381 110.6090691  45.2357371  73.9707565 111.2976948
  46.5695485  72.7993413 111.1717247  46.7362941  74.4844215 109.8384417
  46.0119265  75.1192513 109.3281640  47.3113889  75.0844996 110.5436165
  47.6827937  73.8608482 108.8086913  48.7637077  73.3667556 109.2031166
  47.3672078  73.9063916 107.5956755  44.7793046  71.2165000 110.3627829
  45.5576140  70.2821601 110.1768921  43.6835091  71.1086739 111.1100946
  43.0950454  71.9130343 111.2738447  43.3477687  69.8493287 111.7904650
  44.1953137  69.5274775 112.3955919  42.1280936  70.0186960 112.7057160
  42.0847235  69.1637534 113.3804688  42.2591243  70.9322897 113.2856103
  40.9205112  70.0980622 111.9652183  40.1814045  70.2033205 112.5687428
  43.1114899  68.6862301 110.8092188  43.3556623  67.5254066 111.1551935
  42.6484274  69.0074321 109.5961964  42.4727725  69.9795835 109.3860383
  42.3077225  68.0089264 108.5875932  42.0803557  67.0544540 109.0623415
  41.0782186  68.4711024 107.8069200  41.4271706  69.3423627 107.2526302
  40.7763811  67.6924435 107.1064313  39.8773482  68.8673554 108.6805743
  40.1370783  69.7660365 109.2400504  38.6391530  69.1369519 107.8329492
  38.3785186  68.2385203 107.2734949  37.8079434  69.4146793 108.4810686
  38.8444768  69.9506816 107.1374015  39.5868684  67.7969334 109.7237402
  40.4586807  67.6678486 110.3651292  38.7329346  68.1010247 110.3290721
  39.3607488  66.8545530 109.2248532  43.4803348  67.7102727 107.6407962
  43.3971824  66.7934559 106.8227911  44.5773712  68.4429806 107.7986068
  44.5836207  69.2436071 108.4142833  45.8088018  68.1074475 107.0853058
  45.6850244  68.3239736 106.0242239  46.9974770  68.9241472 107.6179733
  46.8866145  69.1230941 108.6839137  47.8803338  68.3062352 107.4541178
  47.1887660  70.2428758 106.8966103  47.4864306  71.2634234 107.5219281
  47.0847368  70.2188509 105.5712112  47.2037404  71.0713588 105.0428474
  46.8871947  69.3482041 105.0989274  46.1652870  66.6271064 107.2389102
  46.5448500  65.9611929 106.2687442  46.0198822  66.1202922 108.4609764
  45.7345557  66.7420466 109.2040172  46.3964450  64.7508972 108.8091312
  47.4302967  64.5607811 108.5208508  46.2643712  64.5457530 110.3205787
  45.2539978  64.8287405 110.6158121  46.4228072  63.4890882 110.5361188
  47.2786296  65.3840311 111.1044913  48.2424712  64.8798368 111.0345030
  47.3423907  66.3577074 110.6187022  46.9092494  65.5715885 112.5707155
  46.5506005  64.6136166 112.9472256  47.8146907  65.8560989 113.1067466
  45.8393983  66.6326816 112.7838469  46.1887175  67.3216969 113.5528297
  45.7019476  67.1734457 111.8474812  44.5412505  66.0334781 113.2064773
  44.6683030  65.5327088 114.0743410  43.8589138  66.7665168 113.3375151
  44.2171767  65.3953109 112.4938639  45.6449808  63.6916748 107.9972036
  46.0562989  62.5364727 107.9693391  44.5837328  64.0870593 107.2994452
  44.3067605  65.0583005 107.2907056  43.7600051  63.1277919 106.5772951
  44.0224831  62.1116604 106.8717122  42.2886945  63.3633633 106.8986954
  41.9120871  64.2434823 106.3774885  41.6869086  62.4959391 106.6275330
  41.9850258  63.6543815 108.6591370  40.6685214  63.8083336 108.5495321
  43.9746359  63.1924407 105.0685661  43.3564955  62.4338784 104.3182683
  44.8212436  64.1191958 104.6475148  45.3911383  64.6276249 105.3084379
  44.8970836  64.4940769 103.2301477  43.8898464  64.5483603 102.8170790
  45.5810013  65.8656997 103.0445422  46.0116145  66.1362183 104.0086434
  46.3803174  65.7234983 102.3172372  44.6520057  66.9854209 102.5688103
  43.6694606  66.8939907 103.0317859  45.1194105  67.9161374 102.8903716
  44.4741065  67.0268668 101.0443389  44.0981861  66.0278463 100.4241808
  44.6830575  68.2031494 100.4461636  44.5787270  68.2825466  99.4447083
  44.9443852  69.0075746 100.9981684  45.6121615  63.4328865 102.4024597
  45.3383965  63.2981661 101.2075261  46.4980226  62.6626330 103.0399128
  46.8363557  62.9167886 103.9569924  47.0483918  61.4677396 102.4054230
  47.0759495  61.6054332 101.3245066  48.4656362  61.1006831 102.9155619
  48.3815051  60.5607725 103.8587050  49.1737760  60.2194270 101.8854547
  49.2586980  60.7588711 100.9421154  50.1693862  59.9639529 102.2482136
  48.5986374  59.3065122 101.7308541  49.2835282  62.3694041 103.2064227
  49.0886797  63.0661855 102.3911739  48.9020147  62.7858991 104.1386667
  50.7792427  62.1405872 103.3294915  51.1615822  61.7245055 102.3974012
  51.2766747  63.0885127 103.5346692  50.9749171  61.4442168 104.1448931
  46.0894881  60.2894511 102.6320839  45.6151480  60.0501564 103.7471648
  45.8077234  59.5726808 101.5468176  46.1335325  59.8959149 100.6471135
  45.0450520  58.3209666 101.6015613  44.5912910  58.2041566 102.5857135
  43.9402343  58.3341979 100.5551591  44.3093833  58.0251472  99.5772450
  43.1449262  57.6597446 100.8724882  43.3183949  59.6661100 100.3718569
  42.7856272  60.3446686 101.4636677  42.8224057  59.8765335 102.4473327
  42.2183187  61.5888827 101.3149114  41.7967610  62.1119797 102.1732582
  42.1856667  62.1747062 100.0653621  41.7384028  63.1606103  99.9386810
  42.7217215  61.5095655  98.9705255  42.6921495  61.9740637  97.9848951
  43.2900281  60.2650985  99.1284980  43.7197193  59.7492036  98.2698259
  45.9340153  57.0973277 101.3257604  46.9908748  57.2195105 100.6830999
  45.4799636  55.8982969 101.7557419  44.9110361  55.6730706 103.0968324
  43.8622313  55.9699015 103.0969452  45.4578324  56.2725138 103.8246927
  45.0948350  54.1851739 103.3188426  44.2099759  53.7829615 103.8121463
  45.9683020  54.0206300 103.9497800  45.2902017  53.5775348 101.9694117
  44.3132898  53.4047071 101.5178891  45.8660936  52.6522276 101.9534505
  46.0312548  54.6643787 101.2003736  47.1031412  54.6363215 101.3962578
  45.7878336  54.5964000  99.6945337  44.7066767  54.9312255  99.2168803
  46.7985299  54.1634917  98.9534208  47.6419741  53.8292183  99.3972255
  46.7699226  54.2483880  97.4916629  46.4150341  55.2335590  97.1890222
  48.1617122  54.0314911  96.9082365  48.8896222  54.0117299  97.7193196
  48.1823596  53.0788659  96.3789170  48.4841806  55.0755201  96.0114849
  49.3616582  54.9281423  95.6510509  45.7542420  53.2706520  96.8505559
  45.3814082  52.2374269  97.4364448  45.3118372  53.6493223  95.6583576
  45.7542441  54.4428773  95.2171706  44.1840673  53.0190966  94.9783843
  43.3423823  52.9267386  95.6647774  43.7412411  53.8725996  93.7643285
  42.6648677  53.7307618  93.6673669  43.9482173  54.9097486  94.0281141
  44.4210599  53.5394648  92.4346366  45.4934342  53.4517496  92.6090502
  44.0320866  52.5853626  92.0789810  44.1645999  54.6108525  91.3905098
  44.3468721  54.1957754  90.3992547  43.1275874  54.9390040  91.4613702
  45.0863859  55.7947313  91.6202654  44.9412831  56.1494887  92.6406540
  46.1154248  55.4573644  91.4963238  44.8113311  56.8960087  90.6719606
  43.8579788  57.2090553  90.7869430  45.4420600  57.6633209  90.8550263
  44.9461444  56.5676096  89.7264034  44.5089999  51.5944935  94.5212861
  45.5263837  51.3615207  93.8868225  43.5985090  50.6415890  94.7893631
  42.5578222  50.6879580  95.8361457  42.1655468  51.7017744  95.9161247
  42.9880380  50.3889394  96.7919706  41.5337612  49.7118437  95.3398667
  40.8267337  50.2243006  94.6874871  40.9994830  49.2809225  96.1865987
  42.2960421  48.6617573  94.6001421  41.6867509  48.3106497  93.7673236
  42.5672806  47.8166481  95.2328504  43.5730028  49.3506320  94.0636733
  44.4904253  48.8149851  94.3076335  43.4691949  49.5194556  92.5407509
  42.8538475  50.4812273  92.0867184  44.0679194  48.6029589  91.7828026
  44.5137792  47.8051709  92.2127360  44.2463986  48.8066959  90.3313931
  44.3302276  49.8632393  90.0768584  45.4969477  48.0599534  89.7764944
  45.6582780  48.3603421  88.7411981  46.7337965  48.3993867  90.6027911
  46.5733867  48.0988473  91.6381875  47.5968986  47.8689298  90.2005839
  46.9159956  49.4732299  90.5607694  45.2847535  46.5508946  89.7236525
  44.4383842  46.3249671  89.0750248  46.1811287  46.0709544  89.3308821
  45.0828437  46.1764937  90.7272247  42.9743194  48.4809224  89.5207882
  42.5178113  47.3297925  89.4301226  36.0952330  50.6322508  92.7205944
  35.2365987  51.1632465  92.7504288  37.0399502  50.8972394  91.6283011
  38.0571155  50.9120154  92.0197799  36.9453704  49.8055067  90.5430679
  37.5575658  50.1133003  89.6953774  37.3396526  48.8776363  90.9574325
  35.6092170  49.6002594  90.1114061  35.5919320  48.9159064  89.4383816
  36.7595295  52.2806917  91.0258786  37.5602416  52.8059573  90.2254149
  35.5837632  52.8164353  91.3721221  34.8923675  52.2067556  91.7848714
  35.1909167  54.1855968  91.0396128  36.0823745  54.8073383  90.9569101
  34.4224009  54.2418295  89.6972361  34.8634865  54.9651333  89.0113977
  34.6170596  53.2325205  89.3346022  32.9367525  54.4680085  89.7769916
  32.4264940  55.7220228  90.0773903  33.1198676  56.5376202  90.2826545
  31.0688115  55.9459190  90.1188114  30.6791858  56.9213570  90.4100407
  30.2016978  54.9300821  89.7847780  28.8567359  55.1570619  89.8298974
  28.6360394  56.0500298  90.1046719  30.6792398  53.6910015  89.4119458
  29.9931598  52.8902952  89.1357864  32.0428490  53.4702258  89.3908012
  32.4337426  52.5049832  89.0689175  34.4469746  54.7955103  92.2328101
  34.3091973  56.0230631  92.2923885  34.0709795  53.9713935  93.2276559
  33.9766977  52.9833138  93.0408170  33.7321779  54.4614766  94.5695371
  32.9583076  55.2246809  94.4874202  33.2146870  53.3335749  95.4720863
  32.5149428  53.7962725  96.1680520  32.6767332  52.6443089  94.8212267
  34.2794961  52.5679089  96.2548858  34.8473980  51.9561338  95.5539439
  34.9447128  53.2908428  96.7270672  33.6593113  51.6720993  97.3255309
  34.4029754  50.9287193  97.6126701  33.4186721  52.2958747  98.1864005
  32.3966294  50.9666498  96.8402809  31.6087881  51.7127811  96.7368657
  32.6072932  50.5241223  95.8666847  31.9522476  49.9039125  97.7820559
  31.7565771  50.3138268  98.6841552  31.1165613  49.4643471  97.4235722
  32.6819699  49.2122059  97.8776933  34.9621840  55.1258099  95.1879440
  34.8471815  56.0986289  95.9537532  36.1356876  54.5976960  94.8228414
  36.1511648  53.7459885  94.2802051  37.4054296  55.1756825  95.2356874
  37.4635347  55.1746202  96.3241367  38.5807633  54.3914136  94.6871447
  38.4089987  53.3853765  95.0698790  38.7542379  54.3458654  93.6120019
  39.8392563  54.8673150  95.2987043  40.2916664  54.5793763  96.5557844
  39.7034743  53.8701250  97.1381008  41.4457393  55.2831290  96.8203351
  41.9989145  55.2129102  97.6624550  41.7279853  56.0889212  95.7468170
  42.7838647  56.9761568  95.5431124  43.5310406  57.0856334  96.3291415
  42.8145289  57.6599207  94.3564499  43.6239340  58.3645658  94.1655609
  41.8257189  57.4758603  93.3748566  41.8590968  58.0268445  92.4349621
  40.7788787  56.5885921  93.5723733  40.0612496  56.4478653  92.7641003
  40.7202156  55.8753605  94.7790536  37.5236762  56.6309057  94.8115634
  38.0813149  57.4371513  95.5449835  36.9922479  56.9715881  93.6430453
  36.6391210  56.2593687  93.0200330  37.0139297  58.3515612  93.1736039
  37.9435631  58.8270983  93.4862464  36.9197753  58.4176911  91.6433448
  36.1560094  57.6835940  91.3867083  36.6633031  59.3789333  91.1979962
  38.1704914  57.9712004  90.9943516  38.4690193  56.7112043  90.5973644
  37.6800431  55.9654664  90.6947883  39.7574911  56.6524156  90.1401412
  40.2117222  55.8328069  89.7632921  40.3266735  57.8898661  90.2633991
  41.6008173  58.3253220  89.9319692  42.2998250  57.6064189  89.5045757
  41.9015573  59.6394209  90.1643084  42.8916856  60.0186554  89.9114702
  40.9629238  60.5132454  90.7220097  41.2115796  61.5573831  90.9118684
  39.6918063  60.0789079  91.0491279  38.9961807  60.7965432  91.4841052
  39.3563850  58.7440306  90.8079302  35.9540260  59.2010661  93.8228699
  36.1416409  60.4011336  93.9891369  34.8426415  58.5856105  94.2090952
  34.6268395  57.6459916  93.9080222  33.8544782  59.2998575  94.9974820
  33.7045296  60.2897682  94.5665627  32.5084753  58.5714794  95.0299422
  32.7124984  57.5008368  95.0158586  32.0138015  58.8342878  95.9649981
  31.5979630  58.9331875  93.8515159  30.7474604  59.5012196  94.2284585
  32.1703630  59.5523715  93.1608124  31.0752859  57.7172064  93.0966598
  29.8873562  57.6135900  92.8021219  31.9679871  56.7966596  92.7743056
  31.6773167  55.9692830  92.2732467  32.9364437  56.9251090  93.0306142
  34.4053725  59.5379028  96.3898422  34.2077906  60.6192951  96.9597905
  35.1141138  58.5342815  96.9071536  35.1089381  57.6367107  96.4440779
  35.8374897  58.6578850  98.1677786  35.1208611  58.9536969  98.9339627
  36.4676286  57.3194121  98.5762321  35.6893398  56.5606356  98.6576199
  37.1942740  57.0144963  97.8231631  37.1666962  57.4764990  99.9224314
  37.9454823  58.2348366  99.8417024  36.4405489  57.7809733 100.6761605
  37.7928390  56.1465192 100.3282931  37.0145513  55.3877415 100.4096794
  38.5194852  55.8416054  99.5752245  38.4919047  56.3036065 101.6744939
  39.2706903  57.0619446 101.5937662  37.7657563  56.6080777 102.4282214
  39.0954667  55.0215937 102.0657164  39.7686770  54.7394978 101.3676408
  39.5584536  55.1256308 102.9572990  38.3739387  54.3188634 102.1409926
  36.9142202  59.7676129  98.0916179  36.8871058  60.7296885  98.8669277
  37.8295380  59.6192249  97.1330834  37.8320919  58.7470364  96.6237896
  38.8455718  60.6287741  96.7932843  39.6590587  60.6072471  97.5184565
  39.4287959  60.3197996  95.3811864  39.7391423  59.2749148  95.3810760
  38.6032872  60.4531648  94.6820089  40.6055558  61.2013164  94.9549301
  41.8318863  61.1292142  95.6151487  41.9519049  60.4033285  96.4193781
  42.8853291  61.9568896  95.2669566  43.8316796  61.8993012  95.8047356
  42.7373728  62.8458444  94.2310269  43.7871942  63.6722395  93.9082561
  44.5559580  63.5378718  94.4673154  41.5449557  62.9113377  93.5353796
  41.4324781  63.6136640  92.7094334  40.4943086  62.0850131  93.8879717
  39.5608745  62.1204026  93.3262347  38.2801527  62.0492268  96.8015006
  38.7943240  62.9342303  97.4965441  37.2216559  62.2571773  96.0218038
  36.8653550  61.5087473  95.4447408  36.5865325  63.5728538  95.9226083
  37.3304364  64.3023393  95.6023629  35.4360777  63.5809806  94.9249523
  35.8492078  63.3549205  93.9419367  34.7404654  62.7938586  95.2159205
  34.6998825  64.9154360  94.8719393  34.2443869  65.1768344  95.8270809
  35.4560807  65.6573854  94.6154682  33.6372084  64.9293135  93.8146975
  33.7768302  65.5889201  92.8012218  32.6014821  64.1286199  94.0069855
  31.8567294  64.0988139  93.3254017  32.5604368  63.5509435  94.8344555
  36.0732715  64.0773725  97.2652251  36.2102615  65.2648153  97.5663985
  35.4711084  63.1838916  98.0564300  35.3240820  62.2403504  97.7274730
  34.8722275  63.5750261  99.3359813  34.3034389  64.4764727  99.1080061
  33.9116046  62.5156877  99.8833585  33.1553436  62.2874681  99.1323030
  34.4679791  61.6100292 100.1248751  33.2335829  63.0462185 101.1421071
  33.9892302  63.2742429 101.8938403  32.6765924  63.9516801 100.9012692
  32.2768596  61.9911788 101.6872647  31.5205993  61.7629571 100.9362094
  32.8332353  61.0855218 101.9287825  31.5988365  62.5217115 102.9460124
  32.3544831  62.7497371 103.6977458  31.0418450  63.4271703 102.7051723
  30.6766199  61.5047215 103.4715091  31.1926094  60.6657684 103.6951436
  30.2275673  61.8560903 104.3051707  29.9760874  61.2935962 102.7752481
  35.9269220  63.9724543 100.3583963  35.6910106  64.8878577 101.1434272
  37.0828114  63.3018548 100.3370909  37.2218621  62.5740770  99.6507209
  38.1343285  63.5235631 101.3409207  37.6275107  63.8425201 102.2516903
  38.8976366  62.2186627 101.6337719  38.1935114  61.4475764 101.9463945
  39.4178095  61.8915305 100.7334916  39.9117870  62.4617754 102.7464351
  40.6165767  63.2324693 102.4343402  39.3922798  62.7885127 103.6472442
  40.6677313  61.1694677 103.0364597  39.9636069  60.3983802 103.3490806
  41.1879051  60.8423376 102.1361794  41.6630900  61.3675784 104.1136850
  41.7450655  62.2833792 104.5316423  42.4545522  60.3947443 104.5564962
  42.4053675  59.1634303 104.0561490  41.7515412  58.9476490 103.3171974
  43.0220673  58.4498119 104.4174380  43.3140024  60.6832719 105.5296345
  43.3487996  61.6193245 105.9073841  43.9279222  59.9650023 105.8864117
  39.1154043  64.6279875 100.9476179  39.5369242  65.4044151 101.7955437
  39.4791345  64.6974146  99.6670062  39.1241854  64.0252557  99.0019401
  40.4181675  65.7135383  99.1920677  41.2901825  65.7404940  99.8454913
  40.8840551  65.4006406  97.7666370  41.1718298  64.3495864  97.7427623
  40.0324386  65.5587599  97.1049364  42.0586829  66.2611034  97.2995618
  41.6652296  67.2254974  96.9782527  42.7294241  66.4067972  98.1463095
  42.8259833  65.6156790  96.1481061  43.1058398  64.6057787  96.4479075
  42.1654971  65.5672338  95.2823633  44.0776045  66.4025704  95.7874230
  43.8024809  67.4516885  95.6789842  44.7940271  66.2977093  96.6021880
  44.6929910  65.9170158  94.5195507  44.0294491  66.0144965  93.7643623
  45.5180760  66.4625591  94.3153030  44.9483895  64.9450140  94.6199655
  39.8318421  67.1266479  99.1985489  40.4881498  68.0845128  99.6056854
  38.6018208  67.2489064  98.7382346  38.0867108  66.4311052  98.4450413
  37.9646372  68.5529740  98.6011843  38.7125712  69.3436424  98.6606590
  37.2759582  68.6454659  97.2776317  36.5436397  67.8460104  97.1650268
  36.7774597  69.6101389  97.1827357  38.1968815  68.5348293  96.1396274
  39.2620273  69.3818024  96.0430772  39.4385243  70.1237036  96.8218783
  40.1023004  69.3015819  94.9781167  40.9463031  69.9861595  94.8937744
  39.8849996  68.3503354  94.0018245  40.5684698  68.2885796  93.1549746
  38.8225272  67.4884678  94.0894301  38.6334196  66.7472980  93.3128956
  37.9983935  67.5690629  95.1669754  37.1698834  66.8687602  95.2730279
  36.9721546  68.8127531  99.6981912  35.9973365  69.5502010  99.5014244
  37.2337897  68.2542754 100.8722623  38.0559539  67.6817537 101.0001845
  36.3283231  68.4181460 101.9941040  35.3551769  67.9923535 101.7495916
  36.8753073  67.7071997 103.2264000  36.8656177  66.6372867 103.0183339
  37.8880476  68.0176685 103.4834338  36.0425900  67.9122207 104.4484774
  36.1663027  69.0254676 105.2535939  36.8318054  69.7704739 105.1046930
  35.2854601  68.9564978 106.2342196  35.2282595  69.7444049 106.9852384
  34.5883607  67.8423668 106.0912004  35.0317344  67.1787481 104.9718300
  34.5638977  66.2405842 104.6733697  36.0944035  69.8787374 102.3295984
  34.9498523  70.3276356 102.5024391  37.1844815  70.6280425 102.3915074
  38.0885105  70.2191077 102.2028188  37.1318320  72.0284318 102.8321248
  36.4436378  72.1308495 103.6711709  38.5216942  72.4879607 103.2804665
  39.2788912  72.2172998 102.5446033  38.5431400  73.5654657 103.4436325
  39.0437296  71.7360172 104.8352928  40.2259117  72.3426510 104.8930810
  36.5622726  72.9994462 101.7959307  36.7153133  74.2193678 101.9426162
  35.9311334  72.4741979 100.7468142  35.9778735  71.4789840 100.5810914
  35.1776830  73.2944390  99.8112459  35.8321268  73.9950144  99.2925971
  34.4946827  72.4113706  98.7781046  33.8289618  71.7104066  99.2816572
  33.9169837  73.0324049  98.0935023  35.2479701  71.8575954  98.2177562
  34.1378291  74.0965502 100.5543673  33.7976514  75.2165846 100.1591865
  33.6447171  73.5245014 101.6567043  33.9056733  72.5802354 101.9023930
  32.5969949  74.1678283 102.4208408  31.8029754  74.4716474 101.7386925
  31.9931294  73.2421330 103.5002910  31.4312690  73.7779675 104.2653359
  31.3140879  72.6116895 102.9262322  33.0247786  72.3490778 104.1878099
  33.8619465  72.8123022 104.9609659  32.8746084  71.0489596 104.0105095
  33.5244617  70.4055361 104.4392247  32.1106081  70.7041517 103.4470276
  33.0146797  75.5082673 102.9942007  32.1536377  76.3087319 103.3637562
  34.3316188  75.7498409 103.0200987  34.9501242  75.0163687 102.7045533
  34.9248671  77.0065923 103.4857793  34.3211063  77.4221787 104.2925383
  36.3221284  76.7747937 104.0002764  36.8628512  76.4576996 103.1085537
  36.6773284  77.7577732 104.3096052  36.5598788  75.7798674 105.1139561
  37.1764907  74.9515744 104.7649267  37.2838544  76.5158821 106.2209772
  36.6676198  77.3440937 106.5708619  37.4757912  75.8319363 107.0477052
  38.2302141  76.9023602 105.8426409  35.2851670  75.1667626 105.6484637
  34.7685246  74.6426041 104.8444501  35.5261804  74.4624151 106.4446473
  34.6406185  75.9526864 106.0421386  34.9840410  78.0196942 102.3542224
  35.2246081  79.2113329 102.5717049  34.7703491  77.5270499 101.1364472
  34.4872682  76.5622011 101.0414134  34.8573198  78.3375823  99.9405483
  35.2914116  79.3093346 100.1758371  35.6936856  77.6818508  98.8270100
  36.3056126  78.4544264  98.3614217  36.5861833  76.5854439  99.3585482
  35.9748949  75.8122241  99.8239051  37.1574414  76.1514101  98.5379521
  37.2712283  77.0003160 100.0979366  34.8172566  77.1519002  97.8197362
  35.3385116  76.7428466  97.1250645  33.4841163  78.4989151  99.3571687
  32.5153863  78.0904853  99.9280666  33.4196601  79.0739719  98.1727236
  34.2629292  79.3909602  97.7160892  32.1454666  79.3275137  97.5201738
  31.3275169  79.1282733  98.2125326  32.0607378  80.7998404  97.0677212
  31.2898295  80.8726770  96.3005873  31.7725313  81.4011670  97.9299528
  33.2928869  81.2787033  96.5473753  33.1926401  82.1951956  96.2798080
  31.9097651  78.3984065  96.3226390  31.2334876  78.7813165  95.3472854
  32.4967217  77.2108122  96.3333476  33.2642855  77.0248968  96.9629352
  32.1514077  76.1872839  95.3317179  31.1422084  76.3516179  94.9540800
  33.1249017  76.2719351  94.1683170  34.1414549  76.5666272  94.4288459
  33.1422421  75.2921843  93.6909411  32.6657022  77.2097807  93.1703659
  31.5020993  77.1512377  92.4576682  30.8632282  76.2867652  92.6383083
  31.3892928  78.2371180  91.6385006  30.6492332  78.4106209  90.9734381
  32.4716383  79.0391680  91.8452688  32.8076462  80.2194119  91.2526474
  32.1259791  80.6590977  90.5245643  33.9866906  80.7740684  91.6161918
  34.3053900  81.7048664  91.1469949  34.8195591  80.1774502  92.5912891
  35.7594206  80.6457221  92.8836612  34.4791966  79.0187577  93.1855162
  35.1721049  78.5768884  93.9015681  33.2876908  78.4143047  92.8163121
  32.0319239  74.7584271  95.8476258  32.4906336  74.4397618  96.9369525
  31.4265677  73.8673531  95.0378369  30.6508962  74.1805867  93.8213423
  31.2997589  74.6820183  93.1032590  29.8237716  74.8397331  94.0849520
  30.1826776  72.8419073  93.3370511  30.8735357  72.4633457  92.5837216
  29.1880454  72.9378968  92.9016271  30.1542916  71.9677450  94.5332136
  30.3398192  70.9325631  94.2467231  29.2030814  72.0331071  95.0614433
  31.2847635  72.4687818  95.4311293  31.0305810  72.4604440  96.4910444
  32.5318749  71.6180961  95.2007795  33.3847208  71.9888034  94.4239546
  32.5733080  70.4649333  95.8575404  31.8839370  70.3098212  96.5792102
  33.6210100  69.4339266  95.6519738  34.5909860  69.8177356  95.9681012
  33.2942215  68.1829838  96.4811235  32.3435105  67.7802543  96.1317573
  34.0821630  67.4481564  96.3159663  33.1961957  68.4976534  97.9736405
  34.0429472  69.1368413  98.2237434  32.2681849  69.0488005  98.1257425
  33.2076970  67.2746808  98.8640329  33.5700306  66.4148482  98.3005605
  33.8612193  67.4499933  99.7185933  31.8652002  66.9801260  99.3547323
  31.6163068  67.3639098 100.2552107  30.9563456  66.2614176  98.6966891
  31.2443512  65.7101425  97.5226868  32.1625856  65.8353697  97.1211101
  30.5437361  65.1683694  97.0371768  29.7524307  66.0817217  99.2279408
  29.5337955  66.4900789 100.1254613  29.0610681  65.5375376  98.7319770
  33.8035407  69.0811035  94.1845215  34.9277766  69.0332371  93.6957983
  32.6905260  68.8688110  93.4841508  31.7969099  68.9679605  93.9442801
  32.7079028  68.4155052  92.0804354  33.3988410  67.5773268  91.9900994
  31.3087194  67.9601120  91.5874281  31.3616432  67.6238699  90.5519381
  30.9579667  67.1423345  92.2169617  30.2470066  69.0312543  91.6398026
  29.3634457  69.2212792  92.6244689  29.3705998  68.4910628  93.4336861
  28.6199980  70.3324011  92.3862113  27.8914062  70.6910166  92.9867515
  28.9771850  70.8520138  91.1799713  28.4566424  71.9335202  90.4814440
  27.6522525  72.5091048  90.9394373  28.9855003  72.2066120  89.2661205
  28.5817285  73.0245080  88.6693673  30.0356342  71.4640804  88.7613613
  30.4952537  71.7267774  87.8085551  30.5373578  70.3658815  89.4460609
  31.3639699  69.8106336  89.0027629  29.9897533  70.0474633  90.6733462
  33.2417036  69.4488186  91.1165589  33.5908162  69.1005304  89.9771003
  33.3184237  70.7088094  91.5510301  32.8886608  71.0091485  92.4142796
  33.9389573  71.7199678  90.6974830  33.7780307  71.4358162  89.6575505
  33.3928445  73.0869070  90.9064519  32.3120830  73.0238765  90.7796415
  33.6190917  73.5377589  91.8727048  33.9842833  73.9433578  89.7966080
  34.6442143  73.3235448  89.1896287  32.8878225  74.5287046  88.9174540
  32.2277143  75.1490577  89.5236867  33.3369053  75.1366109  88.1320399
  32.3127033  73.7201281  88.4662973  34.8756474  75.0049698  90.4227742
  35.6757520  74.5230811  90.9846598  35.3068480  75.6269212  89.6383358
  34.2840057  75.6267440  91.0946790  35.4338397  71.7071049  90.8618340
  36.1702036  71.5628650  89.8991398  35.8815495  71.8465597  92.0975197
  35.2411930  72.0667391  92.8468954  37.2873314  71.7527405  92.4049273
  37.8219083  72.5868651  91.9504354  37.5058228  71.7976597  93.9116405
  36.8143599  71.1184945  94.4103518  38.5282752  71.4537979  94.0680062
  37.3499603  73.1751995  94.4805349  38.3731666  74.0887080  94.4054351
  39.3010991  73.7869438  93.9196584  38.2479190  75.3689453  94.9290644
  39.0906716  76.0592293  94.8919451  37.0647059  75.7629527  95.4940050
  36.9246243  77.0472029  96.0001458  37.7189947  77.5774155  95.9029350
  36.0183804  74.8713820  95.5513781  35.0711591  75.1723574  95.9989115
  36.1686931  73.5851286  95.0382150  35.3361877  72.8825556  95.0759767
  37.8606299  70.4591913  91.7941079  39.0550102  70.3671504  91.4943778
  36.9878971  69.4848227  91.5770524  36.0463917  69.5556127  91.9357383
  37.4042830  68.2324483  90.9876117  38.3759697  67.9756225  91.4094701
  36.4470365  67.0661837  91.2218014  35.7947999  67.3012224  92.0628980
  35.8439674  66.9122861  90.3269701  37.1860044  65.8739312  91.5098562
  36.5762625  65.1468769  91.6554817  37.7387997  68.3966576  89.5264649
  38.6382649  67.7445532  89.0435433  37.0745232  69.3152185  88.8408750
  36.3599013  69.8468555  89.3170861  37.3606941  69.6354593  87.4275491
  37.3895479  68.7202706  86.8361979  36.2727823  70.5440752  86.8662300
  36.4251078  71.4640887  87.4305627  36.5351584  70.7115445  85.8216187
  34.8283619  70.1314215  86.9604407  34.4303553  70.3518191  87.9509540
  34.0628449  70.9296598  85.9181566  34.4600058  70.7094220  84.9272694
  33.0077972  70.6582938  85.9547013  34.1708951  71.9946044  86.1238714
  34.6654244  68.6268616  86.7503743  35.2293707  68.0898194  87.5130339
  33.6108939  68.3612205  86.8245461  35.0396021  68.3546454  85.7634658
  38.6689050  70.4075517  87.1922717  38.9412871  70.8311976  86.0843754
  39.3957146  70.7260742  88.2574695  38.9920537  70.6223114  89.1774643
  40.7390593  71.3437046  88.1447853  41.0749138  71.3299985  87.1079087
  40.6768546  72.7929988  88.6180526  40.3989153  72.8923787  89.6673250
  41.7208229  73.0793179  88.4905716  39.7883429  73.7076181  87.7652381
  38.4157208  73.5632810  87.7405530  37.9757801  72.7219824  88.2760606
  37.5954468  74.4592706  87.0544196  36.5146410  74.3186068  87.0676285
  38.1393655  75.5408911  86.4056511  37.3307171  76.4368960  85.6773532
  36.4001349  76.2017465  85.6952723  39.5051910  75.7065905  86.4396880
  39.9564423  76.5494416  85.9161664  40.3109991  74.8062393  87.1370336
  41.3875021  74.9680550  87.1923245  41.8134082  70.5302934  88.8861797
  42.8865095  71.0264421  89.2413627  41.4974115  69.2658440  89.1548875
  40.6207460  68.9109421  88.8004843  42.3561117  68.3594082  89.9098127
  43.0313318  68.9409413  90.5375039  41.5432949  67.4367323  90.7974629
  40.8366097  68.0068179  91.4005365  40.9959675  66.7909934  90.1107650
  42.4234830  66.5766148  91.7170176  43.4370618  67.0897159  92.2611813
  42.0541299  65.4055269  91.9418765  43.1265330  67.5093733  88.9285035
  42.5556339  66.6217559  88.3096250  44.4285665  67.7603824  88.8352932
  44.8095784  68.5167372  89.3856173  45.3241427  67.0365363  87.9420899
  45.1678531  67.3847375  86.9210960  46.7560015  67.3323887  88.3408099
  46.9304686  66.9811914  89.3578260  47.4363834  66.8221295  87.6590355
  46.9324631  68.4069356  88.2927513  45.0695161  65.5271135  87.9565484
  44.8967500  64.9015323  86.9194881  45.0109680  64.9679669  89.1506281
  45.0897928  65.5356186  89.9822877  44.8686510  63.5296030  89.3087326
  45.6983746  63.0160732  88.8229909  44.8704012  63.1635524  90.7993171
  43.9299915  63.5261415  91.2143567  44.8968119  62.0753979  90.8569552
  46.0364166  63.7439089  91.5977992  46.1033708  64.8106708  91.3841710
  45.8040212  63.5990580  92.6528393  47.3628229  63.0796841  91.2764182
  48.4084910  63.6162186  91.6995895  47.3682877  62.0154312  90.6180490
  43.5593288  63.0458895  88.6430032  43.5418599  62.0384255  87.9088179
  42.4802453  63.7961503  88.8471910  42.5236703  64.6067697  89.4481150
  41.1826669  63.4196731  88.2817634  40.9595755  62.3709863  88.4781947
  40.0583172  64.2805123  88.8769069  40.2502542  65.3255686  88.6337655
  38.6879101  63.8644697  88.3080810  38.4950535  62.8195875  88.5512418
  37.9081045  64.4884840  88.7446682  38.6898580  63.9906358  87.2254088
  40.0616176  64.1478163  90.3087357  39.3591564  64.6855542  90.6815448
  41.1753718  63.5050398  86.7606374  40.8475028  62.5429421  86.0847498
  41.5474811  64.6680579  86.2399115  41.8465318  65.3979803  86.8706899
  41.5852811  64.9338110  84.8102139  40.5751576  64.9985895  84.4057966
  42.2903304  66.2623010  84.5732856  43.2614855  66.1331589  85.0510714
  42.4257212  66.3564826  83.4958353  41.6261227  67.5144640  85.1100258
  41.3957974  67.3658948  86.1650036  42.5378778  68.7154478  84.9565833
  42.7682872  68.8649395  83.9017550  42.0402443  69.6024955  85.3485118
  43.4617356  68.5438383  85.5089757  40.3255109  67.7331486  84.3654159
  39.6712845  66.8743991  84.5158707  39.8371252  68.6317719  84.7423201
  40.5307590  67.8508823  83.3014088  42.3710408  63.8667531  84.0841903
  41.9014435  63.3279809  83.0904479  43.5631493  63.5625052  84.5905966
  43.9105114  64.1076040  85.3666805  44.4384438  62.5332633  84.0158491
  44.7074748  62.8110232  82.9967461  45.7173216  62.3834473  84.8340372
  45.4533578  62.4090479  85.8912822  46.1664477  61.4193585  84.5954610
  46.7170524  63.4997661  84.5315943  47.0178949  63.3614720  83.4931005
  46.1636424  64.4338997  84.6276877  48.1831637  63.5730377  85.5661999
  48.8479985  61.9127820  85.3686558  49.0719920  61.7332698  84.3171325
  49.7608700  61.8141207  85.9560502  48.1144554  61.1837547  85.7129449
  43.6947970  61.1986982  83.8871186  43.7979621  60.5143575  82.8568644
  42.9293413  60.8645352  84.9242462  43.0274072  61.3655091  85.7957435
  42.1003872  59.6656194  84.9058058  42.6929526  58.8451307  84.5011287
  41.5935056  59.2674018  86.2683046  41.9760477  60.0453427  86.9290380
  40.5050128  59.2483903  86.3223603  42.1380327  57.9373573  86.6951582
  43.3250025  57.9052477  87.0656074  41.4264024  56.9144955  86.5663091
  40.9824743  59.7225961  83.8620226  40.7534708  58.7641340  83.1569738
  40.3063808  60.8533040  83.7540486  40.4765383  61.6007469  84.4116768
  39.2633801  61.0463400  82.7320371  38.5141742  60.2599412  82.8235063
  38.5707356  62.4054787  82.8999134  39.3541491  63.1311194  83.1185640
  38.1128336  62.6440964  81.9399720  37.5089469  62.4568768  83.9969695
  36.6167043  61.9393305  83.6446207  37.8957475  61.9516428  84.8819700
  37.1558882  63.8932856  84.3476321  36.4066829  63.8942444  85.1393325
  38.0520665  64.4070017  84.6955685  36.6168279  64.6194032  83.1879173
  36.3608551  64.0784574  82.3743112  36.4592367  65.9401809  83.1476031
  36.7924286  66.6626474  84.2161719  37.1579413  66.2037041  85.0382860
  36.6779892  67.6660006  84.1992730  35.9634894  66.5461902  82.0601932
  35.7030724  65.9963638  81.2539835  35.8524953  67.5500364  82.0517172
  39.8500066  60.9322763  81.3306721  39.2111671  60.4003436  80.4325920
  41.0713797  61.4258135  81.1558526  41.5076122  61.9371917  81.9097046
  41.7982068  61.2977804  79.8931044  41.1248473  61.5827605  79.0847280
  43.0343377  62.2046457  79.8718007  43.5938713  62.0768280  80.7984533
  43.9117309  61.8373986  78.7000001  43.3529948  61.9654161  77.7728938
  44.7898345  62.4830401  78.6865116  44.2269335  60.7981296  78.7930938
  42.6018415  63.6558827  79.7226995  42.2829676  63.7827752  78.6881375
  41.7482041  63.7977908  80.3854701  43.6669683  64.6748875  80.0492640
  44.5207974  64.5338945  79.3865449  43.2641333  65.6785721  79.9134688
  43.9860357  64.5489084  81.0838775  42.2172918  59.8381405  79.6664856
  42.0864371  59.3276745  78.5588212  42.7022590  59.1714980  80.7139031
  42.9102881  59.6544740  81.5762009  43.0638481  57.7557040  80.6060394
  43.9075982  57.6582672  79.9228914  43.4529939  57.1546263  81.9478520
  42.9670358  57.7382434  82.7297312  43.0818405  56.1301515  81.9760768
  44.9594341  57.1551529  82.1762041  45.4321251  56.6743140  81.3197825
  45.2921190  58.1911859  82.2399100  45.3490233  56.4177144  83.4511848
  44.6075001  56.6393243  84.2187338  45.3489776  55.3474067  83.2449301
  46.7282721  56.8400308  83.9411027  47.1979159  55.9628583  84.3861912
  47.3009270  57.1548130  83.0687051  46.6959164  57.9505383  84.9432704
  46.1656908  57.6589031  85.7519171  47.6390608  58.1787309  85.2234613
  46.2611568  58.7635791  84.5309018  41.9717243  56.9267325  79.9394270
  42.2385242  56.2042753  78.9932667  40.7489028  57.0536889  80.4133296
  40.5859842  57.6805325  81.1883289  39.6092519  56.2881429  79.8838099
  39.7515172  55.2226171  80.0641275  38.3216268  56.7378048  80.5900541
  38.2937184  57.8257704  80.5296292  37.4898526  56.3214168  80.0218353
  38.2066128  56.3063356  82.0503651  38.0108125  55.2342852  82.0720672
  39.1587694  56.5112284  82.5397715  37.0849013  57.0449185  82.7870446
  37.5390900  57.8105546  83.4160222  36.4453669  57.5192810  82.0426822
  36.2481645  56.1065392  83.6524409  35.3258927  55.8851306  83.1153250
  36.8141116  55.1861611  83.7963410  35.9203267  56.6985809  84.9765115
  35.3955346  57.5512092  84.8434031  35.3680012  56.0432168  85.5108657
  36.7747822  56.9034225  85.4745525  39.4106578  56.4290164  78.3706023
  39.1245951  55.4503925  77.6879975  39.5884146  57.6357935  77.8440232
  39.7724803  58.4342347  78.4345406  39.5298090  57.8440270  76.3836916
  38.5898882  57.4346875  76.0134359  39.6127042  59.3324494  75.9804745
  40.6628841  59.6093010  76.0730736  39.3173110  59.3751576  74.9321335
  38.7605428  60.3004820  76.7868148  38.6757019  59.8777714  77.7879235
  39.2425748  61.2763896  76.8447063  37.3685739  60.4812325  76.2182614
  36.9102127  61.6114896  76.0136722  36.6665868  59.3713122  76.0079639
  35.7319626  59.4325581  75.6300380  37.0713531  58.4723014  76.2271557
  40.6916962  57.1339627  75.7113674  40.5062765  56.4347806  74.7353955
  41.8949073  57.3183539  76.2504925  41.9683696  57.8837982  77.0841443
  43.1216317  56.6818260  75.7248534  43.3014445  57.0241436  74.7057434
  44.3407471  57.0400071  76.5846172  43.9088796  56.9102044  77.5769584
  45.0611555  56.2441714  76.3955207  45.0425084  58.3866506  76.5098884
  44.4434156  59.1391705  77.0226284  46.4160555  58.2820628  77.1826765
  47.0159288  57.5300122  76.6701623  46.9212198  59.2465173  77.1303587
  46.2890061  57.9951894  78.2265455  45.1538542  58.8625774  75.0675792
  44.1564370  58.9635354  74.6397170  45.6594746  59.8278443  75.0409521
  45.7254593  58.1374811  74.4882676  43.0421873  55.1591313  75.7716235
  43.7771333  54.4737278  75.0627736  42.1868580  54.6454809  76.6548160
  41.6840213  55.2803479  77.2583047  41.9982450  53.2129635  76.8480418
  42.9751025  52.7295047  76.8372610  41.2998195  52.8758413  78.1689443
  41.8503292  53.3730309  78.9675937  40.2890398  53.2806607  78.1184896
  41.2334269  51.3672707  78.4551328  40.6349706  50.9094482  77.6675101
  42.2509643  50.9791270  78.4097000  40.6225504  51.0361149  79.8163039
  39.5363377  51.0815246  79.7376990  40.9236859  50.0288832  80.1042295
  41.0564241  51.9694002  80.8543667  40.3576180  52.6014501  81.2180730
  42.2935069  52.0341470  81.3505159  43.2354935  51.1919211  80.9339397
  43.0139458  50.4965073  80.2357877  44.1677899  51.2518555  81.3177770
  42.5939678  52.9543324  82.2648677  41.8838465  53.6000095  82.5793975
  43.5306115  53.0024014  82.6396830  41.2252549  52.6173076  75.6822587
  41.3589077  51.4282523  75.3843907  40.3448452  53.4596784  75.1603407
  40.2632980  54.3710189  75.5880179  39.4785926  53.1452011  74.0481827
  38.9256767  52.2310996  74.2645193  38.4862834  54.2636316  73.7967135
  39.0434512  55.1933911  73.6817757  37.9528080  54.0436626  72.8719878
  37.4898072  54.4082839  74.9334174  37.0766592  53.4225514  75.1472887
  38.0301137  54.7725937  75.8071717  36.3707244  55.3602851  74.6026782
  35.6456644  55.7797596  75.5271089  36.2222488  55.6882067  73.4108912
  40.3826545  52.9294604  72.8838378  40.1610876  52.0563755  72.0644455
  41.4310131  53.7291158  72.8163431  41.5031856  54.5590868  73.3873410
  42.4065952  53.5317831  71.7670417  41.8950539  53.4530971  70.8077538
  43.3804303  54.6796611  71.7006844  43.7239563  55.0270870  72.6750480
  44.2415122  54.4636580  71.0682443  42.6617560  55.8258803  71.0672732
  41.7238856  55.7386224  70.0904159  41.4777684  54.7382196  69.7344379
  41.2768179  56.9781403  69.7553371  40.5841340  57.1844827  69.0498505
  41.9232056  57.9018342  70.5263141  41.8100581  59.2719295  70.5480768
  41.1040678  59.7497152  69.8688146  42.5940964  59.9466666  71.4241531
  42.5337454  61.0341108  71.4680034  43.4704629  59.2903298  72.2656255
  44.0934306  59.8477285  72.9651378  43.5842279  57.9355981  72.2492088
  44.2970223  57.4688347  72.9290299  42.7992616  57.2115466  71.3636330
  42.9683377  52.1287227  71.9905968  43.3704027  51.4529157  71.0591707
  42.9617888  51.7037462  73.2524962  42.9021231  52.4305128  73.9513164
  43.2286792  50.3458564  73.6924857  42.7417968  50.1456922  74.6469380
  42.6691020  49.3756364  72.6435856  41.7374255  49.7898748  72.2582485
  43.3991390  49.3122714  71.8366588  42.4152291  48.0039337  73.1968832
  42.7142008  47.7715564  74.3875812  41.9033820  47.1596084  72.4342388
  44.5249723  49.7535330  74.1615808  45.6261658  50.1314636  73.7956541
  44.2739542  48.7881668  75.0333318  43.3290486  48.8149226  75.3890520
  45.2046378  47.8681194  75.6355608  44.6975637  47.2883434  76.4068162
  45.7690853  46.9095456  74.5995790  46.2403086  47.5086259  73.8203803
  46.5243488  46.2989613  75.0944161  44.7177021  46.0080083  73.9779932
  44.0516969  46.6278290  73.3776932  45.2473962  45.3106085  73.3290273
  43.9020289  45.2298395  74.9996902  43.5493206  45.7862482  76.0607271
  43.5951059  44.0499498  74.7291714  46.2921780  48.4355690  76.4878673
  47.2466155  47.7381962  76.7946005  46.1762251  49.6736495  76.9205768
  45.4501151  50.3401589  76.7000575  47.2914447  50.1147869  77.7583889
  48.1753538  50.1888196  77.1248882  46.9889284  51.4998691  78.3408769
  46.7961939  52.2016588  77.5294313  46.1115642  51.4400445  78.9848902
  48.1611496  52.0166137  79.1626791  49.1802951  51.3414188  79.2887557
  48.0142477  53.2194054  79.7229789  48.7622388  53.6090070  80.2786944
  47.1557898  53.7342759  79.5885948  47.6137101  49.1231985  78.8914354
  48.1328160  49.5123535  79.9437406  53.1789959  52.0810677  83.5310135
  53.7670410  52.8120980  83.9050416  52.3368528  52.3912988  82.3644940
  52.3973681  51.5820535  81.6367859  50.8614297  52.5563963  82.7985509
  50.8437431  52.8224873  83.8554246  50.4213485  53.3640612  82.2136526
  50.1115564  51.3614215  82.5972891  49.2041073  51.5021367  82.8771734
  52.8477814  53.6286365  81.5752485  53.5834688  53.4797539  80.6057729
  52.5028794  54.8347741  82.0511893  51.8556368  54.8611210  82.8260972
  52.9282089  56.1174264  81.4485593  53.8901361  55.9915062  80.9516294
  51.8944035  56.5924017  80.4077933  52.1719979  57.6371038  80.2676573
  52.0702730  56.0430618  79.4829173  50.4102845  56.5040049  80.7797367
  50.1201572  55.4536692  80.8066026  50.1444493  57.1374535  82.1353375
  50.4339171  58.1879863  82.1091094  49.0832468  57.0593137  82.3716515
  50.7252482  56.6200367  82.8989166  49.5186692  57.1362601  79.7144350
  49.6639581  56.6203294  78.7653270  48.4748577  57.0523299  80.0169489
  49.7795437  58.1882851  79.5991665  53.1661972  57.1279856  82.5960007
  53.3033516  56.7057122  83.7523536  53.3698128  58.4364135  82.2786067
  52.9474813  59.2580689  81.1247147  51.8968870  59.0616856  80.9107393
  53.5503941  58.9926053  80.2563114  53.1903432  60.6738726  81.5819278
  52.2467401  61.1063110  81.9146575  53.5811091  61.2548179  80.7465201
  54.1786747  60.6082484  82.6911547  54.0039080  61.4249038  83.3916042
  55.2130153  60.6390861  82.3486808  53.8947549  59.2704341  83.3720053
  54.8001773  58.7942446  83.7482395  52.8973206  59.4461348  84.5191051
  51.6843417  59.3176562  84.3290249  53.4336014  59.7184636  85.7124977
  54.4401578  59.7565012  85.7866378  52.6338050  59.9906002  86.9189638
  51.6470693  59.5403521  86.8106661  53.3128505  59.3996072  88.1848460
  54.0163252  60.1446534  88.5565026  52.5324576  59.2350392  88.9278158
  54.0011233  58.1774160  87.9413438  54.3970686  57.8649312  88.7581550
  52.5129801  61.5085629  87.1174870  51.5249254  62.0038228  87.6573448
  53.5606306  62.1985908  86.6965927  54.3813248  61.6951478  86.3914606
  53.6077071  63.6383709  86.7083417  53.2800976  64.0194656  87.6755739
  55.0477550  64.1057485  86.4594275  55.6489671  63.8821223  87.3406961
  55.4333315  63.5478809  85.6060727  55.1600983  65.5939699  86.1586982
  54.2129453  66.3683851  86.3205078  56.3474429  65.9994848  85.7284279
  56.4957768  66.9741305  85.5089680  57.0977476  65.3317515  85.6222402
  52.6470652  64.1914095  85.6596252  52.7525667  63.8679553  84.4634660
  51.7220748  65.0590282  86.1028347  51.6585977  65.5945230  87.4778842
  52.6671292  65.6784672  87.8827521  51.0712636  64.9224177  88.1035135
  50.9979453  66.9296456  87.2950758  51.7373712  67.6907372  87.0459010
  50.4689237  67.2210630  88.2024420  50.0435758  66.7083842  86.1700638
  49.8240086  67.6425565  85.6531388  49.1132988  66.2578298  86.5160192
  50.7707214  65.7453873  85.2211553  50.0974378  64.9854102  84.8246426
  51.4219288  66.5073194  84.0591680  50.8881070  66.4830015  82.9714898
  52.5506607  67.1636893  84.2843649  52.9073210  67.2062993  85.2283337
  53.3029507  67.8340808  83.2301163  52.7639857  68.6876163  82.8189071
  54.6509076  68.3026015  83.7891426  55.1977587  67.4371618  84.1633998
  55.4673096  68.9886640  82.7127565  54.9212709  69.8545350  82.3383105
  56.4202715  69.3135106  83.1304154  55.6485259  68.2921908  81.8941083
  54.4186346  69.2302241  84.9892500  54.1101864  70.1951329  84.5868677
  53.6005936  68.7997292  85.5668161  55.6223162  69.4193994  85.8845645
  56.4406770  69.8503196  85.3077689  55.3641401  70.0895293  86.7045463
  55.9310857  68.4549148  86.2877157  53.5547555  66.8786431  82.0409101
  53.2194191  67.1730401  80.8795066  54.1252248  65.7267577  82.3440893
  54.4730604  65.5509994  83.2758719  54.4605067  64.7840636  81.2967957
  54.9139241  65.3142958  80.4593199  55.4438217  63.7401972  81.8004103
  55.0482684  63.4747135  82.7807955  55.4841681  62.8502675  81.1723200
  56.8575200  64.3191360  81.9587673  57.0706480  65.1581244  82.8610343
  57.7218829  64.0221586  81.1082226  53.2113225  64.2332415  80.6261833
  53.1104747  64.2261466  79.4103847  52.2562779  63.8108808  81.4317548
  52.3900741  63.8528189  82.4319743  51.0234325  63.2560127  80.9295042
  51.2271010  62.3175099  80.4139164  50.0445720  62.9830141  82.0734508
  50.4888842  62.4949063  82.9408818  49.6469256  63.9542806  82.3677615
  48.8756038  62.1485793  81.6659795  47.9287564  62.6521784  80.7957215
  48.0241361  63.6794752  80.4440627  46.8761959  61.8759181  80.3727919
  46.1166028  62.3010522  79.7167584  46.7804356  60.5619822  80.7769842
  45.9553221  59.9382681  80.4330824  47.7355235  60.0374627  81.6209281
  47.6688904  58.9973030  81.9398764  48.7779383  60.8304860  82.0628857
  49.5326280  60.4159708  82.7312571  50.3986743  64.2122072  79.9381595
  50.0634722  63.8207423  78.8519860  50.2904858  65.4774472  80.3225980
  50.6770919  65.7332070  81.2199396  49.6457922  66.5250309  79.5172307
  48.6068609  66.2586041  79.3229686  49.6767952  67.8637093  80.2675060
  48.9984989  68.5527529  79.7642841  49.3295521  67.6920284  81.2863524
  50.9815461  68.4237622  80.3004287  50.9601027  69.2571873  80.7763936
  50.3367151  66.7353674  78.1818334  49.6836732  67.0117056  77.1821582
  51.6636353  66.6028326  78.1803219  52.1479364  66.4719209  79.0569141
  52.4647937  66.6624675  76.9388720  52.1003900  67.4725909  76.3072003
  53.9230188  66.9106444  77.2493375  54.0253732  66.1816418  78.0531895
  54.5978175  66.6491061  76.4342642  54.2683728  68.2738453  77.7650768
  54.0135800  69.4280087  77.0144827  53.4686807  69.3378576  76.0747715
  54.4436561  70.6736620  77.4506561  54.2000646  71.5802233  76.8966600
  55.1756271  70.7542956  78.6212828  55.6512737  71.9380897  79.1188547
  55.4229662  72.6934991  78.5721994  55.4789013  69.6198619  79.3381976
  56.0625943  69.6956983  80.2556134  55.0470065  68.3931877  78.8989445
  55.3180522  67.4913374  79.4478528  52.4079840  65.3850253  76.0646042
  52.5221432  65.4510444  74.8454311  52.2787844  64.2344223  76.7112695
  52.3507364  64.2378098  77.7186973  52.1241341  62.9530336  76.0337900
  52.8967103  62.8182513  75.2767835  52.2607105  61.8304268  77.0827666
  53.3303075  61.6961405  77.2441005  51.8012616  62.2115506  77.9947706
  51.6364132  60.5046433  76.7214150  51.7061304  59.8508966  77.5908146
  50.5874721  60.6797799  76.4823504  52.3203585  59.8478528  75.5400470
  52.2183075  60.4753156  74.6546234  53.3776512  59.6974759  75.7582634
  51.7126883  58.5558201  75.2677708  51.0890764  58.4951757  74.4756030
  51.9235395  57.4607134  75.9958829  51.2726538  56.3427459  75.6989951
  50.6237380  56.3301363  74.9251416  51.4292669  55.5097754  76.2482965
  52.7775831  57.4765310  77.0229332  53.2707910  58.3274823  77.2525589
  52.9261930  56.6374670  77.5651375  50.7904380  62.8675762  75.2615195
  50.7531971  62.3961503  74.1378445  49.7018716  63.3125105  75.8629627
  49.7227189  63.6194480  76.8249679  48.4130999  63.2892055  75.1698874
  48.3298836  62.4154955  74.5235090  47.2393468  63.2882274  76.1443887
  46.3091637  63.1668762  75.5892917  47.3923647  62.1436199  77.1321717
  48.3221636  62.2645391  77.6880077  46.5517772  62.1470130  77.8260749
  47.4130685  61.1971295  76.5919598  47.1433994  64.6129414  76.8673402
  46.9979393  65.4135457  76.1420980  46.2998185  64.5906746  77.5572497
  48.0631854  64.7908278  77.4245214  48.2823031  64.4405794  74.2038630
  47.5310150  64.3631330  73.2438514  49.0255399  65.5055947  74.4449178
  49.5354928  65.5719229  75.3141979  49.1055868  66.6212205  73.5097640
  48.1214293  67.0744838  73.3910816  50.0653003  67.6751827  74.0334859
  51.0573985  67.2386999  74.1489159  50.1139056  68.5053404  73.3288044
  49.7144240  68.0390778  74.9991802  49.5576802  66.1357470  72.1342565
  48.9951354  66.5285336  71.1074702  50.5671628  65.2748376  72.1159870
  51.0205391  65.0155557  72.9804650  51.1004379  64.7298164  70.8580873
  51.1973451  65.5655451  70.1650753  52.4700849  64.1404005  71.0978622
  52.3882117  63.2965481  71.7829242  52.8904679  63.8000156  70.1515448
  53.1215070  64.8986280  71.5324189  50.2011811  63.6781218  70.2032096
  50.3093822  63.4307405  69.0122100  49.3269467  63.0507954  70.9814909
  49.3395505  63.2332144  71.9748004  48.3267515  62.0923531  70.4559865
  48.8029719  61.3928402  69.7689675  47.7044784  61.2945909  71.6180883
  47.2069920  61.9809957  72.3032561  46.9768208  60.5860418  71.2223955
  48.8570977  60.3209955  72.6291524  47.9375209  59.8318816  73.4562222
  47.1905978  62.7883844  69.7105763  46.6084843  62.2697200  68.7782893
  46.8424776  63.9844668  70.1589212  47.3685581  64.3614563  70.9343035
  45.8246654  64.8017843  69.5669970  44.8600625  64.2970588  69.6207796
  45.7238863  66.1264462  70.3155347  46.7675813  66.4077346  70.4558084
  45.2489108  66.8259322  69.6276266  45.0084347  66.1652532  71.6470819
  45.5890540  65.6444928  72.4085219  44.8557256  67.6275786  72.0381717
  44.2747792  68.1489274  71.2773855  44.3420794  67.6960243  72.9971209
  45.8407558  68.0869494  72.1206004  43.6622482  65.4675439  71.5588798
  43.8100490  64.4267348  71.2708333  43.1668538  65.5086963  72.5289273
  43.0423566  65.9657662  70.8134888  46.1024211  65.2150891  68.1447678
  46.9457473  66.0411891  67.9460198  45.3032620  64.7304693  67.1851646
  44.0206348  64.0679521  67.4714592  43.3971987  64.7284382  68.0741081
  44.2036720  63.1429976  68.0183189  43.4443457  63.8202607  66.0979684
  42.5371879  64.4145293  65.9883841  43.1979517  62.7622236  66.0088121
  44.4957712  64.2198777  65.0774564  43.9753376  64.7010246  64.2493589
  45.1286045  63.4201623  64.6926489  45.3409898  65.2380533  65.8158228
  46.3818742  65.3153783  65.5016907  44.6798211  66.6030006  65.7164604
  43.4508048  66.6819135  65.5865430  45.4628042  67.6589284  65.8559590
  46.4457028  67.5357829  66.0530499  44.9382722  69.0150673  65.7820293
  43.9227091  69.0032602  65.3863131  44.9488929  69.7323800  67.1535028
  45.0608768  70.8049564  66.9949472  43.6575344  69.4647038  67.8923239
  43.5450690  68.3922946  68.0516682  43.6770108  69.9745480  68.8555375
  42.8180482  69.8339814  67.3032601  46.1465582  69.3021131  68.0087019
  45.9210744  68.3174361  68.4181758  47.0121917  69.2316176  67.3500605
  46.4512055  70.2636970  69.1429141  45.5861384  70.3343629  69.8022814
  47.3093064  69.8996973  69.7079506  46.6772536  71.2485457  68.7341657
  45.7464240  69.8240890  64.7785949  46.6468683  69.2852422  64.1446012
  45.3835477  71.0908552  64.5857495  44.5568756  71.4577607  65.0352970
  46.0077239  71.8843815  63.5298759  46.6600942  71.2459724  62.9341024
  44.9356070  72.5173806  62.5897166  45.1983542  72.4913467  61.5321792
  44.1025647  71.8388523  62.7734008  44.5303021  73.9371172  62.9782392
  45.2802511  74.8968182  62.6637179  43.3815808  74.1084436  63.4412118
  47.0838543  72.8522039  64.0637983  47.0122756  73.3141063  65.1995393
  48.1281725  73.0552961  63.2540408  48.1288608  72.6344081  62.3359166
  49.3341991  73.7401855  63.7009181  49.8248520  73.0383785  64.3753259
  50.2760656  74.0164631  62.5035609  50.4756564  73.0843225  61.9749999
  49.8023058  74.7247131  61.8238304  51.5901357  74.6029449  63.0144306
  52.5097874  73.7911763  63.3023095  51.6617502  75.8571242  63.1119255
  49.0486591  75.0230913  64.5262596  49.8371894  75.3704034  65.4054474
  47.9235274  75.6979435  64.2805783  47.3397974  75.4617242  63.4909208
  47.6093952  76.9089772  65.0370584  48.5132755  77.4308493  65.3513022
  46.7108547  77.9034359  64.2438351  46.9043143  77.7640181  63.1802397
  45.2286260  77.6810225  64.5238983  45.0342965  77.8207321  65.5872977
  44.6386821  78.3958839  63.9502783  44.9517976  76.6672271  64.2346121
  47.1123259  79.3464226  64.5589702  48.1533430  79.5042908  64.2770779
  46.4766707  80.0316825  63.9982020  46.9932796  79.5323718  65.6263744
  47.0446368  76.6273486  66.4346325  47.3364440  77.3499488  67.3742273
  46.2511394  75.5751833  66.5661159  46.0194935  75.0498790  65.7351556
  45.7788729  75.0718011  67.8620849  45.2871697  75.8605716  68.4314426
  44.7647331  73.9538399  67.5975925  44.9330760  73.8171228  66.5293845
  45.1296119  73.0798709  68.1371680  43.2817643  74.1243427  67.8570560
  42.7050801  73.8629247  66.9698149  42.9105016  73.1849815  68.9990457
  43.4864849  73.4460939  69.8868308  41.8465062  73.2790136  69.2162383
  43.1327042  72.1572882  68.7116908  42.8936469  75.5765396  68.1299200
  43.1540570  76.1908642  67.2680085  41.8202338  75.6388165  68.3088257
  43.4293440  75.9375196  69.0078841  46.8862549  74.3973339  68.6784752
  46.8985437  74.4840007  69.9070255  47.7757269  73.6769746  67.9996725
  47.6672861  73.5520728  67.0033094  48.8921908  72.9952245  68.6700269
  48.5309741  72.3303789  69.4546300  49.6331282  72.1564621  67.6187632
  48.8915112  71.4597757  67.2279545  49.9190583  72.8589004  66.8358683
  50.8595816  71.3848562  68.0795413  51.4014415  71.0751408  67.1859166
  51.4763549  72.0730317  68.6575613  50.5347634  70.1585623  68.9275999
  51.4211038  69.9343865  69.5211022  49.7145296  70.4343261  69.5903746
  50.1500508  68.9491820  68.1780570  49.2398041  68.5711536  68.3986128
  50.9222822  68.2876582  67.3102304  52.1020437  68.7602524  66.9312324
  52.4330103  69.6396605  67.3016411  52.6641114  68.2385820  66.2739353
  50.4651500  67.1749449  66.7527107  49.5421863  66.8384841  66.9873002
  51.0419935  66.6689079  66.0959939  49.8216938  74.0086101  69.3531284
  50.3682060  73.7299283  70.4434839  49.9789262  75.1924441  68.7375416
  49.4807798  75.4175816  67.8882698  50.8065504  76.2361093  69.3569890
  51.6520572  76.0434374  70.0173639  51.0448371  77.5665578  68.5839844
  50.2628970  78.2665477  68.8784063  52.4160858  78.1843545  68.8692039
  53.1985978  77.4850844  68.5745909  52.5235846  79.1090675  68.3022378
  52.5038588  78.3994364  69.9341616  50.3048345  77.7301628  67.2516667
  50.6111529  76.9094498  66.6030527  49.2373080  77.6511501  67.4571992
  50.5920887  79.0588849  66.5598975  51.6594311  79.1384223  66.3536116
  50.0368151  79.1089798  65.6232754  50.2855881  79.8801230  67.2077596
  50.1721482  76.7935013  70.6173914  50.8716121  77.2517369  71.5268475
  48.8436806  76.7600705  70.6731063  48.3345730  76.4690916  69.8507681
  48.0778986  77.2166275  71.8413476  48.3868451  78.2264236  72.1114643
  46.5768766  77.2296558  71.5335732  46.4646692  76.9301052  70.4915664
  46.1150064  76.4815703  72.1778899  45.8956510  78.5787218  71.7511500
  46.0725356  78.8660167  72.7876221  46.3209694  79.3321588  71.0881726
  44.3897616  78.5140549  71.5132738  43.6512410  77.9401560  72.3136965
  43.9330079  79.0675623  70.3874316  42.9436506  79.0501696  70.1850184
  44.5789239  79.5011480  69.7433063  48.3486816  76.4070842  73.0905410
  48.6957012  76.9807502  74.1012288  48.1845577  75.0792211  73.0235789
  47.9499910  74.6860550  72.1233021  48.4635591  74.1597088  74.1331253
  47.7074054  74.2589602  74.9118935  48.4378720  72.7299267  73.6092586
  48.7273246  72.8549430  72.5658568  49.2497927  72.2504613  74.1560654
  47.1985097  71.8666873  73.6883148  46.3890525  72.4334592  74.1483685
  46.7861497  71.4408716  72.2853454  47.5949798  70.8736123  71.8247919
  45.8929495  70.8186852  72.3417214  46.5749873  72.3251415  71.6840322
  47.4957408  70.6446983  74.5339019  47.7875763  70.9580628  75.5362662
  46.6054738  70.0186937  74.5942680  48.3082614  70.0771690  74.0802283
  49.8892873  74.3323128  74.6224390  50.1954597  74.3568587  75.8326476
  50.7727942  74.3532734  73.6307671  50.4545069  74.2173100  72.6819223
  52.1855309  74.5326369  73.8589859  52.5819811  73.7090555  74.4528210
  52.9258760  74.5618596  72.4946017  52.2903998  73.8120784  72.0233297
  52.7328378  75.5357163  72.0446690  54.4169524  74.1817099  72.2852524
  54.5238215  73.8898388  71.2405079  55.4251084  75.3091573  72.6110898
  55.3191484  75.6012594  73.6558614  56.4397986  74.9519151  72.4353551
  55.2276532  76.1697368  71.9719383  54.7475915  72.8767343  72.9994047
  54.1221942  72.0766524  72.6033660  55.7971232  72.6300092  72.8390576
  54.5602878  72.9888086  74.0673258  52.4349420  75.8374119  74.6333956
  53.2372854  75.8573433  75.6020322  51.7262244  76.9003796  74.2444431
  51.2359609  76.8938671  73.3614376  51.8174506  78.1593012  74.9754820
  52.8649494  78.3616284  75.1988860  51.2497362  79.3393266  74.1794108
  50.4658833  78.9563821  73.5259375  50.8179294  80.0452259  74.8888819
  52.3165231  80.0503782  73.3358099  53.1399484  80.3197983  73.9972359
  52.6711044  79.3458710  72.5834511  51.7873277  81.3017142  72.6492835
  51.2650816  81.9034233  73.3931277  52.6374095  81.8625497  72.2607944
  50.8363225  80.9677701  71.5087699  51.3649235  81.1244305  70.5684832
  50.5554745  79.9182425  71.5966075  49.6092249  81.8141795  71.5356690
  49.8692163  82.7867075  71.4538556  49.0082007  81.5603363  70.7646738
  49.1190383  81.6688418  72.4066990  51.2575268  78.0654163  76.3991702
  51.6318528  78.8722147  77.2445774  50.3983346  77.0749304  76.6686893
  50.1108442  76.4577358  75.9226869  49.7471248  76.9381470  77.9721834
  49.4907996  77.8961316  78.4245794  48.4892445  76.0804096  77.8499518
  48.5805806  75.4439509  76.9697935  48.3072741  75.2112977  79.0880585
  48.2153943  75.8471100  79.9686273  47.4055719  74.6084837  78.9801270
  49.1704878  74.5556458  79.2024345  47.2931467  77.0039351  77.5723429
  47.1535453  77.6142026  78.4646354  47.5770426  77.6431772  76.7363571
  45.9976771  76.2867958  77.2428790  45.7128781  75.6476695  78.0786463
  45.2115858  77.0200351  77.0625464  46.1363763  75.6766419  76.3503687
  50.7145466  76.4261957  79.0557978  51.4592470  75.4315361  78.8540963
  50.7268031  77.1278067  80.1921867  49.9819768  77.7765695  80.4029943
  51.8091000  76.9801960  81.1582398  52.6611983  76.5567641  80.6265133
  52.0631093  77.9787560  81.5138472  51.4858016  76.1052402  82.3424833
  52.3875532  75.6325824  83.0332587  50.1909462  75.8107613  82.5210684
  49.4768059  76.2799767  81.9826077  49.7787571  74.8691669  83.5247467
  50.5965803  74.7046705  84.2263201  48.5722840  75.3819193  84.2961978
  48.8215849  76.3368539  84.7588514  47.7381333  75.5189449  83.6080724
  48.2083185  74.4538375  85.2984967  47.4467613  74.7851387  85.7800255
  49.4545669  73.4921184  82.9520834  48.7284724  73.3590388  81.9545056
  49.9313821  72.4663995  83.6601329  50.6150842  72.6398943  84.3830093
  49.5307130  71.1010186  83.4097565  49.8289018  70.7930591  82.4075870
  50.1905809  70.1781116  84.4169838  49.8942705  70.4682556  85.4250099
  49.8782455  69.1509700  84.2284978  51.2739899  70.2510938  84.3221275
  48.0224523  70.9777772  83.4938700  47.4333598  70.3820397  82.6174044
  47.4059662  71.5600577  84.5304742  47.9589721  72.0796583  85.1970319
  45.9631642  71.4472807  84.7625122  45.6503099  70.4053930  84.8310063
  45.5395925  72.1916744  86.0322331  45.6140636  73.2668531  85.8693063
  44.1117498  71.8310684  86.3640258  44.0365720  70.7560301  86.5275548
  43.8039141  72.3578561  87.2672603  43.4623204  72.1185707  85.5371745
  46.4881947  71.8952588  87.2223237  47.4932438  71.8178146  86.8076196
  46.4348971  72.7586271  87.8855386  46.1661166  70.6364997  88.0047432
  46.2196722  69.7725933  87.3422499  46.8855559  70.5175886  88.8149077
  45.1613240  70.7134050  88.4201672  45.1655762  71.9929109  83.5890579
  44.2741124  71.3250616  83.0802626  45.4985687  73.2153971  83.1692500
  46.2837458  73.6771131  83.6056153  44.8558483  73.8696454  82.0204160
  43.7906935  73.9931768  82.2160801  45.4699564  75.2477664  81.7712621
  46.5309682  75.0581438  81.6087921  45.0169198  75.5942643  80.8423934
  45.3063734  76.2987562  82.8296260  44.2640818  76.5488318  83.0275939
  45.7595600  75.8909281  83.7331747  46.0465316  77.5699498  82.4461594
  47.2678568  77.5560208  82.2173764  45.3012414  78.6616048  82.2848216
  45.7392567  79.5352444  82.0298745  44.3013599  78.6109524  82.4181358
  45.1354727  73.1281535  80.7155842  44.3531004  73.2082708  79.7549096
  46.2899551  72.4544172  80.6709083  46.9824574  72.5716346  81.3967182
  46.6321467  71.6425601  79.5186054  46.3858851  72.2001314  78.6149636
  48.1226794  71.2667378  79.4732744  48.6649087  71.9300580  80.1471386
  48.2279583  70.2371242  79.8151986  48.6950655  71.3955681  78.0627588
  48.0706411  70.7992073  77.3975154  48.6318951  72.4451654  77.7756057
  50.1223906  70.9327359  77.9588438  50.2974475  70.1186539  78.6622104
  50.3240439  70.5861594  76.9452757  51.0362652  72.0222073  78.2696528
  51.1454703  72.7414397  77.5690257  51.7147784  72.1361466  79.4062942
  51.6180766  71.2083686  80.3545931  51.0221143  70.4054397  80.2123468
  52.1410563  71.3111064  81.2125190  52.5102416  73.1813068  79.5902597
  52.5945123  73.8813914  78.8671553  53.0280838  73.2723373  80.4526121
  45.7347877  70.4091180  79.4492269  45.0951606  70.1681290  78.4405161
  45.6611168  69.6601173  80.5391496  46.2370446  69.9066640  81.3313752
  44.7946337  68.4786949  80.6487310  45.0823525  67.7199315  79.9209981
  44.9452102  67.8973154  82.0394896  44.7563293  68.7495369  82.6922849
  44.1467159  67.1649917  82.1586909  46.2728641  67.2621503  82.4088546
  47.0372634  67.7011580  81.7677097  46.6558773  67.4713918  83.8751356
  45.8921280  67.0322116  84.5169350  47.6149480  66.9925363  84.0725733
  46.7338346  68.5387219  84.0820883  46.1700221  65.7887740  82.0983038
  45.9651249  65.6542246  81.0362242  47.1092268  65.2970853  82.3517559
  45.3613352  65.3494120  82.6823289  43.3301942  68.8041115  80.4056814
  42.6607802  68.0770068  79.6876239  42.8320415  69.8763518  81.0269177
  43.4098831  70.3675095  81.6939729  41.4516144  70.3247801  80.8422724
  40.7688529  69.5259574  81.1317862  41.1471611  71.5747068  81.7077096
  42.1028724  71.9763344  82.0444743  40.6544249  72.3028244  81.0633838
  40.2575627  71.2838475  82.9242873  39.2643072  71.0418083  82.5461848
  40.6761877  70.4126726  83.4281816  40.1568194  72.4450893  83.9138787
  39.3956965  72.2017759  84.6552218  41.1210523  72.5616002  84.4086306
  39.8002580  73.7161953  83.2738675  40.5682830  74.3264748  83.0334597
  38.5588268  74.1073786  82.9771145  38.3525880  75.2967660  82.4116765
  39.1375714  75.8991954  82.2092413  37.4122862  75.5900684  82.1882806
  37.5295979  73.3096000  83.2257433  37.6865270  72.4025341  83.6413209
  36.5933057  73.6125621  82.9984337  41.1646247  70.6006429  79.3669739
  40.3563046  69.9135631  78.7382982  41.8446017  71.5959757  78.8191538
  42.4414820  72.1773990  79.3899255  41.6926399  71.9339477  77.4176316
  40.6964132  72.3347541  77.2305865  42.7243505  72.9930862  77.0358307
  42.2599836  73.9780970  76.9887523  43.5389451  73.0102331  77.7598760
  43.4832480  72.7274933  75.4437942  44.2698689  73.7991698  75.4842330
  41.8004040  70.7050312  76.4984450  41.0668151  70.5860262  75.5108540
  42.7088302  69.8022871  76.8385935  43.3014450  69.9901429  77.6345943
  42.8656116  68.5171211  76.1403035  43.1053430  68.6808674  75.0896774
  44.0170878  67.7259870  76.7906260  44.1963247  68.1836712  77.7635076
  43.6531786  66.7080349  76.9300663  45.3124813  67.6960294  75.9994703
  45.2695045  66.8147176  75.3595146  45.3587551  68.5919997  75.3804427
  46.5560150  67.6231819  76.8826250  47.6172340  68.1265877  76.4592612
  46.4824613  67.0491997  77.9860199  41.6547239  67.5846339  76.2102519
  41.3651825  66.8795341  75.2661179  40.9907772  67.5369518  77.3569860
  41.3440301  67.9919447  78.1866205  39.7557271  66.7629936  77.4638500
  39.9267891  65.7538895  77.0889555  39.2909691  66.6730655  78.8894930
  39.6898201  67.5553164  79.3901430  38.2033770  66.6754291  78.9618673
  39.8356373  65.4315449  79.5497658  40.8384885  65.2296813  79.1734131
  39.8919564  65.6402477  81.0540162  38.8893353  65.8417179  81.4311892
  40.2856480  64.7428932  81.5313658  40.5413379  66.4860374  81.2799452
  38.9920742  64.2223923  79.1726114  39.0111774  64.0884940  78.0910358
  39.3954853  63.3323814  79.6555621  37.9644948  64.3790093  79.5007131
  38.6794651  67.3575401  76.6038108  37.8930905  66.6280081  76.0096779
  38.6497208  68.6891000  76.5300909  39.2722411  69.2432048  77.1006482
  37.6692089  69.3814274  75.7053338  36.6713783  69.1096944  76.0497094
  37.8104994  70.9148330  75.7659803  37.2031571  71.2675284  76.5995513
  38.8578757  71.1500178  75.9551660  37.3479256  71.6201057  74.4495196
  36.4613960  71.0927352  73.7190097  37.8869678  72.7088912  74.1484706
  37.7416250  68.9019831  74.2573980  36.7483811  68.4386893  73.6977514
  38.9247929  68.9949917  73.6675300  39.6885832  69.4225421  74.1714392
  39.1505363  68.5865036  72.2890275  38.5295075  69.1617505  71.6023592
  40.6272116  68.8118975  71.9520321  41.2344615  68.4342723  72.7746786
  41.0059664  68.1049798  70.6867831  40.3994174  68.4824266  69.8635377
  42.0597659  68.2826307  70.4721961  40.8347006  67.0347754  70.8026700
  40.8867745  70.3094836  71.8071607  41.1653235  70.4921606  70.7693070
  39.9516769  70.8242573  72.0278414  41.9724507  70.8274136  72.7174442
  42.9080283  70.3134004  72.4970245  42.1005389  71.8981181  72.5584331
  41.6943824  70.6454948  73.7555595  38.7235394  67.1393266  72.0300341
  38.0906381  66.8526791  71.0165204  39.0507230  66.2429211  72.9632355
  39.5147694  66.5517224  73.8054956  38.7428679  64.8111415  72.8213154
  39.1799061  64.4274770  71.8994161  39.3155892  64.0295469  73.9923544
  39.0954258  64.6132703  74.8861633  38.7667338  63.0885389  74.0292558
  40.7790314  63.7489862  73.9302205  41.0105054  63.1719963  73.0348975
  41.3378104  64.6847126  73.9133606  41.2546759  62.8031244  75.3817775
  42.8723751  63.4998188  75.6936867  42.7786135  64.5705341  75.8750051
  43.3123124  63.0208618  76.5684187  43.5133716  63.3332045  74.8279705
  37.2423937  64.5170641  72.7974685  36.8020640  63.5963500  72.1280604
  36.4710697  65.2865804  73.5529305  36.8806228  65.8665511  74.2712616
  35.0233621  65.2028266  73.4780375  34.7158428  64.1790572  73.2649007
  34.4141641  65.6276436  74.8131231  34.8250157  66.6115960  75.0392598
  33.3275969  65.6925458  74.7560312  34.7894103  64.6656803  75.9506850
  35.9698759  64.4326851  76.2289784  33.7831715  64.0558151  76.5638423
  33.9715824  63.4124209  77.3192528  32.8334190  64.2377738  76.2723598
  34.4701087  65.9677190  72.2831650  33.6837575  65.4224740  71.5174446
  34.9264679  67.2062438  72.0916408  35.6476288  67.5529912  72.7079138
  34.3453666  68.1329904  71.1063696  33.2690915  67.9880417  71.1997559
  34.6883615  69.6314897  71.4825283  34.3835565  69.8274775  72.5105272
  35.7616676  69.7945784  71.3849776  33.9438258  70.5744944  70.5433621
  34.2484741  70.3794022  69.5151456  32.8703630  70.4123041  70.6406960
  34.2743370  72.0184496  70.9058269  33.9695340  72.2144380  71.9338263
  35.3476427  72.1815375  70.8082742  33.5297989  72.9614538  69.9666614
  33.8344458  72.7663617  68.9384445  32.4563376  72.7992643  70.0639986
  33.8483919  74.3533314  70.3160528  34.8429855  74.5039460  70.2255074
  33.3552875  74.9778790  69.6940493  33.5657884  74.5344390  71.2686463
  34.7259469  67.8503071  69.6363211  34.0431659  68.3003443  68.7076755
  35.7831259  67.0655484  69.3948227  36.2726221  66.6346433  70.1660643
  36.2634527  66.8053785  68.0344864  35.6969103  67.3999558  67.3178228
  37.7607108  67.1865084  67.9200167  38.2095018  67.1804049  68.9133186
  38.2689877  66.4584928  67.2877605  38.1298075  68.8079831  67.2134238
  39.4522733  68.7032274  67.3083378  36.1339883  65.3186779  67.6094860
  37.1389005  64.5926456  67.4506702  34.9227262  64.9509138  67.2247227
  34.1539052  65.6016194  67.2995286  34.6409298  63.5959388  66.7503932
  35.1687048  62.8652440  67.3632864  33.1544429  63.3268620  66.8493035
  32.8835452  62.5670591  66.1162180  32.7904011  62.8412017  68.2376595
  33.0605960  63.6007229  68.9712956  31.7178500  62.6535569  68.2878862
  33.3305090  61.9194627  68.4539493  32.4552002  64.5431501  66.5768116
  31.5095432  64.3886901  66.6357638  35.1157232  63.3056098  65.3071485
  35.5043304  62.1655058  65.0181686  35.0567625  64.2809023  64.4149881
  34.9027218  65.2313020  64.7201294  35.2994669  64.0356882  62.9699055
  35.2403254  62.9686258  62.7554777  34.2486416  64.7570964  62.1402156
  33.8421887  64.0692408  61.3987644  33.4473644  65.0998116  62.7948920
  34.8352617  65.8802985  61.4770053  34.1658329  66.3297099  60.9559540
  36.6114010  64.6011203  62.4693364  37.0661473  65.6039469  62.9725587
  37.1418302  64.0033620  61.4014807  36.6228663  63.2499048  60.9736045
  38.4280890  64.4090666  60.7860295  38.7467600  65.3610931  61.2105216
  39.5227462  63.3691643  61.0401803  39.0309934  62.4360309  60.7653341
  40.3484090  63.5597900  60.3545836  40.0572378  63.2610030  62.4585575
  39.2442477  63.4817506  63.1502354  40.6065854  61.8686024  62.7483072
  41.4199778  61.6473093  62.0572783  40.9795035  61.8303105  63.7718142
  39.8135749  61.1313093  62.6232721  41.1108270  64.3454209  62.6680536
  40.6590738  65.3257544  62.5165127  41.5036622  64.2798851  63.6826899
  41.9231807  64.2061055  61.9547714  38.2536266  64.5140329  59.2746480
  37.9136378  63.5569981  58.5994524  38.5213197  65.6824784  58.7597370
  38.9661932  66.3869017  59.3306790  38.1010159  66.0517031  57.3936671
  37.6180302  65.2113062  56.8951124  37.0886564  67.2128727  57.4956839
  37.6205484  68.1609255  57.5755961  36.4524280  67.2272748  56.6107511
  35.9209438  67.1405608  58.9793845  35.2626764  68.2601686  58.6929226
  39.3213425  66.3766230  56.5439965  40.4290694  66.5870831  57.0553336
  39.1352809  66.3421658  55.2339221  38.2425488  66.0105203  54.8975593
  40.1231008  66.7792782  54.2557234  41.0320248  66.1789361  54.2950382
  39.4628244  66.5840604  52.8756252  39.2978768  65.5172078  52.7249035
  38.5039223  67.1023101  52.8805363  40.3370039  67.1655054  51.4132768
  39.4101356  66.7872262  50.5376523  40.4206340  68.2534924  54.5032218
  39.4944195  69.0478156  54.4944786  41.6738061  68.6118726  54.8105998
  42.4402513  67.9541675  54.8013751  41.9338533  69.9630290  55.2628750
  41.1919493  70.2373645  56.0128201  43.3159441  70.0980260  55.8757787
  43.2650193  69.7096485  56.8929654  43.9989722  69.4854421  55.2872945
  43.8228755  71.5406718  55.9060541  43.8700971  71.8973219  54.8771364
  43.0987508  72.1350805  56.4632108  45.1913599  71.6749998  56.5514450
  45.5119092  70.6943459  56.9031055  45.8970608  72.0416340  55.8060155
  45.1437848  72.6490003  57.7308701  46.1741455  72.8327353  58.0353349
  44.7035783  73.5756252  57.3625174  44.3536409  72.1532970  58.9105466
  44.7616390  71.2948983  59.2522905  44.3699089  72.8487111  59.6428270
  43.3987511  71.9833894  58.6287382  41.7377164  70.9473433  54.1030575
  41.2356672  72.0624540  54.3033793  42.1048996  70.5045852  52.8961165
  42.4727245  69.5662345  52.8305248  42.0808047  71.3204407  51.6943801
  42.5882652  72.2719980  51.8528787  42.8200238  70.5481565  50.5963008
  43.8510885  70.9013504  50.6123887  42.7917363  69.4978339  50.8863393
  42.2596457  70.7000913  49.2077526  42.8947019  70.1533682  48.5106885
  41.2474593  70.2975324  49.1686741  42.2192434  72.1354314  48.7921262
  41.1596525  72.6649949  48.4234913  43.3721046  72.7837271  48.8299236
  43.4100129  73.7564802  48.5608215  44.2088662  72.3028339  49.1277040
  40.6386608  71.7085574  51.2631429  40.3156771  72.8959866  51.2020329
  39.7854552  70.7258135  50.9667050  40.0830157  69.7613846  51.0045749
  38.4336996  71.0146114  50.5012518  38.3953699  71.9971067  50.0307913
  38.0230450  69.9717173  49.4795832  37.0855592  70.2425910  48.9939423
  38.7963568  69.8334250  48.7239616  37.7511246  68.3441571  50.2231182
  37.4248602  67.7269171  49.0911003  37.4515924  71.0799497  51.6852190
  36.2385152  71.2797635  51.5178331  38.0097638  70.8788932  52.8713834
  38.8828845  70.3715997  52.8916995  37.3854996  71.2447631  54.1527731
  38.0728841  71.0564303  54.9774746  37.0357395  72.7342449  54.1382270
  37.6013558  73.1914872  53.3263730  35.9693183  72.8141218  53.9273585
  37.3501530  73.4536359  55.4437640  36.5251269  73.3353402  56.1462162
  38.2482690  72.9959827  55.8585451  37.6098177  74.9416110  55.2438234
  38.2689051  75.3311420  54.2811483  37.0600017  75.7825677  56.1350222
  37.2053731  76.7777216  56.0420859  36.5036527  75.4160120  56.8941099
  36.1633495  70.4264332  54.5818820  36.1726499  69.7596393  55.6261230
  35.1071002  70.4695323  53.7788622  35.1266897  71.0199274  52.9322331
  33.8149370  69.8501717  54.1893323  33.8214253  69.7088150  55.2701076
  32.5824087  70.7288217  53.8086457  32.7264575  71.0252907  52.7696774
  31.7091649  70.0807678  53.8832871  32.3642507  71.9913240  54.6801646
  33.3397414  72.2849237  55.0678734  31.9910310  72.7671608  54.0116713
  31.3837680  71.8071560  55.8481007  31.0577910  72.8128188  56.5369681
  30.9336243  70.6685441  56.0750052  33.6684635  68.4024469  53.6827195
  32.5732761  67.9401228  53.3623229  34.7574764  67.6470196  53.6931284
  35.6385556  68.0870168  53.9171846  34.7499332  66.1972578  53.4150046
  33.7505034  65.8269686  53.1866951  35.7145143  65.8523529  52.1891291
  36.7062329  66.2438388  52.4156977  35.8077264  64.3270092  51.9338252
  34.8163929  63.9348613  51.7067182  36.4738979  64.1390693  51.0918079
  36.1985560  63.8324714  52.8230863  35.3009288  66.5120885  50.9771122
  35.9027472  66.2811517  50.2657170  35.2600413  65.3836144  54.6502111
  36.4125272  65.4702612  54.9929337  34.4306717  64.4473533  55.1291372
  33.4597953  64.4623096  54.8511539  34.8354800  63.5254626  56.2094778
  35.5338437  64.0587403  56.8544601  33.6549187  62.9850503  57.0879876
  33.2395041  63.8323027  57.6336004  32.9006027  62.5846176  56.4106686
  34.0858204  61.8794530  58.0965506  34.0064404  60.9552271  57.5241818
  35.1277331  62.0500629  58.3674922  33.2316489  61.7650877  59.3807580
  33.7391154  61.1902315  60.3645670  32.0504921  62.1906185  59.4042570
  35.7578317  62.3787866  55.7024714  35.4737213  61.6228731  54.7338941
  36.8777609  62.2505436  56.3636660  37.1718089  62.9465738  57.0338728
  37.7864753  61.1264183  56.0799946  37.5840703  60.6402429  55.1256546
  39.2485553  61.6227885  56.1045471  39.4154903  62.1420465  57.0482654
  40.2505278  60.4710217  55.9714707  40.0845040  59.9515401  55.0277146
  41.2656394  60.8674483  55.9937227  40.1151634  59.7736508  56.7981807
  39.4857458  62.7076946  54.9989756  38.9259275  63.5854108  55.3219595
  40.5529295  62.9279172  55.0258146  39.0766520  62.3391074  53.5697721
  38.0094283  62.1191871  53.5420477  39.2925448  63.1737556  52.9027999
  39.6364292  61.4616916  53.2459036  37.5358448  59.9927279  57.0802169
  37.3724168  58.8267953  56.6976473  37.5045799  60.3482133  58.3523295
  37.6051754  61.3241079  58.5923497  37.5232330  59.3623818  59.4335646
  36.7975567  58.5669911  59.2637214  38.9653783  58.7104655  59.5853242
  39.5060974  58.8640894  58.6514491  39.7502674  59.3153743  60.7270700
  39.2103602  59.1617268  61.6614105  40.7278306  58.8373593  60.7900852
  39.8793144  60.3837941  60.5540769  38.8767336  57.2819821  59.7787933
  39.7596762  56.9156476  59.8671784  36.9283218  59.9843985  60.7451735
  36.5653233  61.1712854  60.8007920  36.7582693  59.1550174  61.7626008
  37.1467049  58.2248170  61.6997975  36.1642650  59.5724275  63.0278058
  35.8841082  60.6254389  62.9999051  34.9290534  58.7532979  63.2759126
  34.1805082  59.3937946  63.7423290  34.3450014  58.1510134  61.9330237
  35.0928657  57.5099901  61.4662392  33.4527071  57.5655357  62.1546672
  34.0868091  58.9623226  61.2524249  35.3002154  57.7022462  64.1613702
  34.5343360  57.1534819  64.3454537  37.0425548  59.2247550  64.2169428
  38.0241005  58.4904480  64.0634684  36.6691462  59.7309456  65.3970034
  35.9401675  60.4289353  65.4357316  37.3654161  59.3870953  66.6347110
  38.4270305  59.5790952  66.4791155  36.9034911  60.1639370  67.8724764
  37.0650541  61.2224188  67.6684836  35.8364576  59.9762420  67.9921018
  37.6479159  59.7689299  69.1775642  38.1342321  58.8097832  68.9997017
  38.4049763  60.5301558  69.3659695  36.7005207  59.6520704  70.4267700
  36.6136821  60.6508572  70.8545352  35.7268011  59.3292749  70.0582967
  37.1950654  58.6623534  71.5186417  36.4312225  57.8872083  71.5802424
  38.1178033  58.2323026  71.1291417  37.4461784  59.2296980  72.8915282
  36.5911665  59.6278599  73.2528057  37.7614541  58.4938715  73.5073696
  38.1542497  59.9476874  72.8347357  37.2513307  57.9143658  66.8436091
  38.2471548  57.2823791  67.1005646  36.0500998  57.3585752  66.6836021
  35.2592981  57.9667479  66.5259381  35.8048250  55.9123642  66.8054422
  35.7690935  55.6393845  67.8601006  34.4442897  55.5042197  66.1349641
  34.5760658  55.3616251  65.0623965  34.1613178  54.5573389  66.5947942
  33.2999382  56.5274400  66.3622852  32.6949350  57.0337321  65.3914971
  32.9606623  56.7846248  67.6339156  32.2214934  57.4435546  67.8327637
  33.4458457  56.3182245  68.3870216  36.9399824  55.0531211  66.2231690
  37.2932216  54.0226009  66.7875733  37.4906540  55.4856766  65.0902620
  37.1783069  56.3592310  64.6909608  38.4018082  54.6538641  64.3089407
  38.2386947  53.6030970  64.5484856  38.1622282  54.8580244  62.7998476
  38.6089046  55.8175651  62.5393459  38.6965430  54.0580275  62.2873901
  36.6566564  54.8459969  62.3601547  36.2464960  55.4262388  63.1867068
  36.4972675  55.3834120  61.4253395  35.9362156  53.4513239  62.2914951
  35.5163386  53.0536417  61.1637583  35.6263964  52.8273274  63.3612715
  39.8824665  54.8000703  64.7005464  40.6969125  53.9475062  64.3527271
  40.2170990  55.8234461  65.4367352  39.4992135  56.4741707  65.7218621
  41.5655747  56.0359799  65.9167402  42.3323832  56.0730511  65.1429640
  41.5637044  57.3356683  66.6857808  40.6442943  57.3985273  67.2678754
  42.7532427  57.4120207  67.6140340  43.6730938  57.3496884  67.0325796
  42.7307587  58.3567014  68.1573327  42.7153231  56.5848367  68.3228555
  41.4902384  58.5229161  65.7157259  42.3798317  58.4907710  65.0866859
  40.6031271  58.3890066  65.0966934  41.4170725  59.8698265  66.4223886
  42.3041308  60.0046625  67.0412961  41.3672132  60.6673963  65.6811088
  40.5274268  59.9028971  67.0513057  41.9825233  54.9365530  66.8800016
  41.2744198  54.6325486  67.8223389  43.1416902  54.3563297  66.6522782
  43.6257958  54.4977267  65.7772079  43.7753520  53.4988452  67.6713008
  43.4502141  53.7990178  68.6674338  43.3863504  52.0732663  67.4515359
  43.6834661  51.3832139  68.2412505  42.2999496  52.0774164  67.3631277
  43.9198124  51.5101662  66.1658853  43.2785969  51.7844430  64.9650090
  42.3893769  52.4148078  64.9702889  43.7468117  51.2772429  63.7909289
  43.2082271  51.4443381  62.8581340  44.9109315  50.5484117  63.7906789
  45.2908387  50.1438406  62.8525464  45.5973651  50.3272528  64.9642456
  46.5263968  49.7572714  64.9532257  45.1141987  50.8218286  66.1407918
  45.6729060  50.6732312  67.0648399  45.2811758  53.5560190  67.6246988
  45.8556783  53.9221126  66.5977347  45.8660141  53.1455451  68.7407048
  45.2948165  52.7015260  69.4454599  47.3060959  53.3036287  69.0067180
  47.6887740  54.1798691  68.4834023  47.5476626  53.4903725  70.5302331
  46.7322460  52.9952716  71.0575565  48.4898044  53.0014749  70.7781203
  47.6052772  54.8584685  70.9229760  47.7555786  54.9135856  71.8695336
  48.0507586  52.0924175  68.5433327  48.1801149  51.1496681  69.2973649
  48.4999661  52.0831063  67.2939445  48.2268033  52.7953582  66.6319939
  49.4010825  51.0569553  66.8554786  48.9880478  50.0791213  67.1031523
  49.6157423  51.1257592  65.3645466  49.3571361  52.1479685  65.0883035
  50.6814531  50.9645968  65.2021049  48.8256463  50.1598060  64.5144426
  47.8454994  50.5844366  64.2974132  49.5649622  49.9064098  63.2156515
  50.5450880  49.4813168  63.4318646  48.9943565  49.2090996  62.6022443
  49.6878347  50.8463398  62.6775675  48.6191173  48.8477831  65.2377487
  48.0736334  49.0252100  66.1646070  48.0474851  48.1692725  64.6045338
  49.5871705  48.4019101  65.4661545  50.7154300  51.2496319  67.5362196
  51.3655004  50.2971916  67.9087338  51.1338373  52.4904382  67.6315202
  50.5879207  53.2465807  67.2438053  52.3717811  52.8120393  68.2953212
  53.0969112  52.0248598  68.0888413  52.9614151  54.1651590  67.8221184
  53.1891740  54.0830735  66.7593451  52.2056199  54.9359983  67.9727185
  54.1587931  54.5187703  68.5441411  54.4903075  55.3599797  68.2215503
  52.0897338  52.8991845  69.7555157  51.0297852  53.3151197  70.1642672
  53.0876041  52.5707487  70.5629925  53.9624743  52.2159235  70.2041047
  52.9380893  52.6985715  71.9773997  52.0948390  52.0819503  72.2885371
  54.1841602  52.2641302  72.7701690  54.1815454  51.1842752  72.6218267
  55.1187856  52.6798160  72.3936311  54.0504649  52.5807182  74.2958975
  53.0276163  52.9113741  74.4763091  54.3634750  51.3731687  75.1922540
  55.3863809  51.0422109  75.0127291  54.2527020  51.6582116  76.2384761
  53.6737663  50.5610001  74.9625053  54.8645326  53.8251221  74.7034718
  54.5094026  54.6911883  74.1449815  54.7416355  54.0066358  75.7712032
  55.9188700  53.6585047  74.4827680  52.6460244  54.1648675  72.2499053
  51.7954379  54.5027045  73.0427898  53.3312098  55.0289221  71.5413466
  54.0753974  54.7247244  70.9299974  53.2366337  56.4105779  71.8500352
  53.1983142  56.5305088  72.9327390  54.3976224  57.1820908  71.3266584
  54.8190168  56.8022346  70.3959408  54.2328767  58.2559717  71.2386881
  55.6753120  56.9743830  72.5736030  56.5961249  57.7058214  71.9523143
  51.9243186  57.0442444  71.5984305  51.5967982  57.9829351  72.3138375
  51.1461191  56.5756700  70.6428571  51.4502358  55.8696045  69.9878121
  49.8106608  57.0850661  70.5222877  49.2375784  56.7612940  71.3911072
  49.8565784  58.1739304  70.5031713  49.1375173  56.6123690  69.3009997
  49.7066976  55.8678703  68.5128877  47.9723272  57.1675776  69.0397712
  47.1420220  58.0068124  69.9226716  47.7525373  58.8083466  70.3385014
  46.7443957  57.3958648  70.7330637  46.0598142  58.5194524  69.0042804
  46.3151534  59.5253376  68.6709700  45.1118264  58.5450020  69.5416516
  45.9968169  57.5605479  67.8529774  45.6655417  58.0825817  66.9552935
  45.3431815  56.7083785  68.0391700  47.4331570  57.0847758  67.6750333
  47.5008627  56.0444404  67.3568880  48.1758740  57.9700874  66.6783926
  47.9077111  57.9301953  65.4976080  49.0662078  58.8126979  67.1994860
  49.1504830  58.8613740  68.2047858  49.9415897  59.6398950  66.3966203
  49.9656802  59.2637793  65.3738516  49.4658183  61.0371659  66.3743099
  48.4085500  61.0443984  66.6393206  50.0294902  61.6039307  67.1153575
  49.6447793  61.6569205  65.0364791  50.6709740  62.0045049  64.9172719
  49.4130107  60.9348958  64.2534940  48.5221078  63.0633208  64.8978507
  49.4912676  64.4099785  65.5611761  50.3963284  64.5342752  64.9666054
  48.9067301  65.3294154  65.5287356  49.7627917  64.1888994  66.5934066
  51.3545300  59.6876360  66.9396620  51.5796424  59.8385938  68.1477970
  52.3025748  59.5848534  65.9908791  52.0177206  59.3128174  65.0608502
  53.7186856  59.8514069  66.2313254  53.8955880  60.4871497  67.0988712
  54.4850258  58.5430693  66.4203499  54.3250655  57.8994610  65.5553175
  55.5491331  58.7561380  66.5222211  54.1283291  58.0389713  67.3185436
  54.2404085  60.5912923  65.0047416  53.5800956  60.6602746  63.9858391
  55.4901795  61.0357893  65.0762524  55.9614626  61.0697581  65.9689101
  56.2034008  61.5257780  63.8960692  55.5037001  61.8830275  63.1404960
  57.1138225  62.6964024  64.3171156  57.8260825  62.3519456  65.0668724
  57.6545462  63.0680798  63.4467284  56.5054785  63.4980611  64.7358758
  57.0316269  60.3824929  63.2489635  57.6190464  59.5251645  63.9150447
  56.9856229  60.3490916  61.9159380  56.3037281  60.8978606  61.4119821
  57.8304511  59.4337977  61.1603407  58.6317689  59.0681469  61.8024376
  57.0244192  58.2239051  60.6395657  56.3080300  58.6348184  59.9282035
  57.7069526  57.5515568  60.1197620  56.2782689  57.4520936  61.7240014
  56.9201264  56.5307450  62.5387834  57.9920308  56.3774747  62.4137687
  56.2178163  55.8047097  63.5069927  56.7374264  55.0653072  64.1164113
  54.8494195  55.9861533  63.6525722  54.1588777  55.2980546  64.6187038
  54.7193694  54.7174900  65.1386975  54.1846595  56.9048449  62.8592941
  53.1132727  57.0688378  62.9747803  54.9025819  57.6260790  61.9019573
  54.3904061  58.3492546  61.2672975  58.5356071  60.2167502  60.0437592
  57.9269069  61.1177446  59.4239317  59.8282236  59.9047153  59.7807348
  60.3792966  59.3225682  60.3951635  60.4649076  60.4301074  58.5574051
  59.9435117  61.2978602  58.1533623  61.9698491  60.7238428  58.5680639
  62.3782648  60.4728385  57.5891397  62.2497010  62.1939027  58.8744360
  61.8419566  62.4455522  59.8534753  63.3258420  62.3671685  58.8741474
  61.7812843  62.8194936  58.1146180  62.7222243  59.7512715  59.4172126
  62.5747632  58.7421736  59.0324026  63.7842357  59.9958287  59.3966403
  62.3572532  59.8053826  60.4428680  60.3296290  59.5197961  57.3930207
  60.4783071  58.3268298  57.5502186  60.1460321  60.1003726  56.2087179
  59.8422704  61.0609803  56.1375779  60.2350891  59.3134960  54.9893569
  60.0984135  58.2620015  55.2419005  59.1556188  59.7179216  53.9265352
  59.2165335  58.8665532  53.2486263  58.1397145  59.8025020  54.3123909
  59.4886578  60.9880226  53.1461697  60.1995289  61.8261680  53.6203886
  58.8133379  61.1879938  52.0361370  58.9932571  62.0121349  51.4806910
  58.1177207  60.5165567  51.7439215  61.6522307  59.3754590  54.4499015
  62.5416548  59.9772012  55.0843777  61.9268475  58.6911744  53.3252370
  60.9934909  57.8755120  52.5543420  60.4182266  58.5076278  51.8778800
  60.3143450  57.3515870  53.2269211  61.8965303  56.9559739  51.8391977
  61.4352658  56.6463641  50.9013939  62.0881749  56.0782384  52.4564125
  63.1447778  57.7188512  51.6023489  63.0251816  58.3356048  50.7116128
  64.0253163  57.0862753  51.4901020  63.2938095  58.5934973  52.8118979
  63.9112984  58.2032928  53.6209382  63.8740464  59.9078009  52.3222631
  65.0866926  60.0948893  52.4129713  63.0393363  60.8012733  51.7976668
  62.0826087  60.5429574  51.6026163  63.5128938  62.0821784  51.3256125
  64.5503576  62.0032313  51.0007503  62.6801257  62.5321463  50.1636499
  61.7298360  62.2459093  50.6143349  62.6134962  63.5561110  49.7960131
  62.8632225  61.6681232  48.9779924  63.8924461  61.8819765  48.0924764
  63.9208210  60.8897050  47.2176798  64.6301927  60.9001422  46.3901643
  62.9982380  60.0073087  47.5572507  62.7685565  59.1590904  47.0593832
  62.3914813  60.4304453  48.7103906  61.6761682  59.7839148  49.2187476
  63.6410396  63.1128186  52.4269088  63.9831258  64.2803571  52.1738734
  63.4406550  62.6678775  53.6640060  63.0932520  61.7305139  53.8080892
  63.7083988  63.4970871  54.8400293  63.9925554  62.8180416  55.6439269
  64.5554970  64.1347909  54.5873283  62.5492347  64.3746168  55.3160326
  62.6959345  65.1736337  56.2345957  61.3647571  64.0992637  54.7488363
  61.3793682  63.4203419  54.0012060  60.0825297  64.6973329  55.1170005
  60.2215781  65.7556918  55.3375479  59.0397990  64.5600248  53.9371326
  59.0537117  63.5520680  53.5224896  58.0854981  64.7348093  54.4339829
  59.2204907  65.5747123  52.8124239  59.1824396  66.9317649  53.0945679
  58.8939793  67.2328705  54.1016556  59.4979960  67.9001978  52.1399592
  59.4872135  68.9529799  52.4221568  59.8077481  67.5431357  50.8738840
  60.0807354  68.5973903  49.9865694  60.0119984  69.4617565  50.3985718
  59.8428562  66.1746110  50.5403130  60.1142444  65.8719998  49.5289400
  59.5291301  65.1989882  51.5073296  59.5270719  64.1433622  51.2357607
  59.4568198  64.0492474  56.3521577  59.3629785  62.8274654  56.4538851
  58.9186508  64.8970445  57.2354472  58.8764844  65.8899943  57.0555254
  58.3567713  64.3932158  58.4955373  58.7131087  63.3861301  58.7121042
  58.6174309  65.2756743  59.7142614  57.7603087  65.9262617  59.8879762
  58.8347666  64.3867269  60.9320166  59.6920690  63.7361305  60.7592225
  59.0217352  65.0084066  61.8076064  57.9462323  63.7786403  61.1018376
  59.7789939  66.2407226  59.4945204  59.5563209  66.8915797  58.6490005
  59.9238588  66.8455496  60.3896730  60.6876438  65.6753159  59.2877081
  56.8367387  64.2556740  58.4419739  56.1146497  65.1612779  57.9441414
  56.3417767  63.1521943  58.9881637  56.9301320  62.4619779  59.4326170
  54.8947939  62.8773408  58.8862455  54.3584841  63.7887546  58.6220564
  54.6392228  61.8320663  57.8076786  55.3995867  61.0562645  57.8975547
  53.6500816  61.3823861  57.8942082  54.7429671  62.3743298  56.4159723
  53.9339862  63.3897931  55.9480349  53.2070400  63.8384204  56.4869063
  54.2628603  63.6731469  54.6984460  53.7278231  64.4439577  54.1437525
  55.2665473  62.8905230  54.3455068  55.5897614  62.0735070  55.4043607
  56.4051091  61.3562550  55.3102390  54.3810910  62.4411226  60.2208798
  54.6824461  61.3376229  60.6749708  53.5503590  63.2976001  60.8083019
  53.4317857  64.2391016  60.4624483  52.8406554  62.9136915  62.0066407
  53.4667675  62.2434894  62.5956331  52.4822572  64.1338290  62.8677709
  51.4656701  64.4123370  62.5901325  52.4943987  63.7888716  63.9016747
  53.3994110  65.3476085  62.7253794  54.4028081  64.9936779  62.4886765
  53.0160194  65.9356961  61.8915551  53.4493436  66.2169491  63.9808871
  53.5300971  65.6432605  65.1170566  53.4258625  67.4823982  63.8025721
  51.5890344  62.1319129  61.5221121  50.5757285  62.7177040  61.1047622
  51.6874317  60.8144727  61.5215124  52.5405935  60.3485499  61.7956111
  50.6544683  60.0373964  60.9391078  49.8989855  60.6890471  60.5001359
  51.1433829  59.0796987  59.8758493  51.4255305  59.6459031  58.9882088
  52.3198910  58.3168807  60.3715735  52.0383756  57.7500212  61.2589962
  52.6618431  57.6311386  59.5963797  53.1229601  59.0096081  60.6231870
  50.0626018  58.1953754  59.5108419  50.3641814  57.5832270  58.8356201
  49.7982438  59.3662360  61.9821308  50.2900798  58.9157408  63.0106503
  48.4970551  59.3337508  61.6849932  48.2257025  59.6378494  60.7608768
  47.4623382  58.8585705  62.5842204  47.8218408  58.7866120  63.6107090
  46.3494140  59.8743248  62.5336358  46.8599071  60.8269309  62.6751900
  45.9621808  59.8178690  61.5163043  45.2030041  59.7656467  63.5163247
  44.7857099  58.7609466  63.4489137  45.6599016  60.0290019  64.9399580
  46.0769212  61.0337544  65.0082647  44.8099488  59.9421571  65.6168176
  46.4213411  59.3004438  65.2183704  44.1630958  60.7926746  63.0927018
  43.8264728  60.5730274  62.0795190  43.3132904  60.7523818  63.7741036
  44.6035875  61.7893125  63.1206130  46.9232962  57.5129343  62.1170651
  46.4599140  57.3931651  61.0018860  46.9842182  56.5249961  62.9843611
  47.3430047  56.7099928  63.9101839  46.5933568  55.1595785  62.6545819
  46.8438234  54.9691708  61.6109773  47.4965153  54.2357974  63.5679483
  46.8902124  53.4480274  64.0150674  48.5312065  53.6399706  62.7425098
  49.1382506  54.4271686  62.2953898  49.1633524  52.9994023  63.3574593
  48.0701026  53.0452807  61.9539493  48.1978557  55.0233546  64.5676194
  48.7386900  54.4442154  65.1095571  45.0771945  54.9685535  62.9127068
  44.6511624  55.1314202  64.0254584  44.3086796  54.6801575  61.8749874
  44.7311399  54.6056099  60.9606191  42.8806964  54.5752146  61.9754312
  42.5593314  54.4294372  63.0067278  42.2085492  55.8672453  61.4224702
  41.1272528  55.7302235  61.4114084  42.5573342  57.0532791  62.2945086
  43.6385128  57.1912235  62.3056934  42.0813032  57.9496532  61.8970060
  42.2038392  56.8746949  63.3100137  42.6014077  56.1801358  59.9979311
  42.3084002  55.3541221  59.3498956  42.0989619  57.0914784  59.6737356
  43.6807632  56.3209150  59.9407152  42.3807747  53.2988227  61.2735253
  43.0635848  52.8232183  60.3781702  41.2981445  52.6903375  61.7886599
  40.7424331  53.1624403  62.4875183  40.8922662  51.3489307  61.3699145
  41.7707614  50.7151205  61.2489597  40.0129909  50.7453297  62.3834354
  39.6469790  51.6345058  62.8967583  39.1703934  50.1967201  61.9625351
  40.7315998  49.8823832  63.3449329  41.4478095  48.7704725  62.9095982
  41.5540176  48.5898557  61.8399268  42.0242959  47.8952532  63.8228927
  42.6226331  47.0543905  63.4721159  41.8702131  48.1217600  65.2026358
  42.4114205  47.2469261  66.1209550  42.8755907  46.5130738  65.7115573
  41.1350806  49.2056558  65.6531392  41.0022723  49.3835258  66.7202965
  40.5641032  50.0707188  64.7285530  39.9703921  50.9187191  65.0698781
  40.1422245  51.3418666  60.0584121  40.5008943  50.6084215  59.1831616
  39.0965642  52.1371018  59.8816455  38.5345486  52.4658668  60.6537539
  38.6335269  52.4312796  58.4939471  39.2820960  51.8495413  57.8389373
  37.1800817  51.9756814  58.2775273  37.0899032  50.9177099  58.5238268
  36.5175062  52.5555409  58.9200666  36.7912103  52.1926408  56.8189897
  36.8807031  53.2505246  56.5720608  37.4530975  51.6126923  56.1758202
  35.3504962  51.7410356  56.6044652  35.2603162  50.6830648  56.8507662
  34.6879217  52.3208969  57.2470035  34.9616263  51.9579935  55.1459265
  35.0511197  53.0158768  54.8989964  35.6235118  51.3780428  54.5027595
  33.5728720  51.5226776  54.9391401  32.9593436  52.0602480  55.5347077
  33.3153251  51.6663663  53.9731571  33.4898229  50.5423410  55.1674866
  38.8523028  53.8994756  58.1228753  39.4615227  54.7104922  58.8779662
  38.3507640  54.2600917  56.9403831  38.0454997  53.5533810  56.2865689
  38.2776224  55.6802962  56.5245232  37.5842770  56.1915609  57.1923404
  39.6426912  56.3329495  56.6502409  40.3458423  55.8376795  55.9806244
  39.5680510  57.3870023  56.3828425  39.9955818  56.2433840  57.6776383
  37.7541660  55.8492257  55.0802527  37.9738331  54.9899229  54.1826392
  37.0347357  56.9371133  54.8820493  37.0450031  57.6943124  55.5503632
  36.1563202  57.0427538  53.7418356  36.0808720  56.0774688  53.2412043
  34.7288519  57.4820577  54.1960211  34.7548356  58.5614867  54.3452095
  34.0432788  57.2446215  53.3825633  33.9781871  56.7748990  55.7182543
  32.8359503  57.4513733  55.6371617  36.7153747  58.0139098  52.6923571
  37.6248099  58.7975901  52.9675839  36.1119369  57.9669646  51.5047208
  35.4749541  57.2060650  51.3166142  36.3420427  58.9657696  50.4425820
  35.8105854  58.6746664  49.5365404  35.8331845  60.3352219  50.8882464
  36.4179200  60.5731912  51.7768150  35.9825011  61.1109209  50.1371834
  34.3892978  60.3049961  51.2617697  34.0751566  60.1498702  52.4164979
  33.5010427  60.3474893  50.2710572  32.5133444  60.3290796  50.4813258
  33.8189293  60.3979435  49.3137154  37.7830624  59.1245497  50.0609628
  38.2440920  60.2399284  49.8565463  38.5125476  58.0185297  49.9219776
  38.1304261  57.1248732  50.1966785  39.8835239  58.0576556  49.3956837
  40.1247581  59.0864085  49.1281533  40.9280476  57.5550575  50.4115279
  40.5123252  56.5826274  50.6754482  41.8922946  57.4167738  49.9224415
  41.1153270  58.3924076  51.6823151  40.1274893  58.6452702  52.0674620
  41.9102859  57.6472902  52.7634494  42.8984749  57.3944835  52.3791709
  42.0146156  58.2838945  53.6420569  41.3830943  56.7336084  53.0379582
  41.7354613  59.7389245  51.3306241  41.0800359  60.2727447  50.6424722
  41.8653376  60.3279431  52.2385285  42.7052917  59.5807679  50.8589097
  40.0035081  57.2009527  48.1349248  39.3063459  56.1950258  47.9375929
  40.9842451  57.5580298  47.3248873  41.4511858  58.4429154  47.4628842
  41.4765056  56.6685158  46.2635723  40.7465425  55.8738031  46.1096739
  41.6960966  57.3886776  44.9431944  42.3694259  58.2331798  45.0899693
  42.1551078  56.6729540  44.2611763  40.4308944  57.8885649  44.3293100
  39.3717380  57.8125076  44.9208612  40.5433018  58.4395130  43.1428439
  39.7223240  58.7969502  42.6755817  41.4502264  58.5033296  42.7029394
  42.8437420  56.1397676  46.6646655  43.6515458  56.8483118  47.2934438
  43.1374710  54.9470999  46.1736951  42.4025501  54.3916260  45.7596428
  44.4614787  54.3994601  46.2160066  45.0993181  55.0097083  46.8554261
  44.4197610  53.0234292  46.7637871  44.0376233  52.4319338  45.9317996
  45.4115029  52.6644128  47.0388421  43.4980385  52.8892934  47.9358474
  43.0119302  53.8485546  48.1136605  42.4142482  51.7997410  47.6641618
  42.8996092  50.8400368  47.4867035  41.7551522  51.7186566  48.5285220
  41.8299442  52.0784600  46.7872325  44.3503492  52.6239400  49.1703125
  45.0379215  53.4557490  49.3234055  43.7050788  52.5213100  50.0427771
  44.9187472  51.7046297  49.0292761  45.0491121  54.3795648  44.7878216
  44.3315386  54.2743915  43.7844449  46.3303021  54.6924558  44.7236317
  46.8017633  55.0032046  45.5610437  47.0750683  54.6760490  43.4829463
  46.4918934  54.1996820  42.6948596  47.4513431  56.0933451  43.0519721
  48.2075186  56.0339376  42.2691760  46.2400676  56.8354760  42.5278706
  45.4835856  56.8956957  43.3103086  46.5318729  57.8417063  42.2271197
  45.8315299  56.3040309  41.6683579  48.0715736  56.8862610  44.1988080
  47.5563392  57.8443443  44.2674433  47.9194540  56.3256135  45.1211059
  49.5583046  57.1246523  43.9905253  49.7111939  57.6856894  43.0685914
  49.9570289  57.6924957  44.8311632  50.0743085  56.1669580  43.9222517
  48.2888294  53.8023907  43.6703872  48.9534210  53.8737421  44.7187197
  48.5833575  52.9859435  42.6634154  48.0209846  52.9716258  41.8245883
  49.7404207  52.0780750  42.7439731  50.0091066  51.7516734  41.7392995
  50.5812032  52.6095074  43.1898026  49.4200437  50.8533663  43.5946324
  48.2555074  50.6306986  43.9767809  50.4554680  50.0772466  43.9118085
  51.3744711  50.3243551  43.5734742  50.2975953  48.8247520  44.6095616
  49.2594309  48.6949255  44.9152721  50.6896595  47.6523276  43.6826206
  51.3599506  48.0562445  42.9238979  51.2282641  46.9286491  44.2944167
  49.4893930  46.9536454  42.9924522  49.4255166  45.9458049  43.4026695
  48.5937091  47.5128681  43.2628638  49.6031227  46.8766235  41.4524596
  48.6935636  46.4141600  41.0691468  49.6827996  47.8935330  41.0682123
  50.7631658  46.1006202  40.9788227  51.5061358  46.6229362  40.5369167
  50.9068404  44.7768108  41.1155015  52.0184256  44.1862654  40.7123147
  52.7585700  44.7368336  40.3010230  52.1225691  43.1871572  40.8173696
  49.9589415  44.0434175  41.6758737  49.1127774  44.4844881  42.0068769
  50.0858563  43.0458616  41.7700732  51.0634923  48.8237207  45.9400659
  52.0157775  49.5936338  46.1532013  50.6017225  47.9948906  46.8558580
  50.1714641  46.6508018  46.4661542  51.0027634  46.1171992  46.0053831
  49.3466512  46.7194207  45.7568770  49.7561463  46.0511831  47.7627538
  50.0248395  44.9948371  47.7567509  48.6749013  46.1499852  47.8589244
  50.4627305  46.7911380  48.8643883  51.1979024  46.1045609  49.2841897
  49.8055379  47.1482391  49.6572795  51.1721403  47.9713659  48.2047446
  50.9764411  48.9310362  48.6831094  52.6800115  47.7222511  48.1617737
  53.1413008  46.8294430  47.4679691  53.4281077  48.5397067  48.9118753
  52.9662787  49.2555651  49.4544248  54.8677775  48.4667610  48.9606597
  55.2221081  47.5228199  48.5465048  55.4362788  49.6079991  48.1270604
  55.5330748  49.2727003  47.0944402  54.7469180  50.4511446  48.1716408
  56.6925608  50.0054522  48.6091056  57.0297879  50.7240011  48.0691379
  55.3634522  48.5605481  50.4398898  54.8582294  49.3680822  51.2280139
  56.3762473  47.7594211  50.7286660  56.7263536  47.1597638  49.9952248
  57.0083656  47.6942436  52.0279532  56.3145777  48.0684941  52.7807442
  57.3889704  46.2525932  52.3859477  56.4889720  45.7006827  52.6570530
  58.0454045  45.5913510  51.2177448  58.9457951  46.1424692  50.9463316
  58.3121158  44.5679264  51.4814992  57.3578213  45.5806281  50.3720410
  58.3060934  46.2466564  53.4861876  58.5390373  45.3411042  53.7037024
  58.2690163  48.5278676  52.0528717  59.0465588  48.4370436  52.9971744
  58.4965219  49.3164730  51.0148656  57.8482220  49.4031106  50.2452549
  59.7006412  50.1118998  50.9881102  60.5752258  49.4717813  51.1040819
  59.8076928  50.8476386  49.6535472  60.0212909  50.0991307  48.8905197
  58.8352216  51.2989817  49.4568517  60.8828628  51.9254362  49.6218165
  60.7854934  52.5105303  50.5363027  61.8494440  51.4216826  49.6145895
  60.7843280  52.8404250  48.4271740  59.8224480  52.7100975  47.6556130
  61.6746685  53.6938221  48.2610836  59.6713517  51.1465589  52.0743411
  58.7616631  51.9378049  52.1492246  60.6936977  51.1515600  52.9070918
  61.4145315  50.4468120  52.8452206  60.8210362  52.1704731  53.9138639
  61.6636134  51.9705908  54.5758382  61.0682631  53.4891747  53.1969671
  61.7535455  53.3519681  52.3605093  60.1161791  53.8699288  52.8272883
  61.6514504  54.5595971  54.0548775  61.6059052  55.8912510  53.7066211
  61.1776572  56.2495759  52.8650116  62.2026746  56.6071172  54.6363328
  62.2671079  57.6917375  54.5494640  62.6418870  55.7858903  55.5711840
  62.3117127  54.5005350  55.2300862  62.5937380  53.6740170  55.8823368
  59.5587255  52.2639512  54.7113183  59.1581083  53.3480707  55.0926156
  58.9104323  51.1470506  54.9838232  59.1770228  50.2351727  54.6410294
  57.6733296  51.2640736  55.7484875  57.1789548  52.1885932  55.4502322
  56.7280555  50.1337184  55.5481348  56.3931709  50.0925470  54.5116713
  57.1989801  49.1876462  55.8151132  55.6142799  50.3627946  56.3957237
  54.9808701  49.6489479  56.2917298  57.9003693  51.4362432  57.2557066
  58.7192995  50.7373318  57.8651500  57.1414847  52.3629840  57.8229541
  56.4079552  52.7788016  57.2669600  57.2611329  52.7617872  59.2131550
  58.2928852  53.0057163  59.4663051  56.4086484  53.9994480  59.4096547
  55.4190615  53.7541574  59.0241037  56.3245313  54.3178301  60.4487203
  56.8700337  55.1438874  58.6635877  58.1249336  55.4294307  58.3794957
  58.8779868  54.7041939  58.6877850  58.1971414  56.6203447  57.7359859
  59.0517921  57.0754098  57.4486056  56.9388169  57.1219236  57.5726699
  56.5037884  58.3119662  56.9664910  57.2541115  58.9500025  56.4995610
  55.1736002  58.5985838  56.9973250  54.8030082  59.5212469  56.5507219
  54.2827407  57.7410629  57.5847867  53.2164801  57.9664216  57.6048163
  54.7165472  56.5404591  58.1818022  53.9670314  55.8909269  58.6339468
  56.0776418  56.2361859  58.1697052  56.7246943  51.7364769  60.1951144
  56.9117599  51.8548400  61.4031114  55.9838186  50.7814393  59.6676607
  55.8950670  50.7322652  58.6627705  55.3213963  49.7697695  60.4661617
  55.5578071  49.9018998  61.5219792  53.8166212  49.8988993  60.2851326
  53.6040652  49.8538651  59.2170075  53.2669641  49.1096538  60.7980348
  53.2683152  51.1792981  60.7709262  53.2943288  51.4899772  62.1240362
  53.6915402  50.7581760  62.8274493  52.8365614  52.6789008  62.5728832
  52.8955357  52.9455858  63.6281092  52.2916203  53.5544730  61.6762554
  51.9303552  54.5254624  62.0150284  52.1981939  53.2093901  60.3392669
  51.7283379  53.8948221  59.6339169  52.6877508  52.0259019  59.9074165
  52.6115947  51.7563677  58.8540166  55.7391004  48.3728798  59.9802467
  55.0981772  47.8099399  59.0673271  56.8069131  47.8235060  60.5872404
  57.0409523  48.0015302  62.0354873  56.0857414  47.9603337  62.5589138
  57.5059693  48.9726749  62.2050048  57.9485252  46.8601624  62.3998841
  57.3965865  46.1704046  63.0383956  58.8018192  47.2587097  62.9486561
  58.3954292  46.1899471  61.1189309  58.3963015  45.1172815  61.3125461
  59.3679159  46.4888024  60.7277088  57.3009594  46.5345750  60.1124055
  57.6808801  46.6385284  59.0960629  56.1482513  45.5179394  60.1262185
  55.4283522  45.3785658  61.1386954  55.9369309  44.8785746  58.9815219
  56.5512676  45.0408003  58.1964279  54.8414273  43.9432828  58.8153799
  55.2444305  42.9806982  58.5005489  54.3290908  43.8272516  59.7704440
  53.8507588  44.4232234  57.7813630  53.1251616  43.6065123  57.2031021
  53.8276040  45.7405113  57.5589727  54.5031649  46.3309135  58.0228067
  52.8387413  46.3754562  56.6696361  52.1304641  45.6300751  56.3079047
  52.0721765  47.4481622  57.4217299  52.8886834  47.9706003  57.9202018
  51.5175489  48.1510911  56.8001358  51.1596574  46.8626793  58.4444481
  51.6516656  46.4942086  59.6822257  52.6865819  46.7254214  59.9343931
  50.8528319  45.8440376  60.5898393  51.2525423  45.5413774  61.5576876
  49.5677999  45.5023815  60.2393886  48.8034182  44.9090057  61.1831321
  49.2625263  44.7908049  62.0179063  49.0498635  45.8248178  59.0085805
  48.0288830  45.5560222  58.7375670  49.8424848  46.4972806  58.1137530
  49.4538149  46.7565522  57.1289617  53.4402330  47.0363124  55.4284464
  54.5696608  47.4807071  55.4421344  52.6758650  47.0543983  54.3583280
  51.8249953  46.5110236  54.3877247  52.9913572  47.7807989  53.1314650
  54.0088758  48.1704814  53.1615090  52.8679056  46.8470677  51.9553916
  51.8517577  46.4557042  51.9066255  53.0928835  47.3879574  51.0361944
  53.5696402  46.0211007  52.0713500  52.0523625  48.9673360  52.9643052
  50.8848183  48.9217216  53.3278776  52.5263651  49.9767433  52.2855368
  53.4562559  49.9319440  51.8938795  51.7719743  51.2165995  52.1363057
  50.8462545  51.1655146  52.7094832  52.6108690  52.4007629  52.6593256
  52.0465548  53.3161668  52.4813248  52.7933169  52.2890499  53.7281254
  53.9887060  52.5955301  51.9945300  55.1930947  52.2468397  52.5035946
  55.2047609  51.8053631  53.5001196  56.1724290  52.5413922  51.6090958
  57.1630256  52.4242171  51.7674877  55.6047744  53.0985300  50.4912404
  56.1873212  53.5703285  49.3303517  57.2611955  53.4361245  49.2004210
  55.3812874  54.1751159  48.4186513  55.8182881  54.6238356  47.5265857
  54.0278077  54.2344306  48.5947434  53.3787041  54.6422926  47.8198804
  53.4476033  53.7850054  49.7456847  52.3620984  53.8428285  49.8259121
  54.2515016  53.2078809  50.7268416  51.3373304  51.4602765  50.6962959
  52.0458033  51.1307412  49.7322951  50.1803668  52.0714569  50.5699320
  49.5952782  52.2101073  51.3814409  49.6796304  52.5161863  49.2701995
  50.4695554  52.5066382  48.5191825  48.6120507  51.5507067  48.8544439
  47.6423525  51.9699914  49.1227461  48.6543436  51.2842145  47.3339130
  49.6236427  50.8644593  47.0649067  47.8669164  50.5797658  47.0659395
  48.5023674  52.2200545  46.7961332  48.8574652  50.3162110  49.5704292
  48.1907726  49.6687548  49.3297599  49.1915043  53.8977859  49.4135054
  48.5475587  54.2162878  50.4178483  49.6094410  54.7733754  48.4948467
  50.1548825  54.4672106  47.7018423  49.2972558  56.2163299  48.6175279
  49.6464751  56.5167470  49.6054016  49.9775338  57.1117021  47.5606530
  50.1126746  56.5286617  46.6496646  49.1391408  58.3503924  47.2521980
  49.0039518  58.9342191  48.1626766  49.6487704  58.9576492  46.5041222
  48.1654719  58.0446390  46.8693334  51.2939681  57.6141194  48.0724845
  51.9450754  56.7684073  48.2936912  51.7619376  58.2441808  47.3160938
  51.1334174  58.1955899  48.9803481  47.8132438  56.3887284  48.4850241
  47.1884269  55.8117290  47.5827778  47.2724305  57.1668606  49.4068339
  47.9346799  57.6252219  50.0162844  45.8570703  57.4713373  49.5710763
  45.1531462  56.8693716  48.9964221  45.5542363  57.2951587  51.0446304
  46.2451970  57.8990601  51.6328279  44.5315719  57.6137335  51.2465412
  45.6676971  56.2457163  51.3164696  45.6504142  58.9005932  49.2115896
  46.3375565  59.6664688  49.7830711  44.6845440  59.2590115  48.3550307
  44.2620944  58.5983560  47.7185010  44.3217312  60.6730461  48.2303469
  44.5890540  61.1930986  49.1502290  45.0379962  61.3381283  47.0724353
  44.9033223  62.4146649  47.1774636  46.0970788  61.0949316  47.1578716
  44.5253119  60.8945436  45.7143471  43.9115403  60.0462473  46.0172971
  43.9243772  61.5835887  45.1208857  45.6535864  60.3907117  44.8664342
  46.0702351  59.2426318  45.0127704  46.3148990  61.3094476  44.1576218
  47.0852576  61.0293729  43.5675309  46.0416090  62.2800807  44.2149390
  42.8399660  60.9973558  48.1413739  42.0540148  60.1855029  47.7147435
  42.4679136  62.2040245  48.5353113  43.2028477  62.8385140  48.8135092
  41.0709981  62.6756048  48.6092643  40.5386197  62.1125494  49.3758418
  41.0040991  64.1886988  48.9670649  41.6914316  64.3833355  49.7903448
  41.3092423  64.7672968  48.0951635  39.3734582  64.8729696  49.4896906
  39.7989372  66.1192201  49.6760390  40.3767913  62.4565511  47.2789514
  40.7340191  63.0975430  46.2547445  39.4153802  61.5724921  47.3032469
  39.3701216  60.9477537  48.0955555  38.4688523  61.3767720  46.2154120
  38.9640807  60.7329416  45.4885486  37.2053095  60.6476329  46.7438972
  37.4982887  59.7147332  47.2255199  36.6935458  61.2836907  47.4661358
  36.2682791  60.3456260  45.5792555  35.9744824  61.2781434  45.0973888
  36.7792230  59.7091840  44.8567735  35.0264015  59.6289914  46.0986780
  35.3193797  58.6960924  46.5803025  34.5146379  60.2650506  46.8209149
  34.0893725  59.3269828  44.9340349  33.7955760  60.2594996  44.4521670
  34.6003164  58.6905394  44.2115564  32.8922835  58.6361961  45.4347249
  32.4184490  59.2259466  46.1038849  32.2716939  58.4361759  44.6633881
  33.1642641  57.7718708  45.8808947  38.0736034  62.6841036  45.4824976
  38.0023535  62.7143700  44.2602876  37.8303870  63.7516062  46.2334337
  38.0103969  63.7056792  47.2262008  37.3330459  65.0140016  45.6741826
  36.6536594  64.8776539  44.8327894  36.6433968  65.9320725  46.7660130
  37.3993333  66.5585670  47.2394738  35.5925672  66.8141234  46.1106503
  34.8359854  66.1882944  45.6373398  35.1222486  67.4427838  46.8667503
  36.0650600  67.4445286  45.3573649  36.0726410  65.1585544  47.9983942
  36.8110151  64.3957480  48.2454385  36.0143428  65.8834996  48.8102780
  34.7060528  64.5006027  47.8039043  34.7636849  63.7751436  46.9924319
  34.4119489  63.9941047  48.7231768  33.9670127  65.2628956  47.5572689
  38.5059400  65.8450275  45.0799718  38.6075316  66.0993179  43.8643984
  39.3990700  66.2365979  45.9788852  39.3309252  65.8844807  46.9230616
  40.4133818  67.2452198  45.6879653  40.1166889  67.8422598  44.8256337
  40.5691392  68.1629219  46.8809327  41.3020343  68.9498622  46.7029190
  39.6223788  68.6105139  47.1832673  41.1563315  67.2519961  48.2906619
  41.1851726  68.2883931  49.1236971  41.7746506  66.6834719  45.2534292
  42.6399293  67.4500402  44.7735511  41.9640747  65.3669285  45.3867635
  41.2674820  64.8244942  45.8772968  43.1776506  64.6809092  44.9148990
  42.9799897  63.6089842  44.9124359  43.5312641  65.1135723  43.4989830
  43.7407958  66.1831763  43.4869921  44.4119676  64.5675210  43.1609155
  42.6946028  64.9002803  42.8336983  44.3373683  64.9222997  45.8446191
  45.4385122  64.3723863  45.6505949  44.1192855  65.7841647  46.8379401
  43.2301247  66.2563503  46.9187686  45.1881899  66.1607227  47.7561413
  46.0828338  66.3870435  47.1760633  44.8266039  67.4107447  48.6260324
  45.7615405  67.8437835  48.9816588  44.3192824  68.1252093  47.9777538
  43.9919917  67.1040923  49.7391109  43.8064581  67.9074371  50.2308571
  45.5833905  64.9687792  48.6179843  44.7360877  64.3278628  49.2462789
  46.8721779  64.6495397  48.6050608  47.4958656  65.1813269  48.0148783
  47.3956273  63.4386864  49.2632652  46.7837717  62.5872632  48.9652545
  48.9166094  63.1344538  48.8777449  48.8780555  62.4990624  47.9929338
  49.4968533  64.0301811  48.6561829  49.6908859  62.3653997  49.9307319
  50.4947627  62.9746869  50.8758860  50.7001375  63.9633915  50.8954889
  50.9412528  62.0710856  51.7316267  51.5625056  62.3622734  52.5785939
  50.5012116  60.8899785  51.3481075  49.7095646  61.0469270  50.2322396
  49.2395032  60.1783879  49.7709552  47.1529280  63.4447728  50.8033422
  47.7801995  64.1837880  51.5661115  46.2680814  62.5693807  51.2222409
  45.9063856  61.8856017  50.5728398  45.7864414  62.5342814  52.6129155
  45.8414694  63.5254689  53.0630472  44.3295241  62.0132360  52.6887945
  44.3123470  61.0117012  52.2589883  43.7761524  61.9625730  54.1480063
  43.7925861  62.9638922  54.5783440  42.7520254  61.5895836  54.1360206
  44.3970013  61.2988279  54.7497440  43.4258058  62.8835083  51.8363010
  43.9430811  63.0754737  50.8962604  42.5137746  62.3197970  51.6400149
  43.0713781  64.2058819  52.4987505  43.9829350  64.7703945  52.6949374
  42.4231970  64.7816023  51.8380642  42.5536302  64.0147175  53.4386937
  46.6074543  61.6169375  53.5303636  46.5601747  61.7537709  54.7243172
  47.2892230  60.6439407  52.9538137  47.3395369  60.5805050  51.9470646
  47.9903801  59.6312081  53.7503337  48.9219623  60.0769000  54.0990635
  47.3589270  59.3938496  54.6065039  48.3023653  58.3663812  53.0087765
  48.6825270  58.3890366  51.8393558  48.1454592  57.2469263  53.7053030
  47.8177729  57.3003903  54.6591702  48.4410376  55.9084776  53.1369989
  48.3213987  55.9119834  52.0535906  49.8793591  55.5573835  53.4645264
  49.9808942  55.5999198  54.5489527  50.1570508  54.5637583  53.1128215
  50.9023281  56.5207244  52.8949585  51.4955376  56.4601037  51.6716427
  51.2054522  55.6354863  51.0205234  52.3701090  57.5031142  51.5241836
  52.9537403  57.6750551  50.7180135  52.3565817  58.2514444  52.6692045
  53.0643717  59.3904824  52.9964229  53.7441867  59.8082815  52.2538638
  52.8654741  59.9290020  54.2463599  53.3620483  60.8604457  54.5182543
  52.0579312  59.3219336  55.1571850  51.9603100  59.7152364  56.1690558
  51.3338080  58.1842387  54.8274321  50.6510736  57.7767734  55.5730504
  51.4857351  57.6362684  53.5638769  47.5321149  54.8408452  53.7011182
  47.2295934  54.8677192  54.8896398  47.1783241  53.8704331  52.8603884
  47.3198393  54.0046988  51.8694064  46.5409508  52.6537081  53.3015998
  46.0494626  52.7890960  54.2650356  45.4917134  52.2964336  52.2688457
  45.3774950  53.1578213  51.6107694  45.8739844  51.4510031  51.6968176
  44.1516287  51.9365893  52.8632826  44.3147963  51.5384341  53.8647563
  43.5485823  52.8423533  52.9267544  43.4274298  50.9064384  52.0228339
  42.3975993  51.2373276  51.8884453  43.9198435  50.8495459  51.0520654
  43.4371633  49.5299633  52.6787420  44.4119039  49.3689255  53.1392289
  42.6641779  49.5031159  53.4467733  43.1788058  48.4593262  51.6776863
  43.8952030  48.4837547  50.9661542  43.1904487  47.5595965  52.1364356
  42.2754512  48.6081206  51.2511774  47.5775247  51.5219772  53.4978899
  48.4443585  51.2948307  52.6609300  47.5452372  50.9144872  54.6746696
  46.8018955  51.1358616  55.3216130  48.5233057  49.9395487  55.0690942
  49.3495651  49.9526022  54.3583030  49.0631408  50.2200409  56.4340874
  48.2651026  50.2950404  57.1727411  49.7500889  49.4241208  56.7216872
  49.8057255  51.4498495  56.5042863  49.1992052  52.6341209  56.2229354
  48.1798367  52.6315919  55.8369543  49.8523660  53.8175711  56.4187300
  49.3381033  54.7668712  56.2688507  51.1510724  53.8042043  56.8026573
  51.6896773  54.7389995  56.9581000  51.7855747  52.6105956  56.9950035
  52.8463468  52.5962859  57.2453193  51.0987078  51.4415314  56.8753005
  51.5962552  50.4936426  57.0803694  47.9041086  48.5765333  55.0954794
  46.8386958  48.3846187  55.6245251  48.6508403  47.6487814  54.6103555
  49.6178352  47.8630132  54.4125552  48.1603186  46.3578339  54.2619475
  47.1702267  46.2238236  54.6976750  48.0184022  46.4373945  52.7420038
  47.9578909  45.4313231  52.3269630  46.7374537  47.2136329  52.3926117
  46.7974335  48.2200247  52.8069516  46.6320037  47.2729483  51.3093476
  45.8738086  46.6988379  52.8135676  49.1067351  47.2156150  52.2236415
  49.0313616  47.2747427  51.2684331  49.1647830  45.3221965  54.8170984
  50.3537487  45.5919506  54.8824765  48.6624823  44.1938040  55.3433258
  47.6653373  44.0600740  55.4323059  49.5434793  43.1768359  55.8841495
  50.3191511  43.6949857  56.4480229  48.8030857  42.2583392  56.8174550
  48.0288505  41.7255534  56.2653689  49.4997837  41.5401600  57.2498101
  48.3433730  42.8428180  57.6144167  50.2333788  42.3837743  54.7910580
  49.7480018  42.3122141  53.6648278  51.4147958  41.8646336  55.1029500
  51.8151514  42.0907213  56.0022270  52.1735715  40.9590085  54.2015602
  51.7707848  41.0038945  53.1897068  53.6783968  41.3522456  54.1556116
  54.1388084  40.8637564  53.2968336  53.8546477  42.8753436  54.0340260
  53.3948616  43.3645267  54.8927438  54.9170009  43.1174712  54.0043779
  53.3771609  43.2249549  53.1186687  54.3422967  40.8961871  55.3424223
  55.2692961  41.1429711  55.3054075  52.0975751  39.5027886  54.6764182
  52.2672086  38.5552573  53.9049528  51.7654019  39.3526090  55.9531315
  51.6958786  40.1695537  56.5429342  51.4791122  38.0389184  56.5460365
  51.7280098  37.2511552  55.8349963  52.3109349  37.8301342  57.8213816
  52.0377837  38.6367873  58.5016745  51.9927342  36.8766327  58.2429064
  53.8241753  37.8200355  57.6266263  54.0670217  37.1674656  56.7880090
  54.1576479  38.8339943  57.4057513  54.5280611  37.3157778  58.8837360
  53.8391368  36.6671692  59.4248359  55.4031654  36.7418007  58.5790358
  54.9612559  38.4580424  59.7855778  54.2790978  39.2948255  59.6353950
  54.9016495  38.1226764  60.8209888  56.3558874  38.8934596  59.4837403
  56.4112365  39.2046609  58.5244750  56.6123350  39.6521394  60.0991585
  56.9882032  38.1183391  59.6232541  49.9895243  37.9872933  56.9072122
  49.4145377  38.9882741  57.3616413  49.3829338  36.8197909  56.7282956
  49.8985347  36.0287479  56.3698182  47.9395646  36.6710426  56.9390089
  47.4394347  37.6237777  56.7650402  47.3645071  35.6323703  55.9709583
  47.1560155  34.7363565  56.5555862  46.4296371  36.0409486  55.5873153
  48.2864395  35.2736173  54.7959780  49.1041698  34.6785112  55.2025083
  47.7019948  34.6641942  54.1066813  48.8578534  36.4834624  54.0490135
  48.7628669  37.3603908  54.6893830  49.9119574  36.2960271  53.8444840
  48.1265508  36.7292314  52.7448095  48.5334702  37.6225150  52.2709304
  48.2718179  35.8717689  52.0877291  46.6695360  36.9206135  52.9968273
  46.5346846  37.7153729  53.6053273  46.1947988  37.0832820  52.1203208
  46.2921914  36.0928220  53.4355428  47.6021660  36.3281449  58.3997941
  46.4429105  36.0426398  58.7185581  48.6009459  36.4389068  59.2786891
  49.5180917  36.7166787  58.9596506  48.4321064  36.0997535  60.6873610
  47.4047973  35.7861607  60.8728194  49.3728873  34.9513391  61.0750939
  49.0395119  34.4675482  61.9931932  49.3099202  34.2435773  60.2485296
  50.7910041  35.4047191  61.2366868  51.2872926  36.0953447  60.3238873
  51.3883048  35.1369527  62.2971028  48.6658044  37.3195552  61.5669308
  48.4884996  37.2547824  62.7924341  48.9045263  38.4865775  60.9408638
  49.0857598  38.4749045  59.9473259  48.9335064  39.7728733  61.6357769
  49.3904596  39.6436979  62.6169021  49.7360194  40.8042132  60.8579081
  49.6445068  40.5671113  59.7979518  49.2959671  41.7827384  61.0501120
  51.1824217  40.8241255  61.2411848  51.3322087  41.5853120  62.0068608
  51.4526169  39.8474787  61.6427538  52.2218060  41.1895831  59.8406253
  53.7769140  41.4170230  60.7077205  54.0361085  40.4998755  61.2366417
  54.5618863  41.6563403  59.9903319  53.6784291  42.2331647  61.4234821
  47.5336312  40.3353795  61.8539268  46.6730040  40.2489239  60.9711537
  47.3367707  40.9655117  63.0126279  47.9972902  40.8755485  63.7713900
  46.1198335  41.7410355  63.2418782  45.3440987  41.4092677  62.5517587
  45.6168604  41.5676674  64.6505980  45.6925934  40.5140033  64.9192159
  46.2439377  42.1583209  65.3184324  44.2728347  41.9890020  64.7713702
  43.9795527  41.8673839  65.6773474  46.3187211  43.2423428  62.9391883
  47.4237433  43.7640262  63.0351127  45.2143731  43.9779597  62.7271030
  45.0513990  44.8885850  63.8649870  45.7050639  44.5830720  64.6819841
  44.0158588  44.8766925  64.2050075  45.4487315  46.2240097  63.2703099
  46.4473717  46.4742025  63.6283886  44.7402514  46.9769145  63.6156962
  45.4168467  46.1047347  61.7767186  46.4073246  46.2212512  61.3368591
  44.7391795  46.8412235  61.3449189  44.8942204  44.6986189  61.5106547
  43.8079180  44.6919620  61.4212056  45.5108783  44.1291543  60.2402327
  46.7223237  44.1671235  60.0497506  44.6754878  43.5761907  59.3903128
  43.7131698  43.4375220  59.6638349  45.0825012  43.1646270  58.0371237
  46.0348736  42.6357874  58.0747356  44.0325867  42.2341801  57.4475704
  43.0859471  42.4483575  57.9436559  43.9461066  42.4648639  56.3857766
  44.3656690  40.7947145  57.6162243  44.5315605  40.5631896  58.6683540
  43.5368244  40.1955757  57.2391946  45.5941768  40.4419777  56.8518793
  45.6798706  40.7264815  55.6584962  46.5733273  39.8340601  57.5352251
  47.4276374  39.5736214  57.0636031  46.4526395  39.6390227  58.5188390
  45.2054816  44.3847946  57.1237355  45.9429866  44.3859852  56.1415818
  44.4071263  45.4018877  57.4499155  43.7186711  45.2530509  58.1737777
  44.4783479  46.7209663  56.8210983  45.4987805  46.8627625  56.4651344
  43.5138534  46.9120498  55.6377580  43.7346741  46.1749903  54.8656953
  42.4873040  46.7821166  55.9804150  43.6843186  48.3148708  55.0644701
  43.4632043  49.0525291  55.8358776  44.7105731  48.4454033  54.7211553
  42.7283012  48.5042761  53.8915330  42.9491199  47.7672159  53.1194705
  41.7017525  48.3743445  54.2341915  42.8987688  49.9070971  53.3182443
  42.6776556  50.6447560  54.0896514  43.9250217  50.0376265  52.9749278
  41.9772293  50.0896713  52.1876115  41.0261991  49.9691860  52.5056125
  42.0901293  51.0187520  51.8079239  42.1822279  49.4065106  51.4725128
  44.1412196  47.7988034  57.8126248  43.5508775  47.5557680  58.8439230
  44.5455895  49.0017762  57.4677735  45.0545437  49.1255950  56.6042147
  44.2941354  50.1891761  58.3085025  43.2218109  50.2939590  58.4735471
  44.9982635  50.0680536  59.6858010  44.5792489  50.6666393  60.4946403
  44.8797258  49.0098243  59.9186089  46.4728418  50.3412018  59.6693444
  46.9392813  51.6288592  59.6590614  46.2360295  52.4614111  59.6392071
  48.2959249  51.8727923  59.6737800  48.6523775  52.9009757  59.6114809
  49.2146120  50.8161463  59.7676057  50.2867212  51.0125873  59.7772292
  48.7509613  49.5218384  59.8479316  49.4439937  48.6828441  59.9103396
  47.3806766  49.2925044  59.8487625  46.9972868  48.2820943  59.9908312
  44.8153208  51.3803079  57.5687425  45.7251099  51.2222692  56.7689572
  44.3260520  52.5741850  57.8949473  43.5260543  52.6649380  58.5047562
  44.8579382  53.7620484  57.2884832  45.4895813  53.4885188  56.4433158
  43.7727626  54.6404603  56.8024252  42.9968285  54.3914499  57.5263170
  43.9245788  55.7197658  56.7901167  43.2547766  54.2802957  55.4998255
  43.4448645  54.9580243  54.3214476  44.1599184  55.7803320  54.3461012
  42.6701307  54.4368231  53.3405088  42.6450545  54.7276725  52.3736183
  41.9052658  53.4552792  53.8903053  40.9048361  52.6832670  53.3088565
  40.7047089  52.8076397  52.2446295  40.2310483  51.8106747  54.1162039
  39.4332626  51.1920280  53.7052123  40.5516336  51.6933989  55.4878371
  40.0010809  51.0108668  56.1352482  41.5913549  52.4541019  56.0598375
  41.7278872  52.4093662  57.1403274  42.2823645  53.3290189  55.2524249
  45.7934657  54.5134213  58.1963714  45.6222749  54.5730402  59.4136685
  46.8284543  55.0568020  57.5919469  46.9996963  54.8356671  56.6214446
  47.7541268  55.9788901  58.2718720  47.4961864  56.0719669  59.3268140
  48.7817842  55.6275437  58.1792692  47.6371890  57.3335443  57.6162329
  47.9495104  57.4950927  56.4245528  47.1305948  58.3084793  58.3665676
  46.9588029  58.1710593  59.3523174  46.7632187  59.5699881  57.7793288
  46.9437165  59.5269887  56.7052381  45.2785879  59.9104683  58.0160785
  45.2339837  60.0371304  59.0977746  45.0336103  60.8547285  57.5298083
  44.2706700  58.8372454  57.5852618  44.6321541  57.8621631  57.9118268
  42.9045256  59.1042633  58.2020080  42.5421573  60.0790385  57.8755093
  42.2044300  58.3317520  57.8838993  42.9875417  59.0934370  59.2887883
  44.1663948  58.7049975  56.0632394  45.1395064  58.4334174  55.6540971
  43.4395051  57.9318976  55.8141429  43.8458440  59.6554088  55.6365492
  47.6177046  60.6812185  58.3171037  47.7145938  60.8705175  59.5235764
  48.2137295  61.4332204  57.4245924  48.1593695  61.2130039  56.4403927
  49.0597228  62.5462383  57.8381229  49.6660979  62.3279354  58.7171861
  50.0032958  63.0145722  56.6845890  50.4725037  62.1398873  56.2341774
  49.1981981  63.7886338  55.5985115  48.7290502  64.6637709  56.0481056
  49.8725515  64.1067202  54.8034218  48.4288790  63.1377753  55.1830215
  51.1257978  63.7956152  57.2093386  51.6904493  64.0717046  56.4837053
  48.2116162  63.7032444  58.3704658  47.2872313  64.1489761  57.7505192
  48.6193163  64.2031304  59.5270659  49.2987229  63.6562009  60.0363535
  48.0435928  65.3769143  60.1811911  46.9694757  65.2332295  60.2983503
  48.6812444  65.6163996  61.6113943  48.3538630  64.7679929  62.2123326
  49.7581604  65.5557191  61.4543281  48.3398271  66.9392637  62.3536091
  48.4525427  67.7354909  61.6177978  47.2924264  66.8598970  62.6447361
  49.1980986  67.2637166  63.5998223  48.5415448  67.5406351  64.4246569
  49.7758178  66.3817391  63.8763287  50.1360278  68.3848602  63.3415300
  50.7938640  68.2140848  62.5944111  50.1930151  69.5669805  63.9928994
  51.1023267  70.5062534  63.6174828  51.7329690  70.3165221  62.8517202
  51.1428211  71.3892324  64.1061627  49.3780476  69.8324650  65.0040002
  48.7006615  69.1430040  65.2970731  49.4382083  70.7229932  65.4766935
  48.0546639  66.6565486  59.3438360  47.1710298  67.4358185  59.4626597
  49.0210595  66.8564734  58.4829704  49.7902428  66.2020848  58.4677390
  49.0761045  68.0092614  57.5909312  49.0018422  68.9300530  58.1694874
  50.4457106  68.0216554  56.7925757  50.2669777  68.6136843  55.8949925
  51.1629000  68.5378055  57.4307985  50.9786046  66.7226061  56.4175279
  51.8040648  66.8405829  55.9418212  47.8847670  68.0455420  56.5990181
  47.4994373  69.1013787  56.0835961  47.3445685  66.8700868  56.3419487
  47.7536880  66.0384337  56.7432886  46.2780377  66.7142396  55.3924412
  46.3636286  67.5365836  54.6821428  46.4728053  65.4091968  54.6479348
  46.3808624  64.5757638  55.3443801  45.7147151  65.3173803  53.8701371
  47.4631633  65.3941960  54.1928906  44.8621549  66.8542925  56.0438565
  43.8406322  66.8217800  55.3372107  44.8079575  67.0171600  57.3510328
  45.6511665  67.2095902  57.8726346  43.5330412  66.8984213  58.0959595
  42.7415127  66.5858675  57.4148634  43.6452878  65.8728272  59.2142512
  44.4088248  66.3323062  59.8419372  42.7166311  65.7849980  59.7781507
  44.1101533  64.4859482  58.7816615  45.1525734  64.5337007  58.4667315
  43.9758403  63.5098596  59.9593716  42.9335463  63.4612199  60.2745800
  44.3080302  62.5188003  59.6502566  44.5904648  63.8556855  60.7904802
  43.3990951  64.0068050  57.4998515  43.6071984  64.7022189  56.6867144
  43.7627668  63.0150333  57.2310897  42.3240244  63.9640203  57.6744698
  43.0502823  68.2059466  58.7335975  43.8492598  69.0510459  59.0931086
  41.7515921  68.2660040  58.9910134  41.1730948  67.5158602  58.6406929
  41.1073612  69.3493694  59.7368787  41.8407125  69.9383540  60.2876891
  40.4044533  70.2664523  58.7178770  41.2274508  70.5495382  58.0616479
  39.6811459  69.6738442  58.1577502  39.7292073  71.5172516  59.2504585
  39.8186291  72.2950397  58.4920718  38.2592844  71.2949077  59.5779090
  38.1690790  70.5175243  60.3366164  37.8262285  72.2215415  59.9546226
  37.7285369  70.9862243  58.6772858  40.4955614  72.0335836  60.4670815
  41.5198276  72.2696990  60.1785892  40.0099225  72.9316912  60.8487342
  40.5044756  71.2682666  61.2431674  40.0985858  68.7290615  60.7187194
  39.0791065  68.2276330  60.3051771  40.4069768  68.7132634  62.0274037
  41.7747332  68.4246056  62.4758289  42.4112626  69.2844575  62.2670581
  42.1533895  67.5542512  61.9399170  41.6146264  68.1630028  63.9715103
  42.2900471  68.8291510  64.5083087  41.8933401  67.1278506  64.1686904
  40.2181763  68.4075145  64.3391922  40.1167067  69.4213424  64.7264337
  39.8296108  67.6990998  65.0708103  39.4465071  68.2735267  63.0197119
  39.1903108  67.2351810  62.8092369  38.1730517  69.1262411  63.0050395
  38.2472283  70.3603606  62.9036104  37.0003675  68.4660615  63.0437132
  36.9509411  67.4825938  62.8191075  35.7713479  69.1975143  63.1728047
  36.0308450  70.2144916  63.4669436  34.8980409  69.2595478  61.8731849
  34.4268243  68.2875740  61.7271637  33.7729784  70.3850572  61.9775309
  34.2434829  71.3574426  62.1231050  33.1865821  70.3996321  61.0588220
  33.1188350  70.1684394  62.8220862  35.7238106  69.5664173  60.7481580
  35.1837325  69.6030887  59.9553332  34.9839073  68.7691152  64.3987397
  35.1253282  67.6165654  64.9235989  34.3894413  69.8107770  64.9773767
  34.8338795  70.7097048  64.8569491  33.1928726  69.7438913  65.7656962
  33.0515808  68.8654970  66.3954258  33.1704883  71.0175417  66.6448558
  33.9521483  70.9376748  67.4003220  33.4118734  72.2847067  65.7836265
  32.6302928  72.3655091  65.0281773  33.3919562  73.1678545  66.4221828
  34.3832473  72.2125363  65.2944196  31.8954244  71.0596032  67.5011974
  32.0410943  71.8375955  68.2506032  31.0768643  71.3421951  66.8392300
  31.5583703  69.7479046  68.1918828  32.3763225  69.4648822  68.8544176
  30.6446908  69.8675492  68.7740977  31.4120947  68.9694809  67.4430438
  31.9411528  69.6689491  64.8435648  31.5253144  70.6834228  64.2120423
  31.3080885  68.4620342  64.7942506  31.7754943  67.2463599  65.4772718
  32.3051987  67.5125330  66.3919659  32.4413486  66.6834966  64.8231143
  30.5049709  66.5293038  65.7430722  30.0357435  66.9203276  66.6458596
  30.6952134  65.4630639  65.8657172  29.6715515  66.7827159  64.5482243
  28.6103163  66.7637465  64.7962546  29.8769407  66.0414999  63.7758814
  30.0660656  68.1796152  64.0512402  30.3332636  68.2267578  62.9955504
  28.8897560  69.1042794  64.3170761  28.8769533  69.7186365  65.3552622
  27.9974583  69.2612870  63.3353702  28.1174507  68.6788525  62.5189933
  26.9513064  70.3273189  63.2973801  26.1787356  70.0252879  62.5902657
  26.2873665  70.5872222  64.6765089  26.9928150  71.0142419  65.3893173
  25.5151400  71.3212157  64.4462487  25.6518951  69.3620647  65.2734195
  26.2774973  68.2788126  65.2091333  24.5746102  69.5115171  65.8961274
  27.3439657  71.7143206  62.6784756  28.5424008  72.0179428  62.3728924
  26.2668579  72.4893129  62.4458585  25.4161663  71.9964252  62.2145906
  26.2560628  73.9672630  62.3974334  27.2625918  74.3781277  62.4761016
  25.5892975  74.5054534  61.0508662  26.2567898  75.2557668  60.6270926
  25.3390552  73.3683406  59.9918784  24.6712317  72.6178398  60.4147967
  24.8842520  73.7966525  59.0986807  26.2881294  72.9018939  59.7277080
  24.3464383  75.1774408  61.3090520  23.9725536  75.4879389  60.4811622
  25.5585202  74.5719648  63.6668404  24.8926617  75.5990061  63.5630499
  25.8154076  73.9924102  64.8599437  26.4943281  73.2451794  64.8884482
  25.0599038  74.3208718  66.1237043  24.2754075  75.0463824  65.9085321
  24.4092519  73.0494402  66.7051471  25.1632163  72.2637210  66.6573743
  24.1773843  73.2668699  67.7477696  23.1396103  72.5825867  65.9867565
  23.2094898  72.8286267  64.9271897  23.1347410  71.4993779  66.1081407
  21.8383156  73.1695024  66.5650065  21.7910021  74.4038476  66.7893397
  20.8437439  72.4028226  66.7393403  25.8663061  75.0611972  67.2699843
  25.2353931  75.5602801  68.2319760  27.2186908  74.9310001  67.2681663
  27.5832962  73.9911134  67.2067234  28.2036075  76.0767134  67.5056619
  27.7267731  76.9985604  67.1726060  28.6534804  76.2558033  69.0080354
  29.7306034  76.3475580  68.8684423  28.2706829  77.1598737  69.4815571
  28.3554456  75.0457296  69.9015973  27.1571548  74.7061983  70.0692475
  29.3084826  74.5534035  70.5694606  29.4869328  76.0544552  66.5927644
  30.5288527  76.5970842  66.9794006  29.3718443  75.5215425  65.3676539
  28.4589296  75.2581512  65.0251468  30.5476444  75.2055446  64.5371111
  31.2256183  74.6109961  65.1494531  30.1229982  74.3619266  63.3052039
  29.6120434  73.4595013  63.6408422  29.4509806  74.9472146  62.6775653
  31.3485854  73.9798473  62.5101872  31.8598494  74.8818167  62.1737930
  32.0209111  73.3941020  63.1370682  30.9308585  73.1499772  61.2983508
  30.6718812  73.7738041  60.2346911  30.8747235  71.9001392  61.4478641
  31.3271023  76.4859870  64.1124256  32.4431385  76.7717840  64.5967200
  35.5510919  77.0601210  63.2770880  35.5633989  77.0724768  62.2672389
  36.8350749  77.2047861  63.9954971  37.5371302  76.4533591  63.6341455
  37.4625608  78.6089220  63.7903122  37.6532477  78.7707359  62.7293908
  36.5000858  79.6754786  64.3019005  36.3092671  79.5145862  65.3629391
  36.9404326  80.6621314  64.1579856  35.5616425  79.6131283  63.7509573
  38.7752372  78.6966910  64.5615460  39.4635248  77.9345104  64.1962477
  39.2164878  79.6829550  64.4177374  38.5852756  78.5354266  65.6226818
  36.6151630  76.9665498  65.4967777  36.1309937  77.8677225  66.1968703
  36.8446950  75.7044394  65.9256478  36.8157834  74.9838050  65.2185767
  37.0711183  75.2973870  67.3390188  36.0981034  75.2858513  67.8301483
  37.6951614  73.8631312  67.3848368  37.0370392  73.1633592  66.8697691
  39.0568123  73.8790817  66.6983408  39.7156773  74.5783332  67.2131657
  39.4919628  72.8802104  66.7299773  38.9374285  74.1901198  65.6605055
  37.8629193  73.4279332  68.8367617  38.5213324  74.1270167  69.3523926
  36.8899042  73.4163993  69.3278912  38.4710900  72.0301634  68.8814147
  39.4443973  72.0410089  68.3908487  38.5912134  71.7186065  69.9190090
  37.8129698  71.3303915  68.3663449  37.9923573  76.3164748  68.1131214
  38.8524503  76.9531666  67.5070880  37.7469017  76.5466135  69.4136697
  36.8566415  76.2777016  69.8076526  38.7402190  77.2005198  70.3011224
  39.6891496  77.3853036  69.7976496  38.1959873  78.5308430  70.8210474
  38.0364965  79.2107303  69.9841393  37.2503010  78.3608681  71.3357181
  39.1989438  79.1459881  71.7912531  39.3586090  78.4668296  72.6287204
  40.5219674  79.3845234  71.0712973  40.3631792  80.0640023  70.2339243
  41.2392283  79.8242123  71.7643422  40.9104760  78.4360914  70.7003011
  38.6559532  80.4732763  72.3099943  37.7102681  80.3032998  72.8246662
  39.3724739  80.9133993  73.0035296  38.4964603  81.1531637  71.4730868
  39.0211530  76.2344878  71.4741762  38.0913357  75.7119487  72.0585602
  40.2869430  75.9362363  71.7791971  41.0411641  76.3281499  71.2336207
  40.6313079  74.9816247  72.8900326  40.1478895  74.0197020  72.7194144
  42.1643200  74.7587581  72.9696218  42.5197196  74.3354798  72.0301401
  42.6617129  75.7118653  73.1493074  42.7369389  73.6403355  74.2724422
  44.0312511  73.7416260  73.9836612  40.0778516  75.5455802  74.2469889
  40.0221481  76.7697910  74.4245364  39.6282632  74.6796408  75.1707510
  39.6096405  73.6909117  74.9654042  38.9915325  75.1544876  76.4466085
  38.9545996  76.2376080  76.3300519  37.5359280  74.6202923  76.5997815
  36.9609814  74.8700114  75.7080551  37.5570329  73.5378941  76.7265446
  36.8847408  75.2620885  77.8203048  37.4589088  75.0124155  78.7125465
  36.8544756  76.7764402  77.6429629  36.2800523  77.0269260  76.7511145
  36.3891129  77.2356835  78.5151062  37.8725996  77.1506396  77.5357309
  35.4600405  74.7392336  77.9702276  35.4811468  73.6568359  78.0969923
  34.9941226  75.1976694  78.8424995  34.8850935  74.9889505  77.0785010
  39.8494468  74.8655459  77.7220272  40.7385447  75.6565124  78.1152129
  39.6007400  73.8954938  78.4344760  60.5773411  57.0487549  47.5270618
  59.9219790  56.3378688  48.6907919  60.1827183  58.4147775  47.1502808
  58.8584520  57.0234991  49.4726663  59.1201556  59.1005718  47.9319468
  58.4647935  58.3896858  49.0956768  58.2030715  56.3118705  50.6357269
  58.5874047  54.9121328  50.9575768  57.1412076  57.0216892  51.4923017
  56.8860572  57.9484294  51.2808426  56.4858271  56.3100606  52.6553623
  57.3162471  55.8613227  53.8698033  55.0240460  56.0406888  52.6284372
  58.8248017  56.1167327  53.9437955  56.6608666  55.1496941  55.0328639
  54.3686655  55.3290601  53.7914978  55.1990671  54.8795797  55.0052694
  54.5434405  54.1693429  56.1682864  57.2007663  54.8663606  55.8058920
  61.6399038  56.3629606  46.7453958  64.0968638  56.7755686  46.2782985
  64.3356095  57.2532059  44.8365617  62.9373192  56.9585370  45.2945644
  63.0638190  56.3576915  47.2543277  65.5786772  56.8932384  46.4177012
  63.2681733  55.9452417  48.6429233  66.4069264  56.6100448  47.6083853
  64.5564069  55.8521962  49.3859210  65.9544327  56.1475144  48.9272053
  67.0394908  55.9552158  49.9188585  66.6966664  55.4918182  51.2789445
  68.4731858  56.2337481  49.5255869  69.1548625  57.4437912  50.0421473
  69.9778560  58.2544903  49.1230865  68.9973964  57.8286770  51.4972405
  60.2300845  55.3158877  48.9571592  60.6671186  58.9221336  46.3022035
  58.8110858  60.1223890  47.6657879  57.6790971  58.9031143  49.6695638
  56.6740414  55.3417177  52.1693906  54.5223717  57.0142232  52.5272064
  54.9118061  55.3273852  51.7975767  53.5909840  56.0053450  54.1755255
  54.0490137  54.3749520  53.3470290  61.6590863  56.8352237  45.7518645
  61.3481820  55.3035095  46.7934763  65.9842851  56.2370334  45.6332350
  65.6574795  57.9905286  46.4171550  62.6537753  56.6389499  49.2346741
  63.0589674  54.8710119  48.5333372  67.1253238  55.8465554  47.2749321
  66.6799944  57.6422923  47.8748284  64.4126718  56.5099599  50.2555647
  64.6365129  54.7554841  49.4023674  69.0677087  55.3685162  49.8536695
  68.4101528  56.4178451  48.4432075  69.3220233  58.8560777  48.4767074
  70.6303104  58.9219195  49.7061470  70.5961722  57.5906982  48.5010261
  67.9536375  57.6753717  51.8065832  69.6585218  57.2034494  52.1159226
  69.2666778  58.8868758  51.6274404  89.4775620  47.7259514  68.3535209
  93.4403810  49.2739045  75.1852338  93.8234142  54.6188487  74.8222518
  91.3558348  55.8803428  70.7491025  94.7430900  51.7220747  71.2841059
  92.2279599  47.7890760  69.4276536  95.5794136  47.8137281  73.1430875
  99.0612831  48.3597018  71.3364064 102.0840144  47.9797324  68.0122670
  95.4464434  57.1398912  72.3974016  95.7610139  57.9802373  68.4314285
  95.5842836  55.1454505  68.1655910  95.2581246  56.2550130  64.6667658
  93.5008032  58.6040259  61.3419377  95.4504048  58.6135274  57.1856093
  97.0845282  59.3250104  66.5164674  93.0848227  60.6950235  74.4467964
  92.9039163  62.2077676  84.8615792  96.1315839  62.0854061  63.2284965
  98.1014309  66.0789101  66.8235737  96.4997054  76.0967054  63.8336200
  95.2931934  73.4708206  68.3390300  96.1388060  69.1331396  67.1381032
  98.0166695  71.5202776  60.9250119  89.4844011  59.4977061  86.2502930
 101.1435355  16.7392853  22.7987155  97.6957296  18.6065285  19.8005509
  94.9867213  63.4748225  76.7075844  97.6957291  64.5941041  72.9024286
  96.9757642  61.4133938  60.1042689  99.8039254  65.8218181  60.4768406
  87.1772938  56.1910860  87.4759509  85.5798014  51.9011374  91.4866047
  82.7081391  52.2189918  91.3813681  95.2059487  64.8314087  80.7229412
  95.4953138  65.9029869  71.0914609  96.1738252  62.3506283  67.4176877
  96.4191771  67.2303290  64.9356658  98.7051972  71.2132933  64.5702513
  96.0100713  79.2212615  62.3635407  84.4671701  55.1401443  90.2384905
  95.4953144  19.9154113  17.9895833 100.7381282  14.3821303  25.6257348
 100.1834198  12.2322879  28.9004701  97.0720122  11.8948927  28.1921456
  96.8716267  10.2822683  25.0704212  89.5764060  21.4053946  18.1110861
  86.2326369  19.5594885  14.9166760  89.8987528  22.0467261  12.3502652
  88.7016713  30.9999214  12.3536663  87.5817804  34.2176989  12.9478955
  90.7476910  25.2482378  13.9418621  90.2533602  28.0441895  13.5456030
  88.5341600  30.0273156  17.9324418  84.5052418  27.6615911  17.1147039
  87.1948494  25.8287644  14.8337231  92.8605689  28.4520790  15.9884045
  94.5770312  24.3274763  18.4917832  96.1388065  23.1455640  14.0362256
  85.1731680  33.7643106  17.3658166  83.9037150  36.3928826  18.1822279
  95.2931939  27.4832449  15.2371524  97.9596924  25.2835044  19.2060961
  98.4819606  22.6065787  17.7408945  84.8367252  22.9725218  14.6063508
  81.7281149  25.7538366  16.4176953  79.2209898  25.2609041  17.6691831
  73.9055332  24.4870666  15.0637130  76.4437584  32.9647604  12.7370291
  78.6381871  32.3967593  15.2516429  77.7247924  26.7380260  14.3867305
  75.0388942  28.6308460  17.6918373  71.1319627  27.4080729  15.1808431
  79.0561730  36.5181809  17.1468701  67.4332928  19.7898476  22.0166021
  66.2002233  22.4739286  22.5020938  82.1211871  35.8926735  14.5497292
  84.6852741  36.7308738  13.6205831  76.0169787  33.9357202  19.8005506
  72.5082600  33.1947822  16.1164804  68.2174460  55.2871229 132.0060604
  67.5436159  55.5902926 132.6145562  68.6040282  56.0900309 131.6566061
  72.1831201  52.8656713 133.2800427  72.8782106  53.4863405 133.4987742
  72.5254351  52.0152064 133.5552805  66.2746069  52.9718464 132.1875521
  65.7020036  53.5908651 131.7345993  66.8478863  53.5217826 132.7215443
  69.4943329  53.2555614 133.3184103  70.4274002  53.1901176 133.5216979
  69.4066542  54.0911881 132.8598636  72.1231346  52.5721485 130.2788051
  72.0444977  52.2381348 131.1723808  72.9441013  53.0643253 130.2779523
  69.6935298  49.8889480 129.8998029  70.3971148  50.0939483 130.5155685
  68.9697946  50.4566242 130.1647112  71.6021995  50.3272009 131.9496489
  72.4367599  49.8953208 131.7673964  71.4406338  50.1554023 132.8773383
  73.0635850  56.7809557 132.4631442  72.2273163  57.1184243 132.7840716
  72.9240620  56.6458536 131.5258579  72.9374231  56.6256784 129.6629348
  72.0603697  56.5045585 129.2991595  73.4131984  55.8342862 129.4108237
  70.6392699  57.5655787 133.2211004  69.9461944  57.6400142 132.5651040
  70.3944451  56.8016130 133.7432521  75.6829540  57.5621171 129.4646458
  74.7760995  57.2654284 129.5409172  75.9605521  57.2650989 128.5980745
  74.4528324  54.4208106 129.6058438  75.3147488  54.7463005 129.8654255
  74.6378668  53.6339602 129.0931503  75.4057767  51.6604149 132.8938147
  75.3936437  52.6045989 133.0506418  76.2981189  51.4774295 132.5997608
  68.2174461  32.2933352 118.7305911  67.5436160  32.5965048 119.3390868
  68.6040283  33.0962432 118.3811368  72.1831202  29.8718835 120.0045734
  72.8782107  30.4925528 120.2233048  72.5254352  29.0214186 120.2798112
  66.2746071  29.9780587 118.9120827  65.7020038  30.5970774 118.4591299
  66.8478864  30.5279949 119.4460749  69.4943330  30.2617737 120.0429410
  70.4274004  30.1963299 120.2462285  69.4066543  31.0974004 119.5843942
  72.1231347  29.5783607 117.0033357  72.0444979  29.2443471 117.8969115
  72.9441014  30.0705375 117.0024830  69.6935299  26.8951603 116.6243336
  70.3971149  27.1001605 117.2400991  68.9697948  27.4628365 116.8892419
  71.6021996  27.3334132 118.6741796  72.4367600  26.9015330 118.4919270
  71.4406339  27.1616146 119.6018690  80.2306271  37.8503783 128.7696972
  80.8684681  37.7310530 128.0660312  80.1127114  38.7984627 128.8284924
  72.8982793  39.6566688 124.6955388  72.3347658  39.5656625 123.9271676
  72.7835188  38.8366592 125.1757881  78.4782352  43.3237655 120.0069853
  77.8270332  43.9091736 119.6203867  79.2726715  43.8543850 120.0664890
  72.4037979  40.4126792 120.4056987  73.1768855  39.8655780 120.2669863
  72.7563378  41.2771042 120.6171449  74.7404257  36.5719459 118.0375437
  74.9929778  36.0500980 117.2758900  73.8028816  36.4085604 118.1402121
  79.7847540  35.5755237 125.8450180  80.5710629  35.1574660 125.4940597
  80.0486244  36.4801329 126.0131829  79.9557617  41.0128087 120.5438837
  79.3203450  41.0862714 121.2559742  79.6255024  41.6021686 119.8657916
  74.4600546  38.4747565 120.2399812  74.3436804  37.7992468 120.9080896
  74.5702806  37.9879938 119.4231965  76.8032087  37.9357712 123.9446501
  76.4390294  37.4088333 124.6559423  77.6599203  37.5456181 123.7712987
  76.4437574  32.9647611 118.9407850  76.6111976  33.8327848 119.3078321
  76.2534743  33.1274893 118.0169139  76.4226795  35.4205269 119.9254517
  76.3026420  35.8662320 120.7639997  75.7279383  35.7690586 119.3668055
  74.1833687  48.1908911 123.5744648  74.1057716  49.1416736 123.6533128
  73.5795330  47.8454783 124.2319574  82.1211861  35.8926742 120.7534851
  83.0329717  36.1254129 120.5782548  81.6121508  36.4763786 120.1909929
  80.7281443  40.8752560 128.1448432  80.0990305  41.0398275 127.4424500
  80.3407105  41.2894170 128.9159396  84.6070675  41.8106998 125.4992796
  83.9221713  42.1905900 124.9489829  84.6914524  42.4202325 126.2324744
  76.2809405  40.6126969 125.4098517  76.7447750  40.8914672 124.6203140
  76.0166203  39.7110413 125.2271608  75.2178291  36.7350121 122.2188082
  75.9202334  37.1871165 122.6862009  74.8858919  36.0933940 122.8467976
  76.4572056  43.5491064 122.2950188  76.3217730  44.3942599 122.7235035
  76.9981868  43.7510341 121.5316121  69.9101453  41.0666502 122.8678113
  70.4225974  41.8609752 123.0183677  70.5624166  40.3692792 122.8011714
  71.7196338  44.1832258 124.9500866  71.8962966  45.1050223 124.7621850
  72.5153171  43.8690677 125.3795246  72.8427653  45.7010432 130.9511208
  73.3935078  45.5727495 130.1788202  72.0039129  46.0005321 130.6006101
  67.8750370  39.3955156 123.6437683  68.7125592  39.8052164 123.4271391
  68.0528637  38.4554598 123.6137877  79.7714802  37.0630237 119.3321516
  79.2561425  37.8334841 119.5709904  79.4992110  36.3895373 119.9554578
  77.3561913  31.9079937 124.3906755  76.5003509  31.5186788 124.2112393
  77.7688865  31.9871898 123.5306540  84.7449076  39.8162591 121.2674690
  83.9678519  39.4773751 120.8229852  85.4240557  39.8215214 120.5929655
  79.5601105  34.9357329 121.1581297  79.2551241  35.2503478 122.0091441
  80.5131547  35.0138748 121.2008630  78.0047537  41.0947552 122.8074251
  77.4768898  40.3600311 122.4947489  77.5035040  41.8722228 122.5614220
  82.9840383  39.2896572 127.9241298  82.3264057  39.9795834 128.0121426
  83.7880782  39.6793004 128.2675284  81.7945842  37.6440945 125.9745239
  82.3077723  38.2770937 126.4766949  82.4447066  37.0442141 125.6088599
  73.0635852  33.7871679 119.1876748  72.2273164  34.1246366 119.5086023
  72.9240621  33.6520659 118.2503885  76.1500137  38.9127762 115.8109224
  75.2427199  38.6817016 116.0100373  76.6471169  38.1165381 115.9983206
  79.0568216  47.6225269 118.7305911  78.3829915  47.9256966 119.3390868
  79.4434038  48.4254350 118.3811368  79.0561720  36.5181816 123.3506260
  79.8033539  37.0303214 123.0413382  79.3253310  36.1965869 124.2110654
  77.3288371  39.0140357 120.3333215  76.4199590  38.7299390 120.4305684
  77.3583454  39.4339436 119.4736521  82.5607638  42.6246947 124.1024382
  82.1069965  41.7837856 124.1589573  81.9301605  43.2608345 124.4399162
  81.5040557  33.5538933 125.3325050  80.7663314  33.0416319 125.6635292
  81.7567331  33.1139314 124.5208326  81.0040577  44.4623443 125.0374200
  81.2963552  45.0228500 124.3186566  81.5139198  44.7552004 125.7927359
  75.8773265  36.6268978 126.4343010  75.9321874  35.6742814 126.3585486
  75.0664467  36.7828417 126.9184308  77.0264458  40.5549101 117.6721293
  76.5883888  39.8384960 117.2126930  77.7674899  40.7825216 117.1106384
  73.8165624  35.2446037 124.1933389  73.0033490  35.5440208 124.5998581
  74.3124619  34.8501726 124.9107871  75.9674202  45.2403794 126.1267653
  75.9250381  45.4664641 125.1976185  76.8836901  45.0067169 126.2753455
  85.1437573  38.8306298 123.7297612  85.0055472  39.0207894 122.8018801
  84.7873792  39.5925681 124.1865663  74.0840003  42.1166823 125.9229616
  74.8780602  41.6217143 125.7212191  73.3731696  41.5884686 125.5597322
  78.9034848  44.4984919 130.2741984  78.9571870  45.0675855 131.0419700
  78.0349629  44.6686804 129.9096021  70.3922767  36.2609905 121.9989369
  69.4620355  36.1994361 122.2159331  70.4880239  35.7385858 121.2026010
  76.6611279  42.6895845 129.6027453  76.5222365  42.3214630 130.4753391
  75.8725875  43.2043485 129.4311411  77.2559431  47.7904942 120.9452990
  77.4311187  47.3192985 121.7598612  76.5692219  48.4170708 121.1734250
  78.2116494  42.0677448 126.9916291  77.8766327  42.0278218 127.8873941
  77.7120440  41.4022164 126.5186701  81.1475686  39.4133482 117.2653351
  80.5304857  38.6880311 117.1686403  80.6792174  40.1742843 116.9220425
  71.8220516  50.9394305 127.7192850  72.0617115  51.5712829 128.3971868
  70.9789713  50.5882345 128.0058209  72.9374232  33.6318907 116.3874655
  72.0603698  33.5107707 116.0236902  73.4131985  32.8404985 116.1353544
  76.3348378  46.7473427 130.1234354  76.2618550  47.5528399 130.6353658
  75.8925771  46.9465393 129.2982375  76.1238158  45.9845197 123.6337175
  75.3405680  46.5266877 123.7275400  76.8230903  46.5019177 124.0331417
  78.7947062  46.6460261 132.2792513  79.5075034  47.2807726 132.2068414
  78.3037090  46.7424127 131.4632514  80.5164589  40.5511514 123.8509804
  79.5820867  40.6712976 123.6814509  80.6941257  39.6483980 123.5869814
  83.9037140  36.3928833 124.3859838  84.3697592  37.2256825 124.3120141
  84.3544641  35.9273815 125.0905097  81.9713371  42.7372654 121.3845990
  82.2473215  42.6229249 122.2939864  81.1017870  42.3390139 121.3458164
  78.6067435  46.9859005 125.0278804  78.7889830  46.1680661 125.4906556
  79.4300421  47.2026697 124.5903694  78.9409601  45.9127190 122.2893853
  79.4697367  45.4019645 121.6764015  79.2037820  45.5969720 123.1539386
  72.2965349  46.9642307 125.0491628  71.6275724  47.4488435 124.5655669
  72.1578218  47.2111527 125.9635007  76.4370617  48.9986050 131.6474287
  76.9888925  49.1617672 132.4123372  76.7776811  49.5890488 130.9754312
  67.6652926  35.2260762 121.8287561  67.9606367  34.3171440 121.7754614
  66.7640961  35.2048501 121.5068563  79.5739004  46.9468026 128.6337969
  79.4490144  46.1457766 128.1248914  80.2318096  47.4414219 128.1451939
  81.6373913  44.7477046 130.2617519  80.6904248  44.6282397 130.1895846
  81.9856686  43.8599544 130.3443780  78.6420346  44.5429762 126.4621871
  78.4945309  43.6146470 126.6429441  79.4673840  44.5649853 125.9778947
  72.5082590  33.1947829 122.3202363  72.8478663  33.7233751 121.5980972
  72.9554711  33.5328235 123.0960930  82.2454468  45.3658321 127.5486744
  83.1701015  45.1601182 127.4111195  82.0769771  45.1174722 128.4576086
  74.4950738  31.6922451 120.5195656  75.2159100  32.0703704 120.0159373
  73.8716042  32.4111328 120.6230634  78.6381860  32.3967600 121.4553989
  78.8545475  33.2792238 121.1542817  78.1575928  32.0053813 120.7259631
  82.0349784  45.8843988 122.9048836  82.2086662  45.3190411 122.1522688
  82.5278675  46.6844883 122.7228325  87.8889175  38.6480411 124.5239135
  88.3320321  37.8987737 124.1258259  87.0115686  38.6390548 124.1412867
  83.0224957  45.2010753 120.0045734  83.7175861  45.8217446 120.2233048
  83.3648107  44.3506104 120.2798112  84.9216380  42.6510458 121.5333065
  85.4467704  42.9897731 120.8082385  84.8338732  41.7157474 121.3496199
  76.6057041  48.7182442 125.8928318  76.1662031  48.2258820 126.5861174
  77.3565157  48.1755409 125.6520393  69.0849380  44.9093983 125.8952946
  69.9107399  44.6097754 125.5151589  68.7343432  44.1401605 126.3442734
  74.0530913  44.2620451 127.9650619  73.4310922  43.5991156 127.6652847
  74.7235780  44.2881583 127.2824267  73.6144420  42.8124374 121.4409080
  73.7632540  43.4959838 120.7875753  74.4210863  42.7929464 121.9558536
  71.3697053  38.8389552 122.4470149  71.1243095  37.9351882 122.6450359
  71.5392967  38.8406702 121.5049627  70.6392700  34.5717909 119.9456310
  69.9461945  34.6462264 119.2896346  70.3944452  33.8078253 120.4677827
  77.1139825  45.3072505 118.9120827  76.5413792  45.9262692 118.4591299
  77.6872619  45.8571866 119.4460749  80.3337085  45.5909655 120.0429410
  81.2667758  45.5255216 120.2462285  80.2460298  46.4265922 119.5843942
  82.9625102  44.9075525 117.0033357  82.8838733  44.5735389 117.8969115
  83.7834768  45.3997293 117.0024830  77.4986624  36.6433317 116.2536880
  78.4445728  36.5139525 116.3225298  77.1200869  35.9047979 116.7306308
  75.6829541  34.5683294 116.1891765  74.7760996  34.2716406 116.2654479
  75.9605522  34.2713112 115.3226051  77.2991607  29.1120183 122.3436006
  76.4892335  28.7667268 122.7191252  77.9876023  28.8027727 122.9323618
  74.4528325  31.4270229 116.3303744  75.3147489  31.7525127 116.5899562
  74.6378670  30.6401725 115.8176810  82.6060962  30.2998755 123.4738967
  82.0259631  30.9583559 123.0917020  82.3396895  29.4776100 123.0626385
  81.3885840  32.4598846 122.5295316  80.5011695  32.7448496 122.3115510
  81.8039829  32.2992609 121.6822592  69.3970090  47.0406597 127.6166760
  69.2624558  46.2806998 127.0504758  68.9802153  47.7647497 127.1495549
  80.5329053  42.2243520 116.6243336  81.2364903  42.4293523 117.2400991
  79.8091702  42.7920282 116.8892419  81.3626864  37.9753382 122.7445606
  81.3062065  38.4321933 121.9053238  81.9155206  37.2144066 122.5668448
  85.1731670  33.7643114 123.5695725  84.9168604  33.3639749 124.4003933
  84.5484538  34.4786907 123.4445864  72.5539216  47.9375914 127.8285203
  72.4371600  48.8821346 127.7263893  71.7331662  47.6349475 128.2171002
  82.4415751  42.6626050 118.6741796  83.2761355  42.2307248 118.4919270
  82.2800094  42.4908063 119.6018690  82.0961643  39.1658163 120.0398135
  82.0410447  39.0002434 119.0986579  81.4707698  39.8734196 120.1960325
  75.4057768  28.6666272 119.6183453  75.3936438  29.6108112 119.7751724
  76.2981190  28.4836417 119.3242914  73.5793730  48.5904176 131.0441131
  74.4820977  48.6227786 131.3607626  73.3531100  47.6604627 131.0587467
  75.3347332  47.3435162 127.7051210  74.3842963  47.3437024 127.5915582
  75.6379819  46.5967897 127.1887245  83.7376548  54.9858605 124.6955388
  83.1741413  54.8948542 123.9271676  83.6228943  54.1658510 125.1757881
  81.2840980  56.4809797 127.5339608  82.0762272  56.1400622 127.1185908
  81.5237630  56.5904772 128.4541762  89.3176107  58.6529573 120.0069853
  88.6664086  59.2383653 119.6203867  90.1120469  59.1835768 120.0664890
  83.2431734  55.7418710 120.4056987  84.0162610  55.1947697 120.2669863
  83.5957133  56.6062959 120.6171449  85.5798012  51.9011376 118.0375437
  85.8323532  51.3792898 117.2758900  84.6422571  51.7377522 118.1402121
  90.6241294  50.9047155 125.8450180  91.4104384  50.4866578 125.4940597
  90.8879999  51.8093247 126.0131829  90.7951372  56.3420005 120.5438837
  90.1597205  56.4154631 121.2559742  90.4648778  56.9313604 119.8657916
  85.2994300  53.8039482 120.2399812  85.1830558  53.1284386 120.9080896
  85.4096560  53.3171856 119.4231965  87.6425841  53.2649629 123.9446501
  87.2784048  52.7380250 124.6559423  88.4992957  52.8748098 123.7712987
  87.2831328  48.2939529 118.9407850  87.4505731  49.1619765 119.3078321
  87.0928497  48.4566811 118.0169139  83.4919143  53.2070305 126.6410385
  82.5669639  53.0746519 126.8488076  83.7403556  53.9864524 127.1380327
  87.2620549  50.7497186 119.9254517  87.1420174  51.1954237 120.7639997
  86.5673137  51.0982504 119.3668055  80.8527954  52.8503578 127.4754174
  80.9820335  53.1038057 128.3893585  80.1725405  53.4431286 127.1558829
  92.9605615  51.2218660 120.7534851  93.8723471  51.4546046 120.5782548
  92.4515262  51.8055704 120.1909929  87.1203159  55.9418886 125.4098517
  87.5841505  56.2206589 124.6203140  86.8559958  55.0402331 125.2271608
  86.0572045  52.0642039 122.2188082  86.7596089  52.5163082 122.6862009
  85.7252674  51.4225857 122.8467976  79.7997379  50.3225591 127.5205216
  79.0096433  50.5783120 127.0445327  80.2908627  51.1373929 127.6257257
  81.7512125  50.6870170 124.4788693  80.9543288  50.7988865 124.9972188
  81.5237717  51.0256823 123.6129583  78.0835082  50.5756082 129.9520207
  78.3343121  51.4603092 130.2177783  78.6194631  50.3960683 129.1795299
  87.2965810  58.8782981 122.2950188  87.1611485  59.7234517 122.7235035
  87.8375623  59.0802259 121.5316121  80.7495207  56.3958419 122.8678113
  81.2619728  57.1901669 123.0183677  81.4017920  55.6984710 122.8011714
  82.5590092  59.5124176 124.9500866  82.7356721  60.4342140 124.7621850
  83.3546926  59.1982595 125.3795246  78.7144124  54.7247074 123.6437683
  79.5519346  55.1344082 123.4271391  78.8922392  53.7846516 123.6137877
  90.6108556  52.3922154 119.3321516  90.0955180  53.1626759 119.5709904
  90.3385865  51.7187290 119.9554578  88.1955667  47.2371855 124.3906755
  87.3397264  46.8478705 124.2112393  88.6082619  47.3163816 123.5306540
  85.9697700  44.8556928 127.7964496  86.8350697  44.6599737 127.4370386
  86.0375209  44.6267280 128.7233853  95.5842830  55.1454509 121.2674690
  94.8072273  54.8065668 120.8229852  96.2634311  55.1507132 120.5929655
  90.3994860  50.2649246 121.1581297  90.0944995  50.5795395 122.0091441
  91.3525302  50.3430666 121.2008630  88.8441291  56.4239470 122.8074251
  88.3162653  55.6892229 122.4947489  88.3428794  57.2014146 122.5614220
  83.5760019  47.0859136 125.1680863  84.1503771  46.8634317 124.4354056
  84.1631001  47.1547830 125.9209464  83.9029606  49.1163597 119.1876748
  83.0666918  49.4538283 119.5086023  83.7634376  48.9812577 118.2503885
  85.8782687  43.9600385 123.8955932  85.2247099  43.6449402 123.2712547
  85.8363161  43.3376125 124.6215755  86.9893892  54.2419680 115.8109224
  86.0820953  54.0108933 116.0100373  87.4864924  53.4457299 115.9983206
  89.8961970  62.9517187 118.7305911  89.2223669  63.2548884 119.3390868
  90.2827792  63.7546267 118.3811368  89.1120427  50.4482318 128.2203580
  88.1942988  50.6697265 128.0625268  89.5280571  50.5228629 127.3615287
  89.8955475  51.8473734 123.3506260  90.6427294  52.3595131 123.0413382
  90.1647064  51.5257787 124.2110654  88.1682125  54.3432275 120.3333215
  87.2593344  54.0591308 120.4305684  88.1977209  54.7631353 119.4736521
  92.3434312  48.8830850 125.3325050  91.6057069  48.3708236 125.6635292
  92.5961086  48.4431232 124.5208326  78.7370295  52.0637789 124.3148417
  78.5394695  51.4707150 123.5899483  78.1816959  51.7589999 125.0324356
  86.7167019  51.9560895 126.4343010  86.7715629  51.0034732 126.3585486
  85.9058221  52.1120334 126.9184308  87.8658213  55.8841018 117.6721293
  87.4277643  55.1676877 117.2126930  88.6068654  56.1117133 117.1106384
  84.6559379  50.5737955 124.1933389  83.8427244  50.8732126 124.5998581
  85.1518373  50.1793644 124.9107871  95.9831328  54.1598215 123.7297612
  95.8449226  54.3499811 122.8018801  95.6267546  54.9217598 124.1865663
  84.1473454  48.1456311 129.8094624  84.7872833  48.0045070 129.1117587
  83.3150984  47.8590824 129.4333226  84.9233758  57.4458741 125.9229616
  85.7174356  56.9509061 125.7212191  84.2125450  56.9176604 125.5597322
  81.2316521  51.5901823 121.9989369  80.3014109  51.5286278 122.2159331
  81.3273993  51.0677776 121.2026010  81.1502070  48.1156636 124.5867610
  81.4108887  49.0301969 124.4776771  81.9719242  47.6481078 124.7364223
  82.6226995  49.5294393 131.7566435  83.2950049  49.3211755 131.1079084
  81.7956782  49.3316479 131.3171667  88.0953186  63.1196859 120.9452990
  88.2704941  62.6484903 121.7598612  87.4085974  63.7462626 121.1734250
  91.9869440  54.7425400 117.2653351  91.3698611  54.0172228 117.1686403
  91.5185929  55.5034760 116.9220425  83.7767986  48.9610824 116.3874655
  82.8997453  48.8399625 116.0236902  84.2525739  48.1696903 116.1353544
  75.2970126  53.7487984 126.4816162  75.9841166  53.4349714 125.8937177
  75.1418255  54.6529349 126.2083414  80.1004849  48.6378181 130.9101186
  80.0163037  48.0303850 130.1751596  79.2787555  49.1287199 130.9110682
  90.2728562  47.1231744 126.2771381  90.7697262  46.3701706 125.9572451
  89.5015544  47.1596061 125.7114590  91.3558343  55.8803431 123.8509804
  90.4214622  56.0004894 123.6814509  91.5335012  54.9775898 123.5869814
  86.8563531  49.2649127 126.0043065  86.4861319  48.7120168 126.6923971
  87.3522624  48.6607261 125.4518065  94.7430895  51.7220751 124.3859838
  95.2091347  52.5548742 124.3120141  95.1938395  51.2565732 125.0905097
  92.8107126  58.0664572 121.3845990  93.0866970  57.9521167 122.2939864
  91.9411624  57.6682057 121.3458164  89.7803355  61.2419108 122.2893853
  90.3091122  60.7311563 121.6764015  90.0431575  60.9261638 123.1539386
  74.8738103  51.8288577 128.7533629  74.9122202  51.2952168 129.5470747
  74.3678395  51.3023783 128.1344606  82.2528865  46.6753118 132.2496172
  82.3170191  47.5367949 131.8373569  82.1895985  46.0627120 131.5168530
  78.5046680  50.5552680 121.8287561  78.8000121  49.6463358 121.7754614
  77.6034716  50.5340419 121.5068563  82.0340927  48.6308676 127.8115109
  81.3127513  49.2444644 127.6722583  82.8234183  49.1666441 127.7331755
  80.2334522  48.2366777 121.9526886  79.9047228  47.3564156 121.7701992
  80.5873892  48.1814446 122.8403275  83.3476345  48.5239747 122.3202363
  83.6872417  49.0525668 121.5980972  83.7948465  48.8620153 123.0960930
  85.3344492  47.0214369 120.5195656  86.0552855  47.3995621 120.0159373
  84.7109796  47.7403245 120.6230634  89.4775615  47.7259518 121.4553989
  89.6939229  48.6084155 121.1542817  88.9969682  47.3345731 120.7259631
  84.2174836  50.6845231 128.0324733  84.0719417  50.9985534 128.9249015
  83.7400040  51.3030131 127.4795632  86.0771219  47.6747779 128.0805623
  86.0632788  46.7788872 127.7437921  86.7943647  47.6818443 128.7143909
  78.6920498  53.2250575 130.9712394  78.1473967  54.0010383 131.1032669
  79.5699848  53.5721380 130.8131516  85.4808115  46.5562159 123.3493193
  85.6024026  45.6278805 123.5484080  85.1910157  46.5700845 122.4371508
  88.3499306  44.2417070 126.4859913  88.3721002  44.3056403 125.5311892
  88.7667365  43.4021578 126.6800419  93.8618711  60.5302671 120.0045734
  94.5569616  61.1509363 120.2233048  94.2041861  59.6798022 120.2798112
  95.7610134  57.9802376 121.5333065  96.2861458  58.3189649 120.8082385
  95.6732487  57.0449391 121.3496199  79.9243134  60.2385900 125.8952946
  80.7501154  59.9389672 125.5151589  79.5737186  59.4693523 126.3442734
  78.1251739  58.1572227 126.8541879  77.2883647  57.7294401 126.6725881
  78.0975384  58.3504670 127.7912671  84.4538174  58.1416292 121.4409080
  84.6026294  58.8251756 120.7875753  85.2604618  58.1221382 121.9558536
  82.2090807  54.1681469 122.4470149  81.9636849  53.2643799 122.6450359
  82.3786722  54.1698620 121.5049627  81.4786455  49.9009827 119.9456310
  80.7855700  49.9754182 119.2896346  81.2338207  49.1370171 120.4677827
  87.9533580  60.6364422 118.9120827  87.3807547  61.2554609 118.4591299
  88.5266373  61.1863784 119.4460749  91.1730839  60.9201572 120.0429410
  92.1061513  60.8547134 120.2462285  91.0854052  61.7557839 119.5843942
  93.8018856  60.2367443 117.0033357  93.7232488  59.9027306 117.8969115
  94.6228523  60.7289211 117.0024830  88.3380378  51.9725235 116.2536880
  89.2839483  51.8431443 116.3225298  87.9594623  51.2339897 116.7306308
  86.5223295  49.8975211 116.1891765  85.6154751  49.6008324 116.2654479
  86.7999276  49.6005029 115.3226051  77.4401236  51.2181575 126.6390811
  77.1204020  50.3646883 126.3465185  76.8934664  51.4330153 127.3948779
  88.1385361  44.4412101 122.3436006  87.3286089  44.0959186 122.7191252
  88.8269778  44.1319645 122.9323618  90.0675909  43.5190148 123.9660303
  90.6206948  43.9385601 124.6250326  90.3045996  42.5925896 124.0083259
  85.2922080  46.7562147 116.3303744  86.1541244  47.0817045 116.5899562
  85.4772424  45.9693642 115.8176810  77.3089496  54.8384486 128.6083933
  76.6152967  54.4238439 128.0953887  78.0562487  54.8805023 128.0117352
  93.4454716  45.6290673 123.4738967  92.8653385  46.2875477 123.0917020
  93.1790649  44.8068018 123.0626385  79.2226238  54.7702740 126.4849948
  79.1996926  54.8690427 125.5331831  79.5326875  55.6167891 126.8067114
  92.2279594  47.7890763 122.5295316  91.3405449  48.0740414 122.3115510
  92.6433583  47.6284527 121.6822592  91.3722808  57.5535438 116.6243336
  92.0758658  57.7585441 117.2400991  90.6485457  58.1212200 116.8892419
  92.2020618  53.3045299 122.7445606  92.1455820  53.7613851 121.9053238
  92.7548961  52.5435984 122.5668448  96.0125424  49.0935031 123.5695725
  95.7562358  48.6931667 124.4003933  95.3878292  49.8078825 123.4445864
  93.2809505  57.9917967 118.6741796  94.1155109  57.5599166 118.4919270
  93.1193848  57.8199981 119.6018690  92.9355397  54.4950081 120.0398135
  92.8804201  54.3294352 119.0986579  92.3101453  55.2026114 120.1960325
  77.7247912  49.7318145 133.8659557  78.3706776  49.2217099 134.3546782
  77.5165064  50.4686827 134.4402982  86.2451523  43.9958190 119.6183453
  86.2330193  44.9400030 119.7751724  87.1374945  43.8128335 119.3242914
  94.7423361  64.4455515 119.1876748  93.9060673  64.7830201 119.5086023
  94.6028130  64.3104494 118.2503885  94.6161741  64.2902742 116.3874655
  93.7391207  64.1691543 116.0236902  95.0919494  63.4988820 116.1353544
  92.3180209  65.2301745 119.9456310  91.6249454  65.3046100 119.2896346
  92.0731961  64.4662088 120.4677827  97.3617050  65.2267129 116.1891765
  96.4548505  64.9300242 116.2654479  97.6393031  64.9296947 115.3226051
  96.1315834  62.0854064 116.3303744  96.9934998  62.4108963 116.5899562
  96.3166179  61.2985560 115.8176810  97.0845277  59.3250107 119.6183453
  97.0723947  60.2691947 119.7751724  97.9768699  59.1420253 119.3242914
  68.2174463   9.2995474 105.4551217  67.5436161   9.6027171 106.0636175
  68.6040285  10.1024555 105.1056674  72.1831203   6.8780958 106.7291040
  72.8782108   7.4987650 106.9478355  72.5254354   6.0276309 107.0043418
  66.2746072   6.9842709 105.6366134  65.7020039   7.6032897 105.1836606
  66.8478866   7.5342071 106.1706056  69.4943332   7.2679860 106.7674716
  70.4274005   7.2025421 106.9707592  69.4066545   8.1036126 106.3089249
  72.1231348   6.5845730 103.7278664  72.0444980   6.2505594 104.6214422
  72.9441015   7.0767498 103.7270136  69.6935300   3.9013725 103.3488642
  70.3971150   4.1063728 103.9646298  68.9697949   4.4690487 103.6137726
  71.6021998   4.3396255 105.3987102  72.4367601   3.9077453 105.2164577
  71.4406340   4.1678268 106.3263997  80.2306273  14.8565906 115.4942279
  80.8684683  14.7372653 114.7905619  80.1127116  15.8046750 115.5530231
  72.8982795  16.6628810 111.4200695  72.3347660  16.5718747 110.6516982
  72.7835190  15.8428715 111.9003187  78.4782353  20.3299778 106.7315160
  77.8270333  20.9153858 106.3449173  79.2726716  20.8605973 106.7910197
  72.4037980  17.4188915 107.1302294  73.1768856  16.8717902 106.9915170
  72.7563379  18.2833164 107.3416755  74.7404258  13.5781581 104.7620744
  74.9929779  13.0563102 104.0004207  73.8028817  13.4147727 104.8647427
  79.7847541  12.5817360 112.5695487  80.5710630  12.1636783 112.2185904
  80.0486245  13.4863452 112.7377135  79.9557618  18.0190210 107.2684144
  79.3203451  18.0924836 107.9805048  79.6255025  18.6083809 106.5903223
  74.4600547  15.4809687 106.9645119  74.3436805  14.8054590 107.6326203
  74.5702807  14.9942061 106.1477272  76.8032088  14.9419834 110.6691808
  76.4390295  14.4150455 111.3804729  77.6599204  14.5518303 110.4958293
  76.4437575   9.9709734 105.6653156  76.6111977  10.8389970 106.0323628
  76.2534744  10.1337016 104.7414446  76.4226796  12.4267391 106.6499823
  76.3026421  12.8724442 107.4885304  75.7279384  12.7752709 106.0913361
  74.1833688  25.1971033 110.2989955  74.1057718  26.1478858 110.3778435
  73.5795332  24.8516906 110.9564881  82.1211862  12.8988865 107.4780157
  83.0329718  13.1316251 107.3027855  81.6121509  13.4825909 106.9155236
  80.7281444  17.8814683 114.8693739  80.0990307  18.0460397 114.1669807
  80.3407106  18.2956293 115.6404703  84.6070676  18.8169121 112.2238103
  83.9221714  19.1968022 111.6735136  84.6914525  19.4264448 112.9570050
  76.2809406  17.6189091 112.1343824  76.7447752  17.8976794 111.3448446
  76.0166204  16.7172536 111.9516915  75.2178292  13.7412243 108.9433389
  75.9202336  14.1933287 109.4107315  74.8858921  13.0996062 109.5713282
  76.4572057  20.5553186 109.0195494  76.3217732  21.4004722 109.4480342
  76.9981869  20.7572464 108.2561428  69.9101454  18.0728624 109.5923419
  70.4225975  18.8671874 109.7428984  70.5624167  17.3754915 109.5257021
  71.7196339  21.1894380 111.6746173  71.8962967  22.1112345 111.4867156
  72.5153172  20.8752800 112.1040552  72.8427654  22.7072554 117.6756515
  73.3935080  22.5789618 116.9033509  72.0039130  23.0067443 117.3251408
  67.8750371  16.4017278 110.3682990  68.7125593  16.8114287 110.1516698
  68.0528639  15.4616721 110.3383184  79.7714803  14.0692359 106.0566823
  79.2561427  14.8396964 106.2955210  79.4992112  13.3957495 106.6799884
  77.3561914   8.9142060 111.1152061  76.5003511   8.5248910 110.9357700
  77.7688866   8.9934021 110.2551847  84.7449077  16.8224714 107.9919996
  83.9678520  16.4835873 107.5475158  85.4240558  16.8277337 107.3174961
  79.5601106  11.9419451 107.8826604  79.2551242  12.2565600 108.7336747
  80.5131548  12.0200871 107.9253937  78.0047538  18.1009675 109.5319558
  77.4768900  17.3662434 109.2192795  77.5035041  18.8784351 109.2859526
  82.9840384  16.2958695 114.6486604  82.3264059  16.9857956 114.7366733
  83.7880783  16.6855127 114.9920591  81.7945843  14.6503068 112.6990546
  82.3077725  15.2833060 113.2012256  82.4447067  14.0504263 112.3333906
  73.0635853  10.7933802 105.9122055  72.2273165  11.1308488 106.2331330
  72.9240623  10.6582782 104.9749192  76.1500138  15.9189885 102.5354531
  75.2427200  15.6879138 102.7345680  76.6471170  15.1227504 102.7228513
  79.0568217  24.6287392 105.4551217  78.3829916  24.9319089 106.0636175
  79.4434039  25.4316472 105.1056674  79.0561722  13.5243939 110.0751567
  79.8033541  14.0365336 109.7658689  79.3253311  13.2027992 110.9355960
  77.3288372  16.0202480 107.0578521  76.4199591  15.7361512 107.1550991
  77.3583456  16.4401558 106.1981828  82.5607639  19.6309069 110.8269689
  82.1069966  18.7899979 110.8834879  81.9301606  20.2670468 111.1644469
  81.5040559  10.5601055 112.0570356  80.7663316  10.0478441 112.3880599
  81.7567332  10.1201437 111.2453633  81.0040578  21.4685566 111.7619507
  81.2963553  22.0290623 111.0431872  81.5139199  21.7614127 112.5172666
  75.8773266  13.6331100 113.1588317  75.9321876  12.6804937 113.0830793
  75.0664468  13.7890539 113.6429615  77.0264460  17.5611223 104.3966600
  76.5883889  16.8447082 103.9372237  77.7674900  17.7887338 103.8351691
  73.8165626  12.2508160 110.9178695  73.0033491  12.5502331 111.3243888
  74.3124620  11.8563849 111.6353178  75.9674204  22.2465917 112.8512960
  75.9250382  22.4726763 111.9221492  76.8836902  22.0129292 112.9998761
  85.1437574  15.8368420 110.4542918  85.0055473  16.0270016 109.5264108
  84.7873793  16.5987803 110.9110969  74.0840004  19.1228946 112.6474923
  74.8780603  18.6279266 112.4457498  73.3731697  18.5946809 112.2842628
  78.9034849  21.5047041 116.9987290  78.9571871  22.0737978 117.7665006
  78.0349630  21.6748927 116.6341328  70.3922768  13.2672028 108.7234675
  69.4620356  13.2056483 108.9404638  70.4880240  12.7447980 107.9271317
  76.6611280  19.6957968 116.3272760  76.5222366  19.3276752 117.1998698
  75.8725877  20.2105607 116.1556718  77.2559432  24.7967064 107.6698296
  77.4311188  24.3255108 108.4843919  76.5692220  25.4232831 107.8979557
  78.2116496  19.0739571 113.7161598  77.8766328  19.0340341 114.6119248
  77.7120441  18.4084287 113.2432008  81.1475687  16.4195605 103.9898657
  80.5304858  15.6942433 103.8931710  80.6792176  17.1804965 103.6465732
  71.8220518  27.9456427 114.4438157  72.0617116  28.5774951 115.1217175
  70.9789714  27.5944467 114.7303516  72.9374233  10.6381029 103.1119962
  72.0603699  10.5169830 102.7482208  73.4131986   9.8467108 102.8598850
  76.3348380  23.7535550 116.8479661  76.2618551  24.5590521 117.3598965
  75.8925773  23.9527515 116.0227682  76.1238159  22.9907320 110.3582482
  75.3405681  23.5329000 110.4520707  76.8230904  23.5081299 110.7576723
  78.7947063  23.6522384 119.0037819  79.5075035  24.2869848 118.9313721
  78.3037092  23.7486250 118.1877821  80.5164590  17.5573636 110.5755111
  79.5820869  17.6775099 110.4059815  80.6941258  16.6546103 110.3115121
  83.9037141  13.3990956 111.1105145  84.3697593  14.2318947 111.0365448
  84.3544642  12.9335937 111.8150404  81.9713372  19.7434777 108.1091297
  82.2473216  19.6291371 109.0185171  81.1017871  19.3452262 108.0703470
  78.6067436  23.9921128 111.7524111  78.7889831  23.1742784 112.2151863
  79.4300422  24.2088820 111.3149001  78.9409602  22.9189313 109.0139159
  79.4697368  22.4081767 108.4009321  79.2037821  22.6031843 109.8784692
  72.2965350  23.9704430 111.7736935  71.6275725  24.4550557 111.2900975
  72.1578220  24.2173650 112.6880314  76.4370618  26.0048173 118.3719593
  76.9888926  26.1679795 119.1368679  76.7776812  26.5952611 117.6999618
  67.6652927  12.2322885 108.5532867  67.9606368  11.3233563 108.4999921
  66.7640963  12.2110624 108.2313870  79.5739006  23.9530149 115.3583276
  79.4490145  23.1519888 114.8494221  80.2318097  24.4476342 114.8697246
  81.6373914  21.7539169 116.9862826  80.6904250  21.6344520 116.9141152
  81.9856687  20.8661667 117.0689087  78.6420347  21.5491885 113.1867178
  78.4945310  20.6208592 113.3674748  79.4673841  21.5711976 112.7024253
  72.5082592  10.2009952 109.0447670  72.8478664  10.7295873 108.3226278
  72.9554712  10.5390358 109.8206237  82.2454469  22.3720444 114.2732051
  83.1701017  22.1663305 114.1356502  82.0769773  22.1236845 115.1821392
  74.4950739   8.6984574 107.2440963  75.2159101   9.0765826 106.7404680
  73.8716043   9.4173450 107.3475941  78.6381862   9.4029723 108.1799295
  78.8545476  10.2854360 107.8788123  78.1575929   9.0115936 107.4504937
  82.0349785  22.8906111 109.6294142  82.2086663  22.3252534 108.8767995
  82.5278677  23.6907006 109.4473632  87.8889177  15.6542534 111.2484442
  88.3320323  14.9049859 110.8503565  87.0115687  15.6452670 110.8658174
  83.0224958  22.2072875 106.7291040  83.7175863  22.8279568 106.9478355
  83.3648108  21.3568227 107.0043418  84.9216381  19.6572581 108.2578371
  85.4467705  19.9959854 107.5327691  84.8338734  18.7219596 108.0741506
  76.6057042  25.7244564 112.6173624  76.1662032  25.2320943 113.3106481
  77.3565159  25.1817532 112.3765700  69.0849381  21.9156105 112.6198252
  69.9107401  21.6159877 112.2396896  68.7343433  21.1463728 113.0688041
  74.0530914  21.2682573 114.6895926  73.4310923  20.6053278 114.3898154
  74.7235781  21.2943705 114.0069574  73.6144421  19.8186497 108.1654387
  73.7632541  20.5021961 107.5121059  74.4210864  19.7991587 108.6803842
  71.3697054  15.8451674 109.1715455  71.1243096  14.9414004 109.3695666
  71.5392968  15.8468825 108.2294933  70.6392701  11.5780032 106.6701617
  69.9461946  11.6524387 106.0141653  70.3944453  10.8140376 107.1923134
  77.1139826  22.3134627 105.6366134  76.5413793  22.9324814 105.1836606
  77.6872620  22.8633989 106.1706056  80.3337086  22.5971777 106.7674716
  81.2667759  22.5317339 106.9707592  80.2460299  23.4328044 106.3089249
  82.9625103  21.9137648 103.7278664  82.8838734  21.5797511 104.6214422
  83.7834770  22.4059416 103.7270136  77.4986625  13.6495440 102.9782186
  78.4445730  13.5201648 103.0470605  77.1200870  12.9110102 103.4551615
  75.6829542  11.5745416 102.9137072  74.7760997  11.2778529 102.9899785
  75.9605523  11.2775234 102.0471358  77.2991608   6.1182306 109.0681313
  76.4892336   5.7729391 109.4436559  77.9876025   5.8089850 109.6568925
  74.4528327   8.4332352 103.0549051  75.3147491   8.7587250 103.3144868
  74.6378671   7.6463847 102.5422117  82.6060963   7.3060878 110.1984274
  82.0259632   7.9645682 109.8162326  82.3396896   6.4838223 109.7871691
  81.3885841   9.4660968 109.2540622  80.5011696   9.7510619 109.0360817
  81.8039830   9.3054732 108.4067899  69.3970092  24.0468719 114.3412067
  69.2624560  23.2869120 113.7750065  68.9802154  24.7709619 113.8740856
  80.5329055  19.2305643 103.3488642  81.2364905  19.4355646 103.9646298
  79.8091703  19.7982405 103.6137726  81.3626865  14.9815504 109.4690912
  81.3062066  15.4384056 108.6298545  81.9155207  14.2206189 109.2913755
  85.1731671  10.7705236 110.2941032  84.9168605  10.3701872 111.1249240
  84.5484539  11.4849030 110.1691171  72.5539217  24.9438037 114.5530510
  72.4371602  25.8883469 114.4509200  71.7331664  24.6411598 114.9416309
  82.4415752  19.6688172 105.3987102  83.2761356  19.2369371 105.2164577
  82.2800095  19.4970186 106.3263997  82.0961644  16.1720286 106.7643442
  82.0410448  16.0064557 105.8231886  81.4707699  16.8796318 106.9205631
  75.4057770   5.6728395 106.3428760  75.3936439   6.6170234 106.4997031
  76.2981192   5.4898540 106.0488221  73.5793732  25.5966298 117.7686438
  74.4820978  25.6289909 118.0852933  73.3531102  24.6666749 117.7832774
  75.3347334  24.3497285 114.4296517  74.3842965  24.3499147 114.3160889
  75.6379820  23.6030020 113.9132551  91.0700027  30.1857823 115.4942279
  91.7078437  30.0664571 114.7905619  90.9520870  31.1338667 115.5530231
  87.8789733  30.1385251 115.4303804  87.5408245  30.0226316 114.5424339
  88.7479502  29.7376417 115.4104810  83.7376549  31.9920728 111.4200695
  83.1741414  31.9010665 110.6516982  83.6228944  31.1720632 111.9003187
  81.2840981  33.4871919 114.2584915  82.0762273  33.1462744 113.8431214
  81.5237631  33.5966895 115.1787068  89.3176108  35.6591696 106.7315160
  88.6664088  36.2445776 106.3449173  90.1120471  36.1897890 106.7910197
  83.2431735  32.7480833 107.1302294  84.0162611  32.2009820 106.9915170
  83.5957134  33.6125082 107.3416755  85.0816778  34.0757215 120.3369193
  84.7906644  34.9802846 120.2215859  85.7173762  34.1173743 121.0513263
  86.0072984  31.4534063 116.9270553  86.6036557  31.2290086 116.2127516
  86.0647956  30.7118809 117.5296001  85.5798013  28.9073499 104.7620744
  85.8323533  28.3855020 104.0004207  84.6422572  28.7439644 104.8647427
  90.6241296  27.9109277 112.5695487  91.4104385  27.4928700 112.2185904
  90.8880000  28.8155369 112.7377135  90.7951373  33.3482127 107.2684144
  90.1597206  33.4216754 107.9805048  90.4648779  33.9375726 106.5903223
  85.2994302  30.8101605 106.9645119  85.1830560  30.1346508 107.6326203
  85.4096561  30.3233979 106.1477272  87.6425842  30.2711752 110.6691808
  87.2784050  29.7442373 111.3804729  88.4992958  29.8810221 110.4958293
  87.2831329  25.3001652 105.6653156  87.4505732  26.1681888 106.0323628
  87.0928499  25.4628933 104.7414446  90.0406663  33.7618630 117.3318987
  89.7407386  34.6643669 117.2234794  89.6957722  33.4950814 118.1840140
  83.4919144  30.2132427 113.3655691  82.5669641  30.0808641 113.5733383
  83.7403557  30.9926647 113.8625634  87.2620550  27.7559309 106.6499823
  87.1420176  28.2016360 107.4885304  86.5673139  28.1044627 106.0913361
  80.8527955  29.8565701 114.1999480  80.9820336  30.1100180 115.1138892
  80.1725406  30.4493409 113.8804135  85.0227442  40.5262951 110.2989955
  84.9451472  41.4770776 110.3778435  84.4189086  40.1808823 110.9564881
  92.9605616  28.2280782 107.4780157  93.8723473  28.4608169 107.3027855
  92.4515264  28.8117826 106.9155236  91.5675199  33.2106601 114.8693739
  90.9384061  33.3752315 114.1669807  91.1800861  33.6248210 115.6404703
  95.4464431  34.1461039 112.2238103  94.7615469  34.5259940 111.6735136
  95.5308280  34.7556365 112.9570050  87.1203161  32.9481009 112.1343824
  87.5841506  33.2268712 111.3448446  86.8559959  32.0464453 111.9516915
  84.0127242  32.4952490 115.0723587  84.5828599  32.9239759 114.4341072
  84.6035354  32.2135075 115.7707773  86.0572047  29.0704161 108.9433389
  86.7596090  29.5225205 109.4107315  85.7252675  28.4287980 109.5713282
  79.7997381  27.3287714 114.2450523  79.0096435  27.5845242 113.7690633
  80.2908628  28.1436052 114.3502563  81.7512126  27.6932293 111.2033999
  80.9543289  27.8050987 111.7217495  81.5237718  28.0318945 110.3374890
  87.5817794  34.2176996 119.1516514  87.6462226  34.6797404 119.9874686
  86.8728718  33.5874361 119.2798824  78.0835084  27.5818204 116.6765513
  78.3343122  28.4665214 116.9423089  78.6194632  27.4022806 115.9040605
  87.2965811  35.8845104 109.0195494  87.1611486  36.7296640 109.4480342
  87.8375624  36.0864381 108.2561428  80.7495209  33.4020542 109.5923419
  81.2619729  34.1963792 109.7428984  81.4017922  32.7046832 109.5257021
  82.5590093  36.5186298 111.6746173  82.7356722  37.4404263 111.4867156
  83.3546927  36.2044717 112.1040552  81.8442450  28.5650930 121.5508336
  81.7295965  27.6636187 121.8515435  80.9886968  28.8114627 121.1993152
  83.6821409  38.0364472 117.6756515  84.2328834  37.9081535 116.9033509
  82.8432885  38.3359361 117.3251408  87.4788580  34.3015600 122.0200746
  88.0116917  33.5403888 121.7900054  86.9502661  34.0089252 122.7624900
  78.7144126  31.7309196 110.3682990  79.5519348  32.1406204 110.1516698
  78.8922393  30.7908638 110.3383184  90.6108558  29.3984277 106.0566823
  90.0955181  30.1688881 106.2955210  90.3385866  28.7249413 106.6799884
  88.1955669  24.2433978 111.1152061  87.3397265  23.8540828 110.9357700
  88.6082620  24.3225938 110.2551847  85.9697701  21.8619051 114.5209803
  86.8350698  21.6661859 114.1615692  86.0375210  21.6329402 115.4479159
  95.5842832  32.1516631 107.9919996  94.8072275  31.8127791 107.5475158
  96.2634313  32.1569255 107.3174961  90.3994861  27.2711369 107.8826604
  90.0944996  27.5857518 108.7336747  91.3525303  27.3492789 107.9253937
  88.8441293  33.4301592 109.5319558  88.3162654  32.6954352 109.2192795
  88.3428795  34.2076269 109.2859526  93.8234139  31.6250613 114.6486604
  93.1657813  32.3149874 114.7366733  94.6274538  32.0147045 114.9920591
  83.5760020  24.0921258 111.8926170  84.1503772  23.8696440 111.1599362
  84.1631003  24.1609953 112.6454771  92.6339597  29.9794985 112.6990546
  93.1471479  30.6124977 113.2012256  93.2840821  29.3796181 112.3333906
  83.9029607  26.1225720 105.9122055  83.0666920  26.4600406 106.2331330
  83.7634377  25.9874699 104.9749192  85.8782688  20.9662507 110.6201239
  85.2247100  20.6511525 109.9957854  85.8363162  20.3438248 111.3461062
  86.9893893  31.2481802 102.5354531  86.0820955  31.0171056 102.7345680
  87.4864925  30.4519422 102.7228513  89.8961972  39.9579310 105.4551217
  89.2223670  40.2611006 106.0636175  90.2827794  40.7608390 105.1056674
  89.1120428  27.4544441 114.9448887  88.1942990  27.6759388 114.7870575
  89.5280572  27.5290751 114.0860594  89.8955476  28.8535857 110.0751567
  90.6427295  29.3657254 109.7658689  90.1647066  28.5319909 110.9355960
  88.1682126  31.3494397 107.0578521  87.2593346  31.0653430 107.1550991
  88.1977210  31.7693476 106.1981828  93.4001394  34.9600987 110.8269689
  92.9463721  34.1191897 110.8834879  92.7695360  35.5962385 111.1644469
  92.3434313  25.8892973 112.0570356  91.6057070  25.3770359 112.3880599
  92.5961087  25.4493354 111.2453633  91.8434333  36.7977484 111.7619507
  92.1357307  37.3582541 111.0431872  92.3532953  37.0906045 112.5172666
  78.7370297  29.0699911 111.0393723  78.5394696  28.4769272 110.3144790
  78.1816961  28.7652122 111.7569662  86.7167020  28.9623018 113.1588317
  86.7715630  28.0096854 113.0830793  85.9058222  29.1182457 113.6429615
  87.8658214  32.8903141 104.3966600  87.4277644  32.1739000 103.9372237
  88.6068655  33.1179256 103.8351691  84.6559380  27.5800078 110.9178695
  83.8427246  27.8794248 111.3243888  85.1518374  27.1855766 111.6353178
  86.8067958  37.5757835 112.8512960  86.7644137  37.8018681 111.9221492
  87.7230657  37.3421209 112.9998761  95.9831329  31.1660338 110.4542918
  95.8449227  31.3561934 109.5264108  95.6267548  31.9279721 110.9110969
  84.1473455  25.1518433 116.5339930  84.7872834  25.0107192 115.8362894
  83.3150986  24.8652947 116.1578532  84.9233759  34.4520864 112.6474923
  85.7174357  33.9571184 112.4457498  84.2125451  33.9238727 112.2842628
  89.7428603  36.8338959 116.9987290  89.7965626  37.4029895 117.7665006
  88.8743385  37.0040844 116.6341328  81.2316522  28.5963945 108.7234675
  80.3014110  28.5348401 108.9404638  81.3273994  28.0739898 107.9271317
  81.1502071  25.1218758 111.3112917  81.4108889  26.0364091 111.2022078
  81.9719244  24.6543201 111.4609530  82.6226997  26.5356515 118.4811742
  83.2950050  26.3273877 117.8324391  81.7956783  26.3378601 118.0416974
  88.7016703  30.9999221 118.5574222  89.6308763  31.1510381 118.3843190
  88.2807733  31.0883242 117.7022869  87.5005035  35.0249886 116.3272760
  87.3616121  34.6568670 117.1998698  86.7119631  35.5397525 116.1556718
  88.0953187  40.1258982 107.6698296  88.2704943  39.6547025 108.4843919
  87.4085975  40.7524748 107.8979557  89.0510250  34.4031488 113.7161598
  88.7160083  34.3632258 114.6119248  88.5514196  33.7376204 113.2432008
  83.0254494  29.8099118 119.2414179  82.8874292  29.0779357 119.8425718
  83.9359417  29.7208018 118.9598367  91.9869442  31.7487523 103.9898657
  91.3698612  31.0234351 103.8931710  91.5185930  32.5096883 103.6465732
  85.6536795  29.5219078 118.7297858  86.3636413  28.8812270 118.6884477
  85.6106103  29.7731972 119.6524039  82.6614272  43.2748345 114.4438157
  82.9010870  43.9066869 115.1217175  81.8183469  42.9236385 114.7303516
  83.7767988  25.9672947 103.1119962  82.8997454  25.8461748 102.7482208
  84.2525741  25.1759025 102.8598850  75.2970128  30.7550107 113.2061469
  75.9841168  30.4411837 112.6182484  75.1418256  31.6591471 112.9328720
  80.1004850  25.6440303 117.6346492  80.0163039  25.0365973 116.8996902
  79.2787556  26.1349322 117.6355989  87.1742134  39.0827467 116.8479661
  87.1012305  39.8882439 117.3598965  86.7319527  39.2819433 116.0227682
  86.9631914  38.3199237 110.3582482  86.1799436  38.8620917 110.4520707
  87.6624659  38.8373217 110.7576723  90.2728564  24.1293867 113.0016687
  90.7697263  23.3763829 112.6817758  89.5015545  24.1658183 112.4359897
  89.6340818  38.9814301 119.0037819  90.3468790  39.6161766 118.9313721
  89.1430846  39.0778167 118.1877821  91.3558344  32.8865554 110.5755111
  90.4214623  33.0067016 110.4059815  91.5335013  31.9838021 110.3115121
  86.8563532  26.2711250 112.7288372  86.4861320  25.7182290 113.4169278
  87.3522625  25.6669383 112.1763372  94.7430896  28.7282873 111.1105145
  95.2091348  29.5610865 111.0365448  95.1938396  28.2627855 111.8150404
  84.6852731  36.7308745 119.8243390  85.3862191  37.3645228 119.9772784
  84.2147846  37.0723476 119.0639029  92.8107127  35.0726695 108.1091297
  93.0866971  34.9583289 109.0185171  91.9411626  34.6744179 108.0703470
  89.4461191  39.3213045 111.7524111  89.6283585  38.5034701 112.2151863
  90.2694177  39.5380738 111.3149001  89.7803356  38.2481231 109.0139159
  90.3091123  37.7373685 108.4009321  90.0431576  37.9323761 109.8784692
  80.2820449  36.2645100 116.7574493  80.8673886  35.5188788 116.8902397
  80.0845288  36.5749057 117.6411157  83.1359104  39.2996347 111.7736935
  82.4669480  39.7842475 111.2900975  82.9971974  39.5465568 112.6880314
  74.8738104  28.8350700 115.4778936  74.9122203  28.3014291 116.2716054
  74.3678397  28.3085906 114.8589913  87.2764373  41.3340091 118.3719593
  87.8282681  41.4971712 119.1368679  87.6170566  41.9244529 117.6999618
  82.2528866  23.6815241 118.9741478  82.3170193  24.5430071 118.5618876
  82.1895986  23.0689242 118.2413837  78.5046681  27.5614802 108.5532867
  78.8000123  26.6525481 108.4999921  77.6034717  27.5402542 108.2313870
  90.4132760  39.2822066 115.3583276  90.2883900  38.4811806 114.8494221
  91.0711851  39.7768260 114.8697246  82.0340928  25.6370799 114.5360416
  81.3127514  26.2506766 114.3967889  82.8234184  26.1728564 114.4577062
  92.4767669  37.0831086 116.9862826  91.5298004  36.9636438 116.9141152
  92.8250442  36.1953584 117.0689087  80.2334523  25.2428900 108.6772192
  79.9047229  24.3626279 108.4947298  80.5873894  25.1876569 109.5648582
  89.4814102  36.8783803 113.1867178  89.3339064  35.9500510 113.3674748
  90.3067595  36.9003893 112.7024253  83.3476346  25.5301870 109.0447670
  83.6872419  26.0587791 108.3226278  83.7948467  25.8682276 109.8206237
  93.0848224  37.7012361 114.2732051  94.0094771  37.4955223 114.1356502
  92.9163527  37.4528762 115.1821392  85.3344493  24.0276491 107.2440963
  86.0552856  24.4057744 106.7404680  84.7109797  24.7465368 107.3475941
  89.4775616  24.7321640 108.1799295  89.6939231  25.6146278 107.8788123
  88.9969683  24.3407854 107.4504937  84.2174838  27.6907353 114.7570040
  84.0719418  28.0047656 115.6494321  83.7400041  28.3092254 114.2040938
  86.0771220  24.6809901 114.8050929  86.0632789  23.7850995 114.4683227
  86.7943649  24.6880565 115.4389215  92.8743540  38.2198029 109.6294142
  93.0480417  37.6544451 108.8767995  93.3672431  39.0198924 109.4473632
  78.6920500  30.2312698 117.6957701  78.1473968  31.0072506 117.8277975
  79.5699850  30.5783502 117.5376822  85.4808116  23.5624282 110.0738499
  85.6024028  22.6340928 110.2729387  85.1910159  23.5762968 109.1616815
  88.3499307  21.2479192 113.2105219  88.3721004  21.3118525 112.2557199
  88.7667366  20.4083701 113.4045725  98.7282931  30.9834452 111.2484442
  99.1714077  30.2341777 110.8503565  97.8509441  30.9744588 110.8658174
  93.8618712  37.5364793 106.7291040  94.5569617  38.1571486 106.9478355
  94.2041863  36.6860144 107.0043418  79.4786522  29.3582594 120.5887858
  78.7368258  29.5065229 121.1752488  79.1579266  29.6190860 119.7254607
  95.7610136  34.9864499 108.2578371  96.2861460  35.3251771 107.5327691
  95.6732488  34.0511514 108.0741506  87.4230184  38.8998572 120.3868248
  87.7317311  38.6547719 121.2590947  88.2205666  39.1045211 119.8987118
  87.4450796  41.0536482 112.6173624  87.0055787  40.5612861 113.3106481
  88.1958913  40.5109450 112.3765700  79.9243135  37.2448023 112.6198252
  80.7501155  36.9451795 112.2396896  79.5737187  36.4755645 113.0688041
  84.8924668  36.5974491 114.6895926  84.2704678  35.9345196 114.3898154
  85.5629535  36.6235623 114.0069574  78.1251740  35.1634349 113.5787186
  77.2883649  34.7356524 113.3971187  78.0975386  35.3566793 114.5157977
  84.4538175  35.1478414 108.1654387  84.6026296  35.8313879 107.5121059
  85.2604619  35.1283504 108.6803842  82.2090808  31.1743592 109.1715455
  81.9636850  30.2705922 109.3695666  82.3786723  31.1760742 108.2294933
  81.4786456  26.9071950 106.6701617  80.7855701  26.9816305 106.0141653
  81.2338208  26.1432293 107.1923134  87.9533581  37.6426545 105.6366134
  87.3807548  38.2616732 105.1836606  88.5266375  38.1925907 106.1706056
  91.1730841  37.9263695 106.7674716  92.1061514  37.8609257 106.9707592
  91.0854053  38.7619962 106.3089249  93.8018857  37.2429565 103.7278664
  93.7232489  36.9089429 104.6214422  94.6228524  37.7351333 103.7270136
  88.3380379  28.9787358 102.9782186  89.2839484  28.8493566 103.0470605
  87.9594624  28.2402019 103.4551615  86.5223297  26.9037334 102.9137072
  85.6154752  26.6070447 102.9899785  86.7999278  26.6067152 102.0471358
  77.4401237  28.2243697 113.3636118  77.1204021  27.3709006 113.0710492
  76.8934665  28.4392276 114.1194085  81.2181144  30.9406138 117.0805625
  81.4367154  31.8723246 117.0993658  81.6306918  30.5814113 117.8660428
  88.1385362  21.4474224 109.0681313  87.3286091  21.1021309 109.4436559
  88.8269779  21.1381767 109.6568925  90.0675911  20.5252270 110.6905610
  90.6206949  20.9447724 111.3495633  90.3045997  19.5988019 110.7328566
  85.2922081  23.7624269 103.0549051  86.1541245  24.0879168 103.3144868
  85.4772425  22.9755765 102.5422117  77.3089497  31.8446609 115.3329240
  76.6152968  31.4300562 114.8199194  78.0562488  31.8867145 114.7362659
  93.4454718  22.6352796 110.1984274  92.8653387  23.2937600 109.8162326
  93.1790650  21.8130140 109.7871691  79.2226239  31.7764863 113.2095255
  79.1996928  31.8752550 112.2577138  79.5326876  32.6230013 113.5312421
  81.8813617  33.8341018 117.3241869  82.8356871  33.8024960 117.2571801
  81.6826141  33.3731641 118.1392095  82.4712999  32.4042134 119.8912667
  83.2905888  32.8986212 119.9147504  82.7449807  31.4874102 119.8630234
  92.2279596  24.7952886 109.2540622  91.3405451  25.0802537 109.0360817
  92.6433585  24.6346649 108.4067899  80.2363846  39.3760637 114.3412067
  80.1018314  38.6161038 113.7750065  79.8195908  40.1001537 113.8740856
  91.3722809  34.5597561 103.3488642  92.0758659  34.7647563 103.9646298
  90.6485458  35.1274323 103.6137726  92.2020619  30.3107422 109.4690912
  92.1455821  30.7675973 108.6298545  92.7548962  29.5498107 109.2913755
  96.0125425  26.0997154 110.2941032  95.7562360  25.6993789 111.1249240
  95.3878293  26.8140948 110.1691171  83.3932972  40.2729954 114.5530510
  83.2765356  41.2175387 114.4509200  82.5725418  39.9703516 114.9416309
  93.2809507  34.9980090 105.3987102  94.1155110  34.5661288 105.2164577
  93.1193849  34.8262104 106.3263997  92.9355399  31.5012203 106.7643442
  92.8804202  31.3356475 105.8231886  92.3101454  32.2088236 106.9205631
  77.7247914  26.7380268 120.5904864  78.3706777  26.2279222 121.0792089
  77.5165065  27.4748949 121.1648289  86.2451524  21.0020312 106.3428760
  86.2330194  21.9462152 106.4997031  87.1374946  20.8190458 106.0488221
  84.4187486  40.9258216 117.7686438  85.3214733  40.9581826 118.0852933
  84.1924856  39.9958667 117.7832774  86.1741088  39.6789203 114.4296517
  85.2236719  39.6791064 114.3160889  86.4773574  38.9321937 113.9132551
 101.9093782  45.5149741 115.4942279 102.5472192  45.3956488 114.7905619
 101.7914625  46.4630585 115.5530231  98.7183488  45.4677169 115.4303804
  98.3801999  45.3518234 114.5424339  99.5873256  45.0668334 115.4104810
  94.5770304  47.3212646 111.4200695  94.0135169  47.2302582 110.6516982
  94.4622699  46.5012550 111.9003187  92.1234736  48.8163837 114.2584915
  92.9156027  48.4754662 113.8431214  92.3631386  48.9258812 115.1787068
 100.1569862  50.9883613 106.7315160  99.5057842  51.5737694 106.3449173
 100.9514225  51.5189808 106.7910197  94.0825489  48.0772750 107.1302294
  94.8556365  47.5301737 106.9915170  94.4350888  48.9417000 107.3416755
  95.9210532  49.4049133 120.3369193  95.6300398  50.3094763 120.2215859
  96.5567516  49.4465660 121.0513263  96.8466739  46.7825981 116.9270553
  97.4430311  46.5582004 116.2127516  96.9041710  46.0410727 117.5296001
  96.4191767  44.2365417 104.7620744  96.6717288  43.7146938 104.0004207
  95.4816326  44.0731562 104.8647427 101.4635050  43.2401195 112.5695487
 102.2498139  42.8220618 112.2185904 101.7273754  44.1447287 112.7377135
 101.6345127  48.6774045 107.2684144 100.9990960  48.7508672 107.9805048
 101.3042534  49.2667644 106.5903223  96.1388056  46.1393522 106.9645119
  96.0224314  45.4638426 107.6326203  96.2490316  45.6525896 106.1477272
  98.4819597  45.6003670 110.6691808  98.1177804  45.0734291 111.3804729
  99.3386713  45.2102139 110.4958293  98.1225084  40.6293569 105.6653156
  98.2899486  41.4973806 106.0323628  97.9322253  40.7920851 104.7414446
 100.8800417  49.0910548 117.3318987 100.5801140  49.9935587 117.2234794
 100.5351477  48.8242731 118.1840140  94.3312899  45.5424345 113.3655691
  93.4063395  45.4100559 113.5733383  94.5797312  46.3218564 113.8625634
  98.1014305  43.0851227 106.6499823  97.9813930  43.5308278 107.4885304
  97.4066893  43.4336544 106.0913361  91.6921710  45.1857619 114.1999480
  91.8214091  45.4392097 115.1138892  91.0119161  45.7785327 113.8804135
  95.8621197  55.8554869 110.2989955  95.7845227  56.8062694 110.3778435
  95.2582840  55.5100741 110.9564881 103.7999371  43.5572700 107.4780157
 104.7117227  43.7900087 107.3027855 103.2909018  44.1409744 106.9155236
 102.4068953  48.5398518 114.8693739 101.7777816  48.7044233 114.1669807
 102.0194615  48.9540128 115.6404703 106.2858185  49.4752956 112.2238103
 105.6009223  49.8551858 111.6735136 106.3702034  50.0848283 112.9570050
  97.9596915  48.2772926 112.1343824  98.4235261  48.5560629 111.3448446
  97.6953713  47.3756371 111.9516915  94.8520996  47.8244408 115.0723587
  95.4222353  48.2531676 114.4341072  95.4429108  47.5426993 115.7707773
  96.8965801  44.3996079 108.9433389  97.5989845  44.8517123 109.4107315
  96.5646430  43.7579898 109.5713282  90.6391135  42.6579632 114.2450523
  89.8490189  42.9137160 113.7690633  91.1302383  43.4727969 114.3502563
  92.5905881  43.0224211 111.2033999  91.7937044  43.1342905 111.7217495
  92.3631473  43.3610863 110.3374890  98.4211548  49.5468914 119.1516514
  98.4855981  50.0089321 119.9874686  97.7122472  48.9166279 119.2798824
  88.9228838  42.9110122 116.6765513  89.1736877  43.7957132 116.9423089
  89.4588387  42.7314723 115.9040605  98.1359566  51.2137021 109.0195494
  98.0005241  52.0588557 109.4480342  98.6769378  51.4156299 108.2561428
  91.5888963  48.7312460 109.5923419  92.1013484  49.5255710 109.7428984
  92.2411676  48.0338750 109.5257021  93.3983848  51.8478216 111.6746173
  93.5750476  52.7696180 111.4867156  94.1940681  51.5336635 112.1040552
  92.6836204  43.8942848 121.5508336  92.5689720  42.9928105 121.8515435
  91.8280722  44.1406544 121.1993152  94.5215163  53.3656390 117.6756515
  95.0722588  53.2373453 116.9033509  93.6826639  53.6651279 117.3251408
  98.3182334  49.6307517 122.0200746  98.8510671  48.8695806 121.7900054
  97.7896416  49.3381169 122.7624900  89.5537880  47.0601114 110.3682990
  90.3913102  47.4698122 110.1516698  89.7316148  46.1200556 110.3383184
 101.4502312  44.7276194 106.0566823 100.9348936  45.4980799 106.2955210
 101.1779621  44.0541331 106.6799884  99.0349423  39.5725895 111.1152061
  98.1791019  39.1832746 110.9357700  99.4476375  39.6517856 110.2551847
  96.8091456  37.1910968 114.5209803  97.6744452  36.9953777 114.1615692
  96.8768965  36.9621320 115.4479159 106.4236586  47.4808549 107.9919996
 105.6466029  47.1419709 107.5475158 107.1028067  47.4861172 107.3174961
 101.2388615  42.6003287 107.8826604 100.9338751  42.9149436 108.7336747
 102.1919057  42.6784706 107.9253937  99.6835047  48.7593510 109.5319558
  99.1556409  48.0246269 109.2192795  99.1822550  49.5368186 109.2859526
 104.6627893  46.9542530 114.6486604 104.0051568  47.6441792 114.7366733
 105.4668292  47.3438962 114.9920591  94.4153775  39.4213176 111.8926170
  94.9897527  39.1988358 111.1599362  95.0024757  39.4901871 112.6454771
 103.4733352  45.3086903 112.6990546 103.9865234  45.9416895 113.2012256
 104.1234576  44.7088099 112.3333906  94.7423362  41.4517637 105.9122055
  93.9060674  41.7892324 106.2331330  94.6028131  41.3166617 104.9749192
  96.7176442  36.2954425 110.6201239  96.0640855  35.9803442 109.9957854
  96.6756917  35.6730166 111.3461062  97.8287647  46.5773720 102.5354531
  96.9214709  46.3462974 102.7345680  98.3258679  45.7811339 102.7228513
 100.7355726  55.2871227 105.4551217 100.0617425  55.5902924 106.0636175
 101.1221548  56.0900308 105.1056674  99.9514183  42.7836359 114.9448887
  99.0336744  43.0051306 114.7870575 100.3674326  42.8582669 114.0860594
 100.7349231  44.1827774 110.0751567 101.4821050  44.6949171 109.7658689
 101.0040820  43.8611827 110.9355960  99.0075881  46.6786315 107.0578521
  98.0987100  46.3945348 107.1550991  99.0370965  47.0985394 106.1981828
 104.2395148  50.2892904 110.8269689 103.7857475  49.4483814 110.8834879
 103.6089115  50.9254303 111.1644469 103.1828068  41.2184891 112.0570356
 102.4450825  40.7062277 112.3880599 103.4354841  40.7785272 111.2453633
 102.6828087  52.1269401 111.7619507 102.9751062  52.6874458 111.0431872
 103.1926708  52.4197962 112.5172666  89.5764051  44.3991829 111.0393723
  89.3788451  43.8061190 110.3144790  89.0210715  44.0944039 111.7569662
  97.5560775  44.2914936 113.1588317  97.6109385  43.3388772 113.0830793
  96.7451977  44.4474375 113.6429615  98.7051969  48.2195059 104.3966600
  98.2671398  47.5030918 103.9372237  99.4462409  48.4471173 103.8351691
  95.4953135  42.9091995 110.9178695  94.6821000  43.2086166 111.3243888
  95.9912129  42.5147684 111.6353178  97.6461713  52.9049752 112.8512960
  97.6037891  53.1310599 111.9221492  98.5624411  52.6713127 112.9998761
 106.8225083  46.4952256 110.4542918 106.6842982  46.6853852 109.5264108
 106.4661302  47.2571639 110.9110969  94.9867209  40.4810351 116.5339930
  95.6266589  40.3399110 115.8362894  94.1544740  40.1944864 116.1578532
  95.7627513  49.7812781 112.6474923  96.5568112  49.2863101 112.4457498
  95.0519206  49.2530644 112.2842628 100.5822358  52.1630877 116.9987290
 100.6359380  52.7321813 117.7665006  99.7137139  52.3332762 116.6341328
  92.0710277  43.9255863 108.7234675  91.1407865  43.8640319 108.9404638
  92.1667749  43.4031816 107.9271317  91.9895826  40.4510676 111.3112917
  92.2502643  41.3656009 111.2022078  92.8112998  39.9835118 111.4609530
  93.4620751  41.8648433 118.4811742  94.1343805  41.6565795 117.8324391
  92.6350538  41.6670519 118.0416974  99.5410458  46.3291139 118.5574222
 100.4702518  46.4802298 118.3843190  99.1201488  46.4175160 117.7022869
  98.3398789  50.3541803 116.3272760  98.2009875  49.9860588 117.1998698
  97.5513386  50.8689443 116.1556718  98.9346941  55.4550900 107.6698296
  99.1098697  54.9838943 108.4843919  98.2479729  56.0816666 107.8979557
  99.8904005  49.7323406 113.7161598  99.5553837  49.6924176 114.6119248
  99.3907950  49.0668122 113.2432008  93.8648248  45.1391036 119.2414179
  93.7268046  44.4071275 119.8425718  94.7753172  45.0499936 118.9598367
 102.8263196  47.0779440 103.9898657 102.2092367  46.3526268 103.8931710
 102.3579685  47.8388801 103.6465732  96.4930549  44.8510995 118.7297858
  97.2030168  44.2104188 118.6884477  96.4499857  45.1023890 119.6524039
  93.5008027  58.6040263 114.4438157  93.7404625  59.2358787 115.1217175
  92.6577223  58.2528303 114.7303516  94.6161742  41.2964865 103.1119962
  93.7391208  41.1753665 102.7482208  95.0919495  40.5050943 102.8598850
  86.1363882  46.0842024 113.2061469  86.8234922  45.7703754 112.6182484
  85.9812011  46.9883389 112.9328720  90.9398604  40.9732221 117.6346492
  90.8556793  40.3657890 116.8996902  90.1181311  41.4641239 117.6355989
  98.0135888  54.4119385 116.8479661  97.9406060  55.2174356 117.3598965
  97.5713282  54.6111351 116.0227682  97.8025668  53.6491155 110.3582482
  97.0193190  54.1912835 110.4520707  98.5018413  54.1665135 110.7576723
 101.1122318  39.4585784 113.0016687 101.6091018  38.7055747 112.6817758
 100.3409300  39.4950101 112.4359897 100.4734572  54.3106219 119.0037819
 101.1862544  54.9453684 118.9313721  99.9824601  54.4070085 118.1877821
 102.1952099  48.2157472 110.5755111 101.2608378  48.3358934 110.4059815
 102.3728767  47.3129938 110.3115121  97.6957287  41.6003167 112.7288372
  97.3255074  41.0474208 113.4169278  98.1916379  40.9961301 112.1763372
 105.5824650  44.0574791 111.1105145 106.0485102  44.8902783 111.0365448
 106.0332151  43.5919773 111.8150404  95.5246486  52.0600662 119.8243390
  96.2255945  52.6937145 119.9772784  95.0541601  52.4015394 119.0639029
 103.6500881  50.4018612 108.1091297 103.9260725  50.2875207 109.0185171
 102.7805380  50.0036097 108.0703470 100.2854945  54.6504963 111.7524111
 100.4677340  53.8326619 112.2151863 101.1087931  54.8672655 111.3149001
 100.6197111  53.5773148 109.0139159 101.1484877  53.0665603 108.4009321
 100.8825330  53.2615678 109.8784692  91.1214204  51.5937017 116.7574493
  91.7067640  50.8480705 116.8902397  90.9239042  51.9040974 117.6411157
  93.9752859  54.6288265 111.7736935  93.3063234  55.1134393 111.2900975
  93.8365729  54.8757485 112.6880314  85.7131858  44.1642618 115.4778936
  85.7515958  43.6306208 116.2716054  85.2072151  43.6377823 114.8589913
  98.1158127  56.6632008 118.3719593  98.6676435  56.8263630 119.1368679
  98.4564321  57.2536446 117.6999618  93.0922621  39.0107158 118.9741478
  93.1563947  39.8721989 118.5618876  93.0289741  38.3981160 118.2413837
  89.3440436  42.8906720 108.5532867  89.6393877  41.9817398 108.4999921
  88.4428472  42.8694459 108.2313870 101.2526515  54.6113984 115.3583276
 101.1277654  53.8103724 114.8494221 101.9105606  55.1060177 114.8697246
  92.8734683  40.9662716 114.5360416  92.1521269  41.5798684 114.3967889
  93.6627939  41.5020481 114.4577062 103.3161423  52.4123004 116.9862826
 102.3691759  52.2928355 116.9141152 103.6644196  51.5245502 117.0689087
  91.0728278  40.5720818 108.6772192  90.7440984  39.6918196 108.4947298
  91.4267648  40.5168486 109.5648582 100.3207856  52.2075720 113.1867178
 100.1732819  51.2792428 113.3674748 101.1461350  52.2295811 112.7024253
  94.1870101  40.8593787 109.0447670  94.5266173  41.3879709 108.3226278
  94.6342221  41.1974193 109.8206237 103.9241978  53.0304279 114.2732051
 104.8488526  52.8247140 114.1356502 103.7557282  52.7820680 115.1821392
  96.1738248  39.3568409 107.2440963  96.8946610  39.7349662 106.7404680
  95.5503552  40.0757286 107.3475941 100.3169371  40.0613558 108.1799295
 100.5332985  40.9438196 107.8788123  99.8363438  39.6699771 107.4504937
  95.0568592  43.0199271 114.7570040  94.9113173  43.3339574 115.6494321
  94.5793796  43.6384171 114.2040938  96.9164975  40.0101819 114.8050929
  96.9026544  39.1142912 114.4683227  97.6337403  40.0172483 115.4389215
 103.7137294  53.5489946 109.6294142 103.8874172  52.9836369 108.8767995
 104.2066186  54.3490841 109.4473632  89.5314254  45.5604615 117.6957701
  88.9867722  46.3364423 117.8277975  90.4093604  45.9075420 117.5376822
  96.3201871  38.8916199 110.0738499  96.4417782  37.9632846 110.2729387
  96.0303913  38.9054885 109.1616815  99.1893061  36.5771110 113.2105219
  99.2114758  36.6410443 112.2557199  99.6061120  35.7375618 113.4045725
 109.5676686  46.3126369 111.2484442 110.0107832  45.5633695 110.8503565
 108.6903196  46.3036506 110.8658174 104.7012467  52.8656711 106.7291040
 105.3963372  53.4863403 106.9478355 105.0435617  52.0152062 107.0043418
  90.3180276  44.6874512 120.5887858  89.5762012  44.8357147 121.1752488
  89.9973020  44.9482777 119.7254607 106.6003890  50.3156416 108.2578371
 107.1255214  50.6543689 107.5327691 106.5126243  49.3803432 108.0741506
  98.2623939  54.2290490 120.3868248  98.5711065  53.9839637 121.2590947
  99.0599421  54.4337128 119.8987118  98.2844551  56.3828400 112.6173624
  97.8449541  55.8904778 113.3106481  99.0352668  55.8401367 112.3765700
  90.7636890  52.5739940 112.6198252  91.5894910  52.2743712 112.2396896
  90.4130942  51.8047563 113.0688041  95.7318423  51.9266409 114.6895926
  95.1098432  51.2637114 114.3898154  96.4023290  51.9527541 114.0069574
  88.9645495  50.4926267 113.5787186  88.1277403  50.0648441 113.3971187
  88.9369140  50.6858710 114.5157977  95.2931930  50.4770332 108.1654387
  95.4420050  51.1605796 107.5121059  96.0998373  50.4575422 108.6803842
  93.0484563  46.5035510 109.1715455  92.8030605  45.5997840 109.3695666
  93.2180477  46.5052660 108.2294933  92.3180210  42.2363867 106.6701617
  91.6249455  42.3108222 106.0141653  92.0731962  41.4724211 107.1923134
  98.7927335  52.9718462 105.6366134  98.2201302  53.5908650 105.1836606
  99.3660129  53.5217824 106.1706056 102.0124595  53.2555613 106.7674716
 102.9455268  53.1901174 106.9707592 101.9247808  54.0911879 106.3089249
 104.6412612  52.5721483 103.7278664 104.5626243  52.2381347 104.6214422
 105.4622279  53.0643251 103.7270136  99.1774134  44.3079275 102.9782186
 100.1233239  44.1785483 103.0470605  98.7988379  43.5693937 103.4551615
  97.3617051  42.2329252 102.9137072  96.4548506  41.9362364 102.9899785
  97.6393032  41.9359070 102.0471358  88.2794991  43.5535615 113.3636118
  87.9597776  42.7000923 113.0710492  87.7328420  43.7684193 114.1194085
  92.0574899  46.2698056 117.0805625  92.2760909  47.2015164 117.0993658
  92.4700673  45.9106030 117.8660428  98.9779117  36.7766141 109.0681313
  98.1679845  36.4313226 109.4436559  99.6663534  36.4673685 109.6568925
 100.9069665  35.8544188 110.6905610 101.4600704  36.2739642 111.3495633
 101.1439751  34.9279936 110.7328566  96.1315836  39.0916187 103.0549051
  96.9935000  39.4171085 103.3144868  96.3166180  38.3047683 102.5422117
  88.1483251  47.1738527 115.3329240  87.4546723  46.7592479 114.8199194
  88.8956242  47.2159063 114.7362659 104.2848472  37.9644713 110.1984274
 103.7047141  38.6229517 109.8162326 104.0184405  37.1422058 109.7871691
  90.0619994  47.1056780 113.2095255  90.0390682  47.2044468 112.2577138
  90.3720630  47.9521931 113.5312421  92.7207372  49.1632935 117.3241869
  93.6750625  49.1316878 117.2571801  92.5219895  48.7023559 118.1392095
  93.3106754  47.7334051 119.8912667  94.1299643  48.2278130 119.9147504
  93.5843562  46.8166020 119.8630234 103.0673350  40.1244804 109.2540622
 102.1799205  40.4094454 109.0360817 103.4827339  39.9638567 108.4067899
  91.0757601  54.7052555 114.3412067  90.9412069  53.9452956 113.7750065
  90.6589663  55.4293455 113.8740856 102.2116564  49.8889478 103.3488642
 102.9152414  50.0939481 103.9646298 101.4879212  50.4566240 103.6137726
 103.0414374  45.6399340 109.4690912 102.9849575  46.0967891 108.6298545
 103.5942716  44.8790024 109.2913755 106.8519180  41.4289072 110.2941032
 106.5956114  41.0285707 111.1249240 106.2272048  42.1432865 110.1691171
  94.2326726  55.6021872 114.5530510  94.1159111  56.5467304 114.4509200
  93.4119173  55.2995433 114.9416309 104.1203261  50.3272008 105.3987102
 104.9548865  49.8953206 105.2164577 103.9587604  50.1554021 106.3263997
 103.7749153  46.8304121 106.7643442 103.7197957  46.6648392 105.8231886
 103.1495208  47.5380154 106.9205631  88.5641668  42.0672185 120.5904864
  89.2100532  41.5571139 121.0792089  88.3558819  42.8040867 121.1648289
  97.0845279  36.3312230 106.3428760  97.0723948  37.2754070 106.4997031
  97.9768701  36.1482375 106.0488221  95.2581241  56.2550134 117.7686438
  96.1608487  56.2873744 118.0852933  95.0318611  55.3250585 117.7832774
  97.0134843  55.0081120 114.4296517  96.0630474  55.0082982 114.3160889
  97.3167329  54.2613855 113.9132551 105.4164058  62.6504563 111.4200695
 104.8528923  62.5594500 110.6516982 105.3016453  61.8304468 111.9003187
 102.9628490  64.1455755 114.2584915 103.7549782  63.8046579 113.8431214
 103.2025140  64.2550730 115.1787068 110.9963617  66.3175531 106.7315160
 110.3451597  66.9029611 106.3449173 111.7907980  66.8481726 106.7910197
 104.9219244  63.4064668 107.1302294 105.6950120  62.8593655 106.9915170
 105.2744643  64.2708917 107.3416755 107.2585522  59.5657334 104.7620744
 107.5111042  59.0438855 104.0004207 106.3210081  59.4023480 104.8647427
 112.3028805  58.5693113 112.5695487 113.0891894  58.1512536 112.2185904
 112.5667509  59.4739205 112.7377135 112.4738882  64.0065963 107.2684144
 111.8384715  64.0800589 107.9805048 112.1436288  64.5959562 106.5903223
 106.9781811  61.4685440 106.9645119 106.8618069  60.7930344 107.6326203
 107.0884070  60.9817814 106.1477272 109.3213351  60.9295587 110.6691808
 108.9571559  60.4026208 111.3804729 110.1780467  60.5394056 110.4958293
 108.9618838  55.9585487 105.6653156 109.1293241  56.8265723 106.0323628
 108.7716007  56.1212769 104.7414446 105.1706653  60.8716263 113.3655691
 104.2457150  60.7392477 113.5733383 105.4191066  61.6510482 113.8625634
 108.9408059  58.4143144 106.6499823 108.8207684  58.8600195 107.4885304
 108.2460648  58.7628462 106.0913361 102.5315464  60.5149536 114.1999480
 102.6607845  60.7684015 115.1138892 101.8512915  61.1077244 113.8804135
 114.6393125  58.8864618 107.4780157 115.5510982  59.1192004 107.3027855
 114.1302773  59.4701662 106.9155236 108.7990670  63.6064844 112.1343824
 109.2629015  63.8852547 111.3448446 108.5347468  62.7048289 111.9516915
 107.7359556  59.7287997 108.9433389 108.4383599  60.1809040 109.4107315
 107.4040184  59.0871815 109.5713282 101.4784890  57.9871549 114.2450523
 100.6883944  58.2429078 113.7690633 101.9696137  58.8019887 114.3502563
 103.4299635  58.3516128 111.2033999 102.6330798  58.4634823 111.7217495
 103.2025227  58.6902781 110.3374890  99.7622593  58.2402040 116.6765513
 100.0130631  59.1249050 116.9423089 100.2982141  58.0606641 115.9040605
 108.9753320  66.5428939 109.0195494 108.8398995  67.3880475 109.4480342
 109.5163133  66.7448217 108.2561428 102.4282718  64.0604377 109.5923419
 102.9407238  64.8547627 109.7428984 103.0805431  63.3630668 109.5257021
 104.2377602  67.1770133 111.6746173 104.4144231  68.0988098 111.4867156
 105.0334436  66.8628553 112.1040552 100.3931634  62.3893031 110.3682990
 101.2306856  62.7990040 110.1516698 100.5709902  61.4492474 110.3383184
 112.2896067  60.0568112 106.0566823 111.7742690  60.8272717 106.2955210
 112.0173375  59.3833248 106.6799884 109.8743178  54.9017813 111.1152061
 109.0184774  54.5124663 110.9357700 110.2870129  54.9809774 110.2551847
 107.6485210  52.5202886 114.5209803 108.5138207  52.3245695 114.1615692
 107.7162719  52.2913238 115.4479159 117.2630341  62.8100467 107.9919996
 116.4859784  62.4711626 107.5475158 117.9421822  62.8153090 107.3174961
 112.0782370  57.9295204 107.8826604 111.7732505  58.2441353 108.7336747
 113.0312812  58.0076624 107.9253937 110.5228802  64.0885428 109.5319558
 109.9950163  63.3538187 109.2192795 110.0216304  64.8660104 109.2859526
 105.2547529  54.7505094 111.8926170 105.8291281  54.5280275 111.1599362
 105.8418512  54.8193788 112.6454771 105.5817116  56.7809555 105.9122055
 104.7454429  57.1184241 106.2331330 105.4421886  56.6458535 104.9749192
 107.5570197  51.6246343 110.6201239 106.9034609  51.3095360 109.9957854
 107.5150671  51.0022083 111.3461062 108.6681402  61.9065638 102.5354531
 107.7608464  61.6754891 102.7345680 109.1652434  61.1103257 102.7228513
 111.5749481  70.6163145 105.4551217 110.9011179  70.9194842 106.0636175
 111.9615303  71.4192225 105.1056674 110.7907937  58.1128276 114.9448887
 109.8730499  58.3343223 114.7870575 111.2068081  58.1874587 114.0860594
 111.5742985  59.5119692 110.0751567 112.3214804  60.0241089 109.7658689
 111.8434575  59.1903745 110.9355960 109.8469635  62.0078233 107.0578521
 108.9380854  61.7237265 107.1550991 109.8764719  62.4277311 106.1981828
 114.0221822  56.5476808 112.0570356 113.2844579  56.0354194 112.3880599
 114.2748596  56.1077190 111.2453633 100.4157806  59.7283747 111.0393723
 100.2182205  59.1353108 110.3144790  99.8604470  59.4235957 111.7569662
 108.3954529  59.6206853 113.1588317 108.4503139  58.6680690 113.0830793
 107.5845731  59.7766292 113.6429615 109.5445723  63.5486976 104.3966600
 109.1065153  62.8322835 103.9372237 110.2856164  63.7763091 103.8351691
 106.3346889  58.2383913 110.9178695 105.5214755  58.5378084 111.3243888
 106.8305883  57.8439602 111.6353178 117.6618838  61.8244173 110.4542918
 117.5236736  62.0145769 109.5264108 117.3055057  62.5863556 110.9110969
 105.8260964  55.8102269 116.5339930 106.4660343  55.6691028 115.8362894
 104.9938495  55.5236782 116.1578532 106.6021268  65.1104699 112.6474923
 107.3961866  64.6155019 112.4457498 105.8912960  64.5822562 112.2842628
 102.9104031  59.2547781 108.7234675 101.9801619  59.1932236 108.9404638
 103.0061503  58.7323733 107.9271317 102.8289580  55.7802594 111.3112917
 103.0896398  56.6947927 111.2022078 103.6506753  55.3127036 111.4609530
 104.3014506  57.1940351 118.4811742 104.9737559  56.9857713 117.8324391
 103.4744292  56.9962437 118.0416974 109.7740696  70.7842817 107.6698296
 109.9492452  70.3130861 108.4843919 109.0873484  71.4108584 107.8979557
 113.6656951  62.4071358 103.9898657 113.0486121  61.6818186 103.8931710
 113.1973439  63.1680718 103.6465732 105.4555497  56.6256782 103.1119962
 104.5784963  56.5045583 102.7482208 105.9313250  55.8342861 102.8598850
  96.9757637  61.4133942 113.2061469  97.6628677  61.0995672 112.6182484
  96.8205765  62.3175307 112.9328720 101.7792359  56.3024139 117.6346492
 101.6950548  55.6949808 116.8996902 100.9575065  56.7933157 117.6355989
 111.9516073  54.7877702 113.0016687 112.4484772  54.0347664 112.6817758
 111.1803054  54.8242019 112.4359897 113.0345853  63.5449389 110.5755111
 112.1002132  63.6650852 110.4059815 113.2122522  62.6421856 110.3115121
 108.5351041  56.9295085 112.7288372 108.1648829  56.3766125 113.4169278
 109.0310134  56.3253219 112.1763372 116.4218405  59.3866709 111.1105145
 116.8878857  60.2194700 111.0365448 116.8725905  58.9211690 111.8150404
 114.4894636  65.7310530 108.1091297 114.7654480  65.6167124 109.0185171
 113.6199135  65.3328015 108.0703470 111.4590865  68.9065066 109.0139159
 111.9878632  68.3957520 108.4009321 111.7219085  68.5907596 109.8784692
  96.5525613  59.4934535 115.4778936  96.5909712  58.9598126 116.2716054
  96.0465906  58.9669741 114.8589913 103.9316375  54.3399076 118.9741478
 103.9957702  55.2013907 118.5618876 103.8683495  53.7273078 118.2413837
 100.1834190  58.2198638 108.5532867 100.4787631  57.3109316 108.4999921
  99.2822226  58.1986377 108.2313870 103.7128437  56.2954634 114.5360416
 102.9915023  56.9090602 114.3967889 104.5021693  56.8312399 114.4577062
 101.9122032  55.9012735 108.6772192 101.5834738  55.0210114 108.4947298
 102.2661403  55.8460404 109.5648582 105.0263855  56.1885705 109.0447670
 105.3659928  56.7171626 108.3226278 105.4735976  56.5266111 109.8206237
 107.0132002  54.6860327 107.2440963 107.7340365  55.0641579 106.7404680
 106.3897306  55.4049203 107.3475941 111.1563125  55.3905476 108.1799295
 111.3726740  56.2730113 107.8788123 110.6757192  54.9991689 107.4504937
 105.8962347  58.3491189 114.7570040 105.7506927  58.6631492 115.6494321
 105.4187550  58.9676089 114.2040938 107.7558729  55.3393737 114.8050929
 107.7420298  54.4434830 114.4683227 108.4731158  55.3464401 115.4389215
 100.3708009  60.8896533 117.6957701  99.8261477  61.6656341 117.8277975
 101.2487359  61.2367338 117.5376822 107.1595625  54.2208117 110.0738499
 107.2811537  53.2924763 110.2729387 106.8697668  54.2346803 109.1616815
 110.0286816  51.9063027 113.2105219 110.0508513  51.9702361 112.2557199
 110.4454875  51.0667536 113.4045725 115.5406221  68.1948628 106.7291040
 116.2357126  68.8155321 106.9478355 115.8829372  67.3443980 107.0043418
 117.4397645  65.6448334 108.2578371 117.9648969  65.9835607 107.5327691
 117.3519997  64.7095349 108.0741506 101.6030644  67.9031858 112.6198252
 102.4288664  67.6035630 112.2396896 101.2524696  67.1339481 113.0688041
  99.8039249  65.8218185 113.5787186  98.9671158  65.3940359 113.3971187
  99.7762895  66.0150628 114.5157977 106.1325684  65.8062250 108.1654387
 106.2813805  66.4897714 107.5121059 106.9392128  65.7867340 108.6803842
 103.8878317  61.8327427 109.1715455 103.6424359  60.9289757 109.3695666
 104.0574232  61.8344578 108.2294933 103.1573965  57.5655785 106.6701617
 102.4643210  57.6400140 106.0141653 102.9125717  56.8016129 107.1923134
 109.6321090  68.3010380 105.6366134 109.0595057  68.9200567 105.1836606
 110.2053884  68.8509742 106.1706056 112.8518350  68.5847530 106.7674716
 113.7849023  68.5193092 106.9707592 112.7641562  69.4203797 106.3089249
 115.4806366  67.9013401 103.7278664 115.4019998  67.5673264 104.6214422
 116.3016033  68.3935169 103.7270136 110.0167888  59.6371193 102.9782186
 110.9626993  59.5077401 103.0470605 109.6382133  58.8985855 103.4551615
 108.2010806  57.5621169 102.9137072 107.2942261  57.2654282 102.9899785
 108.4786787  57.2650987 102.0471358  99.1188746  58.8827533 113.3636118
  98.7991530  58.0292841 113.0710492  98.5722174  59.0976111 114.1194085
 109.8172871  52.1058059 109.0681313 109.0073600  51.7605144 109.4436559
 110.5057288  51.7965603 109.6568925 111.7463420  51.1836106 110.6905610
 112.2994458  51.6031559 111.3495633 111.9833506  50.2571854 110.7328566
 106.9709590  54.4208105 103.0549051 107.8328754  54.7463003 103.3144868
 107.1559934  53.6339600 102.5422117  98.9877006  62.5030444 115.3329240
  98.2940477  62.0884397 114.8199194  99.7349997  62.5450981 114.7362659
 115.1242227  53.2936631 110.1984274 114.5440896  53.9521435 109.8162326
 114.8578159  52.4713976 109.7871691 100.9013748  62.4348698 113.2095255
 100.8784437  62.5336385 112.2577138 101.2114385  63.2813849 113.5312421
 113.9067105  55.4536721 109.2540622 113.0192960  55.7386372 109.0360817
 114.3221094  55.2930485 108.4067899 113.0510318  65.2181396 103.3488642
 113.7546168  65.4231399 103.9646298 112.3272967  65.7858158 103.6137726
 113.8808128  60.9691257 109.4690912 113.8243330  61.4259809 108.6298545
 114.4336471  60.2081942 109.2913755 117.6912934  56.7580989 110.2941032
 117.4349869  56.3577625 111.1249240 117.0665802  57.4724783 110.1691171
 114.9597015  65.6563925 105.3987102 115.7942619  65.2245124 105.2164577
 114.7981358  65.4845939 106.3263997 114.6142908  62.1596039 106.7643442
 114.5591711  61.9940310 105.8231886 113.9888963  62.8672071 106.9205631
  99.4035423  57.3964103 120.5904864 100.0494286  56.8863057 121.0792089
  99.1952574  58.1332785 121.1648289 107.9239033  51.6604148 106.3428760
 107.9117703  52.6045987 106.4997031 108.8162455  51.4774293 106.0488221
 116.4210871  72.1101473 105.9122055 115.5848183  72.4476159 106.2331330
 116.2815640  71.9750452 104.9749192 116.2949251  71.9548700 103.1119962
 115.4178717  71.8337501 102.7482208 116.7707004  71.1634778 102.8598850
 113.9967719  72.8947703 106.6701617 113.3036964  72.9692058 106.0141653
 113.7519471  72.1308046 107.1923134 119.0404560  72.8913087 102.9137072
 118.1336015  72.5946200 102.9899785 119.3180541  72.5942905 102.0471358
 117.8103345  69.7500022 103.0549051 118.6722509  70.0754921 103.3144868
 117.9953689  68.9631518 102.5422117 118.7632788  66.9896065 106.3428760
 118.7511457  67.9337905 106.4997031 119.6556209  66.8066211 106.0488221
  74.1833689   2.2033156  97.0235261  74.1057719   3.1540981  97.1023742
  73.5795333   1.8579028  97.6810187  71.8220519   4.9518550 101.1683463
  72.0617117   5.5837074 101.8462482  70.9789715   4.6006590 101.4548822
  72.2965351   0.9766552  98.4982242  71.6275726   1.4612680  98.0146282
  72.1578221   1.2235773  99.4125620  76.4370620   3.0110296 105.0964900
  76.9888928   3.1741917 105.8613985  76.7776813   3.6014733 104.4244925
  69.3970093   1.0530842 101.0657374  69.2624561   0.2931243 100.4995372
  68.9802155   1.7771742 100.5986162  72.5539219   1.9500159 101.2775816
  72.4371603   2.8945592 101.1754506  71.7331665   1.6473721 101.6661615
  73.5793733   2.6028421 104.4931745  74.4820980   2.6352031 104.8098240
  73.3531103   1.6728872 104.5078080  87.8789735   7.1447374 102.1549110
  87.5408246   7.0288439 101.2669645  88.7479503   6.7438539 102.1350116
  83.7376550   8.9982850  98.1446001  83.1741415   8.9072787  97.3762289
  83.6228945   8.1782755  98.6248494  81.2840982  10.4934042 100.9830222
  82.0762274  10.1524867 100.5676521  81.5237632  10.6029017 101.9032375
  89.3176109  12.6653818  93.4560466  88.6664089  13.2507899  93.0694480
  90.1120472  13.1960013  93.5155504  83.2431736   9.7542955  93.8547601
  84.0162612   9.2071942  93.7160476  83.5957135  10.6187205  94.0662062
  85.0816779  11.0819338 107.0614500  84.7906645  11.9864968 106.9461166
  85.7173763  11.1235865 107.7758569  86.0072986   8.4596186 103.6515859
  86.6036558   8.2352208 102.9372822  86.0647957   7.7180932 104.2541307
  90.7951374  10.3544250  93.9929450  90.1597207  10.4278877  94.7050355
  90.4648781  10.9437849  93.3148530  85.2994303   7.8163727  93.6890425
  85.1830561   7.1408631  94.3571510  85.4096563   7.3296101  92.8722578
  87.6425844   7.2773874  97.3937115  87.2784051   6.7504495  98.1050036
  88.4992960   6.8872344  97.2203600  90.0406664  10.7680753 104.0564293
  89.7407387  11.6705792 103.9480101  89.6957723  10.5012936 104.9085446
  83.4919145   7.2194550 100.0900998  82.5669642   7.0870764 100.2978690
  83.7403559   7.9988769 100.5870940  80.8527956   6.8627823 100.9244787
  80.9820338   7.1162302 101.8384199  80.1725408   7.4555531 100.6049442
  85.0227444  17.5325073  97.0235261  84.9451473  18.4832899  97.1023742
  84.4189087  17.1870946  97.6810187  91.5675200  10.2168723 101.5939045
  90.9384062  10.3814437 100.8915113  91.1800862  10.6310333 102.3650009
  95.4464432  11.1523161  98.9483409  94.7615470  11.5322063  98.3980443
  95.5308281  11.7618488  99.6815357  87.1203162   9.9543131  98.8589131
  87.5841507  10.2330834  98.0693753  86.8559960   9.0526576  98.6762221
  84.0127243   9.5014613 101.7968894  84.5828600   9.9301881 101.1586378
  84.6035355   9.2197198 102.4953079  79.7997382   4.3349836 100.9695829
  79.0096436   4.5907365 100.4935940  80.2908629   5.1498174 101.0747870
  81.7512127   4.6994416  97.9279306  80.9543291   4.8113110  98.4462802
  81.5237720   5.0381068  97.0620196  87.5817795  11.2239119 105.8761821
  87.6462227  11.6859526 106.7119992  86.8728719  10.5936484 106.0044130
  78.0835085   4.5880327 103.4010820  78.3343123   5.4727337 103.6668396
  78.6194633   4.4084928 102.6285912  87.2965813  12.8907226  95.7440801
  87.1611487  13.7358762  96.1725649  87.8375625  13.0926504  94.9806735
  80.7495210  10.4082664  96.3168726  81.2619731  11.2025915  96.4674291
  81.4017923   9.7108955  96.2502327  82.5590095  13.5248421  98.3991479
  82.7356723  14.4466385  98.2112463  83.3546928  13.2106840  98.8285859
  81.8442451   5.5713053 108.2753642  81.7295966   4.6698310 108.5760741
  80.9886969   5.8176749 107.9238459  83.6821410  15.0426594 104.4001822
  84.2328835  14.9143658 103.6278815  82.8432886  15.3421484 104.0496714
  87.4788581  11.3077722 108.7446053  88.0116918  10.5466010 108.5145361
  86.9502662  11.0151374 109.4870207  78.7144127   8.7371319  97.0928297
  79.5519349   9.1468327  96.8762004  78.8922394   7.7970761  97.0628490
  88.8441294  10.4363715  96.2564865  88.3162655   9.7016474  95.9438102
  88.3428797  11.2138391  96.0104833  93.8234140   8.6312735 101.3731911
  93.1657814   9.3211997 101.4612040  94.6274539   9.0209167 101.7165897
  86.9893894   8.2543925  89.2599838  86.0820956   8.0233179  89.4590987
  87.4864926   7.4581544  89.4473819  89.8961973  16.9641432  92.1796524
  89.2223672  17.2673129  92.7881482  90.2827795  17.7670513  91.8301981
  88.1682128   8.3556520  93.7823828  87.2593347   8.0715553  93.8796298
  88.1977211   8.7755598  92.9227135  93.4001395  11.9663109  97.5514995
  92.9463722  11.1254019  97.6080186  92.7695362  12.6024508  97.8889775
  91.8434334  13.8039606  98.4864813  92.1357309  14.3644663  97.7677179
  92.3532955  14.0968167  99.2417973  78.7370298   6.0762034  97.7639030
  78.5394698   5.4831395  97.0390097  78.1816962   5.7714244  98.4814969
  87.8658215   9.8965264  91.1211906  87.4277645   9.1801123  90.6617544
  88.6068656  10.1241378  90.5596998  86.8067959  14.5819957  99.5758267
  86.7644138  14.8080804  98.6466799  87.7230658  14.3483332  99.7244068
  84.9233760  11.4582986  99.3720229  85.7174359  10.9633306  99.1702804
  84.2125453  10.9300849  99.0087935  89.7428605  13.8401082 103.7232597
  89.7965627  14.4092018 104.4910313  88.8743386  14.0102967 103.3586634
  81.2316524   5.6026068  95.4479982  80.3014112   5.5410523  95.6649944
  81.3273996   5.0802021  94.6516623  88.7016704   8.0061344 105.2819529
  89.6308764   8.1572503 105.1088496  88.2807734   8.0945365 104.4268175
  87.5005036  12.0312008 103.0518067  87.3616122  11.6630793 103.9244005
  86.7119632  12.5459648 102.8802024  88.0953188  17.1321105  94.3943603
  88.2704944  16.6609148  95.2089226  87.4085976  17.7586871  94.6224864
  89.0510251  11.4093611 100.4406904  88.7160084  11.3694381 101.3364554
  88.5514197  10.7438327  99.9677315  83.0254495   6.8161241 105.9659485
  82.8874293   6.0841480 106.5671024  83.9359419   6.7270141 105.6843673
  91.9869443   8.7549645  90.7143964  91.3698614   8.0296473  90.6177017
  91.5185931   9.5159006  90.3711038  85.6536796   6.5281200 105.4543165
  86.3636414   5.8874392 105.4129784  85.6106104   6.7794095 106.3769346
  82.6614273  20.2810467 101.1683463  82.9010872  20.9128992 101.8462482
  81.8183470  19.9298507 101.4548822  75.2970129   7.7612229  99.9306775
  75.9841169   7.4473959  99.3427791  75.1418258   8.6653594  99.6574027
  87.1742135  16.0889590 103.5724967  87.1012307  16.8944561 104.0844272
  86.7319528  16.2881556 102.7472989  86.9631915  15.3261360  97.0827789
  86.1799437  15.8683040  97.1766013  87.6624660  15.8435340  97.4822030
  89.6340819  15.9876424 105.7283126  90.3468791  16.6223889 105.6559027
  89.1430847  16.0840290 104.9123128  91.3558346   9.8927677  97.3000418
  90.4214624  10.0129139  97.1305122  91.5335014   8.9900143  97.0360427
  84.6852732  13.7370867 106.5488697  85.3862192  14.3707350 106.7018091
  84.2147847  14.0785599 105.7884336  92.8107128  12.0788817  94.8336604
  93.0866972  11.9645412  95.7430478  91.9411627  11.6806302  94.7948777
  89.4461192  16.3275168  98.4769417  89.6283587  15.5096824  98.9397170
  90.2694178  16.5442860  98.0394307  89.7803358  15.2543353  95.7384466
  90.3091124  14.7435808  95.1254628  90.0431577  14.9385883  96.6029999
  80.2820450  13.2707222 103.4819799  80.8673887  12.5250910 103.6147704
  80.0845289  13.5811179 104.3656463  83.1359106  16.3058470  98.4982242
  82.4669481  16.7904597  98.0146282  82.9971975  16.5527690  99.4125620
  74.8738105   5.8412823 102.2024243  74.9122205   5.3076413 102.9961361
  74.3678398   5.3148028 101.5835220  87.2764374  18.3402213 105.0964900
  87.8282682  18.5033835 105.8613985  87.6170568  18.9306651 104.4244925
  78.5046683   4.5676925  95.2778174  78.8000124   3.6587603  95.2245228
  77.6034718   4.5464664  94.9559176  90.4132761  16.2884189 102.0828582
  90.2883901  15.4873929 101.5739528  91.0711853  16.7830382 101.5942552
  92.4767670  14.0893209 103.7108132  91.5298005  13.9698560 103.6386459
  92.8250443  13.2015707 103.7934394  89.4814103  13.8845925  99.9112485
  89.3339066  12.9562633 100.0920055  90.3067597  13.9066016  99.4269560
  93.0848225  14.7074484 100.9977357  94.0094772  14.5017345 100.8601808
  92.9163528  14.4590885 101.9066699  92.8743541  15.2260151  96.3539449
  93.0480419  14.6606574  95.6013301  93.3672432  16.0261046  96.1718939
  78.6920501   7.2374820 104.4203008  78.1473969   8.0134628 104.5523282
  79.5699851   7.5845625 104.2622129  93.8618714  14.5426916  93.4536347
  94.5569618  15.1633608  93.6723662  94.2041864  13.6922267  93.7288725
  79.4786523   6.3644717 107.3133164  78.7368259   6.5127352 107.8997795
  79.1579267   6.6252982 106.4499914  95.7610137  11.9926621  94.9823678
  96.2861461  12.3313894  94.2572998  95.6732489  11.0573637  94.7986812
  87.4230185  15.9060695 107.1113554  87.7317312  15.6609842 107.9836254
  88.2205668  16.1107333 106.6232425  87.4450798  18.0598605  99.3418931
  87.0055788  17.5674983 100.0351788  88.1958915  17.5171572  99.1011006
  79.9243137  14.2510145  99.3443559  80.7501156  13.9513917  98.9642203
  79.5737189  13.4817768  99.7933348  84.8924670  13.6036614 101.4141233
  84.2704679  12.9407319 101.1143461  85.5629537  13.6297746 100.7314880
  78.1251742  12.1696472 100.3032493  77.2883650  11.7418646 100.1216494
  78.0975387  12.3628915 101.2403284  84.4538177  12.1540537  94.8899693
  84.6026297  12.8376001  94.2366366  85.2604620  12.1345627  95.4049149
  82.2090810   8.1805715  95.8960762  81.9636852   7.2768045  96.0940972
  82.3786724   8.1822865  94.9540240  87.9533582  14.6488667  92.3611441
  87.3807549  15.2678855  91.9081913  88.5266376  15.1988029  92.8951363
  91.1730842  14.9325818  93.4920023  92.1061515  14.8671379  93.6952898
  91.0854055  15.7682084  93.0334556  93.8018859  14.2491688  90.4523970
  93.7232490  13.9151551  91.3459728  94.6228525  14.7413456  90.4515443
  77.4401238   5.2305820 100.0881425  77.1204023   4.3771128  99.7955799
  76.8934666   5.4454398 100.8439392  81.2181146   7.9468261 103.8050931
  81.4367155   8.8785369 103.8238965  81.6306920   7.5876235 104.5905735
  77.3089498   8.8508731 102.0574546  76.6152970   8.4362684 101.5444501
  78.0562489   8.8929268 101.4607965  79.2226241   8.7826985  99.9340561
  79.1996929   8.8814673  98.9822444  79.5326877   9.6292136 100.2557727
  81.8813619  10.8403140 104.0487176  82.8356872  10.8087083 103.9817107
  81.6826142  10.3793764 104.8637402  82.4713001   9.4104256 106.6157973
  83.2905890   9.9048335 106.6392811  82.7449808   8.4936224 106.5875541
  80.2363847  16.3822760 101.0657374  80.1018315  15.6223161 100.4995372
  79.8195910  17.1063660 100.5986162  91.3722810  11.5659683  90.0733949
  92.0758660  11.7709686  90.6891604  90.6485459  12.1336445  90.3383032
  83.3932973  17.2792077 101.2775816  83.2765357  18.2237509 101.1754506
  82.5725420  16.9765638 101.6661615  93.2809508  12.0042212  92.1232409
  94.1155112  11.5723411  91.9409884  93.1193851  11.8324226  93.0509303
  92.9355400   8.5074326  93.4888748  92.8804204   8.3418597  92.5477192
  92.3101455   9.2150359  93.6450938  77.7247915   3.7442390 107.3150170
  78.3706779   3.2341344 107.8037396  77.5165066   4.4811072 107.8893596
  84.4187487  17.9320339 104.4931745  85.3214734  17.9643949 104.8098240
  84.1924857  17.0020790 104.5078080  86.1741089  16.6851325 101.1541823
  85.2236720  16.6853187 101.0406195  86.4773576  15.9384060 100.6377858
 101.9093783  22.5211864 102.2187586 102.5472193  22.4018611 101.5150926
 101.7914626  23.4692708 102.2775538  98.7183489  22.4739292 102.1549110
  98.3802001  22.3580356 101.2669645  99.5873257  22.0730457 102.1350116
  94.5770305  24.3274768  98.1446001  94.0135170  24.2364705  97.3762289
  94.4622700  23.5074673  98.6248494  92.1234737  25.8225960 100.9830222
  92.9156029  25.4816784 100.5676521  92.3631387  25.9320935 101.9032375
 100.1569864  27.9945736  93.4560466  99.5057843  28.5799816  93.0694480
 100.9514226  28.5251931  93.5155504  94.0825491  25.0834873  93.8547601
  94.8556367  24.5363860  93.7160476  94.4350890  25.9479122  94.0662062
  95.9210533  26.4111255 107.0614500  95.6300399  27.3156886 106.9461166
  96.5567518  26.4527783 107.7758569  96.8466740  23.7888104 103.6515859
  97.4430312  23.5644126 102.9372822  96.9041712  23.0472849 104.2541307
  96.4191769  21.2427539  91.4866050  96.6717289  20.7209060  90.7249513
  95.4816328  21.0793685  91.5892734 101.4635051  20.2463317  99.2940794
 102.2498141  19.8282741  98.9431211 101.7273756  21.1509410  99.4622442
 101.6345129  25.6836168  93.9929450 100.9990962  25.7570794  94.7050355
 101.3042535  26.2729767  93.3148530  96.1388057  23.1455645  93.6890425
  96.0224315  22.4700548  94.3571510  96.2490317  22.6588019  92.8722578
  98.4819598  22.6065792  97.3937115  98.1177805  22.0796413  98.1050036
  99.3386714  22.2164261  97.2203600  98.1225085  17.6355692  92.3898463
  98.2899488  18.5035928  92.7568934  97.9322254  17.7982974  91.4659752
 100.8800418  26.0972671 104.0564293 100.5801141  26.9997710 103.9480101
 100.5351478  25.8304854 104.9085446  94.3312900  22.5486468 100.0900998
  93.4063396  22.4162682 100.2978690  94.5797313  23.3280687 100.5870940
  98.1014306  20.0913349  93.3745130  97.9813931  20.5370400  94.2130610
  97.4066894  20.4398667  92.8158668  91.6921711  22.1919741 100.9244787
  91.8214092  22.4454220 101.8384199  91.0119162  22.7847449 100.6049442
  95.8621198  32.8616991  97.0235261  95.7845228  33.8124816  97.1023742
  95.2582842  32.5162864  97.6810187 103.7999372  20.5634823  94.2025464
 104.7117228  20.7962209  94.0273162 103.2909019  21.1471867  93.6400543
 102.4068955  25.5460641 101.5939045 101.7777817  25.7106355 100.8915113
 102.0194617  25.9602251 102.3650009 106.2858186  26.4815079  98.9483409
 105.6009225  26.8613980  98.3980443 106.3702036  27.0910405  99.6815357
  97.9596916  25.2835049  98.8589131  98.4235262  25.5622752  98.0693753
  97.6953715  24.3818494  98.6762221  94.8520997  24.8306531 101.7968894
  95.4222355  25.2593799 101.1586378  95.4429109  24.5489115 102.4953079
  96.8965802  21.4058201  95.6678696  97.5989846  21.8579245  96.1352622
  96.5646431  20.7642020  96.2958589  90.6391136  19.6641754 100.9695829
  89.8490190  19.9199283 100.4935940  91.1302384  20.4790092 101.0747870
  92.5905882  20.0286333  97.9279306  91.7937045  20.1405028  98.4462802
  92.3631474  20.3672986  97.0620196  98.4211549  26.5531037 105.8761821
  98.4855982  27.0151444 106.7119992  97.7122473  25.9228401 106.0044130
  88.9228839  19.9172245 103.4010820  89.1736878  20.8019254 103.6668396
  89.4588388  19.7376846 102.6285912  98.1359567  28.2199144  95.7440801
  98.0005242  29.0650680  96.1725649  98.6769380  28.4218422  94.9806735
  91.5888964  25.7374582  96.3168726  92.1013485  26.5317832  96.4674291
  92.2411677  25.0400873  96.2502327  93.3983849  28.8540338  98.3991479
  93.5750478  29.7758303  98.2112463  94.1940683  28.5398758  98.8285859
  92.6836206  20.9004970 108.2753642  92.5689721  19.9990227 108.5760741
  91.8280723  21.1468667 107.9238459  94.5215165  30.3718512 104.4001822
  95.0722590  30.2435576 103.6278815  93.6826641  30.6713401 104.0496714
  98.3182336  26.6369640 108.7446053  98.8510672  25.8757928 108.5145361
  97.7896417  26.3443292 109.4870207  89.5537881  24.0663236  97.0928297
  90.3913103  24.4760245  96.8762004  89.7316149  23.1262679  97.0628490
 101.4502313  21.7338317  92.7812130 100.9348937  22.5042922  93.0200517
 101.1779622  21.0603453  93.4045191  99.0349424  16.5788018  97.8397368
  98.1791021  16.1894868  97.6603007  99.4476376  16.6579979  96.9797153
  96.8091457  14.1973091 101.2455109  97.6744454  14.0015900 100.8860999
  96.8768966  13.9683443 102.1724466 106.4236587  24.4870672  94.7165303
 105.6466030  24.1481831  94.2720465 107.1028068  24.4923295  94.0420268
 101.2388617  19.6065409  94.6071911 100.9338752  19.9211558  95.4582054
 102.1919059  19.6846829  94.6499244  99.6835048  25.7655632  96.2564865
  99.1556410  25.0308392  95.9438102  99.1822551  26.5430309  96.0104833
 104.6627894  23.9604653 101.3731911 104.0051569  24.6503914 101.4612040
 105.4668294  24.3501085 101.7165897  94.4153776  16.4275299  98.6171476
  94.9897528  16.2050480  97.8844669  95.0024758  16.4963993  99.3700077
 103.4733353  22.3149026  99.4235853 103.9865235  22.9479017  99.9257562
 104.1234577  21.7150221  99.0579213  94.7423363  18.4579760  92.6367361
  93.9060675  18.7954446  92.9576636  94.6028133  18.3228740  91.6994498
  96.7176444  13.3016548  97.3446546  96.0640856  12.9865565  96.7203160
  96.6756918  12.6792288  98.0706369  97.8287649  23.5835843  89.2599838
  96.9214710  23.3525096  89.4590987  98.3258681  22.7873462  89.4473819
 100.7355727  32.2933350  92.1796524 100.0617426  32.5965047  92.7881482
 101.1221549  33.0962430  91.8301981  99.9514184  19.7898481 101.6694193
  99.0336745  20.0113428 101.5115881 100.3674328  19.8644792 100.8105901
 100.7349232  21.1889897  96.7996873 101.4821051  21.7011294  96.4903996
 101.0040821  20.8673950  97.6601267  99.0075882  23.6848438  93.7823828
  98.0987101  23.4007470  93.8796298  99.0370966  24.1047516  92.9227135
 104.2395149  27.2955027  97.5514995 103.7857477  26.4545937  97.6080186
 103.6089116  27.9316425  97.8889775 103.1828069  18.2247013  98.7815663
 102.4450826  17.7124399  99.1125905 103.4354843  17.7847395  97.9698940
 102.6828089  29.1331524  98.4864813 102.9751063  29.6936581  97.7677179
 103.1926709  29.4260085  99.2417973  89.5764052  21.4053952  97.7639030
  89.3788452  20.8123312  97.0390097  89.0210716  21.1006162  98.4814969
  97.5560776  21.2977058  99.8833623  97.6109386  20.3450895  99.8076100
  96.7451978  21.4536497 100.3674922  98.7051970  25.2257181  91.1211906
  98.2671400  24.5093040  90.6617544  99.4462411  25.4533296  90.5596998
  95.4953136  19.9154118  97.6424002  94.6821002  20.2148288  98.0489194
  95.9912130  19.5209807  98.3598484  97.6461714  29.9111875  99.5758267
  97.6037893  30.1372721  98.6466799  98.5624413  29.6775249  99.7244068
 106.8225085  23.5014378  97.1788225 106.6842983  23.6915974  96.2509414
 106.4661303  24.2633761  97.6356276  94.9867211  17.4872473 103.2585237
  95.6266590  17.3461233 102.5608200  94.1544741  17.2006987 102.8823839
  95.7627515  26.7874904  99.3720229  96.5568113  26.2925224  99.1702804
  95.0519207  26.2592767  99.0087935 100.5822359  29.1692999 103.7232597
 100.6359381  29.7383936 104.4910313  99.7137140  29.3394884 103.3586634
  92.0710278  20.9317986  95.4479982  91.1407866  20.8702441  95.6649944
  92.1667750  20.4093938  94.6516623  91.9895827  17.4572798  98.0358224
  92.2502644  18.3718132  97.9267384  92.8112999  16.9897241  98.1854837
  93.4620752  18.8710556 105.2057048  94.1343806  18.6627918 104.5569697
  92.6350539  18.6732642 104.7662281  99.5410459  23.3353261 105.2819529
 100.4702519  23.4864421 105.1088496  99.1201489  23.4237282 104.4268175
  98.3398791  27.3603926 103.0518067  98.2009876  26.9922710 103.9244005
  97.5513387  27.8751565 102.8802024  98.9346943  32.4613022  94.3943603
  99.1098698  31.9901066  95.2089226  98.2479731  33.0878789  94.6224864
  99.8904006  26.7385529 100.4406904  99.5553838  26.6986299 101.3364554
  99.3907951  26.0730244  99.9677315  93.8648250  22.1453159 105.9659485
  93.7268048  21.4133397 106.5671024  94.7753173  22.0562059 105.6843673
 102.8263197  24.0841563  90.7143964 102.2092368  23.3588391  90.6177017
 102.3579686  24.8450923  90.3711038  96.4930550  21.8573118 105.4543165
  97.2030169  21.2166310 105.4129784  96.4499859  22.1086013 106.3769346
  93.5008028  35.6102385 101.1683463  93.7404626  36.2420909 101.8462482
  92.6577224  35.2590425 101.4548822  94.6161743  18.3026987  89.8365268
  93.7391210  18.1815788  89.4727515  95.0919496  17.5113066  89.5844157
  86.1363883  23.0904147  99.9306775  86.8234923  22.7765877  99.3427791
  85.9812012  23.9945512  99.6574027  90.9398606  17.9794344 104.3591799
  90.8556794  17.3720013 103.6242209  90.1181312  18.4703362 104.3601295
  98.0135890  31.4181508 103.5724967  97.9406061  32.2236479 104.0844272
  97.5713283  31.6173473 102.7472989  97.8025669  30.6553278  97.0827789
  97.0193191  31.1974958  97.1766013  98.5018415  31.1727257  97.4822030
 101.1122319  16.4647907  99.7261994 101.6091019  15.7117869  99.4063064
 100.3409301  16.5012224  99.1605203 100.4734573  31.3168342 105.7283126
 101.1862545  31.9515806 105.6559027  99.9824602  31.4132208 104.9123128
 102.1952100  25.2219594  97.3000418 101.2608379  25.3421057  97.1305122
 102.3728769  24.3192061  97.0360427  97.6957288  18.6065290  99.4533679
  97.3255076  18.0536330 100.1414584  98.1916381  18.0023424  98.9008679
 105.5824652  21.0636914  97.8350452 106.0485104  21.8964905  97.7610754
 106.0332152  20.5981895  98.5395710  95.5246487  29.0662785 106.5488697
  96.2255946  29.6999268 106.7018091  95.0541602  29.4077517 105.7884336
 103.6500883  27.4080735  94.8336604 103.9260727  27.2937329  95.7430478
 102.7805381  27.0098220  94.7948777 100.2854947  31.6567086  98.4769417
 100.4677341  30.8388742  98.9397170 101.1087933  31.8734778  98.0394307
 100.6197112  30.5835271  95.7384466 101.1484879  30.0727725  95.1254628
 100.8825332  30.2677801  96.6029999  91.1214205  28.5999140 103.4819799
  91.7067642  27.8542828 103.6147704  90.9239043  28.9103097 104.3656463
  93.9752860  31.6350387  98.4982242  93.3063235  32.1196515  98.0146282
  93.8365730  31.8819608  99.4125620  85.7131860  21.1704740 102.2024243
  85.7515959  20.6368331 102.9961361  85.2072152  20.6439946 101.5835220
  98.1158129  33.6694131 105.0964900  98.6676437  33.8325753 105.8613985
  98.4564322  34.2598569 104.4244925  93.0922622  16.0169281 105.6986785
  93.1563948  16.8784112 105.2864182  93.0289742  15.4043282 104.9659143
  89.3440437  19.8968842  95.2778174  89.6393878  18.9879521  95.2245228
  88.4428473  19.8756582  94.9559176 101.2526516  31.6176107 102.0828582
 101.1277655  30.8165846 101.5739528 101.9105607  32.1122300 101.5942552
  92.8734684  17.9724839 101.2605722  92.1521270  18.5860807 101.1213196
  93.6627940  18.5082604 101.1822368 103.3161424  29.4185127 103.7108132
 102.3691760  29.2990478 103.6386459 103.6644197  28.5307625 103.7934394
  91.0728279  17.5782940  95.4017499  90.7440985  16.6980319  95.2192605
  91.4267649  17.5230609  96.2893888 100.3207858  29.2137843  99.9112485
 100.1732820  28.2854550 100.0920055 101.1461351  29.2357934  99.4269560
  94.1870102  17.8655910  95.7692977  94.5266174  18.3941831  95.0471585
  94.6342222  18.2036316  96.5451543 103.9241979  30.0366402 100.9977357
 104.8488527  29.8309263 100.8601808 103.7557283  29.7882803 101.9066699
  96.1738249  16.3630532  93.9686269  96.8946612  16.7411784  93.4649986
  95.5503553  17.0819408  94.0721247 100.3169372  17.0675680  94.9044602
 100.5332986  17.9500318  94.6033430  99.8363439  16.6761894  94.1750244
  95.0568593  20.0261394 101.4815346  94.9113174  20.3401697 102.3739628
  94.5793797  20.6446294 100.9286245  96.9164976  17.0163942 101.5296236
  96.9026545  16.1205035 101.1928534  97.6337404  17.0234605 102.1634522
 103.7137296  30.5552069  96.3539449 103.8874173  29.9898491  95.6013301
 104.2066187  31.3552964  96.1718939  89.5314255  22.5666738 104.4203008
  88.9867724  23.3426546 104.5523282  90.4093605  22.9137543 104.2622129
  96.3201872  15.8978322  96.7983806  96.4417783  14.9694968  96.9974694
  96.0303915  15.9117008  95.8862122  99.1893063  13.5833232  99.9350526
  99.2114759  13.6472565  98.9802505  99.6061122  12.7437741 100.1291032
 109.5676687  23.3188492  97.9729749 110.0107833  22.5695817  97.5748872
 108.6903197  23.3098628  97.5903481 104.7012468  29.8718833  93.4536347
 105.3963373  30.4925526  93.6723662 105.0435618  29.0214185  93.7288725
  90.3180277  21.6936634 107.3133164  89.5762013  21.8419270 107.8997795
  89.9973022  21.9544900 106.4499914 106.6003891  27.3218539  94.9823678
 107.1255215  27.6605812  94.2572998 106.5126244  26.3865554  94.7986812
  98.2623940  31.2352613 107.1113554  98.5711066  30.9901759 107.9836254
  99.0599422  31.4399251 106.6232425  98.2844552  33.3890522  99.3418931
  97.8449542  32.8966901 100.0351788  99.0352669  32.8463490  99.1011006
  90.7636891  29.5802063  99.3443559  91.5894911  29.2805835  98.9642203
  90.4130943  28.8109686  99.7933348  95.7318424  28.9328531 101.4141233
  95.1098433  28.2699236 101.1143461  96.4023291  28.9589663 100.7314880
  88.9645496  27.4988390 100.3032493  88.1277404  27.0710564 100.1216494
  88.9369141  27.6920833 101.2403284  95.2931931  27.4832455  94.8899693
  95.4420051  28.1667919  94.2366366  96.0998375  27.4637545  95.4049149
  93.0484564  23.5097632  95.8960762  92.8030606  22.6059962  96.0940972
  93.2180479  23.5114783  94.9540240  92.3180212  19.2425990  93.3946924
  91.6249457  19.3170345  92.7386960  92.0731964  18.4786333  93.9168441
  98.7927337  29.9780585  92.3611441  98.2201304  30.5970772  91.9081913
  99.3660130  30.5279947  92.8951363 102.0124596  30.2617735  93.4920023
 102.9455270  30.1963297  93.6952898 101.9247809  31.0974002  93.0334556
 104.6412613  29.5783606  90.4523970 104.5626245  29.2443469  91.3459728
 105.4622280  30.0705373  90.4515443  99.1774135  21.3141398  89.7027493
 100.1233240  21.1847606  89.7715911  98.7988380  20.5756060  90.1796921
  97.3617052  19.2391374  89.6382378  96.4548508  18.9424487  89.7145092
  97.6393033  18.9421192  88.7716665  88.2794993  20.5597738 100.0881425
  87.9597777  19.7063046  99.7955799  87.7328421  20.7746316 100.8439392
  92.0574900  23.2760179 103.8050931  92.2760910  24.2077286 103.8238965
  92.4700674  22.9168153 104.5905735  98.9779118  13.7828264  95.7926620
  98.1679846  13.4375349  96.1681866  99.6663535  13.4735808  96.3814231
 100.9069666  12.8606311  97.4150916 101.4600705  13.2801764  98.0740939
 101.1439753  11.9342059  97.4573872  96.1315837  16.0978309  89.7794358
  96.9935001  16.4233208  90.0390175  96.3166181  15.3109805  89.2667423
  88.1483253  24.1800649 102.0574546  87.4546724  23.7654602 101.5444501
  88.8956244  24.2221186 101.4607965 104.2848473  14.9706836  96.9229581
 103.7047142  15.6291640  96.5407633 104.0184406  14.1484181  96.5116998
  90.0619995  24.1118903  99.9340561  90.0390683  24.2106590  98.9822444
  90.3720632  24.9584054 100.2557727  92.7207373  26.1695058 104.0487176
  93.6750627  26.1379000 103.9817107  92.5219897  25.7085682 104.8637402
  93.3106755  24.7396174 106.6157973  94.1299644  25.2340253 106.6392811
  93.5843563  23.8228142 106.5875541 103.0673351  17.1306926  95.9785929
 102.1799206  17.4156577  95.7606124 103.4827340  16.9700690  95.1313206
  91.0757602  31.7114677 101.0657374  90.9412070  30.9515078 100.4995372
  90.6589664  32.4355577 100.5986162 102.2116565  26.8951601  90.0733949
 102.9152415  27.1001603  90.6891604 101.4879214  27.4628363  90.3383032
 103.0414375  22.6461462  96.1936219 102.9849577  23.1030014  95.3543851
 103.5942718  21.8852147  96.0159062 106.8519181  18.4351194  97.0186338
 106.5956115  18.0347830  97.8494546 106.2272049  19.1494988  96.8936478
  94.2326728  32.6083994 101.2775816  94.1159112  33.5529427 101.1754506
  93.4119174  32.3057556 101.6661615 104.1203262  27.3334130  92.1232409
 104.9548866  26.9015329  91.9409884 103.9587605  27.1616144  93.0509303
 103.7749154  23.8366243  93.4888748 103.7197958  23.6710515  92.5477192
 103.1495210  24.5442276  93.6450938  88.5641669  19.0734308 107.3150170
  89.2100533  18.5633262 107.8037396  88.3558821  19.8102990 107.8893596
  97.0845280  13.3374352  93.0674067  97.0723950  14.2816192  93.2242337
  97.9768702  13.1544498  92.7733528  95.2581242  33.2612256 104.4931745
  96.1608489  33.2935867 104.8098240  95.0318612  32.3312707 104.5078080
  97.0134844  32.0143243 101.1541823  96.0630475  32.0145105 101.0406195
  97.3167330  31.2675977 100.6377858 112.7487537  37.8503781 102.2187586
 113.3865947  37.7310529 101.5150926 112.6308380  38.7984625 102.2775538
 109.5577244  37.8031209 102.1549110 109.2195755  37.6872274 101.2669645
 110.4267012  37.4022374 102.1350116 105.4164059  39.6566686  98.1446001
 104.8528924  39.5656623  97.3762289 105.3016454  38.8366590  98.6248494
 102.9628491  41.1517877 100.9830222 103.7549783  40.8108702 100.5676521
 103.2025141  41.2612852 101.9032375 110.9963618  43.3237654  93.4560466
 110.3451598  43.9091734  93.0694480 111.7907981  43.8543848  93.5155504
 104.9219245  40.4126791  93.8547601 105.6950121  39.8655778  93.7160476
 105.2744644  41.2771040  94.0662062 106.7604288  41.7403173 107.0614500
 106.4694154  42.6448804 106.9461166 107.3961272  41.7819701 107.7758569
 107.6860495  39.1180021 103.6515859 108.2824067  38.8936044 102.9372822
 107.7435466  38.3764767 104.2541307 107.2585523  36.5719457  91.4866050
 107.5111044  36.0500978  90.7249513 106.3210082  36.4085602  91.5892734
 112.3028806  35.5755235  99.2940794 113.0891895  35.1574658  98.9431211
 112.5667510  36.4801327  99.4622442 112.4738883  41.0128085  93.9929450
 111.8384716  41.0862712  94.7050355 112.1436290  41.6021684  93.3148530
 106.9781812  38.4747563  93.6890425 106.8618070  37.7992466  94.3571510
 107.0884072  37.9879937  92.8722578 109.3213353  37.9357710  97.3937115
 108.9571560  37.4088331  98.1050036 110.1780469  37.5456179  97.2203600
 108.9618840  32.9647610  92.3898463 109.1293242  33.8327846  92.7568934
 108.7716009  33.1274891  91.4659752 111.7194173  41.4264588 104.0564293
 111.4194896  42.3289627 103.9480101 111.3745232  41.1596772 104.9085446
 105.1706654  37.8778385 100.0900998 104.2457151  37.7454599 100.2978690
 105.4191068  38.6572605 100.5870940 108.9408061  35.4205267  93.3745130
 108.8207686  35.8662318  94.2130610 108.2460649  35.7690585  92.8158668
 102.5315465  37.5211659 100.9244787 102.6607847  37.7746138 101.8384199
 101.8512917  38.1139367 100.6049442 106.7014953  48.1908909  97.0235261
 106.6238982  49.1416734  97.1023742 106.0976596  47.8454781  97.6810187
 114.6393127  35.8926740  94.2025464 115.5510983  36.1254127  94.0273162
 114.1302774  36.4763784  93.6400543 113.2462709  40.8752559 101.5939045
 112.6171571  41.0398273 100.8915113 112.8588371  41.2894168 102.3650009
 117.1251941  41.8106997  98.9483409 116.4402979  42.1905898  98.3980443
 117.2095790  42.4202323  99.6815357 108.7990671  40.6126967  98.8589131
 109.2629016  40.8914670  98.0693753 108.5347469  39.7110411  98.6762221
 105.6914752  40.1598448 101.7968894 106.2616109  40.5885717 101.1586378
 106.2822864  39.8781033 102.4953079 107.7359557  36.7350119  95.6678696
 108.4383600  37.1871163  96.1352622 107.4040185  36.0933938  96.2958589
 101.4784891  34.9933672 100.9695829 100.6883945  35.2491200 100.4935940
 101.9696138  35.8082010 101.0747870 103.4299636  35.3578251  97.9279306
 102.6330800  35.4696945  98.4462802 103.2025228  35.6964903  97.0620196
 109.2605304  41.8822954 105.8761821 109.3249736  42.3443361 106.7119992
 108.5516228  41.2520319 106.0044130  99.7622594  35.2464162 103.4010820
 100.0130632  36.1311172 103.6668396 100.2982142  35.0668764 102.6285912
 108.9753322  43.5491062  95.7440801 108.8398996  44.3942597  96.1725649
 109.5163134  43.7510339  94.9806735 102.4282719  41.0666500  96.3168726
 102.9407240  41.8609750  96.4674291 103.0805432  40.3692790  96.2502327
 104.2377604  44.1832256  98.3991479 104.4144232  45.1050221  98.2112463
 105.0334437  43.8690675  98.8285859 103.5229960  36.2296888 108.2753642
 103.4083475  35.3282145 108.5760741 102.6674478  36.4760585 107.9238459
 105.3608919  45.7010430 104.4001822 105.9116344  45.5727493 103.6278815
 104.5220395  46.0005319 104.0496714 109.1576090  41.9661558 108.7446053
 109.6904427  41.2049846 108.5145361 108.6290171  41.6735209 109.4870207
 100.3931636  39.3955154  97.0928297 101.2306858  39.8052162  96.8762004
 100.5709903  38.4554596  97.0628490 112.2896068  37.0630235  92.7812130
 111.7742691  37.8334839  93.0200517 112.0173376  36.3895371  93.4045191
 109.8743179  31.9079936  97.8397368 109.0184775  31.5186786  97.6603007
 110.2870131  31.9871896  96.9797153 107.6485211  29.5265008 101.2455109
 108.5138208  29.3307817 100.8860999 107.7162720  29.2975360 102.1724466
 117.2630342  39.8162589  94.7165303 116.4859785  39.4773749  94.2720465
 117.9421823  39.8215213  94.0420268 112.0782371  34.9357327  94.6071911
 111.7732507  35.2503476  95.4582054 113.0312813  35.0138747  94.6499244
 110.5228803  41.0947550  96.2564865 109.9950164  40.3600310  95.9438102
 110.0216306  41.8722226  96.0104833 115.5021649  39.2896571 101.3731911
 114.8445323  39.9795832 101.4612040 116.3062048  39.6793003 101.7165897
 105.2547530  31.7567216  98.6171476 105.8291282  31.5342398  97.8844669
 105.8418513  31.8255911  99.3700077 114.3127108  37.6440943  99.4235853
 114.8258989  38.2770935  99.9257562 114.9628332  37.0442139  99.0579213
 105.5817118  33.7871677  92.6367361 104.7454430  34.1246364  92.9576636
 105.4421887  33.6520657  91.6994498 107.5570198  28.6308465  97.3446546
 106.9034611  28.3157482  96.7203160 107.5150672  28.0084206  98.0706369
 108.6681403  38.9127760  89.2599838 107.7608465  38.6817014  89.4590987
 109.1652435  38.1165380  89.4473819 111.5749482  47.6225268  92.1796524
 110.9011181  47.9256964  92.7881482 111.9615304  48.4254348  91.8301981
 110.7907939  35.1190399 101.6694193 109.8730500  35.3405346 101.5115881
 111.2068082  35.1936709 100.8105901 111.5742986  36.5181815  96.7996873
 112.3214805  37.0303212  96.4903996 111.8434576  36.1965867  97.6601267
 109.8469636  39.0140355  93.7823828 108.9380856  38.7299388  93.8796298
 109.8764720  39.4339434  92.9227135 115.0788904  42.6246945  97.5514995
 114.6251231  41.7837855  97.6080186 114.4482871  43.2608343  97.8889775
 114.0221823  33.5538931  98.7815663 113.2844580  33.0416317  99.1125905
 114.2748597  33.1139312  97.9698940 113.5221843  44.4623441  98.4864813
 113.8144818  45.0228499  97.7677179 114.0320464  44.7552002  99.2417973
 100.4157807  36.7345869  97.7639030 100.2182207  36.1415230  97.0390097
  99.8604471  36.4298080  98.4814969 108.3954531  36.6268976  99.8833623
 108.4503140  35.6742812  99.8076100 107.5845733  36.7828415 100.3674922
 109.5445724  40.5549099  91.1211906 109.1065154  39.8384958  90.6617544
 110.2856165  40.7825214  90.5596998 106.3346890  35.2446036  97.6424002
 105.5214756  35.5440206  98.0489194 106.8305885  34.8501724  98.3598484
 108.4855468  45.2403793  99.5758267 108.4431647  45.4664639  98.6466799
 109.4018167  45.0067167  99.7244068 117.6618839  38.8306296  97.1788225
 117.5236738  39.0207892  96.2509414 117.3055058  39.5925679  97.6356276
 105.8260965  32.8164391 103.2585237 106.4660345  32.6753150 102.5608200
 104.9938496  32.5298905 102.8823839 106.6021269  42.1166822  99.3720229
 107.3961868  41.6217142  99.1702804 105.8912962  41.5884685  99.0087935
 111.4216114  44.4984917 103.7232597 111.4753136  45.0675853 104.4910313
 110.5530895  44.6686802 103.3586634 102.9104033  36.2609903  95.4479982
 101.9801621  36.1994359  95.6649944 103.0061505  35.7385856  94.6516623
 102.8289582  32.7864716  98.0358224 103.0896399  33.7010049  97.9267384
 103.6506754  32.3189159  98.1854837 104.3014507  34.2002473 105.2057048
 104.9737560  33.9919835 104.5569697 103.4744293  34.0024559 104.7662281
 110.3804213  38.6645179 105.2819529 111.3096273  38.8156339 105.1088496
 109.9595243  38.7529200 104.4268175 109.1792545  42.6895844 103.0518067
 109.0403631  42.3214628 103.9244005 108.3907141  43.2043483 102.8802024
 109.7740697  47.7904940  94.3943603 109.9492453  47.3192983  95.2089226
 109.0873485  48.4170706  94.6224864 110.7297760  42.0677446 100.4406904
 110.3947593  42.0278216 101.3364554 110.2301706  41.4022162  99.9677315
 104.7042004  37.4745076 105.9659485 104.5661802  36.7425315 106.5671024
 105.6146928  37.3853976 105.6843673 113.6656952  39.4133481  90.7143964
 113.0486123  38.6880309  90.6177017 113.1973440  40.1742841  90.3711038
 107.3324305  37.1865036 105.4543165 108.0423923  36.5458228 105.4129784
 107.2893613  37.4377930 106.3769346 104.3401782  50.9394303 101.1683463
 104.5798381  51.5712827 101.8462482 103.4970979  50.5882343 101.4548822
 105.4555498  33.6318905  89.8365268 104.5784964  33.5107706  89.4727515
 105.9313251  32.8404983  89.5844157  96.9757638  38.4196065  99.9306775
  97.6628678  38.1057795  99.3427791  96.8205767  39.3237429  99.6574027
 101.7792360  33.3086261 104.3591799 101.6950549  32.7011931 103.6242209
 100.9575067  33.7995279 104.3601295 108.8529644  46.7473425 103.5724967
 108.7799816  47.5528397 104.0844272 108.4107037  46.9465391 102.7472989
 108.6419424  45.9845195  97.0827789 107.8586946  46.5266875  97.1766013
 109.3412169  46.5019175  97.4822030 111.9516074  31.7939825  99.7261994
 112.4484774  31.0409787  99.4063064 111.1803055  31.8304141  99.1605203
 111.3128328  46.6460259 105.7283126 112.0256300  47.2807724 105.6559027
 110.8218356  46.7424125 104.9123128 113.0345855  40.5511512  97.3000418
 112.1002133  40.6712974  97.1305122 113.2122523  39.6483979  97.0360427
 108.5351043  33.9357208  99.4533679 108.1648830  33.3828248 100.1414584
 109.0310135  33.3315341  98.9008679 116.4218406  36.3928831  97.8350452
 116.8878858  37.2256823  97.7610754 116.8725907  35.9273813  98.5395710
 106.3640241  44.3954703 106.5488697 107.0649701  45.0291186 106.7018091
 105.8935356  44.7369434 105.7884336 114.4894637  42.7372653  94.8336604
 114.7654481  42.6229247  95.7430478 113.6199136  42.3390137  94.7948777
 111.1248701  46.9859003  98.4769417 111.3071096  46.1680659  98.9397170
 111.9481687  47.2026696  98.0394307 111.4590867  45.9127188  95.7384466
 111.9878633  45.4019643  95.1254628 111.7219086  45.5969719  96.6029999
 101.9607959  43.9291058 103.4819799 102.5461396  43.1834746 103.6147704
 101.7632798  44.2395014 104.3656463 104.8146615  46.9642305  98.4982242
 104.1456990  47.4488433  98.0146282 104.6759484  47.2111526  99.4125620
  96.5525614  36.4996658 102.2024243  96.5909714  35.9660249 102.9961361
  96.0465907  35.9731863 101.5835220 108.9551883  48.9986049 105.0964900
 109.5070191  49.1617670 105.8613985 109.2958077  49.5890487 104.4244925
 103.9316376  31.3461198 105.6986785 103.9957703  32.2076029 105.2864182
 103.8683497  30.7335200 104.9659143 100.1834192  35.2260760  95.2778174
 100.4787633  34.3171439  95.2245228  99.2822227  35.2048500  94.9559176
 112.0920270  46.9468024 102.0828582 111.9671410  46.1457764 101.5739528
 112.7499362  47.4414218 101.5942552 103.7128439  33.3016757 101.2605722
 102.9915024  33.9152724 101.1213196 104.5021694  33.8374522 101.1822368
 114.1555179  44.7477044 103.7108132 113.2085514  44.6282395 103.6386459
 114.5037952  43.8599542 103.7934394 101.9122033  32.9074858  95.4017499
 101.5834739  32.0272237  95.2192605 102.2661404  32.8522526  96.2893888
 111.1601612  44.5429761  99.9112485 111.0126575  43.6146468 100.0920055
 111.9855106  44.5649851  99.4269560 105.0263856  33.1947828  95.7692977
 105.3659929  33.7233749  95.0471585 105.4735977  33.5328234  96.5451543
 114.7635734  45.3658319 100.9977357 115.6882281  45.1601181 100.8601808
 114.5951037  45.1174720 101.9066699 107.0132004  31.6922449  93.9686269
 107.7340366  32.0703702  93.4649986 106.3897308  32.4111326  94.0721247
 111.1563126  32.3967598  94.9044602 111.3726741  33.2792236  94.6033430
 110.6757194  32.0053812  94.1750244 105.8962348  35.3553311 101.4815346
 105.7506929  35.6693614 102.3739628 105.4187551  35.9738212 100.9286245
 107.7558731  32.3455859 101.5296236 107.7420299  31.4496953 101.1928534
 108.4731159  32.3526523 102.1634522 114.5531050  45.8843987  96.3539449
 114.7267928  45.3190409  95.6013301 115.0459941  46.6844882  96.1718939
 100.3708010  37.8958656 104.4203008  99.8261478  38.6718464 104.5523282
 101.2487360  38.2429460 104.2622129 107.1595627  31.2270240  96.7983806
 107.2811538  30.2986886  96.9974694 106.8697669  31.2408926  95.8862122
 110.0286817  28.9125150  99.9350526 110.0508514  28.9764483  98.9802505
 110.4454876  28.0729659 100.1291032 120.4070441  38.6480410  97.9729749
 120.8501587  37.8987735  97.5748872 119.5296952  38.6390546  97.5903481
 115.5406223  45.2010751  93.4536347 116.2357127  45.8217444  93.6723662
 115.8829373  44.3506102  93.7288725 101.1574032  37.0228552 107.3133164
 100.4155768  37.1711187 107.8997795 100.8366776  37.2836818 106.4499914
 117.4397646  42.6510457  94.9823678 117.9648970  42.9897729  94.2572998
 117.3519998  41.7157472  94.7986812 109.1017694  46.5644530 107.1113554
 109.4104821  46.3193677 107.9836254 109.8993176  46.7691169 106.6232425
 109.1238307  48.7182440  99.3418931 108.6843297  48.2258819 100.0351788
 109.8746423  48.1755408  99.1011006 101.6030646  44.9093981  99.3443559
 102.4288665  44.6097753  98.9642203 101.2524698  44.1401603  99.7933348
 106.5712179  44.2620449 101.4141233 105.9492188  43.5991154 101.1143461
 107.2417046  44.2881581 100.7314880  99.8039251  42.8280307 100.3032493
  98.9671159  42.4002482 100.1216494  99.7762896  43.0212751 101.2403284
 106.1325686  42.8124372  94.8899693 106.2813806  43.4959837  94.2366366
 106.9392129  42.7929462  95.4049149 103.8878319  38.8389550  95.8960762
 103.6424361  37.9351880  96.0940972 104.0574233  38.8406700  94.9540240
 103.1573966  34.5717908  93.3946924 102.4643211  34.6462263  92.7386960
 102.9125718  33.8078251  93.9168441 109.6321091  45.3072503  92.3611441
 109.0595058  45.9262690  91.9081913 110.2053885  45.8571864  92.8951363
 112.8518351  45.5909653  93.4920023 113.7849024  45.5255215  93.6952898
 112.7641564  46.4265920  93.0334556 115.4806368  44.9075523  90.4523970
 115.4019999  44.5735387  91.3459728 116.3016034  45.3997291  90.4515443
 110.0167890  36.6433316  89.7027493 110.9626994  36.5139524  89.7715911
 109.6382135  35.9047977  90.1796921 108.2010807  34.5683292  89.6382378
 107.2942262  34.2716405  89.7145092 108.4786788  34.2713110  88.7716665
  99.1188747  35.8889655 100.0881425  98.7991531  35.0354964  99.7955799
  98.5722175  36.1038233 100.8439392 102.8968655  38.6052096 103.8050931
 103.1154664  39.5369204 103.8238965 103.3094429  38.2460071 104.5905735
 109.8172872  29.1120182  95.7926620 109.0073601  28.7667267  96.1681866
 110.5057289  28.8027725  96.3814231 111.7463421  28.1898228  97.4150916
 112.2994459  28.6093682  98.0740939 111.9833507  27.2633977  97.4573872
 106.9709591  31.4270227  89.7794358 107.8328755  31.7525125  90.0390175
 107.1559936  30.6401723  89.2667423  98.9877007  39.5092567 102.0574546
  98.2940479  39.0946520 101.5444501  99.7349998  39.5513103 101.4607965
 115.1242228  30.2998754  96.9229581 114.5440897  30.9583558  96.5407633
 114.8578161  29.4776098  96.5116998 100.9013750  39.4410821  99.9340561
 100.8784438  39.5398508  98.9822444 101.2114386  40.2875971 100.2557727
 103.5601128  41.4986976 104.0487176 104.5144381  41.4670918 103.9817107
 103.3613651  41.0377599 104.8637402 104.1500510  40.0688092 106.6157973
 104.9693399  40.5632170 106.6392811 104.4237317  39.1520060 106.5875541
 113.9067106  32.4598844  95.9785929 113.0192961  32.7448495  95.7606124
 114.3221095  32.2992607  95.1313206 101.9151356  47.0406595 101.0657374
 101.7805824  46.2806996 100.4995372 101.4983419  47.7647495 100.5986162
 113.0510319  42.2243519  90.0733949 113.7546169  42.4293521  90.6891604
 112.3272968  42.7920281  90.3383032 113.8808130  37.9753380  96.1936219
 113.8243331  38.4321931  95.3543851 114.4336472  37.2144065  96.0159062
 117.6912936  33.7643112  97.0186338 117.4349870  33.3639747  97.8494546
 117.0665804  34.4786906  96.8936478 105.0720482  47.9375912 101.2775816
 104.9552866  48.8821345 101.1754506 104.2512928  47.6349474 101.6661615
 114.9597017  42.6626048  92.1232409 115.7942621  42.2307246  91.9409884
 114.7981360  42.4908062  93.0509303 114.6142909  39.1658161  93.4888748
 114.5591713  39.0002433  92.5477192 113.9888964  39.8734194  93.6450938
  99.4035424  34.4026226 107.3150170 100.0494288  33.8925180 107.8037396
  99.1952575  35.1394907 107.8893596 107.9239034  28.6666270  93.0674067
 107.9117704  29.6108110  93.2242337 108.8162456  28.4836416  92.7733528
 106.0974996  48.5904174 104.4931745 107.0002243  48.6227784 104.8098240
 105.8712366  47.6604625 104.5078080 107.8528598  47.3435161 101.1541823
 106.9024229  47.3437022 101.0406195 108.1561085  46.5967895 100.6377858
 120.3970998  53.1323127 102.1549110 120.0589510  53.0164192 101.2669645
 121.2660766  52.7314292 102.1350116 116.2557814  54.9858603  98.1446001
 115.6922679  54.8948540  97.3762289 116.1410209  54.1658508  98.6248494
 113.8022246  56.4809795 100.9830222 114.5943538  56.1400620 100.5676521
 114.0418896  56.5904770 101.9032375 115.7613000  55.7418708  93.8547601
 116.5343876  55.1947695  93.7160476 116.1138399  56.6062958  94.0662062
 117.5998042  57.0695091 107.0614500 117.3087908  57.9740721 106.9461166
 118.2355027  57.1111618 107.7758569 118.5254249  54.4471939 103.6515859
 119.1217821  54.2227962 102.9372822 118.5829221  53.7056685 104.2541307
 118.0979278  51.9011374  91.4866050 118.3504798  51.3792896  90.7249513
 117.1603837  51.7377520  91.5892734 117.8175566  53.8039480  93.6890425
 117.7011824  53.1284384  94.3571510 117.9277826  53.3171854  92.8722578
 120.1607107  53.2649628  97.3937115 119.7965314  52.7380248  98.1050036
 121.0174223  52.8748097  97.2203600 119.8012594  48.2939527  92.3898463
 119.9686997  49.1619764  92.7568934 119.6109763  48.4566809  91.4659752
 116.0100409  53.2070303 100.0900998 115.0850905  53.0746517 100.2978690
 116.2584822  53.9864522 100.5870940 119.7801815  50.7497185  93.3745130
 119.6601440  51.1954235  94.2130610 119.0854403  51.0982502  92.8158668
 113.3709220  52.8503577 100.9244787 113.5001601  53.1038055 101.8384199
 112.6906671  53.4431285 100.6049442 117.5408707  63.5200826  97.0235261
 117.4632737  64.4708652  97.1023742 116.9370351  63.1746699  97.6810187
 119.6384425  55.9418884  98.8589131 120.1022771  56.2206587  98.0693753
 119.3741223  55.0402329  98.6762221 116.5308506  55.4890366 101.7968894
 117.1009864  55.9177634 101.1586378 117.1216618  55.2072951 102.4953079
 118.5753311  52.0642037  95.6678696 119.2777355  52.5163080  96.1352622
 118.2433940  51.4225856  96.2958589 112.3178645  50.3225589 100.9695829
 111.5277699  50.5783118 100.4935940 112.8089893  51.1373927 101.0747870
 114.2693391  50.6870169  97.9279306 113.4724554  50.7988863  98.4462802
 114.0418983  51.0256821  97.0620196 120.0999058  57.2114872 105.8761821
 120.1643491  57.6735279 106.7119992 119.3909982  56.5812237 106.0044130
 110.6016348  50.5756080 103.4010820 110.8524387  51.4603090 103.6668396
 111.1375897  50.3960681 102.6285912 119.8147076  58.8782979  95.7440801
 119.6792751  59.7234515  96.1725649 120.3556889  59.0802257  94.9806735
 113.2676473  56.3958417  96.3168726 113.7800994  57.1901668  96.4674291
 113.9199186  55.6984708  96.2502327 115.0771358  59.5124174  98.3991479
 115.2537986  60.4342138  98.2112463 115.8728192  59.1982593  98.8285859
 114.3623715  51.5588806 108.2753642 114.2477230  50.6574063 108.5760741
 113.5068232  51.8052502 107.9238459 116.2002674  61.0302348 104.4001822
 116.7510099  60.9019411 103.6278815 115.3614150  61.3297237 104.0496714
 119.9969845  57.2953475 108.7446053 120.5298181  56.5341764 108.5145361
 119.4683926  57.0027127 109.4870207 111.2325390  54.7247072  97.0928297
 112.0700612  55.1344080  96.8762004 111.4103658  53.7846514  97.0628490
 120.7136933  47.2371853  97.8397368 119.8578530  46.8478704  97.6603007
 121.1263885  47.3163814  96.9797153 118.4878966  44.8556926 101.2455109
 119.3531963  44.6599735 100.8860999 118.5556475  44.6267278 102.1724466
 121.3622557  56.4239468  96.2564865 120.8343919  55.6892227  95.9438102
 120.8610060  57.2014144  96.0104833 116.0941285  47.0859134  98.6171476
 116.6685037  46.8634316  97.8844669 116.6812267  47.1547829  99.3700077
 116.4210872  49.1163595  92.6367361 115.5848184  49.4538282  92.9576636
 116.2815642  48.9812575  91.6994498 118.3963953  43.9600383  97.3446546
 117.7428365  43.6449400  96.7203160 118.3544427  43.3376123  98.0706369
 119.5075158  54.2419678  89.2599838 118.6002219  54.0108932  89.4590987
 120.0046190  53.4457297  89.4473819 120.6863391  54.3432273  93.7823828
 119.7774610  54.0591306  93.8796298 120.7158475  54.7631352  92.9227135
 111.2551561  52.0637787  97.7639030 111.0575961  51.4707148  97.0390097
 110.6998225  51.7589997  98.4814969 119.2348285  51.9560894  99.8833623
 119.2896895  51.0034730  99.8076100 118.4239487  52.1120333 100.3674922
 120.3839479  55.8841017  91.1211906 119.9458909  55.1676876  90.6617544
 121.1249920  56.1117131  90.5596998 117.1740645  50.5737953  97.6424002
 116.3608510  50.8732124  98.0489194 117.6699639  50.1793642  98.3598484
 119.3249223  60.5695710  99.5758267 119.2825402  60.7956557  98.6466799
 120.2411922  60.3359085  99.7244068 116.6654720  48.1456309 103.2585237
 117.3054099  48.0045068 102.5608200 115.8332250  47.8590822 102.8823839
 117.4415024  57.4458739  99.3720229 118.2355622  56.9509059  99.1702804
 116.7306716  56.9176602  99.0087935 113.7497787  51.5901821  95.4479982
 112.8195375  51.5286276  95.6649944 113.8455259  51.0677774  94.6516623
 113.6683336  48.1156634  98.0358224 113.9290153  49.0301967  97.9267384
 114.4900508  47.6481076  98.1854837 115.1408261  49.5294391 105.2057048
 115.8131315  49.3211753 104.5569697 114.3138048  49.3316477 104.7662281
 120.0186300  58.0187761 103.0518067 119.8797385  57.6506546 103.9244005
 119.2300896  58.5335401 102.8802024 120.6134452  63.1196858  94.3943603
 120.7886207  62.6484901  95.2089226 119.9267240  63.7462624  94.6224864
 121.5691515  57.3969364 100.4406904 121.2341347  57.3570134 101.3364554
 121.0695460  56.7314080  99.9677315 115.5435759  52.8036994 105.9659485
 115.4055557  52.0717233 106.5671024 116.4540682  52.7145894 105.6843673
 118.1718059  52.5156953 105.4543165 118.8817678  51.8750145 105.4129784
 118.1287368  52.7669848 106.3769346 115.1795537  66.2686220 101.1683463
 115.4192135  66.9004745 101.8462482 114.3364733  65.9174260 101.4548822
 116.2949252  48.9610823  89.8365268 115.4178719  48.8399623  89.4727515
 116.7707005  48.1696901  89.5844157 107.8151392  53.7487982  99.9306775
 108.5022432  53.4349712  99.3427791 107.6599521  54.6529347  99.6574027
 112.6186115  48.6378179 104.3591799 112.5344303  48.0303848 103.6242209
 111.7968821  49.1287197 104.3601295 119.6923399  62.0765343 103.5724967
 119.6193570  62.8820314 104.0844272 119.2500792  62.2757309 102.7472989
 119.4813178  61.3137113  97.0827789 118.6980700  61.8558793  97.1766013
 120.1805924  61.8311093  97.4822030 119.3744797  49.2649125  99.4533679
 119.0042585  48.7120166 100.1414584 119.8703890  48.6607259  98.9008679
 117.2033996  59.7246620 106.5488697 117.9043455  60.3583103 106.7018091
 116.7329111  60.0661352 105.7884336 112.8001714  59.2582975 103.4819799
 113.3855151  58.5126663 103.6147704 112.6026552  59.5686932 104.3656463
 115.6540369  62.2934223  98.4982242 114.9850744  62.7780350  98.0146282
 115.5153239  62.5403443  99.4125620 107.3919369  51.8288576 102.2024243
 107.4303468  51.2952166 102.9961361 106.8859661  51.3023781 101.5835220
 119.7945638  64.3277966 105.0964900 120.3463946  64.4909588 105.8613985
 120.1351831  64.9182404 104.4244925 114.7710131  46.6753116 105.6986785
 114.8351457  47.5367947 105.2864182 114.7077251  46.0627118 104.9659143
 111.0227946  50.5552678  95.2778174 111.3181387  49.6463356  95.2245228
 110.1215982  50.5340417  94.9559176 114.5522193  48.6308674 101.2605722
 113.8308779  49.2444642 101.1213196 115.3415449  49.1666439 101.1822368
 112.7515788  48.2366775  95.4017499 112.4228494  47.3564154  95.2192605
 113.1055158  48.1814444  96.2893888 115.8657611  48.5239745  95.7692977
 116.2053683  49.0525667  95.0471585 116.3129731  48.8620151  96.5451543
 117.8525758  47.0214367  93.9686269 118.5734121  47.3995620  93.4649986
 117.2291062  47.7403244  94.0721247 116.7356102  50.6845229 101.4815346
 116.5900683  50.9985532 102.3739628 116.2581306  51.3030129 100.9286245
 118.5952485  47.6747777 101.5296236 118.5814054  46.7788870 101.1928534
 119.3124913  47.6818441 102.1634522 111.2101764  53.2250573 104.4203008
 110.6655233  54.0010381 104.5523282 112.0881114  53.5721378 104.2622129
 117.9989381  46.5562157  96.7983806 118.1205292  45.6278803  96.9974694
 117.7091423  46.5700843  95.8862122 120.8680572  44.2417068  99.9350526
 120.8902268  44.3056401  98.9802505 121.2848631  43.4021576 100.1291032
 111.9967786  52.3520470 107.3133164 111.2549522  52.5003105 107.8997795
 111.6760531  52.6128735 106.4499914 119.9411449  61.8936448 107.1113554
 120.2498575  61.6485595 107.9836254 120.7386931  62.0983086 106.6232425
 119.9632061  64.0474358  99.3418931 119.5237051  63.5550736 100.0351788
 120.7140178  63.5047325  99.1011006 112.4424400  60.2385898  99.3443559
 113.2682420  59.9389670  98.9642203 112.0918452  59.4693521  99.7933348
 117.4105933  59.5912367 101.4141233 116.7885942  58.9283072 101.1143461
 118.0810800  59.6173499 100.7314880 110.6433005  58.1572225 100.3032493
 109.8064913  57.7294399 100.1216494 110.6156650  58.3504668 101.2403284
 116.9719440  58.1416290  94.8899693 117.1207560  58.8251754  94.2366366
 117.7785884  58.1221380  95.4049149 114.7272073  54.1681468  95.8960762
 114.4818115  53.2643798  96.0940972 114.8967988  54.1698618  94.9540240
 113.9967721  49.9009825  93.3946924 113.3036966  49.9754180  92.7386960
 113.7519472  49.1370169  93.9168441 120.4714846  60.6364420  92.3611441
 119.8988813  61.2554608  91.9081913 121.0447639  61.1863782  92.8951363
 119.0404561  49.8975210  89.6382378 118.1336017  49.6008322  89.7145092
 119.3180542  49.6005028  88.7716665 109.9582502  51.2181573 100.0881425
 109.6385286  50.3646881  99.7955799 109.4115930  51.4330151 100.8439392
 113.7362409  53.9344014 103.8050931 113.9548419  54.8661122 103.8238965
 114.1488183  53.5751988 104.5905735 120.6566627  44.4412099  95.7926620
 119.8467355  44.0959184  96.1681866 121.3451044  44.1319643  96.3814231
 117.8103346  46.7562145  89.7794358 118.6722510  47.0817043  90.0390175
 117.9953690  45.9693641  89.2667423 109.8270762  54.8384484 102.0574546
 109.1334233  54.4238437 101.5444501 110.5743753  54.8805021 101.4607965
 111.7407504  54.7702738  99.9340561 111.7178192  54.8690426  98.9822444
 112.0508141  55.6167889 100.2557727 114.3994882  56.8278893 104.0487176
 115.3538136  56.7962836 103.9817107 114.2007406  56.3669517 104.8637402
 114.9894264  55.3980009 106.6157973 115.8087153  55.8924088 106.6392811
 115.2631072  54.4811977 106.5875541 112.7545111  62.3698513 101.0657374
 112.6199579  61.6098914 100.4995372 112.3377173  63.0939413 100.5986162
 115.9114237  63.2667830 101.2775816 115.7946621  64.2113262 101.1754506
 115.0906683  62.9641391 101.6661615 110.2429178  49.7318143 107.3150170
 110.8888042  49.2217097 107.8037396 110.0346330  50.4686825 107.8893596
 118.7632789  43.9958188  93.0674067 118.7511459  44.9400028  93.2242337
 119.6556211  43.8128333  92.7733528 116.9368751  63.9196092 104.4931745
 117.8395998  63.9519702 104.8098240 116.7106121  62.9896543 104.5078080
 118.6922353  62.6727078 101.1541823 117.7417984  62.6728940 101.0406195
 118.9954839  61.9259813 100.6377858 118.6545147  69.0779900  99.9306775
 119.3416187  68.7641630  99.3427791 118.4993276  69.9821265  99.6574027
 118.2313123  67.1580493 102.2024243 118.2697223  66.6244084 102.9961361
 117.7253416  66.6315699 101.5835220 121.4826760  73.4864143 100.3032493
 120.6458668  73.0586317 100.1216494 121.4550405  73.6796586 101.2403284
 120.7976256  66.5473491 100.0881425 120.4779040  65.6938799  99.7955799
 120.2509684  66.7622069 100.8439392 120.6664516  70.1676402 102.0574546
 119.9727988  69.7530355 101.5444501 121.4137507  70.2096939 101.4607965
  95.8621199   9.8679114  83.7480568  95.7845229  10.8186939  83.8269048
  95.2582843   9.5224986  84.4055494  93.5008029  12.6164508  87.8928770
  93.7404627  13.2483032  88.5707788  92.6577226  12.2652548  88.1794129
  93.9752861   8.6412510  85.2227548  93.3063237   9.1258638  84.7391588
  93.8365731   8.8881731  86.1370927  98.1158130  10.6756254  91.8210207
  98.6676438  10.8387875  92.5859292  98.4564323  11.2660691  91.1490232
  91.0757603   8.7176800  87.7902680  90.9412071   7.9577201  87.2240678
  90.6589665   9.4417700  87.3231469  94.2326729   9.6146117  88.0021123
  94.1159113  10.5591550  87.8999813  93.4119175   9.3119679  88.3906922
  95.2581243  10.2674379  91.2177051  96.1608490  10.2997989  91.5343546
  95.0318613   9.3374830  91.2323387 109.5577245  14.8093332  88.8794417
 109.2195756  14.6934397  87.9914952 110.4267013  14.4084497  88.8595423
 105.4164061  16.6628808  84.8691308 104.8528926  16.5718745  84.1007596
 105.3016456  15.8428713  85.3493800 102.9628493  18.1580000  87.7075528
 103.7549784  17.8170825  87.2921828 103.2025143  18.2674975  88.6277682
 110.9963619  20.3299776  80.1805773 110.3451599  20.9153857  79.7939787
 111.7907982  20.8605971  80.2400810 104.9219246  17.4188913  80.5792907
 105.6950122  16.8717900  80.4405783 105.2744645  18.2833163  80.7907369
 106.7604289  18.7465296  93.7859806 106.4694155  19.6510926  93.6706473
 107.3961273  18.7881823  94.5003876 107.6860496  16.1242144  90.3761166
 108.2824068  15.8998166  89.6618129 107.7435467  15.3826890  90.9786614
 112.4738884  18.0190208  80.7174757 111.8384717  18.0924835  81.4295662
 112.1436291  18.6083807  80.0393836 106.9781813  15.4809685  80.4135732
 106.8618071  14.8054589  81.0816816 107.0884073  14.9942059  79.5967885
 109.3213354  14.9419832  84.1182421 108.9571561  14.4150453  84.8295343
 110.1780470  14.5518301  83.9448907 111.7194174  18.4326711  90.7809600
 111.4194897  19.3351750  90.6725407 111.3745234  18.1658894  91.6330753
 105.1706656  14.8840508  86.8146305 104.2457152  14.7516722  87.0223996
 105.4191069  15.6634727  87.3116247 102.5315467  14.5273781  87.6490094
 102.6607848  14.7808260  88.5629505 101.8512918  15.1201489  87.3294749
 106.7014954  25.1971031  83.7480568 106.6238984  26.1478856  83.8269048
 106.0976598  24.8516904  84.4055494 113.2462710  17.8814681  88.3184352
 112.6171573  18.0460395  87.6160420 112.8588372  18.2956291  89.0895316
 117.1251942  18.8169119  85.6728716 116.4402980  19.1968020  85.1225749
 117.2095791  19.4264446  86.4060664 108.7990672  17.6189089  85.5834437
 109.2629018  17.8976792  84.7939060 108.5347470  16.7172534  85.4007528
 105.6914753  17.1660571  88.5214200 106.2616110  17.5947839  87.8831685
 106.2822865  16.8843156  89.2198386 101.4784892  11.9995794  87.6941136
 100.6883946  12.2553323  87.2181247 101.9696140  12.8144132  87.7993176
 103.4299638  12.3640374  84.6524613 102.6330801  12.4759068  85.1708108
 103.2025230  12.7027026  83.7865503 109.2605305  18.8885077  92.6007127
 109.3249738  19.3505484  93.4365299 108.5516229  18.2582442  92.7289437
  99.7622595  12.2526285  90.1256127 100.0130634  13.1373295  90.3913703
 100.2982144  12.0730886  89.3531219 108.9753323  20.5553184  82.4686108
 108.8398998  21.4004720  82.8970955 109.5163135  20.7572462  81.7052041
 102.4282720  18.0728622  83.0414033 102.9407241  18.8671873  83.1919597
 103.0805433  17.3754913  82.9747634 104.2377605  21.1894379  85.1236786
 104.4144233  22.1112343  84.9357770 105.0334438  20.8752798  85.5531166
 103.5229961  13.2359011  94.9998949 103.4083477  12.3344268  95.3006048
 102.6674479  13.4822707  94.6483766 105.3608920  22.7072552  91.1247128
 105.9116346  22.5789616  90.3524122 104.5220396  23.0067441  90.7742021
 109.1576091  18.9723680  95.4691359 109.6904428  18.2111968  95.2390667
 108.6290173  18.6797332  96.2115514 100.3931637  16.4017277  83.8173603
 101.2306859  16.8114285  83.6007311 100.5709905  15.4616719  83.7873797
 110.5228804  18.1009673  82.9810171 109.9950166  17.3662432  82.6683409
 110.0216307  18.8784349  82.7350140 115.5021650  16.2958693  88.0977218
 114.8445325  16.9857955  88.1857346 116.3062049  16.6855125  88.4411204
 108.6681404  15.9189883  75.9845144 107.7608466  15.6879136  76.1836293
 109.1652436  15.1227502  76.1719126 111.5749483  24.6287390  78.9041830
 110.9011182  24.9319087  79.5126788 111.9615305  25.4316471  78.5547288
 109.8469638  16.0202478  80.5069134 108.9380857  15.7361511  80.6041604
 109.8764722  16.4401556  79.6472441 115.0788905  19.6309067  84.2760302
 114.6251232  18.7899977  84.3325492 114.4482872  20.2670466  84.6135082
 113.5221844  21.4685564  85.2110120 113.8144819  22.0290621  84.4922486
 114.0320465  21.7614125  85.9663279 100.4157808  13.7407992  84.4884337
 100.2182208  13.1477353  83.7635403  99.8604472  13.4360202  85.2060275
 109.5445726  17.5611222  77.8457213 109.1065155  16.8447080  77.3862850
 110.2856166  17.7887336  77.2842304 108.4855470  22.2465915  86.3003573
 108.4431648  22.4726761  85.3712105 109.4018168  22.0129290  86.4489374
 106.6021270  19.1228944  86.0965536 107.3961869  18.6279264  85.8948111
 105.8912963  18.5946807  85.7333242 111.4216115  21.5047040  90.4477904
 111.4753137  22.0737976  91.2155620 110.5530896  21.6748925  90.0831941
 102.9104034  13.2672026  82.1725289 101.9801622  13.2056481  82.3895251
 103.0061506  12.7447979  81.3761930 110.3804215  15.6707302  92.0064836
 111.3096275  15.8218461  91.8333803 109.9595245  15.7591323  91.1513482
 109.1792546  19.6957966  89.7763373 109.0403632  19.3276751  90.6489311
 108.3907143  20.2105606  89.6047331 109.7740698  24.7967063  81.1188910
 109.9492454  24.3255106  81.9334532 109.0873486  25.4232829  81.3470170
 110.7297762  19.0739569  87.1652211 110.3947594  19.0340339  88.0609861
 110.2301707  18.4084285  86.6922621 104.7042005  14.4807199  92.6904792
 104.5661803  13.7487438  93.2916331 105.6146929  14.3916099  92.4088980
 113.6656953  16.4195603  77.4389271 113.0486124  15.6942431  77.3422323
 113.1973442  17.1804963  77.0956345 107.3324306  14.1927158  92.1788472
 108.0423925  13.5520350  92.1375090 107.2893614  14.4440053  93.1014653
 104.3401784  27.9456425  87.8928770 104.5798382  28.5774950  88.5707788
 103.4970980  27.5944465  88.1794129  96.9757639  15.4258187  86.6552082
  97.6628679  15.1119917  86.0673097  96.8205768  16.3299552  86.3819333
 108.8529645  23.7535548  90.2970274 108.7799817  24.5590519  90.8089578
 108.4107039  23.9527514  89.4718295 108.6419425  22.9907318  83.8073095
 107.8586947  23.5328998  83.9011320 109.3412170  23.5081297  84.2067337
 111.3128329  23.6522382  92.4528432 112.0256301  24.2869847  92.3804334
 110.8218358  23.7486248  91.6368434 113.0345856  17.5573635  84.0245724
 112.1002135  17.6775097  83.8550428 113.2122524  16.6546101  83.7605734
 106.3640243  21.4016825  93.2734003 107.0649702  22.0353308  93.4263398
 105.8935358  21.7431557  92.5129643 114.4894638  19.7434775  81.5581910
 114.7654482  19.6291370  82.4675784 113.6199137  19.3452260  81.5194083
 111.1248702  23.9921126  85.2014724 111.3071097  23.1742782  85.6642476
 111.9481688  24.2088818  84.7639614 111.4590868  22.9189311  82.4629772
 111.9878634  22.4081766  81.8499935 111.7219087  22.6031841  83.3275305
 101.9607961  20.9353180  90.2065106 102.5461397  20.1896868  90.3393010
 101.7632799  21.2457137  91.0901770 104.8146616  23.9704428  85.2227548
 104.1456991  24.4550555  84.7391588 104.6759486  24.2173648  86.1370927
  96.5525615  13.5058781  88.9269549  96.5909715  12.9722371  89.7206667
  96.0465908  12.9793986  88.3080526 108.9551884  26.0048171  91.8210207
 109.5070192  26.1679793  92.5859292 109.2958078  26.5952609  91.1490232
 100.1834193  12.2322883  82.0023481 100.4787634  11.3233561  81.9490534
  99.2822229  12.2110622  81.6804483 112.0920272  23.9530147  88.8073889
 111.9671411  23.1519887  88.2984834 112.7499363  24.4476340  88.3187859
 114.1555180  21.7539167  90.4353439 113.2085516  21.6344518  90.3631766
 114.5037953  20.8661665  90.5179700 111.1601613  21.5491883  86.6357791
 111.0126576  20.6208591  86.8165361 111.9855107  21.5711974  86.1514866
 114.7635735  22.3720442  87.7222664 115.6882283  22.1663303  87.5847115
 114.5951039  22.1236843  88.6312005 114.5531051  22.8906109  83.0784755
 114.7267929  22.3252532  82.3258608 115.0459943  23.6907004  82.8964245
 100.3708011  14.9020778  91.1448314  99.8261479  15.6780586  91.2768589
 101.2487361  15.2491583  90.9867436 115.5406224  22.2072874  80.1781654
 116.2357129  22.8279566  80.3968968 115.8829374  21.3568225  80.4534032
 101.1574033  14.0290675  94.0378471 100.4155769  14.1773310  94.6243102
 100.8366777  14.2898940  93.1745220 117.4397647  19.6572579  81.7068984
 117.9648971  19.9959852  80.9818304 117.3520000  18.7219595  81.5232119
 109.1017696  23.5706653  93.8358861 109.4104822  23.3255800  94.7081561
 109.8993178  23.7753291  93.3477731 109.1238308  25.7244562  86.0664238
 108.6843298  25.2320941  86.7597094 109.8746425  25.1817530  85.8256313
 101.6030647  21.9156103  86.0688866 102.4288667  21.6159875  85.6887509
 101.2524699  21.1463726  86.5178654 106.5712180  21.2682572  88.1386539
 105.9492189  20.6053277  87.8388767 107.2417047  21.2943703  87.4560187
  99.8039252  19.8342430  87.0277799  98.9671160  19.4064604  86.8461801
  99.7762897  20.0274873  87.9648591 106.1325687  19.8186495  81.6145000
 106.2813807  20.5021959  80.9611673 106.9392130  19.7991585  82.1294456
 103.8878320  15.8451673  82.6206069 103.6424362  14.9414003  82.8186279
 104.0574234  15.8468823  81.6785547 109.6321092  22.3134625  79.0856747
 109.0595059  22.9324813  78.6327219 110.2053886  22.8633987  79.6196669
 112.8518352  22.5971776  80.2165330 113.7849025  22.5317337  80.4198205
 112.7641565  23.4328042  79.7579862 115.4806369  21.9137646  77.1769277
 115.4020000  21.5797509  78.0705035 116.3016036  22.4059414  77.1760749
  99.1188748  12.8951778  86.8126731  98.7991533  12.0417086  86.5201105
  98.5722177  13.1100356  87.5684699 102.8968656  15.6114219  90.5296238
 103.1154666  16.5431327  90.5484272 103.3094430  15.2522193  91.3151042
  98.9877008  16.5154689  88.7819853  98.2940480  16.1008642  88.2689807
  99.7349999  16.5575226  88.1853272 100.9013751  16.4472943  86.6585868
 100.8784439  16.5460630  85.7067751 101.2114387  17.2938094  86.9803034
 103.5601129  18.5049098  90.7732482 104.5144382  18.4733041  90.7062414
 103.3613652  18.0439722  91.5882708 104.1500511  17.0750214  93.3403280
 104.9693400  17.5694293  93.3638117 104.4237319  16.1582182  93.3120847
 101.9151358  24.0468718  87.7902680 101.7805826  23.2869119  87.2240678
 101.4983420  24.7709618  87.3231469 113.0510321  19.2305641  76.7979255
 113.7546171  19.4355644  77.4136911 112.3272969  19.7982403  77.0628339
 105.0720483  24.9438035  88.0021123 104.9552868  25.8883467  87.8999813
 104.2512930  24.6411596  88.3906922 114.9597018  19.6688170  78.8477715
 115.7942622  19.2369369  78.6655190 114.7981361  19.4970184  79.7754610
 114.6142910  16.1720284  80.2134055 114.5591714  16.0064555  79.2722499
 113.9888965  16.8796317  80.3696245  99.4035425  11.4088348  94.0395477
 100.0494289  10.8987302  94.5282702  99.1952576  12.1457030  94.6138902
 106.0974998  25.5966297  91.2177051 107.0002244  25.6289907  91.5343546
 105.8712368  24.6666748  91.2323387 107.8528600  24.3497283  87.8787130
 106.9024231  24.3499145  87.7651502 108.1561086  23.6030018  87.3623164
 120.3970999  30.1385250  88.8794417 120.0589511  30.0226314  87.9914952
 121.2660768  29.7376415  88.8595423 116.2557815  31.9920726  84.8691308
 115.6922680  31.9010663  84.1007596 116.1410210  31.1720631  85.3493800
 113.8022247  33.4871918  87.7075528 114.5943539  33.1462742  87.2921828
 114.0418897  33.5966893  88.6277682 115.7613001  32.7480831  80.5792907
 116.5343877  32.2009818  80.4405783 116.1138400  33.6125080  80.7907369
 117.5998044  34.0757213  93.7859806 117.3087909  34.9802844  93.6706473
 118.2355028  34.1173741  94.5003876 118.5254250  31.4534062  90.3761166
 119.1217823  31.2290084  89.6618129 118.5829222  30.7118807  90.9786614
 118.0979279  28.9073497  78.2111357 118.3504799  28.3855018  77.4494820
 117.1603838  28.7439642  78.3138041 117.8175568  30.8101603  80.4135732
 117.7011826  30.1346506  81.0816816 117.9277827  30.3233977  79.5967885
 120.1607108  30.2711750  84.1182421 119.7965316  29.7442371  84.8295343
 121.0174224  29.8810219  83.9448907 119.8012595  25.3001650  79.1143770
 119.9686998  26.1681886  79.4814241 119.6109764  25.4628932  78.1905059
 116.0100410  30.2132426  86.8146305 115.0850907  30.0808640  87.0223996
 116.2584823  30.9926645  87.3116247 119.7801816  27.7559307  80.0990437
 119.6601441  28.2016358  80.9375917 119.0854405  28.1044625  79.5403975
 113.3709221  29.8565699  87.6490094 113.5001602  30.1100178  88.5629505
 112.6906672  30.4493407  87.3294749 117.5408708  40.5262949  83.7480568
 117.4632738  41.4770774  83.8269048 116.9370352  40.1808822  84.4055494
 119.6384427  32.9481007  85.5834437 120.1022772  33.2268710  84.7939060
 119.3741225  32.0464452  85.4007528 116.5308508  32.4952489  88.5214200
 117.1009865  32.9239757  87.8831685 117.1216620  32.2135073  89.2198386
 118.5753313  29.0704159  82.3924002 119.2777356  29.5225203  82.8597929
 118.2433941  28.4287978  83.0203895 112.3178647  27.3287712  87.6941136
 111.5277701  27.5845241  87.2181247 112.8089894  28.1436050  87.7993176
 114.2693392  27.6932291  84.6524613 113.4724555  27.8050986  85.1708108
 114.0418984  28.0318944  83.7865503 120.0999060  34.2176995  92.6007127
 120.1643492  34.6797402  93.4365299 119.3909984  33.5874359  92.7289437
 110.6016350  27.5818202  90.1256127 110.8524388  28.4665212  90.3913703
 111.1375898  27.4022804  89.3531219 119.8147077  35.8845102  82.4686108
 119.6792752  36.7296638  82.8970955 120.3556890  36.0864380  81.7052041
 113.2676475  33.4020540  83.0414033 113.7800995  34.1963790  83.1919597
 113.9199188  32.7046830  82.9747634 115.0771359  36.5186296  85.1236786
 115.2537988  37.4404261  84.9357770 115.8728193  36.2044716  85.5531166
 114.3623716  28.5650928  94.9998949 114.2477231  27.6636185  95.3006048
 113.5068234  28.8114625  94.6483766 116.2002675  38.0364470  91.1247128
 116.7510100  37.9081533  90.3524122 115.3614151  38.3359359  90.7742021
 119.9969846  34.3015598  95.4691359 120.5298183  33.5403886  95.2390667
 119.4683927  34.0089250  96.2115514 111.2325391  31.7309194  83.8173603
 112.0700613  32.1406203  83.6007311 111.4103659  30.7908637  83.7873797
 120.7136935  24.2433976  84.5642675 119.8578531  23.8540826  84.3848313
 121.1263886  24.3225937  83.7042460 118.4878967  21.8619049  87.9700416
 119.3531964  21.6661857  87.6106305 118.5556476  21.6329401  88.8969773
 121.3622559  33.4301590  82.9810171 120.8343920  32.6954350  82.6683409
 120.8610061  34.2076267  82.7350140 116.0941286  24.0921257  85.3416783
 116.6685038  23.8696438  84.6089976 116.6812269  24.1609951  86.0945384
 116.4210873  26.1225718  79.3612668 115.5848186  26.4600404  79.6821943
 116.2815643  25.9874698  78.4239805 118.3963954  20.9662506  84.0691852
 117.7428366  20.6511523  83.4448467 118.3544428  20.3438246  84.7951675
 119.5075159  31.2481801  75.9845144 118.6002221  31.0171054  76.1836293
 120.0046191  30.4519420  76.1719126 120.6863392  31.3494396  80.5069134
 119.7774612  31.0653428  80.6041604 120.7158476  31.7693474  79.6472441
 111.2551563  29.0699910  84.4884337 111.0575962  28.4769270  83.7635403
 110.6998227  28.7652120  85.2060275 119.2348286  28.9623016  86.6078930
 119.2896896  28.0096853  86.5321406 118.4239488  29.1182455  87.0920228
 120.3839480  32.8903139  77.8457213 119.9458910  32.1738998  77.3862850
 121.1249921  33.1179254  77.2842304 117.1740646  27.5800076  84.3669309
 116.3608512  27.8794246  84.7734501 117.6699640  27.1855765  85.0843791
 119.3249224  37.5757833  86.3003573 119.2825403  37.8018679  85.3712105
 120.2411923  37.3421207  86.4489374 116.6654721  25.1518431  89.9830544
 117.3054100  25.0107191  89.2853507 115.8332252  24.8652945  89.6069146
 117.4415025  34.4520862  86.0965536 118.2355623  33.9571182  85.8948111
 116.7306717  33.9238725  85.7333242 113.7497788  28.5963944  82.1725289
 112.8195376  28.5348399  82.3895251 113.8455260  28.0739896  81.3761930
 113.6683337  25.1218756  84.7603530 113.9290155  26.0364090  84.6512691
 114.4900510  24.6543199  84.9100143 115.1408263  26.5356514  91.9302355
 115.8131316  26.3273876  91.2815004 114.3138049  26.3378600  91.4907587
 120.0186301  35.0249884  89.7763373 119.8797387  34.6568668  90.6489311
 119.2300897  35.5397523  89.6047331 120.6134453  40.1258980  81.1188910
 120.7886209  39.6547023  81.9334532 119.9267241  40.7524746  81.3470170
 121.5691516  34.4031487  87.1652211 121.2341349  34.3632256  88.0609861
 121.0695462  33.7376202  86.6922621 115.5435760  29.8099117  92.6904792
 115.4055558  29.0779355  93.2916331 116.4540683  29.7208017  92.4088980
 118.1718061  29.5219076  92.1788472 118.8817679  28.8812268  92.1375090
 118.1287369  29.7731971  93.1014653 115.1795538  43.2748343  87.8928770
 115.4192136  43.9066867  88.5707788 114.3364735  42.9236383  88.1794129
 116.2949254  25.9672945  76.5610575 115.4178720  25.8461746  76.1972822
 116.7707007  25.1759023  76.3089464 107.8151394  30.7550105  86.6552082
 108.5022434  30.4411835  86.0673097 107.6599522  31.6591470  86.3819333
 112.6186116  25.6440301  91.0837106 112.5344305  25.0365971  90.3487516
 111.7968822  26.1349320  91.0846602 119.6923400  39.0827465  90.2970274
 119.6193571  39.8882437  90.8089578 119.2500793  39.2819431  89.4718295
 119.4813180  38.3199236  83.8073095 118.6980701  38.8620916  83.9011320
 120.1805925  38.8373215  84.2067337 119.3744798  26.2711248  86.1778985
 119.0042586  25.7182288  86.8659891 119.8703891  25.6669381  85.6253985
 117.2033997  36.7308743  93.2734003 117.9043457  37.3645226  93.4263398
 116.7329112  37.0723475  92.5129643 112.8001715  36.2645098  90.2065106
 113.3855152  35.5188786  90.3393010 112.6026554  36.5749055  91.0901770
 115.6540370  39.2996345  85.2227548 114.9850746  39.7842473  84.7391588
 115.5153240  39.5465566  86.1370927 107.3919370  28.8350698  88.9269549
 107.4303469  28.3014289  89.7206667 106.8859663  28.3085904  88.3080526
 119.7945639  41.3340089  91.8210207 120.3463947  41.4971710  92.5859292
 120.1351832  41.9244527  91.1490232 114.7710132  23.6815239  92.4232091
 114.8351459  24.5430070  92.0109489 114.7077252  23.0689240  91.6904450
 111.0227947  27.5614800  82.0023481 111.3181388  26.6525479  81.9490534
 110.1215983  27.5402540  81.6804483 114.5522194  25.6370797  87.9851029
 113.8308780  26.2506765  87.8458502 115.3415450  26.1728562  87.9067675
 112.7515789  25.2428898  82.1262806 112.4228495  24.3626277  81.9437912
 113.1055160  25.1876567  83.0139195 115.8657612  25.5301868  82.4938283
 116.2053685  26.0587789  81.7716892 116.3129733  25.8682274  83.2696850
 117.8525759  24.0276489  80.6931576 118.5734122  24.4057742  80.1895293
 117.2291063  24.7465366  80.7966554 116.7356104  27.6907352  88.2060653
 116.5900684  28.0047655  89.0984935 116.2581307  28.3092252  87.6531552
 118.5952486  24.6809900  88.2541543 118.5814055  23.7850993  87.9173841
 119.3124915  24.6880563  88.8879829 111.2101766  30.2312696  91.1448314
 110.6655234  31.0072504  91.2768589 112.0881116  30.5783501  90.9867436
 117.9989382  23.5624280  83.5229113 118.1205294  22.6340926  83.7220000
 117.7091425  23.5762966  82.6107428 120.8680573  21.2479190  86.6595833
 120.8902270  21.3118523  85.7047812 121.2848632  20.4083699  86.8536339
 111.9967788  29.3582592  94.0378471 111.2549524  29.5065228  94.6243102
 111.6760532  29.6190858  93.1745220 119.9411450  38.8998571  93.8358861
 120.2498577  38.6547717  94.7081561 120.7386932  39.1045209  93.3477731
 119.9632062  41.0536480  86.0664238 119.5237053  40.5612859  86.7597094
 120.7140179  40.5109448  85.8256313 112.4424401  37.2448021  86.0688866
 113.2682421  36.9451793  85.6887509 112.0918453  36.4755643  86.5178654
 117.4105934  36.5974489  88.1386539 116.7885944  35.9345194  87.8388767
 118.0810801  36.6235621  87.4560187 110.6433006  35.1634347  87.0277799
 109.8064915  34.7356522  86.8461801 110.6156652  35.3566791  87.9648591
 116.9719441  35.1478413  81.6145000 117.1207562  35.8313877  80.9611673
 117.7785885  35.1283503  82.1294456 114.7272074  31.1743590  82.6206069
 114.4818116  30.2705920  82.8186279 114.8967989  31.1760741  81.6785547
 113.9967722  26.9071948  80.1192230 113.3036967  26.9816303  79.4632266
 113.7519474  26.1432291  80.6413747 120.4714847  37.6426543  79.0856747
 119.8988814  38.2616730  78.6327219 121.0447641  38.1925905  79.6196669
 119.0404563  26.9037332  76.3627685 118.1336018  26.6070445  76.4390399
 119.3180544  26.6067150  75.4961971 109.9582503  28.2243696  86.8126731
 109.6385287  27.3709004  86.5201105 109.4115931  28.4392274  87.5684699
 113.7362410  30.9406137  90.5296238 113.9548420  31.8723244  90.5484272
 114.1488184  30.5814111  91.3151042 120.6566628  21.4474222  82.5171926
 119.8467357  21.1021307  82.8927172 121.3451045  21.1381766  83.1059538
 117.8103347  23.7624267  76.5039664 118.6722511  24.0879166  76.7635482
 117.9953691  22.9755763  75.9912730 109.8270763  31.8446607  88.7819853
 109.1334234  31.4300560  88.2689807 110.5743754  31.8867144  88.1853272
 111.7407505  31.7764861  86.6585868 111.7178194  31.8752548  85.7067751
 112.0508142  32.6230012  86.9803034 114.3994883  33.8341016  90.7732482
 115.3538137  33.8024958  90.7062414 114.2007407  33.3731640  91.5882708
 114.9894265  32.4042132  93.3403280 115.8087154  32.8986211  93.3638117
 115.2631073  31.4874100  93.3120847 112.7545112  39.3760635  87.7902680
 112.6199580  38.6161036  87.2240678 112.3377174  40.1001535  87.3231469
 115.9114238  40.2729952  88.0021123 115.7946622  41.2175385  87.8999813
 115.0906684  39.9703514  88.3906922 110.2429180  26.7380266  94.0395477
 110.8888043  26.2279220  94.5282702 110.0346331  27.4748947  94.6138902
 118.7632790  21.0020310  79.7919373 118.7511460  21.9462150  79.9487644
 119.6556212  20.8190456  79.4978834 116.9368752  40.9258214  91.2177051
 117.8395999  40.9581825  91.5343546 116.7106122  39.9958665  91.2323387
 118.6922354  39.6789201  87.8787130 117.7417985  39.6791062  87.7651502
 118.9954840  38.9321935  87.3623164 118.6545148  46.0842023  86.6552082
 119.3416188  45.7703753  86.0673097 118.4993277  46.9883387  86.3819333
 118.2313124  44.1642616  88.9269549 118.2697224  43.6306207  89.7206667
 117.7253417  43.6377821  88.3080526 121.4826761  50.4926265  87.0277799
 120.6458669  50.0648440  86.8461801 121.4550406  50.6858709  87.9648591
 120.7976257  43.5535613  86.8126731 120.4779042  42.7000921  86.5201105
 120.2509686  43.7684191  87.5684699 120.6664517  47.1738525  88.7819853
 119.9727989  46.7592478  88.2689807 121.4137508  47.2159061  88.1853272
 117.5408710  17.5325072  70.4725874 117.4632739  18.4832897  70.5514355
 116.9370353  17.1870944  71.1300801 115.1795539  20.2810466  74.6174076
 115.4192138  20.9128990  75.2953095 114.3364736  19.9298506  74.9039436
 115.6540372  16.3058468  71.9472855 114.9850747  16.7904596  71.4636895
 115.5153241  16.5527688  72.8616234 119.7945640  18.3402212  78.5455513
 120.3463948  18.5033833  79.3104599 120.1351834  18.9306649  77.8735538
 112.7545113  16.3822758  74.5147987 112.6199581  15.6223159  73.9485985
 112.3377176  17.1063658  74.0476776 115.9114239  17.2792075  74.7266429
 115.7946623  18.2237507  74.6245120 115.0906685  16.9765637  75.1152229
 116.9368753  17.9320337  77.9422358 117.8396000  17.9643947  78.2588853
 116.7106123  17.0020788  77.9568694 118.6545149  23.0904145  73.3797389
 119.3416189  22.7765875  72.7918404 118.4993278  23.9945510  73.1064640
 118.2313126  21.1704739  75.6514856 118.2697225  20.6368329  76.4451974
 117.7253418  20.6439944  75.0325833 121.4826762  27.4988388  73.7523106
 120.6458670  27.0710562  73.5707107 121.4550407  27.6920831  74.6893897
 120.7976259  20.5597736  73.5372038 120.4779043  19.7063044  73.2446412
 120.2509687  20.7746314  74.2930005 120.6664519  24.1800647  75.5065160
 119.9727990  23.7654600  74.9935114 121.4137510  24.2221184  74.9098579
  46.5386951  70.6163147 132.0060601  45.8648650  70.9194844 132.6145559
  46.9252773  71.4192227 131.6566058  50.5043692  68.1948630 133.2800424
  51.1994597  68.8155323 133.4987739  50.8466842  67.3443981 133.5552802
  44.5958560  68.3010382 132.1875518  44.0232527  68.9200569 131.7345990
  45.1691354  68.8509744 132.7215440  47.8155820  68.5847532 133.3184100
  48.7486493  68.5193094 133.5216975  47.7279033  69.4203799 132.8598633
  50.4443837  67.9013402 130.2788047  50.3657468  67.5673266 131.1723805
  51.2653504  68.3935170 130.2779520  48.0147789  65.2181398 129.8998026
  48.7183639  65.4231400 130.5155681  47.2910437  65.7858160 130.1647109
  49.9234486  65.6563927 131.9496486  50.7580090  65.2245126 131.7673961
  49.7618829  65.4845941 132.8773380  51.3848341  72.1101474 132.4631438
  50.5485654  72.4476161 132.7840713  51.2453111  71.9750454 131.5258575
  51.2586722  71.9548702 129.6629345  50.3816188  71.8337503 129.2991592
  51.7344475  71.1634780 129.4108234  48.9605190  72.8947704 133.2211001
  48.2674435  72.9692059 132.5651037  48.7156942  72.1308048 133.7432518
  54.0042031  72.8913089 129.4646455  53.0973486  72.5946201 129.5409169
  54.2818012  72.5942907 128.5980742  52.7740815  69.7500024 129.6058435
  53.6359979  70.0754922 129.8654252  52.9591159  68.9631520 129.0931500
  53.7270258  66.9896067 132.8938144  53.7148928  67.9337907 133.0506414
  54.6193680  66.8066212 132.5997605  46.5386952  47.6225269 118.7305907
  45.8648651  47.9256966 119.3390865  46.9252774  48.4254350 118.3811365
  50.5043693  45.2010753 120.0045731  51.1994598  45.8217446 120.2233045
  50.8466843  44.3506104 120.2798109  44.5958562  45.3072505 118.9120824
  44.0232529  45.9262692 118.4591296  45.1691355  45.8571866 119.4460746
  47.8155821  45.5909655 120.0429407  48.7486495  45.5255216 120.2462282
  47.7279034  46.4265922 119.5843939  50.4443838  44.9075525 117.0033354
  50.3657470  44.5735389 117.8969112  51.2653505  45.3997293 117.0024826
  48.0147790  42.2243520 116.6243332  48.7183640  42.4293523 117.2400988
  47.2910439  42.7920282 116.8892416  49.9234487  42.6626050 118.6741793
  50.7580091  42.2307248 118.4919267  49.7618830  42.4908063 119.6018687
  58.5518762  53.1795701 128.7696969  59.1897172  53.0602448 128.0660309
  58.4339605  54.1276545 128.8284921  51.2195284  54.9858605 124.6955385
  50.6560150  54.8948542 123.9271673  51.1047679  54.1658510 125.1757877
  56.7994843  58.6529573 120.0069850  56.1482823  59.2383653 119.6203864
  57.5939206  59.1835768 120.0664887  50.7250470  55.7418710 120.4056984
  51.4981346  55.1947697 120.2669860  51.0775869  56.6062959 120.6171446
  53.0616748  51.9011376 118.0375434  53.3142269  51.3792898 117.2758897
  52.1241307  51.7377522 118.1402118  58.1060031  50.9047155 125.8450177
  58.8923120  50.4866578 125.4940594  58.3698735  51.8093247 126.0131826
  58.2770108  56.3420005 120.5438834  57.6415941  56.4154631 121.2559739
  57.9467515  56.9313604 119.8657913  63.5068458  50.8422388 126.7483156
  64.2393630  50.2721605 126.9820985  62.7507814  50.4543988 127.1889661
  52.7813037  53.8039482 120.2399809  52.6649295  53.1284386 120.9080893
  52.8915297  53.3171856 119.4231962  55.1244578  53.2649629 123.9446498
  54.7602785  52.7380250 124.6559420  55.9811694  52.8748098 123.7712984
  54.7650065  48.2939529 118.9407847  54.9324467  49.1619765 119.3078318
  54.5747234  48.4566811 118.0169136  54.7439286  50.7497186 119.9254514
  54.6238911  51.1954237 120.7639994  54.0491874  51.0982504 119.3668052
  52.5046178  63.5200828 123.5744645  52.4270207  64.4708653 123.6533125
  51.9007821  63.1746701 124.2319571  60.4424352  51.2218660 120.7534848
  61.3542208  51.4546046 120.5782545  59.9333999  51.8055704 120.1909926
  59.0493934  56.2044478 128.1448429  58.4202796  56.3690192 127.4424497
  58.6619596  56.6186088 128.9159393  62.9283166  57.1398916 125.4992793
  62.2434204  57.5197817 124.9489826  63.0127015  57.7494243 126.2324741
  54.6021896  55.9418886 125.4098514  55.0660241  56.2206589 124.6203137
  54.3378694  55.0402331 125.2271605  53.5390782  52.0642039 122.2188079
  54.2414825  52.5163082 122.6862006  53.2071410  51.4225857 122.8467972
  61.2979926  57.6630830 130.2710494  62.1197369  57.2611018 129.9893175
  61.2942328  57.5599065 131.2226610  69.3885919  54.0069579 126.6195465
  68.6349627  53.4376977 126.4639470  69.5233460  53.9732243 127.5666100
  54.7784547  58.8782981 122.2950185  54.6430221  59.7234517 122.7235032
  55.3194359  59.0802259 121.5316118  48.2313944  56.3958419 122.8678110
  48.7438465  57.1901669 123.0183674  48.8836657  55.6984710 122.8011711
  50.0408829  59.5124176 124.9500863  50.2175457  60.4342140 124.7621847
  50.8365662  59.1982595 125.3795243  51.1640144  61.0302349 130.9511205
  51.7147569  60.9019413 130.1788199  50.3251620  61.3297238 130.6006098
  46.1962861  54.7247074 123.6437680  47.0338083  55.1344082 123.4271388
  46.3741128  53.7846516 123.6137874  58.0927293  52.3922154 119.3321513
  57.5773916  53.1626759 119.5709901  57.8204601  51.7187290 119.9554575
  55.6774404  47.2371855 124.3906752  54.8216000  46.8478705 124.2112390
  56.0901356  47.3163816 123.5306537  63.0661567  55.1454509 121.2674687
  62.2891010  54.8065668 120.8229849  63.7453048  55.1507132 120.5929652
  57.8813596  50.2649246 121.1581294  57.5763732  50.5795395 122.0091438
  58.8344038  50.3430666 121.2008627  56.3260028  56.4239470 122.8074248
  55.7981389  55.6892229 122.4947486  55.8247531  57.2014146 122.5614217
  61.3052874  54.6188490 127.9241295  60.6476548  55.3087751 128.0121423
  62.1093273  55.0084922 128.2675281  60.1158333  52.9732863 125.9745236
  60.6290214  53.6062855 126.4766946  60.7659557  52.3734058 125.6088596
  51.3848343  49.1163597 119.1876745  50.5485655  49.4538283 119.5086020
  51.2453112  48.9812577 118.2503882  54.4712628  54.2419680 115.8109221
  53.5639690  54.0108933 116.0100370  54.9683660  53.4457299 115.9983203
  57.3780707  62.9517187 118.7305907  56.7042406  63.2548884 119.3390865
  57.7646529  63.7546267 118.3811365  57.3774211  51.8473734 123.3506257
  58.1246030  52.3595131 123.0413379  57.6465801  51.5257787 124.2110651
  55.6500862  54.3432275 120.3333211  54.7412081  54.0591308 120.4305681
  55.6795945  54.7631353 119.4736518  60.8820129  57.9538864 124.1024379
  60.4282456  57.1129774 124.1589569  60.2514096  58.5900263 124.4399159
  59.8253049  48.8830850 125.3325046  59.0875805  48.3708236 125.6635289
  60.0779822  48.4431232 124.5208323  59.3253068  59.7915361 125.0374197
  59.6176043  60.3520418 124.3186563  59.8351689  60.0843922 125.7927356
  54.1985756  51.9560895 126.4343007  54.2534365  51.0034732 126.3585483
  53.3876958  52.1120334 126.9184305  55.3476949  55.8841018 117.6721290
  54.9096379  55.1676877 117.2126927  56.0887390  56.1117133 117.1106381
  52.1378115  50.5737955 124.1933386  51.3245981  50.8732126 124.5998578
  52.6337110  50.1793644 124.9107868  54.2886693  60.5695712 126.1267650
  54.2462872  60.7956558 125.1976182  55.2049392  60.3359087 126.2753451
  63.4650064  54.1598215 123.7297609  63.3267963  54.3499811 122.8018798
  63.1086283  54.9217598 124.1865660  63.4919444  56.2274742 128.7408880
  63.9255950  56.1350032 129.5891934  64.2051024  56.2032243 128.1028896
  52.4052494  57.4458741 125.9229613  53.1993093  56.9509061 125.7212188
  51.6944187  56.9176604 125.5597319  57.2247339  59.8276837 130.2741981
  57.2784361  60.3967773 131.0419697  56.3562120  59.9978722 129.9096018
  48.7135258  51.5901823 121.9989366  47.7832846  51.5286278 122.2159328
  48.8092730  51.0677776 121.2026007  64.3534993  56.2698443 131.2741765
  64.5470883  57.1744254 131.5201040  64.2535611  55.8105862 132.1080351
  54.9823770  58.0187763 129.6027450  54.8434856  57.6506547 130.4753388
  54.1938366  58.5335402 129.4311408  55.5771922  63.1196859 120.9452987
  55.7523678  62.6484903 121.7598609  54.8904710  63.7462626 121.1734247
  56.5328985  57.3969366 126.9916288  56.1978818  57.3570136 127.8873938
  56.0332931  56.7314082 126.5186698  59.4688177  54.7425400 117.2653348
  58.8517348  54.0172228 117.1686400  59.0004665  55.5034760 116.9220422
  50.1433007  66.2686222 127.7192847  50.3829606  66.9004746 128.3971865
  49.3002204  65.9174262 128.0058206  51.2586723  48.9610824 116.3874652
  50.3816189  48.8399625 116.0236899  51.7344476  48.1696903 116.1353541
  54.6560869  62.0765345 130.1234351  54.5831041  62.8820316 130.6353655
  54.2138262  62.2757311 129.2982372  54.4450649  61.3137115 123.6337172
  53.6618171  61.8558795 123.7275397  55.1443394  61.8311094 124.0331414
  65.6077056  52.8272110 127.9189669  65.5966933  53.7096825 127.5483602
  64.7394436  52.4743661 127.7244206  57.1159553  61.9752179 132.2792509
  57.8287525  62.6099644 132.2068411  56.6249581  62.0716045 131.4632511
  58.8377080  55.8803431 123.8509801  57.9033358  56.0004894 123.6814505
  59.0153748  54.9775898 123.5869811  62.2249631  51.7220751 124.3859835
  62.6910083  52.5548742 124.3120138  62.6757132  51.2565732 125.0905094
  60.2925862  58.0664572 121.3845987  60.5685706  57.9521167 122.2939861
  59.4230361  57.6682057 121.3458160  56.9279926  62.3150923 125.0278801
  57.1102321  61.4972579 125.4906553  57.7512912  62.5318615 124.5903691
  57.2622092  61.2419108 122.2893849  57.7909858  60.7311563 121.6764012
  57.5250311  60.9261638 123.1539382  50.6177840  62.2934225 125.0491625
  49.9488215  62.7780352 124.5655665  50.4790709  62.5403445 125.9635004
  54.7583108  64.3277968 131.6474284  55.3101416  64.4909590 132.4123369
  55.0989302  64.9182406 130.9754309  45.9865417  50.5552680 121.8287558
  46.2818858  49.6463358 121.7754611  45.0853452  50.5340419 121.5068560
  57.8951495  62.2759944 128.6337966  57.7702635  61.4749684 128.1248911
  58.5530587  62.7706137 128.1451936  59.9586404  60.0768964 130.2617516
  59.0116739  59.9574315 130.1895843  60.3069177  59.1891462 130.3443777
  56.9632837  59.8721680 126.4621868  56.8157800  58.9438387 126.6429438
  57.7886331  59.8941771 125.9778943  50.8295081  48.5239747 122.3202360
  51.1691154  49.0525668 121.5980969  51.2767202  48.8620153 123.0960927
  60.5666959  60.6950239 127.5486741  61.4913506  60.4893100 127.4111192
  60.3982262  60.4466640 128.4576082  52.8163229  47.0214369 120.5195653
  53.5371591  47.3995621 120.0159370  52.1928533  47.7403245 120.6230631
  56.9594351  47.7259518 121.4553985  57.1757966  48.6084155 121.1542814
  56.4788419  47.3345731 120.7259627  60.3562275  61.2135906 122.9048832
  60.5299153  60.6482329 122.1522685  60.8491166  62.0136801 122.7228322
  66.2101666  53.9772329 124.5239132  66.6532812  53.2279654 124.1258255
  65.3328177  53.9682465 124.1412864  61.3437448  60.5302671 120.0045731
  62.0388352  61.1509363 120.2233045  61.6860598  59.6798022 120.2798109
  63.2428871  57.9802376 121.5333061  63.7680195  58.3189649 120.8082381
  63.1551223  57.0449391 121.3496196  54.9269532  64.0474359 125.8928315
  54.4874522  63.5550738 126.5861171  55.6777649  63.5047327 125.6520390
  47.4061871  60.2385900 125.8952943  48.2319890  59.9389672 125.5151586
  47.0555923  59.4693523 126.3442731  52.3743404  59.5912368 127.9650616
  51.7523413  58.9283073 127.6652844  53.0448271  59.6173500 127.2824264
  51.9356911  58.1416292 121.4409077  52.0845031  58.8251756 120.7875750
  52.7423354  58.1221382 121.9558533  65.7534531  55.4477567 126.9161580
  66.5881422  55.8867371 127.0799140  65.8893660  54.9716221 126.0969825
  49.6909544  54.1681469 122.4470146  49.4455586  53.2643799 122.6450356
  49.8605458  54.1698620 121.5049624  48.9605191  49.9009827 119.9456307
  48.2674436  49.9754182 119.2896343  48.7156943  49.1370171 120.4677824
  55.4352316  60.6364422 118.9120824  54.8626283  61.2554609 118.4591296
  56.0085110  61.1863784 119.4460746  58.6549576  60.9201572 120.0429407
  59.5880249  60.8547134 120.2462282  58.5672789  61.7557839 119.5843939
  61.2837593  60.2367443 117.0033354  61.2051224  59.9027306 117.8969112
  62.1047259  60.7289211 117.0024826  63.9815784  53.1029182 130.2109673
  63.9492104  52.1645183 130.3969357  64.5916407  53.1813219 129.4775498
  55.8199115  51.9725235 116.2536877  56.7658219  51.8431443 116.3225295
  55.4413360  51.2339897 116.7306305  69.7992334  54.1645189 129.3515710
  70.5295722  53.9030477 129.9123413  69.1899279  53.4273911 129.3917778
  67.8807631  52.3053051 129.9490161  67.1540794  52.1709016 129.3406652
  67.4654918  52.6129880 130.7546879  54.0042032  49.8975211 116.1891762
  53.0973487  49.6008324 116.2654476  54.2818013  49.6005029 115.3226048
  55.6204098  44.4412101 122.3436003  54.8104826  44.0959186 122.7191249
  56.3088514  44.1319645 122.9323615  52.7740816  46.7562147 116.3303741
  53.6359980  47.0817045 116.5899559  52.9591161  45.9693642 115.8176807
  60.9273453  45.6290673 123.4738964  60.3472122  46.2875477 123.0917017
  60.6609386  44.8068018 123.0626382  59.7098331  47.7890763 122.5295312
  58.8224186  48.0740414 122.3115507  60.1252320  47.6284527 121.6822589
  63.0612867  47.8137284 126.2449652  63.8373257  48.3033737 126.5174269
  62.3361001  48.2395339 126.7021521  65.4985426  48.5264904 127.3023592
  66.0929916  48.2860640 126.5916901  65.5712009  47.8072034 127.9297129
  47.7182581  62.3698515 127.6166757  47.5837049  61.6098915 127.0504755
  47.3014644  63.0939414 127.1495546  58.8541544  57.5535438 116.6243332
  59.5577395  57.7585441 117.2400988  58.1304193  58.1212200 116.8892416
  59.6839355  53.3045299 122.7445603  59.6274556  53.7613851 121.9053235
  60.2367697  52.5435984 122.5668445  63.4944161  49.0935031 123.5695722
  63.2381095  48.6931667 124.4003930  62.8697029  49.8078825 123.4445861
  67.8056498  51.8331104 126.0767014  67.2456056  51.9024294 126.8498576
  67.2000002  51.6572089 125.3566510  50.8751707  63.2667832 127.8285200
  50.7584091  64.2113264 127.7263890  50.0544154  62.9641393 128.2170999
  60.7628242  57.9917967 118.6741793  61.5973846  57.5599166 118.4919267
  60.6012585  57.8199981 119.6018687  60.4174134  54.4950081 120.0398132
  60.3622938  54.3294352 119.0986576  59.7920189  55.2026114 120.1960322
  53.7270259  43.9958190 119.6183450  53.7148929  44.9400030 119.7751721
  54.6193681  43.8128335 119.3242911  51.9006221  63.9196093 131.0441128
  52.8033468  63.9519704 131.3607623  51.6743591  62.9896544 131.0587464
  53.6559823  62.6727080 127.7051207  52.7055454  62.6728942 127.5915579
  53.9592310  61.9259815 127.1887241  62.0589039  70.3150523 124.6955385
  61.4953904  70.2240460 123.9271673  61.9441434  69.4950427 125.1757877
  59.6053471  71.8101715 127.5339605  60.3974763  71.4692539 127.1185905
  59.8450121  71.9196690 128.4541759  67.6388598  73.9821491 120.0069850
  66.9876577  74.5675571 119.6203864  68.4332960  74.5127686 120.0664887
  61.5644225  71.0710628 120.4056984  62.3375101  70.5239615 120.2669860
  61.9169624  71.9354877 120.6171446  63.9010503  67.2303294 118.0375434
  64.1536023  66.7084815 117.2758897  62.9635062  67.0669439 118.1402118
  68.9453785  66.2339072 125.8450177  69.7316875  65.8158495 125.4940594
  69.2092490  67.1385164 126.0131826  69.1163863  71.6711923 120.5438834
  68.4809696  71.7446549 121.2559739  68.7861269  72.2605521 119.8657913
  63.6206791  69.1331400 120.2399809  63.5043049  68.4576303 120.9080893
  63.7309051  68.6463774 119.4231962  65.9638332  68.5941547 123.9446498
  65.5996539  68.0672168 124.6559420  66.8205448  68.2040016 123.7712984
  65.6043819  63.6231447 118.9407847  65.7718222  64.4911683 119.3078318
  65.4140988  63.7858728 118.0169136  61.8131634  68.5362222 126.6410382
  60.8882130  68.4038437 126.8488073  62.0616047  69.3156442 127.1380324
  65.5833040  66.0789104 119.9254514  65.4632665  66.5246155 120.7639994
  64.8885628  66.4274422 119.3668052  59.1740445  68.1795496 127.4754171
  59.3032826  68.4329975 128.3893582  58.4937896  68.7723204 127.1558826
  71.2818106  66.5510577 120.7534848  72.1935962  66.7837964 120.5782545
  70.7727753  67.1347622 120.1909926  68.6254081  62.7268613 129.0024709
  67.7638560  63.0249867 129.2941446  68.6516516  62.9439012 128.0705741
  65.4415650  71.2710804 125.4098514  65.9053996  71.5498507 124.6203137
  65.1772449  70.3694248 125.2271605  64.3784536  67.3933956 122.2188079
  65.0808580  67.8455000 122.6862006  64.0465165  66.7517775 122.8467972
  58.1209870  65.6517509 127.5205213  57.3308924  65.9075037 127.0445324
  58.6121118  66.4665847 127.6257253  60.0724616  66.0162088 124.4788690
  59.2755779  66.1280782 124.9972185  59.8450208  66.3548740 123.6129580
  56.4047573  65.9047999 129.9520204  56.6555612  66.7895009 130.2177780
  56.9407122  65.7252601 129.1795296  65.6178301  74.2074899 122.2950185
  65.4823976  75.0526435 122.7235032  66.1588114  74.4094177 121.5316118
  59.0707698  71.7250337 122.8678110  59.5832219  72.5193587 123.0183674
  59.7230411  71.0276627 122.8011711  60.8802583  74.8416093 124.9500863
  61.0569212  75.7634058 124.7621847  61.6759417  74.5274512 125.3795243
  68.9670765  57.7305461 130.8249078  68.6235034  58.6207102 130.7488189
  69.3349727  57.5407118 129.9618663  57.0356615  70.0538991 123.6437680
  57.8731837  70.4636000 123.4271388  57.2134883  69.1138433 123.6137874
  68.9321047  67.7214072 119.3321513  68.4167671  68.4918676 119.5709901
  68.6598356  67.0479208 119.9554575  66.5168158  62.5663773 124.3906752
  65.6609755  62.1770623 124.2112390  66.9295110  62.6455733 123.5306537
  68.0467305  60.1010116 128.7898311  67.5432101  60.0640251 127.9766117
  68.3397912  61.0102859 128.8494968  64.2910191  60.1848846 127.7964493
  65.1563188  59.9891654 127.4370382  64.3587700  59.9559197 128.7233850
  73.9055322  70.4746427 121.2674687  73.1284764  70.1357586 120.8229849
  74.5846802  70.4799050 120.5929652  68.7207351  65.5941164 121.1581294
  68.4157486  65.9087313 122.0091438  69.6737793  65.6722584 121.2008627
  67.1653782  71.7531387 122.8074248  66.6375144  71.0184147 122.4947486
  66.6641285  72.5306064 122.5614217  61.8972510  62.4151054 125.1680860
  62.4716262  62.1926235 124.4354053  62.4843492  62.4839748 125.9209461
  62.2242097  64.4455515 119.1876745  61.3879409  64.7830201 119.5086020
  62.0846867  64.3104494 118.2503882  64.1995178  59.2892302 123.8955929
  63.5459590  58.9741320 123.2712544  64.1575652  58.6668043 124.6215752
  65.3106383  69.5711598 115.8109221  64.4033444  69.3400851 116.0100370
  65.8077415  68.7749217 115.9983203  68.2174461  78.2809105 118.7305907
  67.5436160  78.5840801 119.3390865  68.6040283  79.0838185 118.3811365
  67.4332918  65.7774236 128.2203577  66.5155479  65.9989183 128.0625265
  67.8493062  65.8520546 127.3615284  68.2167966  67.1765652 123.3506257
  68.9639785  67.6887049 123.0413379  68.4859555  66.8549704 124.2110651
  66.4894616  69.6724192 120.3333211  65.5805835  69.3883225 120.4305681
  66.5189700  70.0923271 119.4736518  70.6646803  64.2122768 125.3325046
  69.9269560  63.7000154 125.6635289  70.9173577  63.7723150 124.5208323
  70.7658430  56.9899020 125.9266816  71.0717307  56.1296383 125.6392731
  71.4911035  57.5816640 125.7265810  57.0582786  67.3929707 124.3148414
  56.8607186  66.7999067 123.5899480  56.5029450  67.0881917 125.0324352
  65.0379510  67.2852813 126.4343007  65.0928120  66.3326649 126.3585483
  64.2270712  67.4412252 126.9184305  66.1870704  71.2132936 117.6721290
  65.7490134  70.4968795 117.2126927  66.9281145  71.4409051 117.1106381
  62.9771870  65.9029873 124.1933386  62.1639736  66.2024043 124.5998578
  63.4730864  65.5085562 124.9107868  74.3043819  69.4890133 123.7297609
  74.1661717  69.6791729 122.8018798  73.9480037  70.2509516 124.1865660
  62.4685945  63.4748228 129.8094621  63.1085324  63.3336987 129.1117584
  61.6363475  63.1882742 129.4333223  63.2446249  72.7750659 125.9229613
  64.0386847  72.2800979 125.7212188  62.5337941  72.2468522 125.5597319
  59.5529012  66.9193740 121.9989366  58.6226600  66.8578196 122.2159328
  59.6486484  66.3969693 121.2026007  59.4714561  63.4448553 124.5867607
  59.7321378  64.3593887 124.4776768  60.2931733  62.9772996 124.7364220
  60.9439486  64.8586310 131.7566432  61.6162540  64.6503673 131.1079081
  60.1169273  64.6608396 131.3171664  66.4165677  78.4488777 120.9452987
  66.5917432  77.9776820 121.7598609  65.7298465  79.0754543 121.1734247
  70.3081931  70.0717318 117.2653348  69.6911102  69.3464146 117.1686400
  69.8398420  70.8326678 116.9220422  62.0980477  64.2902742 116.3874652
  61.2209944  64.1691543 116.0236899  62.5738230  63.4988820 116.1353541
  53.6182617  69.0779902 126.4816159  54.3053657  68.7641632 125.8937174
  53.4630746  69.9821266 126.2083410  58.4217340  63.9670098 130.9101183
  58.3375528  63.3595768 130.1751593  57.6000046  64.4579117 130.9110679
  68.5941053  62.4523662 126.2771378  69.0909753  61.6993624 125.9572448
  67.8228035  62.4887979 125.7114587  69.6770834  71.2095349 123.8509801
  68.7427113  71.3296812 123.6814505  69.8547503  70.3067816 123.5869811
  65.1776022  64.5941045 126.0043062  64.8073810  64.0412085 126.6923968
  65.6735115  63.9899178 125.4518062  73.0643386  67.0512668 124.3859835
  73.5303838  67.8840660 124.3120138  73.5150886  66.5857650 125.0905094
  71.1319617  73.3956490 121.3845987  71.4079461  73.2813084 122.2939861
  70.2624115  72.9973974 121.3458160  71.0360048  59.4193255 128.4250737
  70.1223128  59.6497482 128.5932944  71.4653150  59.5031699 129.2764769
  68.1015846  76.5711026 122.2893849  68.6303613  76.0603480 121.6764012
  68.3644066  76.2553556 123.1539382  53.1950594  67.1580495 128.7533626
  53.2334693  66.6244086 129.5470744  52.6890886  66.6315701 128.1344603
  60.5741356  62.0045036 132.2496168  60.6382682  62.8659867 131.8373566
  60.5108476  61.3919037 131.5168527  56.8259171  65.8844597 121.8287558
  57.1212612  64.9755276 121.7754611  55.9247207  65.8632337 121.5068560
  60.3553418  63.9600594 127.8115106  59.6340004  64.5736562 127.6722579
  61.1446674  64.4958359 127.7331752  58.5547013  63.5658695 121.9526883
  58.2259719  62.6856074 121.7701989  58.9086383  63.5106364 122.8403272
  61.6688836  63.8531665 122.3202360  62.0084908  64.3817586 121.5980969
  62.1160956  64.1912071 123.0960927  64.3632277  62.2368715 131.7705428
  64.0229097  61.4376529 132.1726108  63.6571283  62.5370426 131.1982262
  65.0148749  59.3218028 130.2232751  65.8374818  58.8478506 130.1011642
  65.2586812  60.1008512 130.7231438  63.6556983  62.3506286 120.5195653
  64.3765346  62.7287539 120.0159370  63.0322287  63.0695163 120.6230631
  67.7988106  63.0551435 121.4553985  68.0151720  63.9376073 121.1542814
  67.3182173  62.6637649 120.7259627  62.5387327  66.0137149 128.0324730
  62.3931908  66.3277452 128.9249012  62.0612531  66.6322049 127.4795629
  64.3983710  63.0039696 128.0805620  64.3845279  62.1080790 127.7437918
  65.1156138  63.0110360 128.7143906  66.2509841  63.4377037 130.1258747
  65.9927619  64.3594107 130.1243077  65.7194881  63.0407471 130.8159211
  57.0132989  68.5542493 130.9712391  56.4686458  69.3302301 131.1032666
  57.8912339  68.9013297 130.8131513  63.8020606  61.8854077 123.3493190
  63.9236517  60.9570723 123.5484077  63.5122649  61.8992763 122.4371505
  66.6711797  59.5708987 126.4859910  66.6933493  59.6348320 125.5311889
  67.0879856  58.7313496 126.6800416  72.1831202  75.8594588 120.0045731
  72.8782107  76.4801281 120.2233045  72.5254352  75.0089939 120.2798109
  74.0822625  73.3094294 121.5333061  74.6073949  73.6481567 120.8082381
  73.9944978  72.3741309 121.3496196  58.2455625  75.5677818 125.8952943
  59.0713645  75.2681590 125.5151586  57.8949677  74.7985440 126.3442731
  56.4464230  73.4864144 126.8541876  55.6096138  73.0586319 126.6725878
  56.4187876  73.6796588 127.7912668  62.7750665  73.4708209 121.4409077
  62.9238785  74.1543674 120.7875750  63.5817109  73.4513300 121.9558533
  60.5303298  69.4973387 122.4470146  60.2849340  68.5935717 122.6450356
  60.6999213  69.4990538 121.5049624  59.7998946  65.2301745 119.9456307
  59.1068191  65.3046100 119.2896343  59.5550698  64.4662088 120.4677824
  68.4712602  56.7897346 127.3495798  68.7514356  56.1220535 127.9756225
  69.2563209  56.9826442 126.8370462  66.2746071  75.9656340 118.9120824
  65.7020038  76.5846527 118.4591296  66.8478864  76.5155702 119.4460746
  69.4943330  76.2493490 120.0429407  70.4274004  76.1839052 120.2462282
  69.4066543  77.0849757 119.5843939  72.1231347  75.5659360 117.0033354
  72.0444979  75.2319224 117.8969112  72.9441014  76.0581128 117.0024826
  66.6592869  67.3017153 116.2536877  67.6051974  67.1723361 116.3225295
  66.2807114  66.5631815 116.7306305  72.6314754  58.9673159 126.2163769
  72.4339575  58.6588247 127.1007101  73.2414459  59.6934798 126.3461698
  64.8435786  65.2267129 116.1891762  63.9367242  64.9300242 116.2654476
  65.1211767  64.9296947 115.3226048  55.7613727  66.5473492 126.6390808
  55.4416511  65.6938801 126.3465182  55.2147155  66.7622071 127.3948776
  66.4597852  59.7704019 122.3436003  65.6498580  59.4251104 122.7191249
  67.1482269  59.4611562 122.9323615  68.3888400  58.8482066 123.9660300
  68.9419439  59.2677519 124.6250323  68.6258487  57.9217814 124.0083256
  63.6134571  62.0854064 116.3303741  64.4753735  62.4108963 116.5899559
  63.7984915  61.2985560 115.8176807  55.6301987  70.1676404 128.6083930
  54.9365458  69.7530357 128.0953884  56.3774978  70.2096940 128.0117349
  71.7667207  60.9582591 123.4738964  71.1865876  61.6167395 123.0917017
  71.5003140  60.1359935 123.0626382  70.2170774  60.3587648 125.6760285
  70.7170552  60.4704183 124.8674603  70.8606382  60.0548701 126.3161093
  57.5438729  70.0994658 126.4849945  57.5209417  70.1982345 125.5331828
  57.8539366  70.9459809 126.8067111  70.5492085  63.1182681 122.5295312
  69.6617940  63.4032332 122.3115507  70.9646074  62.9576444 121.6822589
  73.9006622  63.1429202 126.2449652  74.6767012  63.6325655 126.5174269
  73.1754756  63.5687256 126.7021521  69.6935299  72.8827356 116.6243332
  70.3971149  73.0877358 117.2400988  68.9697948  73.4504118 116.8892416
  70.5233109  68.6337217 122.7445603  70.4668311  69.0905768 121.9053235
  71.0761452  67.8727902 122.5668445  74.3337915  64.4226949 123.5695722
  74.0774849  64.0223585 124.4003930  73.7090783  65.1370743 123.4445861
  71.6021996  73.3209885 118.6741793  72.4367600  72.8891083 118.4919267
  71.4406339  73.1491899 119.6018687  71.2567888  69.8241998 120.0398132
  71.2016692  69.6586270 119.0986576  70.6313944  70.5318031 120.1960322
  56.0460403  65.0610063 133.8659554  56.6919267  64.5509017 134.3546779
  55.8377555  65.7978744 134.4402979  64.5664014  59.3250107 119.6183450
  64.5542684  60.2691947 119.7751721  65.4587436  59.1420253 119.3242911
  68.3816133  55.9192884 123.8729387  67.6148529  55.3651371 124.0186069
  68.7926838  55.9914753 124.7343539  73.0635852  79.7747432 119.1876745
  72.2273164  80.1122119 119.5086020  72.9240621  79.6396412 118.2503882
  72.9374232  79.6194660 116.3874652  72.0603698  79.4983460 116.0236899
  73.4131985  78.8280738 116.1353541  70.6392700  80.5593662 119.9456307
  69.9461945  80.6338017 119.2896343  70.3944452  79.7954006 120.4677824
  75.6829541  80.5559047 116.1891762  74.7760996  80.2592159 116.2654476
  75.9605522  80.2588865 115.3226048  74.4528325  77.4145982 116.3303741
  75.3147489  77.7400880 116.5899559  74.6378670  76.6277478 115.8176807
  75.4057768  74.6542025 119.6183450  75.3936438  75.5983865 119.7751721
  76.2981190  74.4712170 119.3242911  46.5386954  24.6287392 105.4551214
  45.8648653  24.9319089 106.0636172  46.9252776  25.4316472 105.1056671
  50.5043694  22.2072875 106.7291037  51.1994599  22.8279568 106.9478352
  50.8466845  21.3568227 107.0043415  44.5958563  22.3134627 105.6366131
  44.0232530  22.9324814 105.1836603  45.1691357  22.8633989 106.1706053
  47.8155823  22.5971777 106.7674713  48.7486496  22.5317339 106.9707589
  47.7279036  23.4328044 106.3089246  50.4443839  21.9137648 103.7278661
  50.3657471  21.5797511 104.6214419  51.2653506  22.4059416 103.7270133
  48.0147791  19.2305643 103.3488639  48.7183641  19.4355646 103.9646295
  47.2910440  19.7982405 103.6137723  49.9234489  19.6688172 105.3987099
  50.7580092  19.2369371 105.2164574  49.7618831  19.4970186 106.3263994
  58.5518764  30.1857823 115.4942276  59.1897174  30.0664571 114.7905616
  58.4339607  31.1338667 115.5530228  51.2195286  31.9920728 111.4200692
  50.6560151  31.9010665 110.6516979  51.1047681  31.1720632 111.9003184
  56.7994844  35.6591696 106.7315156  56.1482824  36.2445776 106.3449170
  57.5939207  36.1897890 106.7910194  50.7250471  32.7480833 107.1302291
  51.4981347  32.2009820 106.9915167  51.0775870  33.6125082 107.3416752
  53.0616749  28.9073499 104.7620741  53.3142270  28.3855020 104.0004204
  52.1241308  28.7439644 104.8647424  58.1060032  27.9109277 112.5695484
  58.8923121  27.4928700 112.2185901  58.3698736  28.8155369 112.7377132
  58.2770109  33.3482127 107.2684141  57.6415942  33.4216754 107.9805045
  57.9467516  33.9375726 106.5903220  63.5068459  27.8484510 113.4728462
  64.2393631  27.2783727 113.7066292  62.7507815  27.4606111 113.9134968
  52.7813038  30.8101605 106.9645116  52.6649296  30.1346508 107.6326200
  52.8915298  30.3233979 106.1477269  55.1244579  30.2711752 110.6691805
  54.7602786  29.7442373 111.3804726  55.9811695  29.8810221 110.4958290
  54.7650066  25.3001652 105.6653153  54.9324468  26.1681888 106.0323624
  54.5747235  25.4628933 104.7414443  54.7439287  27.7559309 106.6499820
  54.6238912  28.2016360 107.4885301  54.0491875  28.1044627 106.0913358
  52.5046179  40.5262951 110.2989951  52.4270209  41.4770776 110.3778432
  51.9007823  40.1808823 110.9564878  60.4424353  28.2280782 107.4780154
  61.3542209  28.4608169 107.3027852  59.9334000  28.8117826 106.9155233
  59.0493935  33.2106601 114.8693736  58.4202798  33.3752315 114.1669804
  58.6619597  33.6248210 115.6404700  62.9283167  34.1461039 112.2238100
  62.2434205  34.5259940 111.6735133  63.0127017  34.7556365 112.9570047
  54.6021897  32.9481009 112.1343821  55.0660243  33.2268712 111.3448443
  54.3378695  32.0464453 111.9516912  53.5390783  29.0704161 108.9433386
  54.2414827  29.5225205 109.4107312  53.2071412  28.4287980 109.5713279
  61.2979927  34.6692953 116.9955800  62.1197370  34.2673140 116.7138482
  61.2942330  34.5661187 117.9471916  69.3885920  31.0131701 113.3440772
  68.6349628  30.4439100 113.1884776  69.5233461  30.9794366 114.2911407
  54.7784548  35.8845104 109.0195491  54.6430223  36.7296640 109.4480339
  55.3194360  36.0864381 108.2561425  48.2313945  33.4020542 109.5923416
  48.7438466  34.1963792 109.7428981  48.8836658  32.7046832 109.5257018
  50.0408830  36.5186298 111.6746169  50.2175458  37.4404263 111.4867153
  50.8365663  36.2044717 112.1040549  51.1640145  38.0364472 117.6756512
  51.7147571  37.9081535 116.9033506  50.3251621  38.3359361 117.3251405
  46.1962862  31.7309196 110.3682987  47.0338084  32.1406204 110.1516695
  46.3741130  30.7908638 110.3383181  58.0927294  29.3984277 106.0566820
  57.5773918  30.1688881 106.2955207  57.8204603  28.7249413 106.6799881
  55.6774405  24.2433978 111.1152058  54.8216002  23.8540828 110.9357697
  56.0901357  24.3225938 110.2551844  63.0661568  32.1516631 107.9919993
  62.2891011  31.8127791 107.5475155  63.7453049  32.1569255 107.3174958
  57.8813597  27.2711369 107.8826601  57.5763733  27.5857518 108.7336744
  58.8344039  27.3492789 107.9253934  56.3260029  33.4301592 109.5319555
  55.7981391  32.6954352 109.2192792  55.8247532  34.2076269 109.2859523
  61.3052875  31.6250613 114.6486601  60.6476550  32.3149874 114.7366730
  62.1093274  32.0147045 114.9920588  60.1158334  29.9794985 112.6990543
  60.6290216  30.6124977 113.2012253  60.7659558  29.3796181 112.3333903
  51.3848344  26.1225720 105.9122052  50.5485656  26.4600406 106.2331326
  51.2453114  25.9874699 104.9749189  54.4712629  31.2481802 102.5354528
  53.5639691  31.0171056 102.7345677  54.9683661  30.4519422 102.7228510
  57.3780708  39.9579310 105.4551214  56.7042407  40.2611006 106.0636172
  57.7646530  40.7608390 105.1056671  57.3774213  28.8535857 110.0751564
  58.1246032  29.3657254 109.7658686  57.6465802  28.5319909 110.9355957
  55.6500863  31.3494397 107.0578518  54.7412082  31.0653430 107.1550988
  55.6795947  31.7693476 106.1981825  60.8820130  34.9600987 110.8269686
  60.4282457  34.1191897 110.8834876  60.2514097  35.5962385 111.1644466
  59.8253050  25.8892973 112.0570353  59.0875807  25.3770359 112.3880596
  60.0779823  25.4493354 111.2453630  59.3253069  36.7977484 111.7619504
  59.6176044  37.3582541 111.0431869  59.8351690  37.0906045 112.5172663
  54.1985757  28.9623018 113.1588313  54.2534367  28.0096854 113.0830790
  53.3876959  29.1182457 113.6429612  55.3476951  32.8903141 104.3966597
  54.9096381  32.1739000 103.9372234  56.0887391  33.1179256 103.8351688
  52.1378117  27.5800078 110.9178692  51.3245982  27.8794248 111.3243884
  52.6337111  27.1855766 111.6353175  54.2886695  37.5757835 112.8512957
  54.2462873  37.8018681 111.9221489  55.2049393  37.3421209 112.9998758
  63.4650065  31.1660338 110.4542915  63.3267964  31.3561934 109.5264104
  63.1086284  31.9279721 110.9110966  63.4919445  33.2336865 115.4654187
  63.9255952  33.1412154 116.3137241  64.2051026  33.2094366 114.8274203
  52.4052495  34.4520864 112.6474920  53.1993094  33.9571184 112.4457495
  51.6944188  33.9238727 112.2842625  57.2247340  36.8338959 116.9987287
  57.2784362  37.4029895 117.7665003  56.3562121  37.0040844 116.6341324
  48.7135259  28.5963945 108.7234672  47.7832847  28.5348401 108.9404635
  48.8092731  28.0739898 107.9271314  64.3534995  33.2760566 117.9987072
  64.5470885  34.1806376 118.2446347  64.2535613  32.8167985 118.8325657
  54.9823771  35.0249886 116.3272757  54.8434857  34.6568670 117.1998695
  54.1938368  35.5397525 116.1556715  55.5771923  40.1258982 107.6698293
  55.7523679  39.6547025 108.4843916  54.8904711  40.7524748 107.8979554
  56.5328987  34.4031488 113.7161595  56.1978819  34.3632258 114.6119244
  56.0332932  33.7376204 113.2432005  59.4688178  31.7487523 103.9898654
  58.8517349  31.0234351 103.8931707  59.0004667  32.5096883 103.6465728
  50.1433009  43.2748345 114.4438153  50.3829607  43.9066869 115.1217172
  49.3002205  42.9236385 114.7303513  51.2586724  25.9672947 103.1119959
  50.3816190  25.8461748 102.7482205  51.7344477  25.1759025 102.8598847
  54.6560871  39.0827467 116.8479657  54.5831042  39.8882439 117.3598962
  54.2138264  39.2819433 116.0227679  54.4450650  38.3199237 110.3582479
  53.6618172  38.8620917 110.4520704  55.1443395  38.8373217 110.7576720
  65.6077058  29.8334232 114.6434976  65.5966934  30.7158948 114.2728909
  64.7394437  29.4805783 114.4489513  57.1159554  38.9814301 119.0037816
  57.8287526  39.6161766 118.9313718  56.6249583  39.0778167 118.1877818
  58.8377081  32.8865554 110.5755108  57.9033360  33.0067016 110.4059812
  59.0153749  31.9838021 110.3115118  62.2249632  28.7282873 111.1105142
  62.6910085  29.5610865 111.0365445  62.6757133  28.2627855 111.8150400
  60.2925863  35.0726695 108.1091294  60.5685707  34.9583289 109.0185168
  59.4230362  34.6744179 108.0703467  56.9279927  39.3213045 111.7524108
  57.1102322  38.5034701 112.2151860  57.7512913  39.5380738 111.3148998
  57.2622093  38.2481231 109.0139156  57.7909859  37.7373685 108.4009318
  57.5250313  37.9323761 109.8784689  50.6177841  39.2996347 111.7736932
  49.9488216  39.7842475 111.2900972  50.4790711  39.5465568 112.6880311
  54.7583109  41.3340091 118.3719590  55.3101417  41.4971712 119.1368676
  55.0989303  41.9244529 117.6999615  45.9865418  27.5614802 108.5532864
  46.2818859  26.6525481 108.4999918  45.0853454  27.5402542 108.2313867
  57.8951497  39.2822066 115.3583273  57.7702636  38.4811806 114.8494218
  58.5530588  39.7768260 114.8697243  59.9586405  37.0831086 116.9862823
  59.0116741  36.9636438 116.9141149  60.3069178  36.1953584 117.0689084
  56.9632838  36.8783803 113.1867175  56.8157801  35.9500510 113.3674745
  57.7886332  36.9003893 112.7024250  50.8295083  25.5301870 109.0447667
  51.1691155  26.0587791 108.3226275  51.2767203  25.8682276 109.8206234
  60.5666960  37.7012361 114.2732048  61.4913508  37.4955223 114.1356499
  60.3982264  37.4528762 115.1821389  52.8163230  24.0276491 107.2440960
  53.5371592  24.4057744 106.7404677  52.1928534  24.7465368 107.3475938
  56.9594353  24.7321640 108.1799292  57.1757967  25.6146278 107.8788120
  56.4788420  24.3407854 107.4504934  60.3562276  38.2198029 109.6294139
  60.5299154  37.6544451 108.8767992  60.8491168  39.0198924 109.4473629
  66.2101668  30.9834452 111.2484439  66.6532814  30.2341777 110.8503562
  65.3328178  30.9744588 110.8658171  61.3437449  37.5364793 106.7291037
  62.0388354  38.1571486 106.9478352  61.6860599  36.6860144 107.0043415
  63.2428872  34.9864499 108.2578368  63.7680196  35.3251771 107.5327688
  63.1551225  34.0511514 108.0741503  54.9269533  41.0536482 112.6173621
  54.4874523  40.5612861 113.3106478  55.6777650  40.5109450 112.3765697
  47.4061872  37.2448023 112.6198249  48.2319892  36.9451795 112.2396893
  47.0555924  36.4755645 113.0688038  52.3743405  36.5974491 114.6895923
  51.7523414  35.9345196 114.3898151  53.0448272  36.6235623 114.0069571
  51.9356912  35.1478414 108.1654384  52.0845032  35.8313879 107.5121056
  52.7423355  35.1283504 108.6803839  65.7534532  32.4539690 113.6406886
  66.5881424  32.8929494 113.8044447  65.8893661  31.9778343 112.8215132
  49.6909545  31.1743592 109.1715452  49.4455587  30.2705922 109.3695663
  49.8605459  31.1760742 108.2294930  48.9605192  26.9071950 106.6701614
  48.2674437  26.9816305 106.0141650  48.7156944  26.1432293 107.1923131
  55.4352317  37.6426545 105.6366131  54.8626284  38.2616732 105.1836603
  56.0085111  38.1925907 106.1706053  58.6549577  37.9263695 106.7674713
  59.5880250  37.8609257 106.9707589  58.5672790  38.7619962 106.3089246
  61.2837594  37.2429565 103.7278661  61.2051225  36.9089429 104.6214419
  62.1047261  37.7351333 103.7270133  63.9815785  30.1091305 116.9354979
  63.9492105  29.1707305 117.1214663  64.5916409  30.1875341 116.2020804
  55.8199116  28.9787358 102.9782183  56.7658221  28.8493566 103.0470601
  55.4413361  28.2402019 103.4551612  69.7992335  31.1707311 116.0761016
  70.5295723  30.9092600 116.6368720  69.1899280  30.4336033 116.1163084
  67.8807632  29.3115174 116.6735467  67.1540796  29.1771139 116.0651959
  67.4654919  29.6192003 117.4792185  54.0042033  26.9037334 102.9137069
  53.0973488  26.6070447 102.9899782  54.2818014  26.6067152 102.0471355
  55.6204099  21.4474224 109.0681310  54.8104827  21.1021309 109.4436556
  56.3088516  21.1381767 109.6568922  52.7740818  23.7624269 103.0549048
  53.6359982  24.0879168 103.3144865  52.9591162  22.9755765 102.5422114
  60.9273454  22.6352796 110.1984271  60.3472123  23.2937600 109.8162323
  60.6609387  21.8130140 109.7871688  59.7098332  24.7952886 109.2540619
  58.8224187  25.0802537 109.0360814  60.1252321  24.6346649 108.4067896
  63.0612868  24.8199407 112.9694958  63.8373258  25.3095859 113.2419575
  62.3361002  25.2457461 113.4266828  65.4985427  25.5327026 114.0268899
  66.0929918  25.2922762 113.3162207  65.5712011  24.8134157 114.6542435
  47.7182583  39.3760637 114.3412064  47.5837051  38.6161038 113.7750062
  47.3014645  40.1001537 113.8740853  58.8541546  34.5597561 103.3488639
  59.5577396  34.7647563 103.9646295  58.1304194  35.1274323 103.6137723
  59.6839356  30.3107422 109.4690909  59.6274557  30.7675973 108.6298542
  60.2367698  29.5498107 109.2913752  63.4944162  26.0997154 110.2941029
  63.2381096  25.6993789 111.1249236  62.8697030  26.8140948 110.1691168
  67.8056500  28.8393227 112.8012320  67.2456058  28.9086416 113.5743882
  67.2000003  28.6634212 112.0811816  50.8751709  40.2729954 114.5530506
  50.7584093  41.2175387 114.4509197  50.0544155  39.9703516 114.9416306
  60.7628243  34.9980090 105.3987099  61.5973847  34.5661288 105.2164574
  60.6012586  34.8262104 106.3263994  60.4174135  31.5012203 106.7643438
  60.3622939  31.3356475 105.8231883  59.7920191  32.2088236 106.9205628
  53.7270261  21.0020312 106.3428757  53.7148931  21.9462152 106.4997028
  54.6193683  20.8190458 106.0488218  51.9006223  40.9258216 117.7686435
  52.8033469  40.9581826 118.0852930  51.6743593  39.9958667 117.7832771
  53.6559825  39.6789203 114.4296514  52.7055456  39.6791064 114.3160886
  53.9592311  38.9321937 113.9132548  69.3912518  45.5149741 115.4942276
  70.0290928  45.3956488 114.7905616  69.2733361  46.4630585 115.5530228
  66.2002224  45.4677169 115.4303801  65.8620736  45.3518234 114.5424335
  67.0691993  45.0668334 115.4104807  62.0589040  47.3212646 111.4200692
  61.4953905  47.2302582 110.6516979  61.9441435  46.5012550 111.9003184
  66.6822007  46.6212021 121.3890006  66.6710648  46.2264819 120.5170510
  66.8442647  45.8878093 121.9823778  59.6053472  48.8163837 114.2584912
  60.3974764  48.4754662 113.8431211  59.8450122  48.9258812 115.1787065
  67.6388599  50.9883613 106.7315156  66.9876579  51.5737694 106.3449170
  68.4332962  51.5189808 106.7910194  61.5644226  48.0772750 107.1302291
  62.3375102  47.5301737 106.9915167  61.9169625  48.9417000 107.3416752
  63.4029269  49.4049133 120.3369190  63.1119135  50.3094763 120.2215856
  64.0386253  49.4465660 121.0513260  64.3285475  46.7825981 116.9270550
  64.9249048  46.5582004 116.2127513  64.3860447  46.0410727 117.5295998
  63.9010504  44.2365417 104.7620741  64.1536024  43.7146938 104.0004204
  62.9635063  44.0731562 104.8647424  68.9453787  43.2401195 112.5695484
  69.7316876  42.8220618 112.2185901  69.2092491  44.1447287 112.7377132
  69.1163864  48.6774045 107.2684141  68.4809697  48.7508672 107.9805045
  68.7861270  49.2667644 106.5903220  74.3462214  43.1776428 113.4728462
  75.0787386  42.6075645 113.7066292  73.5901569  42.7898029 113.9134968
  63.6206793  46.1393522 106.9645116  63.5043051  45.4638426 107.6326200
  63.7309052  45.6525896 106.1477269  65.9638333  45.6003670 110.6691805
  65.5996541  45.0734291 111.3804726  66.8205449  45.2102139 110.4958290
  71.8687634  36.8898002 117.9323071  71.5370959  37.7593413 117.7084286
  71.2733247  36.5734286 118.6117101  65.6043820  40.6293569 105.6653153
  65.7718223  41.4973806 106.0323624  65.4140990  40.7920851 104.7414443
  68.3619154  49.0910548 117.3318984  68.0619877  49.9935587 117.2234791
  68.0170213  48.8242731 118.1840137  61.8131635  45.5424345 113.3655688
  60.8882132  45.4100559 113.5733380  62.0616048  46.3218564 113.8625631
  71.7616297  41.6093088 115.0116421  70.8533175  41.5408497 114.7175182
  71.7103893  42.0865033 115.8398247  65.5833041  43.0851227 106.6499820
  65.4632667  43.5308278 107.4885301  64.8885630  43.4336544 106.0913358
  59.1740446  45.1857619 114.1999477  59.3032827  45.4392097 115.1138889
  58.4937897  45.7785327 113.8804132  63.3439933  55.8554869 110.2989951
  63.2663963  56.8062694 110.3778432  62.7401577  55.5100741 110.9564878
  65.8357163  43.0282734 122.9551318  65.0590497  43.5876654 122.9454183
  66.4747726  43.5139517 123.4766188  73.6277944  39.8109527 116.7894295
  72.9852324  40.1042060 116.1434090  73.1232872  39.6962447 117.5947492
  71.2818107  43.5572700 107.4780154  72.1935964  43.7900087 107.3027852
  70.7727755  44.1409744 106.9155233  64.0903536  45.8368187 122.5169285
  64.8318220  46.3753231 122.2404109  63.3840521  46.4634476 122.6740837
  69.5658875  47.9797328 121.1141447  69.9742231  47.5379738 120.3696079
  68.8436137  47.4049955 121.3675640  65.9189945  42.9169935 118.4875004
  66.7651140  43.3409348 118.6309653  65.8588583  42.2603559 119.1813567
  69.8887690  48.5398518 114.8693736  69.2596552  48.7044233 114.1669804
  69.5013352  48.9540128 115.6404700  73.7676922  49.4752956 112.2238100
  73.0827960  49.8551858 111.6735133  73.8520771  50.0848283 112.9570047
  69.0689391  40.5774303 120.1456177  68.8250322  41.3316363 119.6090453
  69.3449321  40.9559650 120.9803425  71.0227853  47.1212915 118.8233443
  71.2344749  47.7644675 118.1467824  70.9757602  46.2875232 118.3555373
  68.6254082  39.7330736 115.7270015  67.7638561  40.0311989 116.0186753
  68.6516517  39.9501135 114.7951048  65.4415652  48.2772926 112.1343821
  65.9053997  48.5560629 111.3448443  65.1772450  47.3756371 111.9516912
  62.3339733  47.8244408 115.0723584  62.9041090  48.2531676 114.4341069
  62.9247845  47.5426993 115.7707770  64.3784538  44.3996079 108.9433386
  65.0808581  44.8517123 109.4107312  64.0465166  43.7579898 109.5713279
  62.8264899  42.9907835 123.3184595  62.1963560  43.6724116 123.5519992
  62.7200987  42.8790917 122.3737734  58.1209872  42.6579632 114.2450520
  57.3308926  42.9137160 113.7690630  58.6121119  43.4727969 114.3502560
  72.1373681  49.9984871 116.9955800  72.9591125  49.5965058 116.7138482
  72.1336084  49.8953105 117.9471916  60.0724617  43.0224211 111.2033996
  59.2755780  43.1342905 111.7217492  59.8450209  43.3610863 110.3374887
  65.9030285  49.5468914 119.1516511  65.9674717  50.0089321 119.9874683
  65.1941209  48.9166279 119.2798821  56.4047575  42.9110122 116.6765510
  56.6555613  43.7957132 116.9423086  56.9407123  42.7314723 115.9040602
  80.2279674  46.3423619 113.3440772  79.4743383  45.7731017 113.1884776
  80.3627216  46.3086284 114.2911407  65.6178302  51.2137021 109.0195491
  65.4823977  52.0588557 109.4480339  66.1588115  51.4156299 108.2561425
  59.0707700  48.7312460 109.5923416  59.5832220  49.5255710 109.7428981
  59.7230413  48.0338750 109.5257018  60.8802584  51.8478216 111.6746169
  61.0569213  52.7696180 111.4867153  61.6759418  51.5336635 112.1040549
  65.0213603  38.7086480 123.2730103  65.7623316  39.3093634 123.1934565
  65.2531526  37.9664118 122.7148146  60.1654941  43.8942848 121.5508333
  60.0508456  42.9928105 121.8515432  59.3099459  44.1406544 121.1993149
  67.2446779  51.8360588 123.1495833  66.8010633  51.0496967 122.8316738
  67.9063992  52.0239738 122.4839724  62.0033900  53.3656390 117.6756512
  62.5541325  53.2373453 116.9033506  61.1645376  53.6651279 117.3251405
  69.3428017  52.1163388 121.1777235  69.3246492  52.9372269 120.6857504
  70.2647937  51.9917463 121.4027376  65.8001071  49.6307517 122.0200743
  66.3329408  48.8695806 121.7900051  65.2715152  49.3381169 122.7624897
  68.9670766  34.7367583 117.5494385  68.6235035  35.6269225 117.4733495
  69.3349729  34.5469241 116.6863970  57.0356617  47.0601114 110.3682987
  57.8731839  47.4698122 110.1516695  57.2134884  46.1200556 110.3383181
  68.9321049  44.7276194 106.0566820  68.4167672  45.4980799 106.2955207
  68.6598357  44.0541331 106.6799881  66.5168160  39.5725895 111.1152058
  65.6609756  39.1832746 110.9357697  66.9295111  39.6517856 110.2551844
  68.0467306  37.1072239 115.5143618  67.5432102  37.0702374 114.7011423
  68.3397913  38.0164981 115.5740275  64.2910192  37.1910968 114.5209800
  65.1563189  36.9953777 114.1615689  64.3587701  36.9621320 115.4479156
  73.9055323  47.4808549 107.9919993  73.1284766  47.1419709 107.5475155
  74.5846804  47.4861172 107.3174958  68.7207352  42.6003287 107.8826601
  68.4157487  42.9149436 108.7336744  69.6737794  42.6784706 107.9253934
  67.1653784  48.7593510 109.5319555  66.6375145  48.0246269 109.2192792
  66.6641286  49.5368186 109.2859523  72.1446630  46.9542530 114.6486601
  71.4870304  47.6441792 114.7366730  72.9487029  47.3438962 114.9920588
  61.8972511  39.4213176 111.8926166  62.4716263  39.1988358 111.1599359
  62.4843494  39.4901871 112.6454768  70.9552088  45.3086903 112.6990543
  71.4683970  45.9416895 113.2012253  71.6053312  44.7088099 112.3333903
  62.2242098  41.4517637 105.9122052  61.3879411  41.7892324 106.2331326
  62.0846868  41.3166617 104.9749189  64.1995179  36.2954425 110.6201236
  63.5459591  35.9803442 109.9957851  64.1575653  35.6730166 111.3461059
  65.3106384  46.5773720 102.5354528  64.4033446  46.3462974 102.7345677
  65.8077416  45.7811339 102.7228510  68.2174463  55.2871227 105.4551214
  67.5436161  55.5902924 106.0636172  68.6040285  56.0900308 105.1056671
  67.4332919  42.7836359 114.9448884  66.5155481  43.0051306 114.7870572
  67.8493063  42.8582669 114.0860591  68.2167967  44.1827774 110.0751564
  68.9639786  44.6949171 109.7658686  68.4859557  43.8611827 110.9355957
  66.4894617  46.6786315 107.0578518  65.5805837  46.3945348 107.1550988
  66.5189701  47.0985394 106.1981825  71.7213885  50.2892904 110.8269686
  71.2676212  49.4483814 110.8834876  71.0907851  50.9254303 111.1644466
  70.6646804  41.2184891 112.0570353  69.9269561  40.7062277 112.3880596
  70.9173578  40.7785272 111.2453630  70.1646824  52.1269401 111.7619504
  70.4569798  52.6874458 111.0431869  70.6745445  52.4197962 112.5172663
  70.7658432  33.9961143 112.6512122  71.0717308  33.1358506 112.3638037
  71.4911036  34.5878763 112.4511116  57.0582788  44.3991829 111.0393720
  56.8607187  43.8061190 110.3144787  56.5029452  44.0944039 111.7569659
  65.0379511  44.2914936 113.1588313  65.0928121  43.3388772 113.0830790
  64.2270713  44.4474375 113.6429612  66.1870705  48.2195059 104.3966597
  65.7490135  47.5030918 103.9372234  66.9281146  48.4471173 103.8351688
  62.9771871  42.9091995 110.9178692  62.1639737  43.2086166 111.3243884
  63.4730865  42.5147684 111.6353175  65.1280449  52.9049752 112.8512957
  65.0856628  53.1310599 111.9221489  66.0443148  52.6713127 112.9998758
  68.5746083  43.3733820 119.7493586  68.9295471  43.6005293 120.6088052
  69.2218214  43.7052197 119.1270841  74.3043820  46.4952256 110.4542915
  74.1661718  46.6853852 109.5264104  73.9480039  47.2571639 110.9110966
  62.4685946  40.4810351 116.5339927  63.1085325  40.3399110 115.8362891
  61.6363477  40.1944864 116.1578529  74.3313199  48.5628783 115.4654187
  74.7649706  48.4704072 116.3137241  75.0444780  48.5386283 114.8274203
  63.2446250  49.7812781 112.6474920  64.0386848  49.2863101 112.4457495
  62.5337942  49.2530644 112.2842625  68.0641094  52.1630877 116.9987287
  68.1178117  52.7321813 117.7665003  67.1955876  52.3332762 116.6341324
  59.5529013  43.9255863 108.7234672  58.6226601  43.8640319 108.9404635
  59.6486485  43.4031816 107.9271314  59.4714562  40.4510676 111.3112914
  59.7321380  41.3656009 111.2022075  60.2931735  39.9835118 111.4609527
  60.9439488  41.8648433 118.4811739  61.6162541  41.6565795 117.8324387
  60.1169274  41.6670519 118.0416971  75.1928749  48.6052483 117.9987072
  75.3864639  49.5098294 118.2446347  75.0929367  48.1459902 118.8325657
  66.8465060  38.4910374 120.4977399  66.1992975  39.1900324 120.4041876
  67.6166075  38.9246518 120.8653648  70.2543858  48.7559226 123.5727953
  70.1029364  48.5269778 122.6558036  70.2448537  49.7129828 123.5859298
  67.0229194  46.3291139 118.5574219  67.9521254  46.4802298 118.3843186
  66.6020224  46.4175160 117.7022866  65.8217526  50.3541803 116.3272757
  65.6828612  49.9860588 117.1998695  65.0332122  50.8689443 116.1556715
  66.4165678  55.4550900 107.6698293  66.5917434  54.9838943 108.4843916
  65.7298466  56.0816666 107.8979554  67.3722741  49.7323406 113.7161595
  67.0372574  49.6924176 114.6119244  66.8726687  49.0668122 113.2432005
  61.3466985  45.1391036 119.2414176  61.2086783  44.4071275 119.8425715
  62.2571908  45.0499936 118.9598363  70.3081933  47.0779440 103.9898654
  69.6911103  46.3526268 103.8931707  69.8398421  47.8388801 103.6465728
  63.9749286  44.8510995 118.7297855  64.6848904  44.2104188 118.6884474
  63.9318594  45.1023890 119.6524036  71.9636064  51.7878349 121.6504435
  71.9048611  51.1037569 120.9835018  72.3655583  52.5297339 121.1985061
  62.6878220  41.8376213 120.5493495  62.1515577  41.3866952 121.2015091
  62.0994928  41.9722122 119.8063959  60.9826763  58.6040263 114.4438153
  61.2223361  59.2358787 115.1217172  60.1395960  58.2528303 114.7303513
  62.0980479  41.2964865 103.1119959  61.2209945  41.1753665 102.7482205
  62.5738232  40.5050943 102.8598847  71.9653472  49.7517933 119.8818414
  71.0780250  49.4143854 120.0044813  72.5352023  49.0200964 120.1187180
  53.6182619  46.0842024 113.2061466  54.3053659  45.7703754 112.6182481
  53.4630747  46.9883389 112.9328717  58.4217341  40.9732221 117.6346489
  58.3375530  40.3657890 116.8996899  57.6000047  41.4641239 117.6355986
  65.4954625  54.4119385 116.8479657  65.4224796  55.2174356 117.3598962
  65.0532018  54.6111351 116.0227679  65.2844405  53.6491155 110.3582479
  64.5011927  54.1912835 110.4520704  65.9837150  54.1665135 110.7576720
  68.5941055  39.4585784 113.0016684  69.0909754  38.7055747 112.6817755
  67.8228036  39.4950101 112.4359894  76.4470812  45.1626150 114.6434976
  76.4360688  46.0450865 114.2728909  75.5788192  44.8097701 114.4489513
  67.9553309  54.3106219 119.0037816  68.6681281  54.9453684 118.9313718
  67.4643337  54.4070085 118.1877818  69.6770835  48.2157472 110.5755108
  68.7427114  48.3358934 110.4059812  69.8547504  47.3129938 110.3115118
  65.1776024  41.6003167 112.7288369  64.8073811  41.0474208 113.4169275
  65.6735116  40.9961301 112.1763369  73.0643387  44.0574791 111.1105142
  73.5303839  44.8902783 111.0365445  73.5150887  43.5919773 111.8150400
  63.0065222  52.0600662 119.8243387  63.7074682  52.6937145 119.9772781
  62.5360337  52.4015394 119.0639026  71.1319618  50.4018612 108.1091294
  71.4079462  50.2875207 109.0185168  70.2624117  50.0036097 108.0703467
  71.0360050  36.4255378 115.1496043  70.1223129  36.6559605 115.3178250
  71.4653151  36.5093822 116.0010076  70.8066508  44.6145270 117.6495937
  70.1537958  44.8621177 116.9948390  71.1846888  43.8009408 117.3158415
  67.7673682  54.6504963 111.7524108  67.9496076  53.8326619 112.2151860
  68.5906668  54.8672655 111.3148998  68.1015847  53.5773148 109.0139156
  68.6303614  53.0665603 108.4009318  68.3644067  53.2615678 109.8784689
  66.8554081  45.3565081 124.1361974  66.1794718  45.2559210 124.8064350
  67.6781715  45.2004295 124.5997972  58.6032940  51.5937017 116.7574490
  59.1886377  50.8480705 116.8902394  58.4057779  51.9040974 117.6411154
  61.4571595  54.6288265 111.7736932  60.7881971  55.1134393 111.2900972
  61.3184465  54.8757485 112.6880311  53.1950595  44.1642618 115.4778933
  53.2334694  43.6306208 116.2716051  52.6890888  43.6377823 114.8589910
  65.5976864  56.6632008 118.3719590  66.1495172  56.8263630 119.1368676
  65.9383057  57.2536446 117.6999615  60.5741357  39.0107158 118.9741475
  60.6382684  39.8721989 118.5618873  60.5108477  38.3981160 118.2413834
  70.4487738  51.4893266 124.2268245  70.9927642  52.1023224 123.7323200
  69.8674583  52.0472844 124.7435258  56.8259172  42.8906720 108.5532864
  57.1212614  41.9817398 108.4999918  55.9247208  42.8694459 108.2313867
  68.7345251  54.6113984 115.3583273  68.6096391  53.8103724 114.8494218
  69.3924342  55.1060177 114.8697243  60.3553419  40.9662716 114.5360413
  59.6340005  41.5798684 114.3967886  61.1446675  41.5020481 114.4577059
  70.7980160  52.4123004 116.9862823  69.8510495  52.2928355 116.9141149
  71.1462933  51.5245502 117.0689084  63.1579733  38.3017143 120.8101065
  63.6814135  38.5479439 121.5727374  62.9392066  39.1337178 120.3904202
  58.5547014  40.5720818 108.6772189  58.2259720  39.6918196 108.4947295
  58.9086385  40.5168486 109.5648579  67.8026593  52.2075720 113.1867175
  67.6551555  51.2792428 113.3674745  68.6280086  52.2295811 112.7024250
  61.6688837  40.8593787 109.0447667  62.0084910  41.3879709 108.3226275
  62.1160958  41.1974193 109.8206234  71.4060715  53.0304279 114.2732048
  72.3307262  52.8247140 114.1356499  71.2376018  52.7820680 115.1821389
  64.3632278  39.2430838 118.4950735  64.0229098  38.4438651 118.8971415
  63.6571284  39.5432549 117.9227568  65.0148750  36.3280150 116.9478058
  65.8374819  35.8540629 116.8256948  65.2586813  37.1070634 117.4476744
  63.6556984  39.3568409 107.2440960  64.3765347  39.7349662 106.7404677
  63.0322288  40.0757286 107.3475938  67.7988107  40.0613558 108.1799292
  68.0151722  40.9438196 107.8788120  67.3182174  39.6699771 107.4504934
  62.5387329  43.0199271 114.7570037  62.3931909  43.3339574 115.6494318
  62.0612532  43.6384171 114.2040935  64.3983711  40.0101819 114.8050926
  64.3845280  39.1142912 114.4683224  65.1156140  40.0172483 115.4389212
  66.2509842  40.4439159 116.8504054  65.9927620  41.3656230 116.8488384
  65.7194883  40.0469594 117.5404518  71.1956031  53.5489946 109.6294139
  71.3692908  52.9836369 108.8767992  71.6884922  54.3490841 109.4473629
  57.0132991  45.5604615 117.6957698  56.4686459  46.3364423 117.8277972
  57.8912341  45.9075420 117.5376819  63.8020607  38.8916199 110.0738496
  63.9236519  37.9632846 110.2729384  63.5122650  38.9054885 109.1616812
  66.6711798  36.5771110 113.2105216  66.6933495  36.6410443 112.2557196
  67.0879857  35.7375618 113.4045722  77.0495422  46.3126369 111.2484439
  77.4926568  45.5633695 110.8503562  76.1721932  46.3036506 110.8658171
  72.1831203  52.8656711 106.7291037  72.8782108  53.4863403 106.9478352
  72.5254354  52.0152062 107.0043415  57.7999013  44.6874512 120.5887855
  57.0580749  44.8357147 121.1752485  57.4791757  44.9482777 119.7254604
  74.0822627  50.3156416 108.2578368  74.6073951  50.6543689 107.5327688
  73.9944979  49.3803432 108.0741503  65.7442675  54.2290490 120.3868245
  66.0529802  53.9839637 121.2590944  66.5418157  54.4337128 119.8987115
  65.7663287  56.3828400 112.6173621  65.3268278  55.8904778 113.3106478
  66.5171404  55.8401367 112.3765697  58.2455626  52.5739940 112.6198249
  59.0713646  52.2743712 112.2396893  57.8949678  51.8047563 113.0688038
  63.2137159  51.9266409 114.6895923  62.5917169  51.2637114 114.3898151
  63.8842026  51.9527541 114.0069571  56.4464231  50.4926267 113.5787183
  55.6096140  50.0648441 113.3971184  56.4187877  50.6858710 114.5157974
  73.7716533  50.9489320 123.5629566  72.9812076  50.9313459 123.0234065
  73.5349887  51.4877614 124.3178603  73.8914408  47.7981786 120.8762295
  73.9412413  47.6331794 121.8177817  73.7828331  46.9309045 120.4860175
  62.7750666  50.4770332 108.1654384  62.9238787  51.1605796 107.5121056
  63.5817110  50.4575422 108.6803839  71.1818170  43.7812714 122.1921601
  72.0828033  43.6419179 121.9005599  71.2566145  43.9467169 123.1319779
  65.5160975  41.1579569 121.0374788  64.6464285  41.4513135 120.7657376
  65.7520456  41.7420014 121.7582051  75.3932605  50.2178728 121.1204316
  75.1017413  50.5808708 121.9567777  74.7804736  49.5045736 120.9417648
  76.5928287  47.7831608 113.6406886  77.4275178  48.2221412 113.8044447
  76.7287416  47.3070261 112.8215132  73.6419793  45.3411343 119.5884374
  74.1173914  45.5338989 118.7803226  72.7185358  45.3970528 119.3427758
  60.5303299  46.5035510 109.1715452  60.2849341  45.5997840 109.3695663
  60.6999214  46.5052660 108.2294930  68.2200009  37.3759186 118.5540208
  68.7381953  38.1120213 118.2286697  67.8655142  37.6823179 119.3886967
  59.7998947  42.2363867 106.6701614  59.1068192  42.3108222 106.0141650
  59.5550699  41.4724211 107.1923131  68.4712603  33.7959469 114.0741105
  68.7514357  33.1282658 114.7001531  69.2563210  33.9888564 113.5615768
  66.2746072  52.9718462 105.6366131  65.7020039  53.5908650 105.1836603
  66.8478866  53.5217824 106.1706053  72.3421462  42.2177103 117.8212680
  73.2938885  42.3175200 117.8424904  72.1724912  41.4255371 118.3310764
  70.3635841  39.3032686 118.0072081  69.7685773  39.5837699 117.3118569
  70.0785538  39.7926587 118.7788822  69.4943332  53.2555613 106.7674713
  70.4274005  53.1901174 106.9707589  69.4066545  54.0911879 106.3089246
  72.1231348  52.5721483 103.7278661  72.0444980  52.2381347 104.6214419
  72.9441015  53.0643251 103.7270133  74.8209540  45.4383222 116.9354979
  74.7885860  44.4999223 117.1214663  75.4310163  45.5167259 116.2020804
  66.6592870  44.3079275 102.9782183  67.6051975  44.1785483 103.0470601
  66.2807115  43.5693937 103.4551612  74.9704028  42.2294266 116.9813263
  74.4543077  41.4452722 116.7943191  75.8543977  41.9012982 117.1459782
  72.6314755  35.9735281 112.9409075  72.4339576  35.6650369 113.8252407
  73.2414461  36.6996920 113.0707005  80.6386089  46.4999229 116.0761016
  81.3689478  46.2384517 116.6368720  80.0293035  45.7627951 116.1163084
  78.7201387  44.6407092 116.6735467  77.9934550  44.5063057 116.0651959
  78.3048673  44.9483920 117.4792185  66.5431563  48.3597021 124.4382840
  67.4634572  48.5375620 124.6322887  66.5081146  47.4153067 124.2862540
  64.8435788  42.2329252 102.9137069  63.9367243  41.9362364 102.9899782
  65.1211769  41.9359070 102.0471355  55.7613728  43.5535615 113.3636115
  55.4416512  42.7000923 113.0710489  55.2147156  43.7684193 114.1194082
  59.5393635  46.2698056 117.0805622  59.7579645  47.2015164 117.0993655
  59.9519409  45.9106030 117.8660425  66.4597853  36.7766141 109.0681310
  65.6498582  36.4313226 109.4436556  67.1482270  36.4673685 109.6568922
  68.3888402  35.8544188 110.6905607  68.9419440  36.2739642 111.3495630
  68.6258488  34.9279936 110.7328563  63.6134572  39.0916187 103.0549048
  64.4753736  39.4171085 103.3144865  63.7984916  38.3047683 102.5422114
  55.6301988  47.1738527 115.3329237  54.9365459  46.7592479 114.8199191
  56.3774979  47.2159063 114.7362656  71.7667209  37.9644713 110.1984271
  71.1865878  38.6229517 109.8162323  71.5003141  37.1422058 109.7871688
  70.2170775  37.3649771 112.4005591  70.7170553  37.4766306 111.5919910
  70.8606383  37.0610824 113.0406400  64.2752771  45.2728401 125.2873432
  63.7919853  46.0728761 125.4937321  64.3613710  45.2836346 124.3340876
  57.5438730  47.1056780 113.2095252  57.5209419  47.2044468 112.2577135
  57.8539367  47.9521931 113.5312418  60.2026108  49.1632935 117.3241866
  61.1569362  49.1316878 117.2571798  60.0038632  48.7023559 118.1392092
  60.7925490  47.7334051 119.8912664  61.6118379  48.2278130 119.9147501
  61.0662298  46.8166020 119.8630231  70.5492087  40.1244804 109.2540619
  69.6617942  40.4094454 109.0360814  70.9646076  39.9638567 108.4067896
  73.9006623  40.1491325 112.9694958  74.6767013  40.6387777 113.2419575
  73.1754757  40.5749379 113.4266828  76.3379181  40.8618944 114.0268899
  76.9323672  40.6214680 113.3162207  76.4105765  40.1426074 114.6542435
  58.5576337  54.7052555 114.3412064  58.4230805  53.9452956 113.7750062
  58.1408399  55.4293455 113.8740853  69.6935300  49.8889478 103.3488639
  70.3971150  50.0939481 103.9646295  68.9697949  50.4566240 103.6137723
  70.5233110  45.6399340 109.4690909  70.4668312  46.0967891 108.6298542
  71.0761453  44.8790024 109.2913752  74.3337916  41.4289072 110.2941029
  74.0774851  41.0285707 111.1249236  73.7090784  42.1432865 110.1691168
  78.6450254  44.1685145 112.8012320  78.0849812  44.2378334 113.5743882
  78.0393758  43.9926129 112.0811816  61.7145463  55.6021872 114.5530506
  61.5977847  56.5467304 114.4509197  60.8937909  55.2995433 114.9416306
  71.6021998  50.3272008 105.3987099  72.4367601  49.8953206 105.2164574
  71.4406340  50.1554021 106.3263994  71.2567890  46.8304121 106.7643438
  71.2016694  46.6648392 105.8231883  70.6313945  47.5380154 106.9205628
  56.0460405  42.0672185 120.5904861  56.6919268  41.5571139 121.0792086
  55.8377556  42.8040867 121.1648286  68.5713797  49.1353033 126.0897001
  69.4404957  49.3093685 125.7283636  68.0920548  49.9547450 125.9672731
  64.5664015  36.3312230 106.3428757  64.5542685  37.2754070 106.4997028
  65.4587437  36.1482375 106.0488218  62.7399977  56.2550134 117.7686435
  63.6427224  56.2873744 118.0852930  62.5137347  55.3250585 117.7832771
  64.4953579  55.0081120 114.4296514  63.5449210  55.0082982 114.3160886
  64.7986065  54.2613855 113.9132548  68.3816135  32.9255007 110.5974694
  67.6148530  32.3713493 110.7431376  68.7926840  32.9976875 111.4588845
  80.2306273  60.8441659 115.4942276  80.8684683  60.7248406 114.7905616
  80.1127116  61.7922503 115.5530228  77.0395979  60.7969087 115.4303801
  76.7014490  60.6810151 114.5424335  77.9085747  60.3960252 115.4104807
  72.8982795  62.6504563 111.4200692  72.3347660  62.5594500 110.6516979
  72.7835190  61.8304468 111.9003184  77.5215762  61.9503939 121.3890006
  77.5104403  61.5556737 120.5170510  77.6836401  61.2170011 121.9823778
  70.4447227  64.1455755 114.2584912  71.2368518  63.8046579 113.8431211
  70.6843877  64.2550730 115.1787065  78.4782353  66.3175531 106.7315156
  77.8270333  66.9029611 106.3449170  79.2726716  66.8481726 106.7910194
  72.4037980  63.4064668 107.1302291  73.1768856  62.8593655 106.9915167
  72.7563379  64.2708917 107.3416752  74.2423023  64.7341050 120.3369190
  73.9512889  65.6386681 120.2215856  74.8780007  64.7757578 121.0513260
  75.1679230  62.1117899 116.9270550  75.7642802  61.8873921 116.2127513
  75.2254201  61.3702644 117.5295998  74.7404258  59.5657334 104.7620741
  74.9929779  59.0438855 104.0004204  73.8028817  59.4023480 104.8647424
  79.7847541  58.5693113 112.5695484  80.5710630  58.1512536 112.2185901
  80.0486245  59.4739205 112.7377132  79.9557618  64.0065963 107.2684141
  79.3203451  64.0800589 107.9805045  79.6255025  64.5959562 106.5903220
  85.1855968  58.5068346 113.4728462  85.9181140  57.9367563 113.7066292
  84.4295324  58.1189946 113.9134968  74.4600547  61.4685440 106.9645116
  74.3436805  60.7930344 107.6326200  74.5702807  60.9817814 106.1477269
  76.8032088  60.9295587 110.6691805  76.4390295  60.4026208 111.3804726
  77.6599204  60.5394056 110.4958290  82.7081389  52.2189920 117.9323071
  82.3764713  53.0885331 117.7084286  82.1127002  51.9026204 118.6117101
  76.4437575  55.9585487 105.6653153  76.6111977  56.8265723 106.0323624
  76.2534744  56.1212769 104.7414443  79.2012908  64.4202466 117.3318984
  78.9013631  65.3227505 117.2234791  78.8563968  64.1534649 118.1840137
  72.6525390  60.8716263 113.3655688  71.7275886  60.7392477 113.5733380
  72.9009803  61.6510482 113.8625631  82.6010052  56.9385006 115.0116421
  81.6926929  56.8700414 114.7175182  82.5497648  57.4156951 115.8398247
  76.4226796  58.4143144 106.6499820  76.3026421  58.8600195 107.4885301
  75.7279384  58.7628462 106.0913358  70.0134201  60.5149536 114.1999477
  70.1426582  60.7684015 115.1138889  69.3331652  61.1077244 113.8804132
  74.1833688  71.1846786 110.2989951  74.1057718  72.1354611 110.3778432
  73.5795332  70.8392659 110.9564878  76.6750918  58.3574652 122.9551318
  75.8984252  58.9168572 122.9454183  77.3141481  58.8431435 123.4766188
  84.4671698  55.1401444 116.7894295  83.8246079  55.4333978 116.1434090
  83.9626627  55.0254365 117.5947492  82.1211862  58.8864618 107.4780154
  83.0329718  59.1192004 107.3027852  81.6121509  59.4701662 106.9155233
  74.9297290  61.1660105 122.5169285  75.6711974  61.7045149 122.2404109
  74.2234275  61.7926394 122.6740837  80.4052630  63.3089245 121.1141447
  80.8135986  62.8671656 120.3696079  79.6829891  62.7341873 121.3675640
  76.7583700  58.2461852 118.4875004  77.6044895  58.6701266 118.6309653
  76.6982337  57.5895477 119.1813567  80.7281444  63.8690436 114.8693736
  80.0990307  64.0336150 114.1669804  80.3407106  64.2832046 115.6404700
  84.6070676  64.8044874 112.2238100  83.9221714  65.1843775 111.6735133
  84.6914525  65.4140201 112.9570047  79.9083145  55.9066221 120.1456177
  79.6644077  56.6608281 119.6090453  80.1843076  56.2851568 120.9803425
  81.8621608  62.4504833 118.8233443  82.0738503  63.0936593 118.1467824
  81.8151356  61.6167149 118.3555373  79.4647837  55.0622654 115.7270015
  78.6032316  55.3603907 116.0186753  79.4910271  55.2793052 114.7951048
  76.2809406  63.6064844 112.1343821  76.7447752  63.8852547 111.3448443
  76.0166204  62.7048289 111.9516912  73.1733487  63.1536326 115.0723584
  73.7434844  63.5823594 114.4341069  73.7641599  62.8718910 115.7707770
  75.2178292  59.7287997 108.9433386  75.9202336  60.1809040 109.4107312
  74.8858921  59.0871815 109.5713279  73.6658654  58.3199753 123.3184595
  73.0357314  59.0016034 123.5519992  73.5594742  58.2082835 122.3737734
  68.9603626  57.9871549 114.2450520  68.1702680  58.2429078 113.7690630
  69.4514874  58.8019887 114.3502560  82.9767436  65.3276788 116.9955800
  83.7984879  64.9256976 116.7138482  82.9729839  65.2245023 117.9471916
  70.9118372  58.3516128 111.2033996  70.1149535  58.4634823 111.7217492
  70.6843964  58.6902781 110.3374887  76.7424039  64.8760832 119.1516511
  76.8068472  65.3381239 119.9874683  76.0334963  64.2458197 119.2798821
  67.2441329  58.2402040 116.6765510  67.4949368  59.1249050 116.9423086
  67.7800878  58.0606641 115.9040602  91.0673429  61.6715537 113.3440772
  90.3137137  61.1022935 113.1884776  91.2020970  61.6378201 114.2911407
  76.4572057  66.5428939 109.0195491  76.3217732  67.3880475 109.4480339
  76.9981869  66.7448217 108.2561425  72.9439396  52.6220519 125.6809846
  72.5506342  52.0686718 126.3557491  73.7605537  52.9331097 126.0716364
  69.9101454  64.0604377 109.5923416  70.4225975  64.8547627 109.7428981
  70.5624167  63.3630668 109.5257018  71.7196339  67.1770133 111.6746169
  71.8962967  68.0988098 111.4867153  72.5153172  66.8628553 112.1040549
  75.8607357  54.0378398 123.2730103  76.6017071  54.6385551 123.1934565
  76.0925280  53.2956036 122.7148146  71.0048695  59.2234765 121.5508333
  70.8902211  58.3220023 121.8515432  70.1493213  59.4698462 121.1993149
  78.0840533  67.1652506 123.1495833  77.6404387  66.3788884 122.8316738
  78.7457747  67.3531656 122.4839724  72.8427654  68.6948307 117.6756512
  73.3935080  68.5665371 116.9033506  72.0039130  68.9943196 117.3251405
  80.1821771  67.4455306 121.1777235  80.1640247  68.2664187 120.6857504
  81.1041691  67.3209381 121.4027376  76.6394825  64.9599435 122.0200743
  77.1723162  64.1987723 121.7900051  76.1108907  64.6673087 122.7624897
  79.8064520  50.0659501 117.5494385  79.4628790  50.9561143 117.4733495
  80.1743483  49.8761159 116.6863970  67.8750371  62.3893031 110.3682987
  68.7125593  62.7990040 110.1516695  68.0528639  61.4492474 110.3383181
  79.7714803  60.0568112 106.0566820  79.2561427  60.8272717 106.2955207
  79.4992112  59.3833248 106.6799881  77.3561914  54.9017813 111.1152058
  76.5003511  54.5124663 110.9357697  77.7688866  54.9809774 110.2551844
  78.8861061  52.4364156 115.5143618  78.3825856  52.3994291 114.7011423
  79.1791668  53.3456899 115.5740275  75.1303947  52.5202886 114.5209800
  75.9956943  52.3245695 114.1615689  75.1981456  52.2913238 115.4479156
  84.7449077  62.8100467 107.9919993  83.9678520  62.4711626 107.5475155
  85.4240558  62.8153090 107.3174958  79.5601106  57.9295204 107.8826601
  79.2551242  58.2441353 108.7336744  80.5131548  58.0076624 107.9253934
  78.0047538  64.0885428 109.5319555  77.4768900  63.3538187 109.2192792
  77.5035041  64.8660104 109.2859523  82.9840384  62.2834448 114.6486601
  82.3264059  62.9733709 114.7366730  83.7880783  62.6730880 114.9920588
  72.7366266  54.7505094 111.8926166  73.3110018  54.5280275 111.1599359
  73.3237248  54.8193788 112.6454768  81.7945843  60.6378821 112.6990543
  82.3077725  61.2708813 113.2012253  82.4447067  60.0380016 112.3333903
  73.0635853  56.7809555 105.9122052  72.2273165  57.1184241 106.2331326
  72.9240623  56.6458535 104.9749189  75.0388933  51.6246343 110.6201236
  74.3853346  51.3095360 109.9957851  74.9969408  51.0022083 111.3461059
  76.1500138  61.9065638 102.5354528  75.2427200  61.6754891 102.7345677
  76.6471170  61.1103257 102.7228510  79.0568217  70.6163145 105.4551214
  78.3829916  70.9194842 106.0636172  79.4434039  71.4192225 105.1056671
  78.2726674  58.1128276 114.9448884  77.3549235  58.3343223 114.7870572
  78.6886817  58.1874587 114.0860591  79.0561722  59.5119692 110.0751564
  79.8033541  60.0241089 109.7658686  79.3253311  59.1903745 110.9355957
  77.3288372  62.0078233 107.0578518  76.4199591  61.7237265 107.1550988
  77.3583456  62.4277311 106.1981825  82.5607639  65.6184822 110.8269686
  82.1069966  64.7775732 110.8834876  81.9301606  66.2546221 111.1644466
  81.5040559  56.5476808 112.0570353  80.7663316  56.0354194 112.3880596
  81.7567332  56.1077190 111.2453630  81.0040578  67.4561319 111.7619504
  81.2963553  68.0166376 111.0431869  81.5139199  67.7489880 112.5172663
  81.6052186  49.3253060 112.6512122  81.9111063  48.4650424 112.3638037
  82.3304791  49.9170680 112.4511116  67.8976542  59.7283747 111.0393720
  67.7000942  59.1353108 110.3144787  67.3423206  59.4235957 111.7569659
  75.8773266  59.6206853 113.1588313  75.9321876  58.6680690 113.0830790
  75.0664468  59.7766292 113.6429612  77.0264460  63.5486976 104.3966597
  76.5883889  62.8322835 103.9372234  77.7674900  63.7763091 103.8351688
  73.8165626  58.2383913 110.9178692  73.0033491  58.5378084 111.3243884
  74.3124620  57.8439602 111.6353175  75.9674204  68.2341670 112.8512957
  75.9250382  68.4602516 111.9221489  76.8836902  68.0005045 112.9998758
  79.4139837  58.7025737 119.7493586  79.7689225  58.9297211 120.6088052
  80.0611969  59.0344114 119.1270841  85.1437574  61.8244173 110.4542915
  85.0055473  62.0145769 109.5264104  84.7873793  62.5863556 110.9110966
  73.3079700  55.8102269 116.5339927  73.9479080  55.6691028 115.8362891
  72.4757231  55.5236782 116.1578529  85.1706954  63.8920700 115.4654187
  85.6043461  63.7995989 116.3137241  85.8838535  63.8678201 114.8274203
  74.0840004  65.1104699 112.6474920  74.8780603  64.6155019 112.4457495
  73.3731697  64.5822562 112.2842625  78.9034849  67.4922795 116.9987287
  78.9571871  68.0613731 117.7665003  78.0349630  67.6624680 116.6341324
  70.3922768  59.2547781 108.7234672  69.4620356  59.1932236 108.9404635
  70.4880240  58.7323733 107.9271314  70.3108317  55.7802594 111.3112914
  70.5715134  56.6947927 111.2022075  71.1325489  55.3127036 111.4609527
  71.7833242  57.1940351 118.4811739  72.4556296  56.9857713 117.8324387
  70.9563029  56.9962437 118.0416971  86.0322504  63.9344401 117.9987072
  86.2258394  64.8390212 118.2446347  85.9323122  63.4751820 118.8325657
  77.6858814  53.8202292 120.4977399  77.0386729  54.5192241 120.4041876
  78.4559830  54.2538436 120.8653648  81.0937612  64.0851144 123.5727953
  80.9423119  63.8561695 122.6558036  81.0842292  65.0421745 123.5859298
  77.8622949  61.6583057 118.5574219  78.7915009  61.8094216 118.3843186
  77.4413979  61.7467077 117.7022866  76.6611280  65.6833721 116.3272757
  76.5222366  65.3152505 117.1998695  75.8725877  66.1981360 116.1556715
  77.2559432  70.7842817 107.6698293  77.4311188  70.3130861 108.4843916
  76.5692220  71.4108584 107.8979554  78.2116496  65.0615324 113.7161595
  77.8766328  65.0216094 114.6119244  77.7120441  64.3960040 113.2432005
  72.1860739  60.4682954 119.2414176  72.0480537  59.7363193 119.8425715
  73.0965663  60.3791854 118.9598363  81.1475687  62.4071358 103.9898654
  80.5304858  61.6818186 103.8931707  80.6792176  63.1680718 103.6465728
  74.8143040  60.1802913 118.7297855  75.5242659  59.5396105 118.6884474
  74.7712348  60.4315808 119.6524036  82.8029819  67.1170266 121.6504435
  82.7442365  66.4329486 120.9835018  83.2049337  67.8589256 121.1985061
  73.5271974  57.1668131 120.5493495  72.9909331  56.7158869 121.2015091
  72.9388683  57.3014040 119.8063959  71.8220518  73.9332180 114.4438153
  72.0617116  74.5650704 115.1217172  70.9789714  73.5820220 114.7303513
  72.9374233  56.6256782 103.1119959  72.0603699  56.5045583 102.7482205
  73.4131986  55.8342861 102.8598847  82.8047226  65.0809850 119.8818414
  81.9174005  64.7435772 120.0044813  83.3745777  64.3492882 120.1187180
  64.4576373  61.4133942 113.2061466  65.1447413  61.0995672 112.6182481
  64.3024502  62.3175307 112.9328717  69.2611095  56.3024139 117.6346489
  69.1769284  55.6949808 116.8996899  68.4393802  56.7933157 117.6355986
  76.3348380  69.7411303 116.8479657  76.2618551  70.5466274 117.3598962
  75.8925773  69.9403268 116.0227679  76.1238159  68.9783073 110.3582479
  75.3405681  69.5204753 110.4520704  76.8230904  69.4957052 110.7576720
  79.4334809  54.7877702 113.0016684  79.9303509  54.0347664 112.6817755
  78.6621791  54.8242019 112.4359894  87.2864567  60.4918068 114.6434976
  87.2754443  61.3742783 114.2728909  86.4181946  60.1389618 114.4489513
  78.7947063  69.6398137 119.0037816  79.5075035  70.2745601 118.9313718
  78.3037092  69.7362003 118.1877818  80.5164590  63.5449389 110.5755108
  79.5820869  63.6650852 110.4059812  80.6941258  62.6421856 110.3115118
  76.0169778  56.9295085 112.7288369  75.6467566  56.3766125 113.4169275
  76.5128870  56.3253219 112.1763369  83.9037141  59.3866709 111.1105142
  84.3697593  60.2194700 111.0365445  84.3544642  58.9211690 111.8150400
  73.8458977  67.3892580 119.8243387  74.5468436  68.0229063 119.9772781
  73.3754092  67.7307312 119.0639026  81.9713372  65.7310530 108.1091294
  82.2473216  65.6167124 109.0185168  81.1017871  65.3328015 108.0703467
  81.8753804  51.7547296 115.1496043  80.9616884  51.9851522 115.3178250
  82.3046905  51.8385740 116.0010076  81.6460263  59.9437188 117.6495937
  80.9931713  60.1913095 116.9948390  82.0240642  59.1301326 117.3158415
  78.6067436  69.9796881 111.7524108  78.7889831  69.1618537 112.2151860
  79.4300422  70.1964573 111.3148998  78.9409602  68.9065066 109.0139156
  79.4697368  68.3957520 108.4009318  79.2037821  68.5907596 109.8784689
  77.6947836  60.6856999 124.1361974  77.0188473  60.5851128 124.8064350
  78.5175469  60.5296212 124.5997972  69.4426695  66.9228935 116.7574490
  70.0280131  66.1772623 116.8902394  69.2451533  67.2332892 117.6411154
  72.2965350  69.9580183 111.7736932  71.6275725  70.4426310 111.2900972
  72.1578220  70.2049403 112.6880311  64.0344349  59.4934535 115.4778933
  64.0728449  58.9598126 116.2716051  63.5284642  58.9669741 114.8589910
  76.4370618  71.9923926 118.3719590  76.9888926  72.1555548 119.1368676
  76.7776812  72.5828364 117.6999615  71.4135112  54.3399076 118.9741475
  71.4776438  55.2013907 118.5618873  71.3502232  53.7273078 118.2413834
  70.8887384  56.4122208 122.6214509  71.5159423  56.0299286 123.2352034
  70.0315303  56.1936410 122.9870202  67.6652927  58.2198638 108.5532864
  67.9606368  57.3109316 108.4999918  66.7640963  58.1986377 108.2313867
  79.5739006  69.9405902 115.3583273  79.4490145  69.1395641 114.8494218
  80.2318097  70.4352095 114.8697243  71.1947174  56.2954634 114.5360413
  70.4733760  56.9090602 114.3967886  71.9840430  56.8312399 114.4577059
  81.6373914  67.7414922 116.9862823  80.6904250  67.6220273 116.9141149
  81.9856687  66.8537420 117.0689084  73.9973487  53.6309061 120.8101065
  74.5207889  53.8771357 121.5727374  73.7785821  54.4629095 120.3904202
  69.3940769  55.9012735 108.6772189  69.0653475  55.0210114 108.4947295
  69.7480139  55.8460404 109.5648579  78.6420347  67.5367638 113.1867175
  78.4945310  66.6084345 113.3674745  79.4673841  67.5587729 112.7024250
  72.5082592  56.1885705 109.0447667  72.8478664  56.7171626 108.3226275
  72.9554712  56.5266111 109.8206234  82.2454469  68.3596197 114.2732048
  83.1701017  68.1539058 114.1356499  82.0769773  68.1112598 115.1821389
  75.2026033  54.5722756 118.4950735  74.8622853  53.7730569 118.8971415
  74.4965039  54.8724467 117.9227568  75.8542504  51.6572068 116.9478058
  76.6768574  51.1832546 116.8256948  76.0980568  52.4362552 117.4476744
  74.4950739  54.6860327 107.2440960  75.2159101  55.0641579 106.7404677
  73.8716043  55.4049203 107.3475938  78.6381862  55.3905476 108.1799292
  78.8545476  56.2730113 107.8788120  78.1575929  54.9991689 107.4504934
  73.3781083  58.3491189 114.7570037  73.2325664  58.6631492 115.6494318
  72.9006287  58.9676089 114.2040935  75.2377466  55.3393737 114.8050926
  75.2239035  54.4434830 114.4683224  75.9549894  55.3464401 115.4389212
  77.0903597  55.7731077 116.8504054  76.8321375  56.6948148 116.8488384
  76.5588637  55.3761512 117.5404518  82.0349785  68.8781864 109.6294139
  82.2086663  68.3128287 108.8767992  82.5278677  69.6782759 109.4473629
  67.8526745  60.8896533 117.6957698  67.3080213  61.6656341 117.8277972
  68.7306095  61.2367338 117.5376819  74.6414362  54.2208117 110.0738496
  74.7630273  53.2924763 110.2729384  74.3516404  54.2346803 109.1616812
  77.5105552  51.9063027 113.2105216  77.5327249  51.9702361 112.2557196
  77.9273611  51.0667536 113.4045722  87.8889177  61.6418287 111.2484439
  88.3320323  60.8925612 110.8503562  87.0115687  61.6328423 110.8658171
  83.0224958  68.1948628 106.7291037  83.7175863  68.8155321 106.9478352
  83.3648108  67.3443980 107.0043415  68.6392767  60.0166429 120.5887855
  67.8974503  60.1649065 121.1752485  68.3185511  60.2774695 119.7254604
  84.9216381  65.6448334 108.2578368  85.4467705  65.9835607 107.5327688
  84.8338734  64.7095349 108.0741503  76.5836430  69.5582408 120.3868245
  76.8923556  69.3131554 121.2590944  77.3811912  69.7629046 119.8987115
  76.6057042  71.7120317 112.6173621  76.1662032  71.2196696 113.3106478
  77.3565159  71.1693285 112.3765697  69.0849381  67.9031858 112.6198249
  69.9107401  67.6035630 112.2396893  68.7343433  67.1339481 113.0688038
  74.0530914  67.2558326 114.6895923  73.4310923  66.5929031 114.3898151
  74.7235781  67.2819458 114.0069571  67.2857986  65.8218185 113.5787183
  66.4489894  65.3940359 113.3971184  67.2581631  66.0150628 114.5157974
  74.1255441  55.7340114 124.2828429  74.1743597  56.6102237 123.9006199
  74.6677956  55.1917507 123.7100072  84.7308162  63.1273704 120.8762295
  84.7806167  62.9623711 121.8177817  84.6222086  62.2600963 120.4860175
  73.6144421  65.8062250 108.1654384  73.7632541  66.4897714 107.5121056
  74.4210864  65.7867340 108.6803839  82.0211925  59.1104632 122.1921601
  82.9221787  58.9711097 121.9005599  82.0959899  59.2759087 123.1319779
  76.3554730  56.4871487 121.0374788  75.4858039  56.7805053 120.7657376
  76.5914210  57.0711932 121.7582051  86.2326359  65.5470646 121.1204316
  85.9411167  65.9100626 121.9567777  85.6198490  64.8337654 120.9417648
  87.4322041  63.1123525 113.6406886  88.2668933  63.5513329 113.8044447
  87.5681170  62.6362179 112.8215132  84.4813547  60.6703260 119.5884374
  84.9567669  60.8630906 118.7803226  83.5579113  60.7262446 119.3427758
  71.3697054  61.8327427 109.1715452  71.1243096  60.9289757 109.3695663
  71.5392968  61.8344578 108.2294930  79.0593764  52.7051104 118.5540208
  79.5775708  53.4412131 118.2286697  78.7048896  53.0115097 119.3886967
  70.6392701  57.5655785 106.6701614  69.9461946  57.6400140 106.0141650
  70.3944453  56.8016129 107.1923131  79.3106358  49.1251386 114.0741105
  79.5908112  48.4574575 114.7001531  80.0956965  49.3180482 113.5615768
  77.1139826  68.3010380 105.6366131  76.5413793  68.9200567 105.1836603
  77.6872620  68.8509742 106.1706053  83.1815216  57.5469020 117.8212680
  84.1332639  57.6467118 117.8424904  83.0118667  56.7547289 118.3310764
  81.2029596  54.6324603 118.0072081  80.6079528  54.9129616 117.3118569
  80.9179292  55.1218504 118.7788822  80.3337086  68.5847530 106.7674713
  81.2667759  68.5193092 106.9707589  80.2460299  69.4203797 106.3089246
  82.9625103  67.9013401 103.7278661  82.8838734  67.5673264 104.6214419
  83.7834770  68.3935169 103.7270133  85.6603294  60.7675140 116.9354979
  85.6279614  59.8291141 117.1214663  86.2703918  60.8459177 116.2020804
  77.4986625  59.6371193 102.9782183  78.4445730  59.5077401 103.0470601
  77.1200870  58.8985855 103.4551612  85.8097783  57.5586183 116.9813263
  85.2936831  56.7744640 116.7943191  86.6937731  57.2304900 117.1459782
  83.4708509  51.3027199 112.9409075  83.2733331  50.9942287 113.8252407
  84.0808215  52.0288838 113.0707005  91.4779844  61.8291147 116.0761016
  92.2083232  61.5676435 116.6368720  90.8686789  61.0919869 116.1163084
  89.5595141  59.9699009 116.6735467  88.8328305  59.8354974 116.0651959
  89.1442428  60.2775838 117.4792185  77.3825317  63.6888939 124.4382840
  78.3028327  63.8667538 124.6322887  77.3474900  62.7444984 124.2862540
  75.6829542  57.5621169 102.9137069  74.7760997  57.2654282 102.9899782
  75.9605523  57.2650987 102.0471355  66.6007482  58.8827533 113.3636115
  66.2810267  58.0292841 113.0710489  66.0540911  59.0976111 114.1194082
  70.3787390  61.5989974 117.0805622  70.5973400  62.5307082 117.0993655
  70.7913164  61.2397948 117.8660425  77.2991608  52.1058059 109.0681310
  76.4892336  51.7605144 109.4436556  77.9876025  51.7965603 109.6568922
  79.2282156  51.1836106 110.6905607  79.7813195  51.6031559 111.3495630
  79.4652242  50.2571854 110.7328563  75.2515255  57.1723179 126.4708371
  75.1511982  58.1217536 126.4020462  75.0336797  56.8441418 125.5984441
  74.4528327  54.4208105 103.0549048  75.3147491  54.7463003 103.3144865
  74.6378671  53.6339600 102.5422114  66.4695742  62.5030444 115.3329237
  65.7759214  62.0884397 114.8199191  67.2168733  62.5450981 114.7362656
  82.6060963  53.2936631 110.1984271  82.0259632  53.9521435 109.8162323
  82.3396896  52.4713976 109.7871688  81.0564530  52.6941689 112.4005591
  81.5564308  52.8058223 111.5919910  81.7000137  52.3902742 113.0406400
  75.1146525  60.6020318 125.2873432  74.6313607  61.4020678 125.4937321
  75.2007464  60.6128263 124.3340876  68.3832485  62.4348698 113.2095252
  68.3603173  62.5336385 112.2577135  68.6933121  63.2813849 113.5312418
  71.0419863  64.4924853 117.3241866  71.9963116  64.4608795 117.2571798
  70.8432386  64.0315477 118.1392092  71.6319245  63.0625969 119.8912664
  72.4512134  63.5570048 119.9147501  71.9056053  62.1457937 119.8630231
  81.3885841  55.4536721 109.2540619  80.5011696  55.7386372 109.0360814
  81.8039830  55.2930485 108.4067896  84.7400377  55.4783242 112.9694958
  85.5160767  55.9679695 113.2419575  84.0148511  55.9041297 113.4266828
  87.1772936  56.1910862 114.0268899  87.7717427  55.9506598 113.3162207
  87.2499520  55.4717992 114.6542435  69.3970092  70.0344473 114.3412064
  69.2624560  69.2744873 113.7750062  68.9802154  70.7585372 113.8740853
  80.5329055  65.2181396 103.3488639  81.2364905  65.4231399 103.9646295
  79.8091703  65.7858158 103.6137723  81.3626865  60.9691257 109.4690909
  81.3062066  61.4259809 108.6298542  81.9155207  60.2081942 109.2913752
  85.1731671  56.7580989 110.2941029  84.9168605  56.3577625 111.1249236
  84.5484539  57.4724783 110.1691168  89.4844009  59.4977062 112.8012320
  88.9243567  59.5670252 113.5743882  88.8787512  59.3218047 112.0811816
  72.5539217  70.9313790 114.5530506  72.4371602  71.8759222 114.4509197
  71.7331664  70.6287351 114.9416306  82.4415752  65.6563925 105.3987099
  83.2761356  65.2245124 105.2164574  82.2800095  65.4845939 106.3263994
  82.0961644  62.1596039 106.7643438  82.0410448  61.9940310 105.8231883
  81.4707699  62.8672071 106.9205628  66.8854159  57.3964103 120.5904861
  67.5313023  56.8863057 121.0792086  66.6771310  58.1332785 121.1648286
  75.4057770  51.6604148 106.3428757  75.3936439  52.6045987 106.4997028
  76.2981192  51.4774293 106.0488218  73.5793732  71.5842051 117.7686435
  74.4820978  71.6165662 118.0852930  73.3531102  70.6542502 117.7832771
  75.3347334  70.3373038 114.4296514  74.3842965  70.3374900 114.3160886
  75.6379820  69.5905773 113.9132548  79.2209889  48.2546924 110.5974694
  78.4542285  47.7005411 110.7431376  79.6320594  48.3268793 111.4588845
  71.2251650  54.5431720 124.6879875  72.0883112  54.1868525 124.8983199
  70.6517061  54.2045615 125.3755279  83.7376549  77.9796481 111.4200692
  83.1741414  77.8886418 110.6516979  83.6228944  77.1596385 111.9003184
  81.2840981  79.4747672 114.2584912  82.0762273  79.1338497 113.8431211
  81.5237631  79.5842648 115.1787065  89.3176108  81.6467449 106.7315156
  88.6664088  82.2321529 106.3449170  90.1120471  82.1773643 106.7910194
  83.2431735  78.7356586 107.1302291  84.0162611  78.1885573 106.9915167
  83.5957134  79.6000835 107.3416752  85.5798013  74.8949252 104.7620741
  85.8323533  74.3730773 104.0004204  84.6422572  74.7315397 104.8647424
  90.6241296  73.8985030 112.5695484  91.4104385  73.4804453 112.2185901
  90.8880000  74.8031122 112.7377132  90.7951373  79.3357881 107.2684141
  90.1597206  79.4092507 107.9805045  90.4648779  79.9251479 106.5903220
  85.2994302  76.7977358 106.9645116  85.1830560  76.1222261 107.6326200
  85.4096561  76.3109732 106.1477269  87.6425842  76.2587505 110.6691805
  87.2784050  75.7318126 111.3804726  88.4992958  75.8685974 110.4958290
  87.2831329  71.2877405 105.6653153  87.4505732  72.1557641 106.0323624
  87.0928499  71.4504686 104.7414443  83.4919144  76.2008180 113.3655688
  82.5669641  76.0684394 113.5733380  83.7403557  76.9802400 113.8625631
  87.2620550  73.7435062 106.6499820  87.1420176  74.1892113 107.4885301
  86.5673139  74.0920380 106.0913358  80.8527955  75.8441454 114.1999477
  80.9820336  76.0975933 115.1138889  80.1725406  76.4369162 113.8804132
  92.9605616  74.2156535 107.4780154  93.8723473  74.4483922 107.3027852
  92.4515264  74.7993579 106.9155233  90.3041591  70.3914571 115.7270015
  89.4426070  70.6895825 116.0186753  90.3304026  70.6084970 114.7951048
  87.1203161  78.9356762 112.1343821  87.5841506  79.2144465 111.3448443
  86.8559959  78.0340206 111.9516912  86.0572047  75.0579914 108.9433386
  86.7596090  75.5100958 109.4107312  85.7252675  74.4163733 109.5713279
  79.7997381  73.3163467 114.2450520  79.0096435  73.5720995 113.7690630
  80.2908628  74.1311805 114.3502560  81.7512126  73.6808046 111.2033996
  80.9543289  73.7926740 111.7217492  81.5237718  74.0194698 110.3374887
  78.0835084  73.5693957 116.6765510  78.3343122  74.4540967 116.9423086
  78.6194632  73.3898559 115.9040602  87.2965811  81.8720857 109.0195491
  87.1611486  82.7172393 109.4480339  87.8375624  82.0740134 108.2561425
  80.7495209  79.3896295 109.5923416  81.2619729  80.1839545 109.7428981
  81.4017922  78.6922585 109.5257018  82.5590093  82.5062051 111.6746169
  82.7356722  83.4280016 111.4867153  83.3546927  82.1920470 112.1040549
  90.6458275  65.3951419 117.5494385  90.3022544  66.2853060 117.4733495
  91.0137238  65.2053076 116.6863970  78.7144126  77.7184949 110.3682987
  79.5519348  78.1281958 110.1516695  78.8922393  76.7784391 110.3383181
  90.6108558  75.3860030 106.0566820  90.0955181  76.1564634 106.2955207
  90.3385866  74.7125166 106.6799881  88.1955669  70.2309731 111.1152058
  87.3397265  69.8416581 110.9357697  88.6082620  70.3101691 110.2551844
  89.7254815  67.7656074 115.5143618  89.2219611  67.7286209 114.7011423
  90.0185422  68.6748817 115.5740275  85.9697701  67.8494804 114.5209800
  86.8350698  67.6537612 114.1615689  86.0375210  67.6205155 115.4479156
  95.5842832  78.1392384 107.9919993  94.8072275  77.8003544 107.5475155
  96.2634313  78.1445008 107.3174958  90.3994861  73.2587122 107.8826601
  90.0944996  73.5733271 108.7336744  91.3525303  73.3368542 107.9253934
  88.8441293  79.4177345 109.5319555  88.3162654  78.6830105 109.2192792
  88.3428795  80.1952022 109.2859523  83.5760020  70.0797012 111.8926166
  84.1503772  69.8572193 111.1599359  84.1631003  70.1485706 112.6454768
  83.9029607  72.1101473 105.9122052  83.0666920  72.4476159 106.2331326
  83.7634377  71.9750452 104.9749189  85.8782688  66.9538260 110.6201236
  85.2247100  66.6387278 109.9957851  85.8363162  66.3314001 111.3461059
  86.9893893  77.2357555 102.5354528  86.0820955  77.0046809 102.7345677
  87.4864925  76.4395175 102.7228510  89.8961972  85.9455063 105.4551214
  89.2223670  86.2486759 106.0636172  90.2827794  86.7484143 105.1056671
  89.1120428  73.4420194 114.9448884  88.1942990  73.6635141 114.7870572
  89.5280572  73.5166504 114.0860591  89.8955476  74.8411610 110.0751564
  90.6427295  75.3533007 109.7658686  90.1647066  74.5195662 110.9355957
  88.1682126  77.3370150 107.0578518  87.2593346  77.0529183 107.1550988
  88.1977210  77.7569229 106.1981825  92.3434313  71.8768726 112.0570353
  91.6057070  71.3646112 112.3880596  92.5961087  71.4369107 111.2453630
  92.4445941  64.6544978 112.6512122  92.7504817  63.7942341 112.3638037
  93.1698545  65.2462598 112.4511116  78.7370297  75.0575664 111.0393720
  78.5394696  74.4645025 110.3144787  78.1816961  74.7527875 111.7569659
  86.7167020  74.9498771 113.1588313  86.7715630  73.9972607 113.0830790
  85.9058222  75.1058210 113.6429612  87.8658214  78.8778894 104.3966597
  87.4277644  78.1614753 103.9372234  88.6068655  79.1055009 103.8351688
  84.6559380  73.5675831 110.9178692  83.8427246  73.8670001 111.3243884
  85.1518374  73.1731519 111.6353175  95.9831329  77.1536091 110.4542915
  95.8449227  77.3437687 109.5264104  95.6267548  77.9155474 110.9110966
  84.1473455  71.1394186 116.5339927  84.7872834  70.9982945 115.8362891
  83.3150986  70.8528700 116.1578529  84.9233759  80.4396617 112.6474920
  85.7174357  79.9446937 112.4457495  84.2125451  79.9114480 112.2842625
  81.2316522  74.5839698 108.7234672  80.3014110  74.5224154 108.9404635
  81.3273994  74.0615651 107.9271314  81.1502071  71.1094511 111.3112914
  81.4108889  72.0239844 111.2022075  81.9719244  70.6418954 111.4609527
  82.6226997  72.5232268 118.4811739  83.2950050  72.3149631 117.8324387
  81.7956783  72.3254354 118.0416971  88.0953187  86.1134735 107.6698293
  88.2704943  85.6422778 108.4843916  87.4085975  86.7400501 107.8979554
  91.9869442  77.7363276 103.9898654  91.3698612  77.0110104 103.8931707
  91.5185930  78.4972636 103.6465728  83.7767988  71.9548700 103.1119959
  82.8997454  71.8337501 102.7482205  84.2525741  71.1634778 102.8598847
  75.2970128  76.7425860 113.2061466  75.9841168  76.4287590 112.6182481
  75.1418256  77.6467224 112.9328717  80.1004850  71.6316056 117.6346489
  80.0163039  71.0241726 116.8996899  79.2787556  72.1225075 117.6355986
  90.2728564  70.1169620 113.0016684  90.7697263  69.3639582 112.6817755
  89.5015545  70.1533936 112.4359894  91.3558344  78.8741307 110.5755108
  90.4214623  78.9942769 110.4059812  91.5335013  77.9713774 110.3115118
  86.8563532  72.2587003 112.7288369  86.4861320  71.7058043 113.4169275
  87.3522625  71.6545136 112.1763369  94.7430896  74.7158626 111.1105142
  95.2091348  75.5486618 111.0365445  95.1938396  74.2503608 111.8150400
  92.8107127  81.0602448 108.1091294  93.0866971  80.9459042 109.0185168
  91.9411626  80.6619932 108.0703467  92.7147559  67.0839213 115.1496043
  91.8010638  67.3143440 115.3178250  93.1440660  67.1677657 116.0010076
  89.7803356  84.2356984 109.0139156  90.3091123  83.7249438 108.4009318
  90.0431576  83.9199514 109.8784689  74.8738104  74.8226453 115.4778933
  74.9122203  74.2890044 116.2716051  74.3678397  74.2961659 114.8589910
  82.2528866  69.6690994 118.9741475  82.3170193  70.5305824 118.5618873
  82.1895986  69.0564995 118.2413834  78.5046681  73.5490555 108.5532864
  78.8000123  72.6401234 108.4999918  77.6034717  73.5278295 108.2313867
  82.0340928  71.6246552 114.5360413  81.3127514  72.2382519 114.3967886
  82.8234184  72.1604317 114.4577059  80.2334523  71.2304653 108.6772189
  79.9047229  70.3502032 108.4947295  80.5873894  71.1752322 109.5648579
  83.3476346  71.5177623 109.0447667  83.6872419  72.0463544 108.3226275
  83.7948467  71.8558029 109.8206234  86.0419787  69.9014673 118.4950735
  85.7016607  69.1022486 118.8971415  85.3358793  70.2016384 117.9227568
  86.6936259  66.9863986 116.9478058  87.5162328  66.5124464 116.8256948
  86.9374322  67.7654470 117.4476744  85.3344493  70.0152244 107.2440960
  86.0552856  70.3933497 106.7404677  84.7109797  70.7341121 107.3475938
  89.4775616  70.7197393 108.1799292  89.6939231  71.6022031 107.8788120
  88.9969683  70.3283607 107.4504934  84.2174838  73.6783106 114.7570037
  84.0719418  73.9923410 115.6494318  83.7400041  74.2968007 114.2040935
  86.0771220  70.6685654 114.8050926  86.0632789  69.7726748 114.4683224
  86.7943649  70.6756318 115.4389212  87.9297351  71.1022995 116.8504054
  87.6715129  72.0240065 116.8488384  87.3982392  70.7053429 117.5404518
  78.6920500  76.2188451 117.6957698  78.1473968  76.9948259 117.8277972
  79.5699850  76.5659255 117.5376819  85.4808116  69.5500035 110.0738496
  85.6024028  68.6216681 110.2729384  85.1910159  69.5638721 109.1616812
  88.3499307  67.2354945 113.2105216  88.3721004  67.2994278 112.2557196
  88.7667366  66.3959454 113.4045722  93.8618712  83.5240546 106.7291037
  94.5569617  84.1447239 106.9478352  94.2041863  82.6735897 107.0043415
  95.7610136  80.9740252 108.2578368  96.2861460  81.3127524 107.5327688
  95.6732488  80.0387267 108.0741503  79.9243135  83.2323776 112.6198249
  80.7501155  82.9327548 112.2396893  79.5737187  82.4631398 113.0688038
  78.1251740  81.1510102 113.5787183  77.2883649  80.7232277 113.3971184
  78.0975386  81.3442546 114.5157974  84.4538175  81.1354167 108.1654384
  84.6026296  81.8189632 107.5121056  85.2604619  81.1159257 108.6803839
  82.2090808  77.1619345 109.1715452  81.9636850  76.2581675 109.3695663
  82.3786723  77.1636495 108.2294930  81.4786456  72.8947703 106.6701614
  80.7855701  72.9692058 106.0141650  81.2338208  72.1308046 107.1923131
  90.1500112  64.4543304 114.0741105  90.4301866  63.7866493 114.7001531
  90.9350719  64.6472400 113.5615768  87.9533581  83.6302298 105.6366131
  87.3807548  84.2492485 105.1836603  88.5266375  84.1801660 106.1706053
  91.1730841  83.9139448 106.7674713  92.1061514  83.8485010 106.9707589
  91.0854053  84.7495715 106.3089246  93.8018857  83.2305318 103.7278661
  93.7232489  82.8965182 104.6214419  94.6228524  83.7227086 103.7270133
  88.3380379  74.9663111 102.9782183  89.2839484  74.8369319 103.0470601
  87.9594624  74.2277773 103.4551612  94.3102264  66.6319117 112.9409075
  94.1127085  66.3234205 113.8252407  94.9201969  67.3580756 113.0707005
  86.5223297  72.8913087 102.9137069  85.6154752  72.5946200 102.9899782
  86.7999278  72.5942905 102.0471355  77.4401237  74.2119450 113.3636115
  77.1204021  73.3584759 113.0710489  76.8934665  74.4268029 114.1194082
  88.1385362  67.4349977 109.0681310  87.3286091  67.0897062 109.4436556
  88.8269779  67.1257520 109.6568922  90.0675911  66.5128024 110.6905607
  90.6206949  66.9323477 111.3495630  90.3045997  65.5863772 110.7328563
  85.2922081  69.7500022 103.0549048  86.1541245  70.0754921 103.3144865
  85.4772425  68.9631518 102.5422114  77.3089497  77.8322362 115.3329237
  76.6152968  77.4176315 114.8199191  78.0562488  77.8742898 114.7362656
  93.4454718  68.6228549 110.1984271  92.8653387  69.2813353 109.8162323
  93.1790650  67.8005893 109.7871688  91.8958284  68.0233606 112.4005591
  92.3958062  68.1350141 111.5919910  92.5393892  67.7194659 113.0406400
  79.2226239  77.7640616 113.2095252  79.1996928  77.8628303 112.2577135
  79.5326876  78.6105766 113.5312418  92.2279596  70.7828639 109.2540619
  91.3405451  71.0678290 109.0360814  92.6433585  70.6222402 108.4067896
  95.5794132  70.8075160 112.9694958  96.3554522  71.2971612 113.2419575
  94.8542266  71.2333214 113.4266828  91.3722809  80.5473314 103.3488639
  92.0758659  80.7523316 103.9646295  90.6485458  81.1150076 103.6137723
  92.2020619  76.2983175 109.4690909  92.1455821  76.7551726 108.6298542
  92.7548962  75.5373860 109.2913752  96.0125425  72.0872907 110.2941029
  95.7562360  71.6869543 111.1249236  95.3878293  72.8016701 110.1691168
  93.2809507  80.9855843 105.3987099  94.1155110  80.5537041 105.2164574
  93.1193849  80.8137857 106.3263994  92.9355399  77.4887956 106.7643438
  92.8804202  77.3232228 105.8231883  92.3101454  78.1963989 106.9205628
  77.7247914  72.7256021 120.5904861  78.3706777  72.2154975 121.0792086
  77.5165065  73.4624702 121.1648286  86.2451524  66.9896065 106.3428757
  86.2330194  67.9337905 106.4997028  87.1374946  66.8066211 106.0488218
  90.0603644  63.5838842 110.5974694  89.2936039  63.0297329 110.7431376
  90.4714349  63.6560711 111.4588845  94.7423362  87.4393390 105.9122052
  93.9060674  87.7768077 106.2331326  94.6028131  87.3042370 104.9749189
  94.6161742  87.2840618 103.1119959  93.7391208  87.1629418 102.7482205
  95.0919495  86.4926696 102.8598847  92.3180210  88.2239620 106.6701614
  91.6249455  88.2983975 106.0141650  92.0731962  87.4599964 107.1923131
  97.3617051  88.2205005 102.9137069  96.4548506  87.9238117 102.9899782
  97.6393032  87.9234823 102.0471355  96.1315836  85.0791940 103.0549048
  96.9935000  85.4046838 103.3144865  96.3166180  84.2923436 102.5422114
  97.0845279  82.3187983 106.3428757  97.0723948  83.2629823 106.4997028
  97.9768701  82.1358128 106.0488218  46.5386955   1.6349515  92.1796521
  45.8648654   1.9381211  92.7881479  46.9252777   2.4378595  91.8301978
  50.5043696  -0.7865002  93.4536344  51.1994600  -0.1658309  93.6723659
  50.8466846  -1.6369651  93.7288722  44.5958564  -0.6803250  92.3611438
  44.0232531  -0.0613063  91.9081909  45.1691358  -0.1303889  92.8951360
  47.8155824  -0.3966100  93.4920020  48.7486497  -0.4620538  93.6952895
  47.7279037   0.4390167  93.0334553  50.4443841  -1.0800230  90.4523967
  50.3657472  -1.4140366  91.3459725  51.2653507  -0.5878462  90.4515440
  48.0147792  -3.7632234  90.0733946  48.7183643  -3.5582232  90.6891601
  47.2910441  -3.1955472  90.3383029  49.9234490  -3.3249705  92.1232406
  50.7580094  -3.7568507  91.9409881  49.7618833  -3.4967691  93.0509300
  58.5518765   7.1919946 102.2187583  59.1897175   7.0726693 101.5150923
  58.4339608   8.1400790 102.2775535  51.2195287   8.9982850  98.1445998
  50.6560152   8.9072787  97.3762286  51.1047682   8.1782755  98.6248491
  56.7994846  12.6653818  93.4560463  56.1482825  13.2507899  93.0694477
  57.5939208  13.1960013  93.5155501  50.7250473   9.7542955  93.8547597
  51.4981349   9.2071942  93.7160473  51.0775872  10.6187205  94.0662059
  53.0616751   5.9135621  91.4866047  53.3142271   5.3917143  90.7249510
  52.1241310   5.7501767  91.5892731  58.1060033   4.9171400  99.2940791
  58.8923123   4.4990823  98.9431208  58.3698738   5.8217492  99.4622439
  58.2770111  10.3544250  93.9929447  57.6415944  10.4278877  94.7050352
  57.9467517  10.9437849  93.3148527  63.5068461   4.8546633 100.1973769
  64.2393632   4.2845850 100.4311599  62.7507816   4.4668233 100.6380275
  52.7813039   7.8163727  93.6890422  52.6649297   7.1408631  94.3571507
  52.8915299   7.3296101  92.8722575  55.1244580   7.2773874  97.3937112
  54.7602787   6.7504495  98.1050033  55.9811696   6.8872344  97.2203597
  54.7650067   2.3063774  92.3898460  54.9324470   3.1744011  92.7568931
  54.5747236   2.4691056  91.4659749  54.7439288   4.7621432  93.3745127
  54.6238913   5.2078482  94.2130607  54.0491876   5.1106749  92.8158665
  52.5046180  17.5325073  97.0235258  52.4270210  18.4832899  97.1023739
  51.9007824  17.1870946  97.6810184  60.4424354   5.2342905  94.2025461
  61.3542210   5.4670292  94.0273158  59.9334001   5.8179949  93.6400540
  59.0493937  10.2168723 101.5939042  58.4202799  10.3814437 100.8915110
  58.6619599  10.6310333 102.3650006  62.9283168  11.1523161  98.9483406
  62.2434207  11.5322063  98.3980439  63.0127018  11.7618488  99.6815354
  54.6021898   9.9543131  98.8589127  55.0660244  10.2330834  98.0693750
  54.3378697   9.0526576  98.6762218  53.5390785   6.0766284  95.6678693
  54.2414828   6.5287327  96.1352619  53.2071413   5.4350103  96.2958586
  61.2979928  11.6755076 103.7201107  62.1197372  11.2735263 103.4383789
  61.2942331  11.5723310 104.6717223  69.3885921   8.0193824 100.0686078
  68.6349629   7.4501222  99.9130083  69.5233462   7.9856489 101.0156713
  54.7784549  12.8907226  95.7440798  54.6430224  13.7358762  96.1725646
  55.3194362  13.0926504  94.9806732  48.2313947  10.4082664  96.3168723
  48.7438467  11.2025915  96.4674288  48.8836659   9.7108955  96.2502324
  50.0408831  13.5248421  98.3991476  50.2175460  14.4466385  98.2112460
  50.8365665  13.2106840  98.8285856  51.1640147  15.0426594 104.4001818
  51.7147572  14.9143658 103.6278812  50.3251623  15.3421484 104.0496711
  46.1962863   8.7371319  97.0928293  47.0338085   9.1468327  96.8762001
  46.3741131   7.7970761  97.0628487  58.0927295   6.4046399  92.7812126
  57.5773919   7.1751004  93.0200514  57.8204604   5.7311536  93.4045188
  55.6774406   1.2496100  97.8397365  54.8216003   0.8602951  97.6603004
  56.0901358   1.3288061  96.9797150  63.0661570   9.1578754  94.7165300
  62.2891012   8.8189914  94.2720462  63.7453051   9.1631377  94.0420265
  57.8813599   4.2773491  94.6071908  57.5763734   4.5919641  95.4582051
  58.8344041   4.3554911  94.6499241  56.3260030  10.4363715  96.2564862
  55.7981392   9.7016474  95.9438099  55.8247533  11.2138391  96.0104830
  61.3052876   8.6312735 101.3731908  60.6476551   9.3211997 101.4612037
  62.1093276   9.0209167 101.7165894  60.1158335   6.9857108  99.4235850
  60.6290217   7.6187100  99.9257559  60.7659559   6.3858303  99.0579210
  51.3848345   3.1287842  92.6367358  50.5485657   3.4662529  92.9576633
  51.2453115   2.9936822  91.6994495  54.4712631   8.2543925  89.2599835
  53.5639692   8.0233179  89.4590984  54.9683663   7.4581544  89.4473816
  57.3780709  16.9641432  92.1796521  56.7042408  17.2673129  92.7881479
  57.7646531  17.7670513  91.8301978  57.3774214   5.8597979  96.7996870
  58.1246033   6.3719376  96.4903992  57.6465803   5.5382032  97.6601264
  55.6500864   8.3556520  93.7823825  54.7412083   8.0715553  93.8796294
  55.6795948   8.7755598  92.9227132  60.8820131  11.9663109  97.5514992
  60.4282459  11.1254019  97.6080183  60.2514098  12.6024508  97.8889772
  59.8253051   2.8955095  98.7815660  59.0875808   2.3832482  99.1125902
  60.0779825   2.4555477  97.9698937  59.3253071  13.8039606  98.4864810
  59.6176045  14.3644663  97.7677176  59.8351691  14.0968167  99.2417970
  54.1985758   5.9685141  99.8833620  54.2534368   5.0158977  99.8076097
  53.3876960   6.1244580 100.3674918  55.3476952   9.8965264  91.1211903
  54.9096382   9.1801123  90.6617541  56.0887393  10.1241378  90.5596995
  52.1378118   4.5862200  97.6423999  51.3245984   4.8856371  98.0489191
  52.6337112   4.1917889  98.3598481  54.2886696  14.5819957  99.5758264
  54.2462875  14.8080804  98.6466796  55.2049395  14.3483332  99.7244065
  63.4650067   8.1722461  97.1788222  63.3267965   8.3624057  96.2509411
  63.1086285   8.9341843  97.6356273  63.4919446  10.2398988 102.1899493
  63.9255953  10.1474277 103.0382547  64.2051027  10.2156488 101.5519509
  52.4052497  11.4582986  99.3720226  53.1993095  10.9633306  99.1702801
  51.6944189  10.9300849  99.0087932  57.2247341  13.8401082 103.7232594
  57.2784363  14.4092018 104.4910310  56.3562123  14.0102967 103.3586631
  48.7135260   5.6026068  95.4479979  47.7832848   5.5410523  95.6649941
  48.8092732   5.0802021  94.6516620  64.3534996  10.2822688 104.7232379
  64.5470886  11.1868499 104.9691654  64.2535614   9.8230107 105.5570964
  54.9823773  12.0312008 103.0518063  54.8434858  11.6630793 103.9244002
  54.1938369  12.5459648 102.8802021  55.5771925  17.1321105  94.3943600
  55.7523680  16.6609148  95.2089223  54.8904713  17.7586871  94.6224861
  56.5328988  11.4093611 100.4406901  56.1978820  11.3694381 101.3364551
  56.0332933  10.7438327  99.9677311  59.4688179   8.7549645  90.7143961
  58.8517350   8.0296473  90.6177014  59.0004668   9.5159006  90.3711035
  50.1433010  20.2810467 101.1683460  50.3829608  20.9128992 101.8462479
  49.3002206  19.9298507 101.4548819  51.2586725   2.9735070  89.8365265
  50.3816192   2.8523870  89.4727512  51.7344478   2.1821148  89.5844154
  54.6560872  16.0889590 103.5724964  54.5831043  16.8944561 104.0844269
  54.2138265  16.2881556 102.7472985  54.4450651  15.3261360  97.0827786
  53.6618173  15.8683040  97.1766010  55.1443397  15.8435340  97.4822027
  65.6077059   6.8396355 101.3680283  65.5966935   7.7221070 100.9974216
  64.7394438   6.4867906 101.1734820  57.1159555  15.9876424 105.7283123
  57.8287528  16.6223889 105.6559024  56.6249584  16.0840290 104.9123125
  58.8377082   9.8927677  97.3000414  57.9033361  10.0129139  97.1305119
  59.0153751   8.9900143  97.0360424  62.2249634   5.7344996  97.8350449
  62.6910086   6.5672987  97.7610751  62.6757134   5.2689977  98.5395707
  60.2925865  12.0788817  94.8336601  60.5685709  11.9645412  95.7430475
  59.4230363  11.6806302  94.7948774  56.9279929  16.3275168  98.4769414
  57.1102323  15.5096824  98.9397167  57.7512915  16.5442860  98.0394304
  57.2622094  15.2543353  95.7384463  57.7909861  14.7435808  95.1254625
  57.5250314  14.9385883  96.6029996  50.6177842  16.3058470  98.4982239
  49.9488217  16.7904597  98.0146279  50.4790712  16.5527690  99.4125617
  54.7583111  18.3402213 105.0964897  55.3101419  18.5033835 105.8613982
  55.0989304  18.9306651 104.4244922  45.9865419   4.5676925  95.2778171
  46.2818860   3.6587603  95.2245225  45.0853455   4.5464664  94.9559173
  57.8951498  16.2884189 102.0828579  57.7702637  15.4873929 101.5739525
  58.5530589  16.7830382 101.5942549  59.9586406  14.0893209 103.7108129
  59.0116742  13.9698560 103.6386456  60.3069179  13.2015707 103.7934391
  56.9632840  13.8845925  99.9112481  56.8157802  12.9562633 100.0920052
  57.7886333  13.9066016  99.4269557  50.8295084   2.5363992  95.7692974
  51.1691156   3.0649913  95.0471582  51.2767204   2.8744398  96.5451540
  60.5666962  14.7074484 100.9977354  61.4913509  14.5017345 100.8601805
  60.3982265  14.4590885 101.9066696  52.8163231   1.0338614  93.9686266
  53.5371594   1.4119867  93.4649983  52.1928535   1.7527491  94.0721244
  56.9594354   1.7383763  94.9044599  57.1757968   2.6208401  94.6033427
  56.4788421   1.3469976  94.1750241  60.3562278  15.2260151  96.3539446
  60.5299155  14.6606574  95.6013298  60.8491169  16.0261046  96.1718936
  66.2101669   7.9896574  97.9729745  66.6532815   7.2403899  97.5748869
  65.3328179   7.9806711  97.5903477  61.3437450  14.5426916  93.4536344
  62.0388355  15.1633608  93.6723659  61.6860600  13.6922267  93.7288722
  63.2428873  11.9926621  94.9823675  63.7680197  12.3313894  94.2572995
  63.1551226  11.0573637  94.7986809  54.9269534  18.0598605  99.3418928
  54.4874524  17.5674983 100.0351785  55.6777651  17.5171572  99.1011003
  47.4061873  14.2510145  99.3443556  48.2319893  13.9513917  98.9642200
  47.0555925  13.4817768  99.7933345  52.3743406  13.6036614 101.4141230
  51.7523416  12.9407319 101.1143457  53.0448273  13.6297746 100.7314877
  51.9356913  12.1540537  94.8899690  52.0845034  12.8376001  94.2366363
  52.7423357  12.1345627  95.4049146  65.7534534   9.4601813 100.3652193
  66.5881425   9.8991617 100.5289753  65.8893662   8.9840466  99.5460439
  49.6909546   8.1805715  95.8960759  49.4455588   7.2768045  96.0940969
  49.8605461   8.1822865  94.9540237  48.9605194   3.9134072  93.3946921
  48.2674439   3.9878427  92.7386956  48.7156946   3.1494416  93.9168437
  55.4352319  14.6488667  92.3611438  54.8626286  15.2678855  91.9081909
  56.0085112  15.1988029  92.8951360  58.6549578  14.9325818  93.4920020
  59.5880252  14.8671379  93.6952895  58.5672791  15.7682084  93.0334553
  61.2837595  14.2491688  90.4523967  61.2051227  13.9151551  91.3459725
  62.1047262  14.7413456  90.4515440  63.9815786   7.1153427 103.6600286
  63.9492106   6.1769428 103.8459970  64.5916410   7.1937464 102.9266111
  55.8199117   5.9849480  89.7027490  56.7658222   5.8555688  89.7715908
  55.4413362   5.2464142  90.1796918  69.7992336   8.1769434 102.8006323
  70.5295725   7.9154722 103.3614026  69.1899282   7.4398156 102.8408391
  67.8807633   6.3177297 103.3980774  67.1540797   6.1833262 102.7897266
  67.4654920   6.6254125 104.2037492  54.0042034   3.9099457  89.6382375
  53.0973490   3.6132569  89.7145089  54.2818015   3.6129275  88.7716662
  55.6204100  -1.5463654  95.7926617  54.8104828  -1.8916569  96.1681863
  56.3088517  -1.8556110  96.3814228  52.7740819   0.7686392  89.7794354
  53.6359983   1.0941290  90.0390172  52.9591163  -0.0182112  89.2667420
  60.9273455  -0.3585082  96.9229577  60.3472124   0.2999722  96.5407630
  60.6609388  -1.1807737  96.5116995  59.7098333   1.8015009  95.9785926
  58.8224188   2.0864659  95.7606121  60.1252323   1.6408772  95.1313203
  63.0612870   1.8261530  99.6940265  63.8373260   2.3157982  99.9664882
  62.3361004   2.2519584 100.1512134  65.4985428   2.5389149 100.7514206
  66.0929919   2.2984885 100.0407514  65.5712012   1.8196279 101.3787742
  47.7182584  16.3822760 101.0657370  47.5837052  15.6223161 100.4995368
  47.3014646  17.1063660 100.5986159  58.8541547  11.5659683  90.0733946
  59.5577397  11.7709686  90.6891601  58.1304196  12.1336445  90.3383029
  59.6839357   7.3169545  96.1936216  59.6274559   7.7738096  95.3543848
  60.2367700   6.5560229  96.0159059  63.4944163   3.1059276  97.0186335
  63.2381097   2.7055912  97.8494543  62.8697031   3.8203070  96.8936475
  67.8056501   5.8455350  99.5257627  67.2456059   5.9148539 100.2989189
  67.2000004   5.6696334  98.8057123  50.8751710  17.2792077 101.2775813
  50.7584094  18.2237509 101.1754503  50.0544156  16.9765638 101.6661612
  60.7628244  12.0042212  92.1232406  61.5973848  11.5723411  91.9409881
  60.6012587  11.8324226  93.0509300  60.4174136   8.5074326  93.4888745
  60.3622940   8.3418597  92.5477189  59.7920192   9.2150359  93.6450935
  53.7270262  -1.9917565  93.0674063  53.7148932  -1.0475725  93.2242334
  54.6193684  -2.1747420  92.7733525  51.9006224  17.9320339 104.4931742
  52.8033471  17.9643949 104.8098236  51.6743594  17.0020790 104.5078077
  53.6559826  16.6851325 101.1541820  52.7055457  16.6853187 101.0406192
  53.9592312  15.9384060 100.6377855  69.3912519  22.5211864 102.2187583
  70.0290929  22.4018611 101.5150923  69.2733362  23.4692708 102.2775535
  66.2002226  22.4739292 102.1549107  65.8620737  22.3580356 101.2669642
  67.0691994  22.0730457 102.1350113  62.0589041  24.3274768  98.1445998
  61.4953907  24.2364705  97.3762286  61.9441436  23.5074673  98.6248491
  66.6822009  23.6274143 108.1135313  66.6710649  23.2326942 107.2415816
  66.8442648  22.8940216 108.7069084  59.6053473  25.8225960 100.9830219
  60.3974765  25.4816784 100.5676518  59.8450123  25.9320935 101.9032372
  67.6388600  27.9945736  93.4560463  66.9876580  28.5799816  93.0694477
  68.4332963  28.5251931  93.5155501  61.5644227  25.0834873  93.8547597
  62.3375103  24.5363860  93.7160473  61.9169626  25.9479122  94.0662059
  63.4029270  26.4111255 107.0614497  63.1119136  27.3156886 106.9461163
  64.0386254  26.4527783 107.7758566  64.3285477  23.7888104 103.6515856
  64.9249049  23.5644126 102.9372819  64.3860448  23.0472849 104.2541304
  63.9010505  21.2427539  91.4866047  64.1536026  20.7209060  90.7249510
  62.9635064  21.0793685  91.5892731  68.9453788  20.2463317  99.2940791
  69.7316877  19.8282741  98.9431208  69.2092492  21.1509410  99.4622439
  69.1163865  25.6836168  93.9929447  68.4809698  25.7570794  94.7050352
  68.7861272  26.2729767  93.3148527  74.3462215  20.1838551 100.1973769
  75.0787387  19.6137767 100.4311599  73.5901571  19.7960151 100.6380275
  63.6206794  23.1455645  93.6890422  63.5043052  22.4700548  94.3571507
  63.7309054  22.6588019  92.8722575  65.9638335  22.6065792  97.3937112
  65.5996542  22.0796413  98.1050033  66.8205451  22.2164261  97.2203597
  71.8687635  13.8960125 104.6568378  71.5370960  14.7655536 104.4329593
  71.2733249  13.5796409 105.3362408  65.6043822  17.6355692  92.3898460
  65.7718224  18.5035928  92.7568931  65.4140991  17.7982974  91.4659749
  68.3619155  26.0972671 104.0564290  68.0619878  26.9997710 103.9480098
  68.0170214  25.8304854 104.9085443  61.8131636  22.5486468 100.0900995
  60.8882133  22.4162682 100.2978687  62.0616050  23.3280687 100.5870937
  71.7616299  18.6155211 101.7361728  70.8533176  18.5470619 101.4420489
  71.7103894  19.0927156 102.5643553  65.5833043  20.0913349  93.3745127
  65.4632668  20.5370400  94.2130607  64.8885631  20.4398667  92.8158665
  59.1740447  22.1919741 100.9244784  59.3032829  22.4454220 101.8384196
  58.4937899  22.7847449 100.6049439  63.3439935  32.8616991  97.0235258
  63.2663964  33.8124816  97.1023739  62.7401578  32.5162864  97.6810184
  65.8357164  20.0344857 109.6796625  65.0590499  20.5938777 109.6699490
  66.4747728  20.5201640 110.2011495  73.6277945  16.8171649 103.5139602
  72.9852325  17.1104183 102.8679396  73.1232874  16.7024570 104.3192798
  71.2818109  20.5634823  94.2025461  72.1935965  20.7962209  94.0273158
  70.7727756  21.1471867  93.6400540  64.0903537  22.8430310 109.2414592
  64.8318221  23.3815354 108.9649416  63.3840522  23.4696599 109.3986144
  69.5658876  24.9859450 107.8386754  69.9742232  24.5441861 107.0941386
  68.8436138  24.4112078 108.0920946  65.9189946  19.9232057 105.2120310
  66.7651142  20.3471471 105.3554959  65.8588584  19.2665681 105.9058874
  69.8887691  25.5460641 101.5939042  69.2596553  25.7106355 100.8915110
  69.5013353  25.9602251 102.3650006  73.7676923  26.4815079  98.9483406
  73.0827961  26.8613980  98.3980439  73.8520772  27.0910405  99.6815354
  69.0689392  17.5836425 106.8701484  68.8250324  18.3378486 106.3335760
  69.3449322  17.9621773 107.7048731  71.0227855  24.1275038 105.5478750
  71.2344750  24.7706798 104.8713131  70.9757603  23.2937354 105.0800680
  68.6254084  16.7392859 102.4515322  67.7638563  17.0374112 102.7432059
  68.6516518  16.9563257 101.5196354  65.4415653  25.2835049  98.8589127
  65.9053998  25.5622752  98.0693750  65.1772451  24.3818494  98.6762218
  62.3339734  24.8306531 101.7968891  62.9041091  25.2593799 101.1586375
  62.9247846  24.5489115 102.4953076  64.3784539  21.4058201  95.6678693
  65.0808582  21.8579245  96.1352619  64.0465167  20.7642020  96.2958586
  62.8264901  19.9969958 110.0429902  62.1963561  20.6786239 110.2765299
  62.7200988  19.8853040 109.0983040  58.1209873  19.6641754 100.9695826
  57.3308927  19.9199283 100.4935937  58.6121120  20.4790092 101.0747867
  72.1373683  27.0046993 103.7201107  72.9591126  26.6027181 103.4383789
  72.1336085  26.9015227 104.6717223  60.0724618  20.0286333  97.9279303
  59.2755782  20.1405028  98.4462799  59.8450211  20.3672986  97.0620193
  65.9030286  26.5531037 105.8761818  65.9674718  27.0151444 106.7119989
  65.1941210  25.9228401 106.0044127  56.4047576  19.9172245 103.4010817
  56.6555614  20.8019254 103.6668393  56.9407124  19.7376846 102.6285909
  80.2279676  23.3485742 100.0686078  79.4743384  22.7793140  99.9130083
  80.3627217  23.3148406 101.0156713  65.6178304  28.2199144  95.7440798
  65.4823978  29.0650680  96.1725646  66.1588116  28.4218422  94.9806732
  59.0707701  25.7374582  96.3168723  59.5832222  26.5317832  96.4674288
  59.7230414  25.0400873  96.2502324  60.8802586  28.8540338  98.3991476
  61.0569214  29.7758303  98.2112460  61.6759419  28.5398758  98.8285856
  65.0213604  15.7148603 109.9975410  65.7623318  16.3155756 109.9179872
  65.2531527  14.9726241 109.4393452  60.1654942  20.9004970 108.2753639
  60.0508457  19.9990227 108.5760738  59.3099460  21.1468667 107.9238456
  67.2446780  28.8422711 109.8741140  66.8010634  28.0559089 109.5562044
  67.9063994  29.0301861 109.2085031  62.0033901  30.3718512 104.4001818
  62.5541326  30.2435576 103.6278812  61.1645377  30.6713401 104.0496711
  69.3428018  29.1225511 107.9022541  69.3246493  29.9434392 107.4102810
  70.2647938  28.9979586 108.1272682  65.8001072  26.6369640 108.7446050
  66.3329409  25.8757928 108.5145358  65.2715153  26.3443292 109.4870204
  68.9670767  11.7429706 104.2739691  68.6235037  12.6331348 104.1978802
  69.3349730  11.5531364 103.4109276  57.0356618  24.0663236  97.0928293
  57.8731840  24.4760245  96.8762001  57.2134885  23.1262679  97.0628487
  68.9321050  21.7338317  92.7812126  68.4167673  22.5042922  93.0200514
  68.6598358  21.0603453  93.4045188  66.5168161  16.5788018  97.8397365
  65.6609757  16.1894868  97.6603004  66.9295113  16.6579979  96.9797150
  68.0467308  14.1134361 102.2388925  67.5432103  14.0764496 101.4256730
  68.3397914  15.0227104 102.2985581  64.2910193  14.1973091 101.2455106
  65.1563190  14.0015900 100.8860996  64.3587702  13.9683443 102.1724463
  73.9055324  24.4870672  94.7165300  73.1284767  24.1481831  94.2720462
  74.5846805  24.4923295  94.0420265  68.7207353  19.6065409  94.6071908
  68.4157489  19.9211558  95.4582051  69.6737795  19.6846829  94.6499241
  67.1653785  25.7655632  96.2564862  66.6375146  25.0308392  95.9438099
  66.6641288  26.5430309  96.0104830  72.1446631  23.9604653 101.3731908
  71.4870305  24.6503914 101.4612037  72.9487030  24.3501085 101.7165894
  61.8972513  16.4275299  98.6171473  62.4716264  16.2050480  97.8844666
  62.4843495  16.4963993  99.3700074  70.9552090  22.3149026  99.4235850
  71.4683971  22.9479017  99.9257559  71.6053314  21.7150221  99.0579210
  62.2242100  18.4579760  92.6367358  61.3879412  18.7954446  92.9576633
  62.0846869  18.3228740  91.6994495  64.1995180  13.3016548  97.3446543
  63.5459593  12.9865565  96.7203157  64.1575654  12.6792288  98.0706365
  65.3106385  23.5835843  89.2599835  64.4033447  23.3525096  89.4590984
  65.8077417  22.7873462  89.4473816  68.2174464  32.2933350  92.1796521
  67.5436163  32.5965047  92.7881479  68.6040286  33.0962430  91.8301978
  67.4332921  19.7898481 101.6694190  66.5155482  20.0113428 101.5115878
  67.8493064  19.8644792 100.8105897  68.2167968  21.1889897  96.7996870
  68.9639787  21.7011294  96.4903992  68.4859558  20.8673950  97.6601264
  66.4894619  23.6848438  93.7823825  65.5805838  23.4007470  93.8796294
  66.5189702  24.1047516  92.9227132  71.7213886  27.2955027  97.5514992
  71.2676213  26.4545937  97.6080183  71.0907853  27.9316425  97.8889772
  70.6646806  18.2247013  98.7815660  69.9269562  17.7124399  99.1125902
  70.9173579  17.7847395  97.9698937  70.1646825  29.1331524  98.4864810
  70.4569800  29.6936581  97.7677176  70.6745446  29.4260085  99.2417970
  70.7658433  11.0023265  99.3757429  71.0717310  10.1420629  99.0883344
  71.4911038  11.5940885  99.1756423  57.0582789  21.4053952  97.7639027
  56.8607189  20.8123312  97.0390093  56.5029453  21.1006162  98.4814966
  65.0379513  21.2977058  99.8833620  65.0928122  20.3450895  99.8076097
  64.2270715  21.4536497 100.3674918  66.1870706  25.2257181  91.1211903
  65.7490136  24.5093040  90.6617541  66.9281147  25.4533296  90.5596995
  62.9771872  19.9154118  97.6423999  62.1639738  20.2148288  98.0489191
  63.4730867  19.5209807  98.3598481  65.1280450  29.9111875  99.5758264
  65.0856629  30.1372721  98.6466796  66.0443149  29.6775249  99.7244065
  68.5746084  20.3795942 106.4738893  68.9295472  20.6067416 107.3333359
  69.2218215  20.7114319 105.8516148  74.3043821  23.5014378  97.1788222
  74.1661720  23.6915974  96.2509411  73.9480040  24.2633761  97.6356273
  62.4685947  17.4872473 103.2585234  63.1085327  17.3461233 102.5608197
  61.6363478  17.2006987 102.8823836  74.3313201  25.5690905 102.1899493
  74.7649707  25.4766194 103.0382547  75.0444781  25.5448406 101.5519509
  63.2446251  26.7874904  99.3720226  64.0386850  26.2925224  99.1702801
  62.5337944  26.2592767  99.0087932  68.0641096  29.1692999 103.7232594
  68.1178118  29.7383936 104.4910310  67.1955877  29.3394884 103.3586631
  59.5529015  20.9317986  95.4479979  58.6226603  20.8702441  95.6649941
  59.6486487  20.4093938  94.6516620  59.4714564  17.4572798  98.0358221
  59.7321381  18.3718132  97.9267381  60.2931736  16.9897241  98.1854833
  60.9439489  18.8710556 105.2057045  61.6162542  18.6627918 104.5569694
  60.1169276  18.6732642 104.7662278  75.1928750  25.6114606 104.7232379
  75.3864640  26.5160416 104.9691654  75.0929368  25.1522025 105.5570964
  66.8465061  15.4972497 107.2222706  66.1992976  16.1962446 107.1287182
  67.6166076  15.9308640 107.5898954  70.2543859  25.7621349 110.2973259
  70.1029365  25.5331900 109.3803343  70.2448538  26.7191950 110.3104604
  67.0229195  23.3353261 105.2819526  67.9521255  23.4864421 105.1088493
  66.6020225  23.4237282 104.4268172  65.8217527  27.3603926 103.0518063
  65.6828613  26.9922710 103.9244002  65.0332123  27.8751565 102.8802021
  66.4165679  32.4613022  94.3943600  66.5917435  31.9901066  95.2089223
  65.7298467  33.0878789  94.6224861  67.3722742  26.7385529 100.4406901
  67.0372575  26.6986299 101.3364551  66.8726688  26.0730244  99.9677311
  61.3466986  22.1453159 105.9659482  61.2086784  21.4133397 106.5671021
  62.2571910  22.0562059 105.6843670  70.3081934  24.0841563  90.7143961
  69.6911105  23.3588391  90.6177014  69.8398422  24.8450923  90.3711035
  63.9749287  21.8573118 105.4543162  64.6848905  21.2166310 105.4129780
  63.9318595  22.1086013 106.3769343  71.9636066  28.7940471 108.3749741
  71.9048612  28.1099691 107.7080324  72.3655584  29.5359461 107.9230367
  62.6878221  18.8438336 107.2738801  62.1515578  18.3929074 107.9260398
  62.0994929  18.9784245 106.5309266  60.9826764  35.6102385 101.1683460
  61.2223363  36.2420909 101.8462479  60.1395961  35.2590425 101.4548819
  62.0980480  18.3026987  89.8365265  61.2209946  18.1815788  89.4727512
  62.5738233  17.5113066  89.5844154  71.9653473  26.7580055 106.6063721
  71.0780252  26.4205977 106.7290120  72.5352024  26.0263086 106.8432486
  53.6182620  23.0904147  99.9306772  54.3053660  22.7765877  99.3427788
  53.4630749  23.9945512  99.6574024  58.4217342  17.9794344 104.3591796
  58.3375531  17.3720013 103.6242206  57.6000049  18.4703362 104.3601292
  65.4954626  31.4181508 103.5724964  65.4224798  32.2236479 104.0844269
  65.0532019  31.6173473 102.7472985  65.2844406  30.6553278  97.0827786
  64.5011928  31.1974958  97.1766010  65.9837151  31.1727257  97.4822027
  68.5941056  16.4647907  99.7261991  69.0909756  15.7117869  99.4063061
  67.8228038  16.5012224  99.1605200  76.4470813  22.1688273 101.3680283
  76.4360690  23.0512988 100.9974216  75.5788193  21.8159823 101.1734820
  67.9553310  31.3168342 105.7283123  68.6681282  31.9515806 105.6559024
  67.4643338  31.4132208 104.9123125  69.6770837  25.2219594  97.3000414
  68.7427115  25.3421057  97.1305119  69.8547505  24.3192061  97.0360424
  65.1776025  18.6065290  99.4533676  64.8073812  18.0536330 100.1414581
  65.6735117  18.0023424  98.9008676  73.0643388  21.0636914  97.8350449
  73.5303840  21.8964905  97.7610751  73.5150889  20.5981895  98.5395707
  63.0065223  29.0662785 106.5488694  63.7074683  29.6999268 106.7018088
  62.5360338  29.4077517 105.7884333  71.1319619  27.4080735  94.8336601
  71.4079463  27.2937329  95.7430475  70.2624118  27.0098220  94.7948774
  71.0360051  13.4317501 101.8741350  70.1223131  13.6621727 102.0423557
  71.4653152  13.5155945 102.7255382  70.8066509  21.6207392 104.3741244
  70.1537960  21.8683300 103.7193697  71.1846889  20.8071531 104.0403721
  67.7673683  31.6567086  98.4769414  67.9496078  30.8388742  98.9397167
  68.5906669  31.8734778  98.0394304  68.1015849  30.5835271  95.7384463
  68.6303615  30.0727725  95.1254625  68.3644068  30.2677801  96.6029996
  66.8554082  22.3627204 110.8607281  66.1794719  22.2621333 111.5309656
  67.6781716  22.2066417 111.3243278  58.6032941  28.5999140 103.4819796
  59.1886378  27.8542828 103.6147700  58.4057780  28.9103097 104.3656460
  61.4571597  31.6350387  98.4982239  60.7881972  32.1196515  98.0146279
  61.3184466  31.8819608  99.4125617  53.1950596  21.1704740 102.2024239
  53.2334696  20.6368331 102.9961358  52.6890889  20.6439946 101.5835217
  65.5976865  33.6694131 105.0964897  66.1495173  33.8325753 105.8613982
  65.9383059  34.2598569 104.4244922  60.5741358  16.0169281 105.6986782
  60.6382685  16.8784112 105.2864179  60.5108479  15.4043282 104.9659140
  70.4487740  28.4955389 110.9513551  70.9927643  29.1085347 110.4568506
  69.8674584  29.0534967 111.4680564  56.8259174  19.8968842  95.2778171
  57.1212615  18.9879521  95.2245225  55.9247209  19.8756582  94.9559173
  68.7345252  31.6176107 102.0828579  68.6096392  30.8165846 101.5739525
  69.3924344  32.1122300 101.5942549  60.3553421  17.9724839 101.2605719
  59.6340006  18.5860807 101.1213193  61.1446676  18.5082604 101.1822365
  70.7980161  29.4185127 103.7108129  69.8510496  29.2990478 103.6386456
  71.1462934  28.5307625 103.7934391  63.1579734  15.3079266 107.5346371
  63.6814136  15.5541562 108.2972680  62.9392067  16.1399300 107.1149508
  58.5547015  17.5782940  95.4017496  58.2259721  16.6980319  95.2192602
  58.9086386  17.5230609  96.2893885  67.8026594  29.2137843  99.9112481
  67.6551557  28.2854550 100.0920052  68.6280088  29.2357934  99.4269557
  61.6688838  17.8655910  95.7692974  62.0084911  18.3941831  95.0471582
  62.1160959  18.2036316  96.5451540  71.4060716  30.0366402 100.9977354
  72.3307263  29.8309263 100.8601805  71.2376019  29.7882803 101.9066696
  64.3632279  16.2492961 105.2196042  64.0229100  15.4500774 105.6216722
  63.6571286  16.5494671 104.6472875  65.0148751  13.3342273 103.6723365
  65.8374820  12.8602751 103.5502255  65.2586815  14.1132757 104.1722051
  63.6556986  16.3630532  93.9686266  64.3765348  16.7411784  93.4649983
  63.0322290  17.0819408  94.0721244  67.7988108  17.0675680  94.9044599
  68.0151723  17.9500318  94.6033427  67.3182176  16.6761894  94.1750241
  62.5387330  20.0261394 101.4815343  62.3931911  20.3401697 102.3739625
  62.0612533  20.6446294 100.9286242  64.3983713  17.0163942 101.5296233
  64.3845281  16.1205035 101.1928531  65.1156141  17.0234605 102.1634519
  66.2509843  17.4501282 103.5749360  65.9927621  18.3718353 103.5733691
  65.7194884  17.0531716 104.2649824  71.1956032  30.5552069  96.3539446
  71.3692910  29.9898491  95.6013298  71.6884923  31.3552964  96.1718936
  57.0132992  22.5666738 104.4203005  56.4686460  23.3426546 104.5523279
  57.8912342  22.9137543 104.2622126  63.8020609  15.8978322  96.7983803
  63.9236520  14.9694968  96.9974691  63.5122651  15.9117008  95.8862118
  66.6711799  13.5833232  99.9350523  66.6933496  13.6472565  98.9802502
  67.0879858  12.7437741 100.1291029  77.0495423  23.3188492  97.9729745
  77.4926569  22.5695817  97.5748869  76.1721934  23.3098628  97.5903477
  72.1831205  29.8718833  93.4536344  72.8782109  30.4925526  93.6723659
  72.5254355  29.0214185  93.7288722  57.7999014  21.6936634 107.3133161
  57.0580750  21.8419270 107.8997792  57.4791758  21.9544900 106.4499911
  74.0822628  27.3218539  94.9823675  74.6073952  27.6605812  94.2572995
  73.9944980  26.3865554  94.7986809  65.7442677  31.2352613 107.1113551
  66.0529803  30.9901759 107.9836251  66.5418159  31.4399251 106.6232422
  65.7663289  33.3890522  99.3418928  65.3268279  32.8966901 100.0351785
  66.5171406  32.8463490  99.1011003  58.2455628  29.5802063  99.3443556
  59.0713647  29.2805835  98.9642200  57.8949680  28.8109686  99.7933345
  63.2137161  28.9328531 101.4141230  62.5917170  28.2699236 101.1143457
  63.8842028  28.9589663 100.7314877  56.4464233  27.4988390 100.3032490
  55.6096141  27.0710564 100.1216491  56.4187878  27.6920833 101.2403281
  73.7716534  27.9551443 110.2874873  72.9812078  27.9375581 109.7479372
  73.5349888  28.4939736 111.0423909  73.8914409  24.8043909 107.6007601
  73.9412414  24.6393916 108.5423124  73.7828332  23.9371168 107.2105482
  62.7750668  27.4832455  94.8899690  62.9238788  28.1667919  94.2366363
  63.5817111  27.4637545  95.4049146  71.1818171  20.7874837 108.9166908
  72.0828034  20.6481302 108.6250906  71.2566146  20.9529292 109.8565085
  65.5160977  18.1641692 107.7620094  64.6464286  18.4575258 107.4902683
  65.7520457  18.7482137 108.4827358  75.3932606  27.2240850 107.8449623
  75.1017414  27.5870831 108.6813084  74.7804737  26.5107859 107.6662955
  76.5928288  24.7893730 100.3652193  77.4275179  25.2283534 100.5289753
  76.7287417  24.3132383  99.5460439  73.6419794  22.3473465 106.3129681
  74.1173916  22.5401111 105.5048532  72.7185359  22.4032651 106.0673064
  60.5303301  23.5097632  95.8960759  60.2849343  22.6059962  96.0940969
  60.6999215  23.5114783  94.9540237  68.2200010  14.3821309 105.2785515
  68.7381954  15.1182336 104.9532003  67.8655143  14.6885302 106.1132274
  59.7998948  19.2425990  93.3946921  59.1068193  19.3170345  92.7386956
  59.5550700  18.4786333  93.9168437  68.4712605  10.8021591 100.7986411
  68.7514358  10.1344780 101.4246838  69.2563212  10.9950687 100.2861075
  66.2746073  29.9780585  92.3611438  65.7020040  30.5970772  91.9081909
  66.8478867  30.5279947  92.8951360  72.3421463  19.2239225 104.5457986
  73.2938886  19.3237323 104.5670210  72.1724913  18.4317494 105.0556071
  70.3635842  16.3094808 104.7317387  69.7685775  16.5899821 104.0363876
  70.0785539  16.7988709 105.5034128  69.4943333  30.2617735  93.4920020
  70.4274006  30.1963297  93.6952895  69.4066546  31.0974002  93.0334553
  72.1231350  29.5783606  90.4523967  72.0444981  29.2443469  91.3459725
  72.9441016  30.0705373  90.4515440  74.8209541  22.4445345 103.6600286
  74.7885861  21.5061346 103.8459970  75.4310164  22.5229382 102.9266111
  66.6592872  21.3141398  89.7027490  67.6051976  21.1847606  89.7715908
  66.2807117  20.5756060  90.1796918  74.9704029  19.2356388 103.7058569
  74.4543078  18.4514845 103.5188498  75.8543978  18.9075105 103.8705089
  72.6314756  12.9797404  99.6654382  72.4339577  12.6712492 100.5497714
  73.2414462  13.7059043  99.7952312  80.6386091  23.5061352 102.8006323
  81.3689479  23.2446640 103.3614026  80.0293036  22.7690074 102.8408391
  78.7201388  21.6469214 103.3980774  77.9934551  21.5125179 102.7897266
  78.3048675  21.9546043 104.2037492  66.5431564  25.3659144 111.1628147
  67.4634574  25.5437743 111.3568194  66.5081147  24.4215189 111.0107846
  64.8435789  19.2391374  89.6382375  63.9367244  18.9424487  89.7145089
  65.1211770  18.9421192  88.7716662  55.7613729  20.5597738 100.0881422
  55.4416514  19.7063046  99.7955796  55.2147157  20.7746316 100.8439389
  59.5393637  23.2760179 103.8050928  59.7579647  24.2077286 103.8238962
  59.9519411  22.9168153 104.5905732  66.4597855  13.7828264  95.7926617
  65.6498583  13.4375349  96.1681863  67.1482271  13.4735808  96.3814228
  68.3888403  12.8606311  97.4150913  68.9419441  13.2801764  98.0740936
  68.6258489  11.9342059  97.4573869  63.6134573  16.0978309  89.7794354
  64.4753737  16.4233208  90.0390172  63.7984918  15.3109805  89.2667420
  55.6301989  24.1800649 102.0574543  54.9365461  23.7654602 101.5444498
  56.3774980  24.2221186 101.4607962  71.7667210  14.9706836  96.9229577
  71.1865879  15.6291640  96.5407630  71.5003143  14.1484181  96.5116995
  70.2170776  14.3711894  99.1250898  70.7170555  14.4828428  98.3165217
  70.8606384  14.0672946  99.7651706  64.2752772  22.2790523 112.0118739
  63.7919854  23.0790883 112.2182628  64.3613711  22.2898468 111.0586183
  57.5438732  24.1118903  99.9340558  57.5209420  24.2106590  98.9822441
  57.8539368  24.9584054 100.2557724  60.2026110  26.1695058 104.0487173
  61.1569363  26.1379000 103.9817104  60.0038633  25.7085682 104.8637398
  60.7925492  24.7396174 106.6157970  61.6118381  25.2340253 106.6392808
  61.0662299  23.8228142 106.5875538  70.5492088  17.1306926  95.9785926
  69.6617943  17.4156577  95.7606121  70.9646077  16.9700690  95.1313203
  73.9006624  17.1553447  99.6940265  74.6767014  17.6449900  99.9664882
  73.1754758  17.5811501 100.1512134  76.3379183  17.8681067 100.7514206
  76.9323673  17.6276802 100.0407514  76.4105766  17.1488197 101.3787742
  58.5576338  31.7114677 101.0657370  58.4230806  30.9515078 100.4995368
  58.1408401  32.4355577 100.5986159  69.6935301  26.8951601  90.0733946
  70.3971152  27.1001603  90.6891601  68.9697950  27.4628363  90.3383029
  70.5233112  22.6461462  96.1936216  70.4668313  23.1030014  95.3543848
  71.0761454  21.8852147  96.0159059  74.3337918  18.4351194  97.0186335
  74.0774852  18.0347830  97.8494543  73.7090786  19.1494988  96.8936475
  78.6450255  21.1747267  99.5257627  78.0849813  21.2440457 100.2989189
  78.0393759  20.9988252  98.8057123  61.7145464  32.6083994 101.2775813
  61.5977848  33.5529427 101.1754503  60.8937911  32.3057556 101.6661612
  71.6021999  27.3334130  92.1232406  72.4367603  26.9015329  91.9409881
  71.4406342  27.1616144  93.0509300  71.2567891  23.8366243  93.4888745
  71.2016695  23.6710515  92.5477189  70.6313946  24.5442276  93.6450935
  56.0460406  19.0734308 107.3150167  56.6919270  18.5633262 107.8037392
  55.8377557  19.8102990 107.8893593  68.5713798  26.1415155 112.8142308
  69.4404958  26.3155808 112.4528943  68.0920550  26.9609572 112.6918037
  64.5664016  13.3374352  93.0674063  64.5542686  14.2816192  93.2242334
  65.4587438  13.1544498  92.7733525  62.7399978  33.2612256 104.4931742
  63.6427225  33.2935867 104.8098236  62.5137348  32.3312707 104.5078077
  64.4953580  32.0143243 101.1541820  63.5449211  32.0145105 101.0406192
  64.7986067  31.2675977 100.6377855  68.3816136   9.9317129  97.3220000
  67.6148532   9.3775616  97.4676683  68.7926841  10.0038998  98.1834152
  80.2306274  37.8503781 102.2187583  80.8684684  37.7310529 101.5150923
  80.1127117  38.7984625 102.2775535  77.0395980  37.8031209 102.1549107
  76.7014492  37.6872274 101.2669642  77.9085748  37.4022374 102.1350113
  72.8982796  39.6566686  98.1445998  72.3347661  39.5656623  97.3762286
  72.7835191  38.8366590  98.6248491  77.5215763  38.9566061 108.1135313
  77.5104404  38.5618859 107.2415816  77.6836403  38.2232134 108.7069084
  70.4447228  41.1517877 100.9830219  71.2368520  40.8108702 100.5676518
  70.6843878  41.2612852 101.9032372  78.4782355  43.3237654  93.4560463
  77.8270334  43.9091734  93.0694477  79.2726717  43.8543848  93.5155501
  72.4037982  40.4126791  93.8547597  73.1768858  39.8655778  93.7160473
  72.7563381  41.2771040  94.0662059  74.2423024  41.7403173 107.0614497
  73.9512890  42.6448804 106.9461163  74.8780009  41.7819701 107.7758566
  75.1679231  39.1180021 103.6515856  75.7642803  38.8936044 102.9372819
  75.2254203  38.3764767 104.2541304  74.7404260  36.5719457  91.4866047
  74.9929780  36.0500978  90.7249510  73.8028819  36.4085602  91.5892731
  79.7847542  35.5755235  99.2940791  80.5710632  35.1574658  98.9431208
  80.0486247  36.4801327  99.4622439  79.9557620  41.0128085  93.9929447
  79.3203453  41.0862712  94.7050352  79.6255026  41.6021684  93.3148527
  85.1855970  35.5130468 100.1973769  85.9181141  34.9429685 100.4311599
  84.4295325  35.1252069 100.6380275  74.4600548  38.4747563  93.6890422
  74.3436806  37.7992466  94.3571507  74.5702808  37.9879937  92.8722575
  76.8032089  37.9357710  97.3937112  76.4390296  37.4088331  98.1050033
  77.6599205  37.5456179  97.2203597  82.7081390  29.2252042 104.6568378
  82.3764715  30.0947453 104.4329593  82.1127003  28.9088326 105.3362408
  76.4437576  32.9647610  92.3898460  76.6111979  33.8327846  92.7568931
  76.2534745  33.1274891  91.4659749  79.2012909  41.4264588 104.0564290
  78.9013632  42.3289627 103.9480098  78.8563969  41.1596772 104.9085443
  72.6525391  37.8778385 100.0900995  71.7275887  37.7454599 100.2978687
  72.9009804  38.6572605 100.5870937  82.6010053  33.9447129 101.7361728
  81.6926931  33.8762537 101.4420489  82.5497649  34.4219074 102.5643553
  76.4226797  35.4205267  93.3745127  76.3026422  35.8662318  94.2130607
  75.7279385  35.7690585  92.8158665  70.0134202  37.5211659 100.9244784
  70.1426583  37.7746138 101.8384196  69.3331653  38.1139367 100.6049439
  74.1833689  48.1908909  97.0235258  74.1057719  49.1416734  97.1023739
  73.5795333  47.8454781  97.6810184  76.6750919  35.3636774 109.6796625
  75.8984253  35.9230694 109.6699490  77.3141482  35.8493557 110.2011495
  84.4671700  32.1463567 103.5139602  83.8246080  32.4396100 102.8679396
  83.9626628  32.0316487 104.3192798  82.1211863  35.8926740  94.2025461
  83.0329719  36.1254127  94.0273158  81.6121510  36.4763784  93.6400540
  74.9297291  38.1722228 109.2414592  75.6711976  38.7107272 108.9649416
  74.2234277  38.7988516 109.3986144  80.4052631  40.3151368 107.8386754
  80.8135987  39.8733779 107.0941386  79.6829892  39.7403996 108.0920946
  76.7583701  35.2523975 105.2120310  77.6044896  35.6763388 105.3554959
  76.6982339  34.5957599 105.9058874  80.7281446  40.8752559 101.5939042
  80.0990308  41.0398273 100.8915110  80.3407108  41.2894168 102.3650006
  84.6070677  41.8106997  98.9483406  83.9221716  42.1905898  98.3980439
  84.6914527  42.4202323  99.6815354  79.9083146  32.9128343 106.8701484
  79.6644078  33.6670404 106.3335760  80.1843077  33.2913691 107.7048731
  81.8621609  39.4566956 105.5478750  82.0738504  40.0998715 104.8713131
  81.8151357  38.6229272 105.0800680  79.4647838  32.0684776 102.4515322
  78.6032317  32.3666030 102.7432059  79.4910273  32.2855175 101.5196354
  76.2809407  40.6126967  98.8589127  76.7447753  40.8914670  98.0693750
  76.0166206  39.7110411  98.6762218  73.1733488  40.1598448 101.7968891
  73.7434846  40.5885717 101.1586375  73.7641600  39.8781033 102.4953076
  75.2178293  36.7350119  95.6678693  75.9202337  37.1871163  96.1352619
  74.8858922  36.0933938  96.2958586  73.6658655  35.3261876 110.0429902
  73.0357316  36.0078157 110.2765299  73.5594743  35.2144957 109.0983040
  68.9603627  34.9933672 100.9695826  68.1702681  35.2491200 100.4935937
  69.4514875  35.8082010 101.0747867  82.9767437  42.3338911 103.7201107
  83.7984881  41.9319098 103.4383789  82.9729840  42.2307145 104.6717223
  70.9118373  35.3578251  97.9279303  70.1149536  35.4696945  98.4462799
  70.6843965  35.6964903  97.0620193  76.7424040  41.8822954 105.8761818
  76.8068473  42.3443361 106.7119989  76.0334964  41.2520319 106.0044127
  67.2441330  35.2464162 103.4010817  67.4949369  36.1311172 103.6668393
  67.7800879  35.0668764 102.6285909  91.0673430  38.6777659 100.0686078
  90.3137138  38.1085058  99.9130083  91.2020971  38.6440324 101.0156713
  76.4572058  43.5491062  95.7440798  76.3217733  44.3942597  96.1725646
  76.9981871  43.7510339  94.9806732  72.9439398  29.6282642 112.4055153
  72.5506343  29.0748840 113.0802797  73.7605538  29.9393220 112.7961671
  69.9101455  41.0666500  96.3168723  70.4225976  41.8609750  96.4674288
  70.5624168  40.3692790  96.2502324  71.7196340  44.1832256  98.3991476
  71.8962969  45.1050221  98.2112460  72.5153174  43.8690675  98.8285856
  75.8607359  31.0440521 109.9975410  76.6017072  31.6447674 109.9179872
  76.0925282  30.3018158 109.4393452  71.0048697  36.2296888 108.2753639
  70.8902212  35.3282145 108.5760738  70.1493214  36.4760585 107.9238456
  78.0840534  44.1714628 109.8741140  77.6404389  43.3851007 109.5562044
  78.7457748  44.3593779 109.2085031  72.8427656  45.7010430 104.4001818
  73.3935081  45.5727493 103.6278812  72.0039132  46.0005319 104.0496711
  80.1821773  44.4517428 107.9022541  80.1640248  45.2726309 107.4102810
  81.1041693  44.3271503 108.1272682  76.6394827  41.9661558 108.7446050
  77.1723163  41.2049846 108.5145358  76.1108908  41.6735209 109.4870204
  79.8064522  27.0721624 104.2739691  79.4628791  27.9623265 104.1978802
  80.1743484  26.8823281 103.4109276  67.8750372  39.3955154  97.0928293
  68.7125594  39.8052162  96.8762001  68.0528640  38.4554596  97.0628487
  79.7714804  37.0630235  92.7812126  79.2561428  37.8334839  93.0200514
  79.4992113  36.3895371  93.4045188  77.3561915  31.9079936  97.8397365
  76.5003512  31.5186786  97.6603004  77.7688867  31.9871896  96.9797150
  78.8861062  29.4426279 102.2388925  78.3825858  29.4056414 101.4256730
  79.1791669  30.3519021 102.2985581  75.1303948  29.5265008 101.2455106
  75.9956945  29.3307817 100.8860996  75.1981457  29.2975360 102.1724463
  84.7449079  39.8162589  94.7165300  83.9678521  39.4773749  94.2720462
  85.4240559  39.8215213  94.0420265  79.5601108  34.9357327  94.6071908
  79.2551243  35.2503476  95.4582051  80.5131550  35.0138747  94.6499241
  78.0047539  41.0947550  96.2564862  77.4768901  40.3600310  95.9438099
  77.5035042  41.8722226  96.0104830  82.9840385  39.2896571 101.3731908
  82.3264060  39.9795832 101.4612037  83.7880785  39.6793003 101.7165894
  72.7366267  31.7567216  98.6171473  73.3110019  31.5342398  97.8844666
  73.3237249  31.8255911  99.3700074  81.7945844  37.6440943  99.4235850
  82.3077726  38.2770935  99.9257559  82.4447068  37.0442139  99.0579210
  73.0635854  33.7871677  92.6367358  72.2273166  34.1246364  92.9576633
  72.9240624  33.6520657  91.6994495  75.0388935  28.6308465  97.3446543
  74.3853347  28.3157482  96.7203157  74.9969409  28.0084206  98.0706365
  76.1500140  38.9127760  89.2599835  75.2427201  38.6817014  89.4590984
  76.6471172  38.1165380  89.4473816  79.0568218  47.6225268  92.1796521
  78.3829917  47.9256964  92.7881479  79.4434040  48.4254348  91.8301978
  78.2726675  35.1190399 101.6694190  77.3549236  35.3405346 101.5115878
  78.6886819  35.1936709 100.8105897  79.0561723  36.5181815  96.7996870
  79.8033542  37.0303212  96.4903992  79.3253312  36.1965867  97.6601264
  77.3288373  39.0140355  93.7823825  76.4199592  38.7299388  93.8796294
  77.3583457  39.4339434  92.9227132  82.5607640  42.6246945  97.5514992
  82.1069968  41.7837855  97.6080183  81.9301607  43.2608343  97.8889772
  81.5040560  33.5538931  98.7815660  80.7663317  33.0416317  99.1125902
  81.7567334  33.1139312  97.9698937  81.0040580  44.4623441  98.4864810
  81.2963554  45.0228499  97.7677176  81.5139200  44.7552002  99.2417970
  81.6052187  26.3315183  99.3757429  81.9111064  25.4712546  99.0883344
  82.3304792  26.9232803  99.1756423  67.8976543  36.7345869  97.7639027
  67.7000943  36.1415230  97.0390093  67.3423207  36.4298080  98.4814966
  75.8773267  36.6268976  99.8833620  75.9321877  35.6742812  99.8076097
  75.0664469  36.7828415 100.3674918  77.0264461  40.5549099  91.1211903
  76.5883891  39.8384958  90.6617541  77.7674902  40.7825214  90.5596995
  73.8165627  35.2446036  97.6423999  73.0033493  35.5440206  98.0489191
  74.3124621  34.8501724  98.3598481  75.9674205  45.2403793  99.5758264
  75.9250384  45.4664639  98.6466796  76.8836904  45.0067167  99.7244065
  79.4139839  35.7087860 106.4738893  79.7689226  35.9359333 107.3333359
  80.0611970  36.0406237 105.8516148  85.1437576  38.8306296  97.1788222
  85.0055474  39.0207892  96.2509411  84.7873794  39.5925679  97.6356273
  73.3079702  32.8164391 103.2585234  73.9479081  32.6753150 102.5608197
  72.4757232  32.5298905 102.8823836  85.1706955  40.8982823 102.1899493
  85.6043462  40.8058112 103.0382547  85.8838536  40.8740323 101.5519509
  74.0840006  42.1166822  99.3720226  74.8780604  41.6217142  99.1702801
  73.3731698  41.5884685  99.0087932  78.9034850  44.4984917 103.7232594
  78.9571872  45.0675853 104.4910310  78.0349631  44.6686802 103.3586631
  70.3922769  36.2609903  95.4479979  69.4620357  36.1994359  95.6649941
  70.4880241  35.7385856  94.6516620  70.3108318  32.7864716  98.0358221
  70.5715135  33.7010049  97.9267381  71.1325490  32.3189159  98.1854833
  71.7833243  34.2002473 105.2057045  72.4556297  33.9919835 104.5569694
  70.9563030  34.0024559 104.7662278  86.0322505  40.9406524 104.7232379
  86.2258395  41.8452334 104.9691654  85.9323123  40.4813943 105.5570964
  77.6858816  30.8264414 107.2222706  77.0386731  31.5254364 107.1287182
  78.4559831  31.2600558 107.5898954  81.0937613  41.0913266 110.2973259
  80.9423120  40.8623818 109.3803343  81.0842293  42.0483868 110.3104604
  77.8622950  38.6645179 105.2819526  78.7915010  38.8156339 105.1088493
  77.4413980  38.7529200 104.4268172  76.6611282  42.6895844 103.0518063
  76.5222367  42.3214628 103.9244002  75.8725878  43.2043483 102.8802021
  77.2559434  47.7904940  94.3943600  77.4311189  47.3192983  95.2089223
  76.5692222  48.4170706  94.6224861  78.2116497  42.0677446 100.4406901
  77.8766329  42.0278216 101.3364551  77.7120442  41.4022162  99.9677311
  72.1860741  37.4745076 105.9659482  72.0480539  36.7425315 106.5671021
  73.0965664  37.3853976 105.6843670  81.1475688  39.4133481  90.7143961
  80.5304859  38.6880309  90.6177014  80.6792177  40.1742841  90.3711035
  74.8143041  37.1865036 105.4543162  75.5242660  36.5458228 105.4129780
  74.7712350  37.4377930 106.3769343  82.8029820  44.1232389 108.3749741
  82.7442366  43.4391609 107.7080324  83.2049338  44.8651379 107.9230367
  73.5271975  34.1730253 107.2738801  72.9909332  33.7220992 107.9260398
  72.9388684  34.3076162 106.5309266  71.8220519  50.9394303 101.1683460
  72.0617117  51.5712827 101.8462479  70.9789715  50.5882343 101.4548819
  72.9374234  33.6318905  89.8365265  72.0603701  33.5107706  89.4727512
  73.4131987  32.8404983  89.5844154  82.8047227  42.0871973 106.6063721
  81.9174006  41.7497895 106.7290120  83.3745778  41.3555004 106.8432486
  64.4576374  38.4196065  99.9306772  65.1447414  38.1057795  99.3427788
  64.3024503  39.3237429  99.6574024  69.2611097  33.3086261 104.3591796
  69.1769285  32.7011931 103.6242206  68.4393803  33.7995279 104.3601292
  76.3348381  46.7473425 103.5724964  76.2618552  47.5528397 104.0844269
  75.8925774  46.9465391 102.7472985  76.1238160  45.9845195  97.0827786
  75.3405682  46.5266875  97.1766010  76.8230906  46.5019175  97.4822027
  79.4334810  31.7939825  99.7261991  79.9303510  31.0409787  99.4063061
  78.6621792  31.8304141  99.1605200  87.2864568  37.4980190 101.3680283
  87.2754444  38.3804906 100.9974216  86.4181947  37.1451741 101.1734820
  78.7947064  46.6460259 105.7283123  79.5075036  47.2807724 105.6559024
  78.3037093  46.7424125 104.9123125  80.5164591  40.5511512  97.3000414
  79.5820870  40.6712974  97.1305119  80.6941260  39.6483979  97.0360424
  76.0169779  33.9357208  99.4533676  75.6467567  33.3828248 100.1414581
  76.5128872  33.3315341  98.9008676  83.9037143  36.3928831  97.8350449
  84.3697595  37.2256823  97.7610751  84.3544643  35.9273813  98.5395707
  73.8458978  44.3954703 106.5488694  74.5468437  45.0291186 106.7018088
  73.3754093  44.7369434 105.7884333  81.9713374  42.7372653  94.8336601
  82.2473218  42.6229247  95.7430475  81.1017872  42.3390137  94.7948774
  81.8753805  28.7609418 101.8741350  80.9616885  28.9913645 102.0423557
  82.3046907  28.8447862 102.7255382  81.6460264  36.9499310 104.3741244
  80.9931714  37.1975218 103.7193697  82.0240644  36.1363448 104.0403721
  78.6067438  46.9859003  98.4769414  78.7889832  46.1680659  98.9397167
  79.4300424  47.2026696  98.0394304  78.9409603  45.9127188  95.7384463
  79.4697370  45.4019643  95.1254625  79.2037823  45.5969719  96.6029996
  77.6947837  37.6919121 110.8607281  77.0188474  37.5913251 111.5309656
  78.5175471  37.5358335 111.3243278  69.4426696  43.9291058 103.4819796
  70.0280133  43.1834746 103.6147700  69.2451534  44.2395014 104.3656460
  72.2965351  46.9642305  98.4982239  71.6275726  47.4488433  98.0146279
  72.1578221  47.2111526  99.4125617  64.0344351  36.4996658 102.2024239
  64.0728450  35.9660249 102.9961358  63.5284643  35.9731863 101.5835217
  76.4370620  48.9986049 105.0964897  76.9888928  49.1617670 105.8613982
  76.7776813  49.5890487 104.4244922  71.4135113  31.3461198 105.6986782
  71.4776439  32.2076029 105.2864179  71.3502233  30.7335200 104.9659140
  70.8887385  33.4184331 109.3459816  71.5159424  33.0361408 109.9597340
  70.0315304  33.1998533 109.7115508  81.2881494  43.8247306 110.9513551
  81.8321398  44.4377264 110.4568506  80.7068339  44.3826885 111.4680564
  67.6652928  35.2260760  95.2778171  67.9606369  34.3171439  95.2245225
  66.7640964  35.2048500  94.9559173  79.5739007  46.9468024 102.0828579
  79.4490146  46.1457764 101.5739525  80.2318098  47.4414218 101.5942549
  71.1947175  33.3016757 101.2605719  70.4733761  33.9152724 101.1213193
  71.9840431  33.8374522 101.1822365  81.6373915  44.7477044 103.7108129
  80.6904251  44.6282395 103.6386456  81.9856688  43.8599542 103.7934391
  73.9973489  30.6371183 107.5346371  74.5207891  30.8833480 108.2972680
  73.7785822  31.4691218 107.1149508  69.3940770  32.9074858  95.4017496
  69.0653476  32.0272237  95.2192602  69.7480140  32.8522526  96.2893885
  78.6420349  44.5429761  99.9112481  78.4945311  43.6146468 100.0920052
  79.4673842  44.5649851  99.4269557  72.5082593  33.1947828  95.7692974
  72.8478665  33.7233749  95.0471582  72.9554713  33.5328234  96.5451540
  82.2454470  45.3658319 100.9977354  83.1701018  45.1601181 100.8601805
  82.0769774  45.1174720 101.9066696  75.2026034  31.5784878 105.2196042
  74.8622854  30.7792691 105.6216722  74.4965040  31.8786589 104.6472875
  75.8542506  28.6634191 103.6723365  76.6768575  28.1894669 103.5502255
  76.0980569  29.4424674 104.1722051  74.4950740  31.6922449  93.9686266
  75.2159103  32.0703702  93.4649983  73.8716044  32.4111326  94.0721244
  78.6381863  32.3967598  94.9044599  78.8545477  33.2792236  94.6033427
  78.1575930  32.0053812  94.1750241  73.3781084  35.3553311 101.4815343
  73.2325665  35.6693614 102.3739625  72.9006288  35.9738212 100.9286242
  75.2377467  32.3455859 101.5296233  75.2239036  31.4496953 101.1928531
  75.9549895  32.3526523 102.1634519  77.0903598  32.7793200 103.5749360
  76.8321376  33.7010270 103.5733691  76.5588638  32.3823634 104.2649824
  82.0349787  45.8843987  96.3539446  82.2086664  45.3190409  95.6013298
  82.5278678  46.6844882  96.1718936  67.8526746  37.8958656 104.4203005
  67.3080215  38.6718464 104.5523279  68.7306096  38.2429460 104.2622126
  74.6414363  31.2270240  96.7983803  74.7630274  30.2986886  96.9974691
  74.3516406  31.2408926  95.8862118  77.5105554  28.9125150  99.9350523
  77.5327250  28.9764483  98.9802502  77.9273613  28.0729659 100.1291029
  87.8889178  38.6480410  97.9729745  88.3320324  37.8987735  97.5748869
  87.0115688  38.6390546  97.5903477  83.0224959  45.2010751  93.4536344
  83.7175864  45.8217444  93.6723659  83.3648109  44.3506102  93.7288722
  68.6392768  37.0228552 107.3133161  67.8974504  37.1711187 107.8997792
  68.3185513  37.2836818 106.4499911  84.9216382  42.6510457  94.9823675
  85.4467706  42.9897729  94.2572995  84.8338735  41.7157472  94.7986809
  76.5836431  46.5644530 107.1113551  76.8923557  46.3193677 107.9836251
  77.3811913  46.7691169 106.6232422  76.6057043  48.7182440  99.3418928
  76.1662033  48.2258819 100.0351785  77.3565160  48.1755408  99.1011003
  69.0849382  44.9093981  99.3443556  69.9107402  44.6097753  98.9642200
  68.7343434  44.1401603  99.7933345  74.0530915  44.2620449 101.4141230
  73.4310924  43.5991154 101.1143457  74.7235782  44.2881581 100.7314877
  67.2857987  42.8280307 100.3032490  66.4489895  42.4002482 100.1216491
  67.2581633  43.0212751 101.2403281  74.1255443  32.7402237 111.0073736
  74.1743598  33.6164360 110.6251505  74.6677957  32.1979630 110.4345379
  84.6110288  43.2843360 110.2874873  83.8205832  43.2667499 109.7479372
  84.3743643  43.8231654 111.0423909  84.7308163  40.1335827 107.6007601
  84.7806168  39.9685834 108.5423124  84.6222087  39.2663086 107.2105482
  73.6144422  42.8124372  94.8899690  73.7632542  43.4959837  94.2366363
  74.4210866  42.7929462  95.4049146  82.0211926  36.1166755 108.9166908
  82.9221789  35.9773220 108.6250906  82.0959900  36.2821209 109.8565085
  76.3554731  33.4933609 107.7620094  75.4858041  33.7867175 107.4902683
  76.5914212  34.0774054 108.4827358  86.2326360  42.5532768 107.8449623
  85.9411169  42.9162749 108.6813084  85.6198492  41.8399776 107.6662955
  87.4322043  40.1185648 100.3652193  88.2668934  40.5575452 100.5289753
  87.5681171  39.6424301  99.5460439  84.4813548  37.6765383 106.3129681
  84.9567670  37.8693029 105.5048532  83.5579114  37.7324569 106.0673064
  71.3697055  38.8389550  95.8960759  71.1243097  37.9351880  96.0940969
  71.5392970  38.8406700  94.9540237  79.0593765  29.7113226 105.2785515
  79.5775709  30.4474253 104.9532003  78.7048898  30.0177220 106.1132274
  70.6392703  34.5717908  93.3946921  69.9461948  34.6462263  92.7386956
  70.3944455  33.8078251  93.9168437  79.3106359  26.1313509 100.7986411
  79.5908113  25.4636698 101.4246838  80.0956966  26.3242604 100.2861075
  77.1139828  45.3072503  92.3611438  76.5413795  45.9262690  91.9081909
  77.6872621  45.8571864  92.8951360  83.1815217  34.5531143 104.5457986
  84.1332640  34.6529241 104.5670210  83.0118668  33.7609411 105.0556071
  81.2029597  31.6386726 104.7317387  80.6079529  31.9191739 104.0363876
  80.9179294  32.1280627 105.5034128  80.3337087  45.5909653  93.4920020
  81.2667761  45.5255215  93.6952895  80.2460300  46.4265920  93.0334553
  82.9625104  44.9075523  90.4523967  82.8838736  44.5735387  91.3459725
  83.7834771  45.3997291  90.4515440  85.6603295  37.7737263 103.6600286
  85.6279615  36.8353263 103.8459970  86.2703919  37.8521299 102.9266111
  77.4986626  36.6433316  89.7027490  78.4445731  36.5139524  89.7715908
  77.1200871  35.9047977  90.1796918  85.8097784  34.5648306 103.7058569
  85.2936832  33.7806763 103.5188498  86.6937732  34.2367023 103.8705089
  83.4708511  28.3089322  99.6654382  83.2733332  28.0004410 100.5497714
  84.0808216  29.0350960  99.7952312  91.4779845  38.8353269 102.8006323
  92.2083234  38.5738558 103.3614026  90.8686791  38.0981991 102.8408391
  89.5595142  36.9761132 103.3980774  88.8328306  36.8417097 102.7897266
  89.1442429  37.2837961 104.2037492  77.3825319  40.6951062 111.1628147
  78.3028328  40.8729661 111.3568194  77.3474902  39.7507107 111.0107846
  75.6829543  34.5683292  89.6382375  74.7760999  34.2716405  89.7145089
  75.9605524  34.2713110  88.7716662  66.6007484  35.8889655 100.0881422
  66.2810268  35.0354964  99.7955796  66.0540912  36.1038233 100.8439389
  70.3787391  38.6052096 103.8050928  70.5973401  39.5369204 103.8238962
  70.7913165  38.2460071 104.5905732  77.2991609  29.1120182  95.7926617
  76.4892337  28.7667267  96.1681863  77.9876026  28.8027725  96.3814228
  79.2282157  28.1898228  97.4150913  79.7813196  28.6093682  98.0740936
  79.4652244  27.2633977  97.4573869  75.2515257  34.1785302 113.1953677
  75.1511983  35.1279659 113.1265768  75.0336799  33.8503541 112.3229747
  74.4528328  31.4270227  89.7794354  75.3147492  31.7525125  90.0390172
  74.6378672  30.6401723  89.2667420  66.4695744  39.5092567 102.0574543
  65.7759215  39.0946520 101.5444498  67.2168735  39.5513103 101.4607962
  82.6060964  30.2998754  96.9229577  82.0259633  30.9583558  96.5407630
  82.3396897  29.4776098  96.5116995  81.0564531  29.7003811  99.1250898
  81.5564309  29.8120346  98.3165217  81.7000139  29.3964864  99.7651706
  75.1146527  37.6082441 112.0118739  74.6313608  38.4082801 112.2182628
  75.2007466  37.6190386 111.0586183  68.3832486  39.4410821  99.9340558
  68.3603174  39.5398508  98.9822441  68.6933123  40.2875971 100.2557724
  71.0419864  41.4986976 104.0487173  71.9963118  41.4670918 103.9817104
  70.8432388  41.0377599 104.8637398  71.6319246  40.0688092 106.6157970
  72.4512135  40.5632170 106.6392808  71.9056054  39.1520060 106.5875538
  81.3885842  32.4598844  95.9785926  80.5011697  32.7448495  95.7606121
  81.8039831  32.2992607  95.1313203  84.7400379  32.4845365  99.6940265
  85.5160769  32.9741817  99.9664882  84.0148513  32.9103419 100.1512134
  87.1772937  33.1972984 100.7514206  87.7717428  32.9568720 100.0407514
  87.2499521  32.4780115 101.3787742  69.3970093  47.0406595 101.0657370
  69.2624561  46.2806996 100.4995368  68.9802155  47.7647495 100.5986159
  80.5329056  42.2243519  90.0733946  81.2364906  42.4293521  90.6891601
  79.8091705  42.7920281  90.3383029  81.3626866  37.9753380  96.1936216
  81.3062068  38.4321931  95.3543848  81.9155209  37.2144065  96.0159059
  85.1731672  33.7643112  97.0186335  84.9168606  33.3639747  97.8494543
  84.5484540  34.4786906  96.8936475  89.4844010  36.5039185  99.5257627
  88.9243568  36.5732374 100.2989189  88.8787513  36.3280170  98.8057123
  72.5539219  47.9375912 101.2775813  72.4371603  48.8821345 101.1754503
  71.7331665  47.6349474 101.6661612  82.4415753  42.6626048  92.1232406
  83.2761357  42.2307246  91.9409881  82.2800096  42.4908062  93.0509300
  82.0961645  39.1658161  93.4888745  82.0410449  39.0002433  92.5477189
  81.4707701  39.8734194  93.6450935  66.8854160  34.4026226 107.3150167
  67.5313024  33.8925180 107.8037392  66.6771312  35.1394907 107.8893593
  79.4107553  41.4707073 112.8142308  80.2798712  41.6447725 112.4528943
  78.9314304  42.2901490 112.6918037  75.4057771  28.6666270  93.0674063
  75.3936441  29.6108110  93.2242334  76.2981193  28.4836416  92.7733525
  73.5793733  48.5904174 104.4931742  74.4820980  48.6227784 104.8098236
  73.3531103  47.6604625 104.5078077  75.3347335  47.3435161 101.1541820
  74.3842966  47.3437022 101.0406192  75.6379821  46.5967895 100.6377855
  79.2209890  25.2609047  97.3220000  78.4542286  24.7067534  97.4676683
  79.6320595  25.3330916  98.1834152  71.2251651  31.5493843 111.4125182
  72.0883113  31.1930647 111.6228506  70.6517062  31.2107737 112.1000586
  91.0700028  53.1795699 102.2187583  91.7078438  53.0602446 101.5150923
  90.9520871  54.1276543 102.2775535  87.8789735  53.1323127 102.1549107
  87.5408246  53.0164192 101.2669642  88.7479503  52.7314292 102.1350113
  83.7376550  54.9858603  98.1445998  83.1741415  54.8948540  97.3762286
  83.6228945  54.1658508  98.6248491  88.3609518  54.2857979 108.1135313
  88.3498158  53.8910777 107.2415816  88.5230157  53.5524051 108.7069084
  81.2840982  56.4809795 100.9830219  82.0762274  56.1400620 100.5676518
  81.5237632  56.5904770 101.9032372  89.3176109  58.6529571  93.4560463
  88.6664089  59.2383652  93.0694477  90.1120472  59.1835766  93.5155501
  83.2431736  55.7418708  93.8547597  84.0162612  55.1947695  93.7160473
  83.5957135  56.6062958  94.0662059  85.0816779  57.0695091 107.0614497
  84.7906645  57.9740721 106.9461163  85.7173763  57.1111618 107.7758566
  86.0072986  54.4471939 103.6515856  86.6036558  54.2227962 102.9372819
  86.0647957  53.7056685 104.2541304  90.6241297  50.9047153  99.2940791
  91.4104386  50.4866576  98.9431208  90.8880001  51.8093245  99.4622439
  90.7951374  56.3420003  93.9929447  90.1597207  56.4154630  94.7050352
  90.4648781  56.9313602  93.3148527  96.0249724  50.8422386 100.1973769
  96.7574896  50.2721603 100.4311599  95.2689080  50.4543986 100.6380275
  85.2994303  53.8039480  93.6890422  85.1830561  53.1284384  94.3571507
  85.4096563  53.3171854  92.8722575  87.6425844  53.2649628  97.3937112
  87.2784051  52.7380248  98.1050033  88.4992960  52.8748097  97.2203597
  93.5475144  44.5543960 104.6568378  93.2158469  45.4239371 104.4329593
  92.9520758  44.2380244 105.3362408  87.2831331  48.2939527  92.3898460
  87.4505733  49.1619764  92.7568931  87.0928500  48.4566809  91.4659749
  90.0406664  56.7556506 104.0564290  89.7407387  57.6581545 103.9480098
  89.6957723  56.4888689 104.9085443  83.4919145  53.2070303 100.0900995
  82.5669642  53.0746517 100.2978687  83.7403559  53.9864522 100.5870937
  93.4403808  49.2739046 101.7361728  92.5320685  49.2054455 101.4420489
  93.3891403  49.7510991 102.5643553  87.2620552  50.7497185  93.3745127
  87.1420177  51.1954235  94.2130607  86.5673140  51.0982502  92.8158665
  80.8527956  52.8503577 100.9244784  80.9820338  53.1038055 101.8384196
  80.1725408  53.4431285 100.6049439  85.0227444  63.5200826  97.0235258
  84.9451473  64.4708652  97.1023739  84.4189087  63.1746699  97.6810184
  87.5144673  50.6928692 109.6796625  86.7378008  51.2522612 109.6699490
  88.1535237  51.1785475 110.2011495  95.3065454  47.4755485 103.5139602
  94.6639834  47.7688018 102.8679396  94.8020383  47.3608405 104.3192798
  92.9605618  51.2218658  94.2025461  93.8723474  51.4546045  94.0273158
  92.4515265  51.8055702  93.6400540  85.7691046  53.5014145 109.2414592
  86.5105730  54.0399189 108.9649416  85.0628031  54.1280434 109.3986144
  91.2446385  55.6443286 107.8386754  91.6529741  55.2025696 107.0941386
  90.5223647  55.0695913 108.0920946  87.5977455  50.5815892 105.2120310
  88.4438651  51.0055306 105.3554959  87.5376093  49.9249517 105.9058874
  91.5675200  56.2044476 101.5939042  90.9384062  56.3690190 100.8915110
  91.1800862  56.6186086 102.3650006  95.4464432  57.1398914  98.9483406
  94.7615470  57.5197816  98.3980439  95.5308281  57.7494241  99.6815354
  90.7476901  48.2420261 106.8701484  90.5037833  48.9962321 106.3335760
  91.0236831  48.6205608 107.7048731  92.7015364  54.7858873 105.5478750
  92.9132259  55.4290633 104.8713131  92.6545112  53.9521190 105.0800680
  90.3041592  47.3976694 102.4515322  89.4426072  47.6957947 102.7432059
  90.3304027  47.6147093 101.5196354  87.1203162  55.9418884  98.8589127
  87.5841507  56.2206587  98.0693750  86.8559960  55.0402329  98.6762218
  84.0127243  55.4890366 101.7968891  84.5828600  55.9177634 101.1586375
  84.6035355  55.2072951 102.4953076  86.0572048  52.0642037  95.6678693
  86.7596091  52.5163080  96.1352619  85.7252676  51.4225856  96.2958586
  84.5052409  50.6553793 110.0429902  83.8751070  51.3370074 110.2765299
  84.3988497  50.5436875 109.0983040  79.7997382  50.3225589 100.9695826
  79.0096436  50.5783118 100.4935937  80.2908629  51.1373927 101.0747867
  93.8161191  57.6630829 103.7201107  94.6378635  57.2611016 103.4383789
  93.8123594  57.5599063 104.6717223  81.7512127  50.6870169  97.9279303
  80.9543291  50.7988863  98.4462799  81.5237720  51.0256821  97.0620193
  87.5817795  57.2114872 105.8761818  87.6462227  57.6735279 106.7119989
  86.8728719  56.5812237 106.0044127  78.0835085  50.5756080 103.4010817
  78.3343123  51.4603090 103.6668393  78.6194633  50.3960681 102.6285909
 101.9067185  54.0069577 100.0686078 101.1530893  53.4376975  99.9130083
 102.0414726  53.9732242 101.0156713  87.2965813  58.8782979  95.7440798
  87.1611487  59.7234515  96.1725646  87.8375625  59.0802257  94.9806732
  83.7833152  44.9574559 112.4055153  83.3900098  44.4040758 113.0802797
  84.5999293  45.2685138 112.7961671  80.7495210  56.3958417  96.3168723
  81.2619731  57.1901668  96.4674288  81.4017923  55.6984708  96.2502324
  82.5590095  59.5124174  98.3991476  82.7356723  60.4342138  98.2112460
  83.3546928  59.1982593  98.8285856  86.7001113  46.3732438 109.9975410
  87.4410827  46.9739591 109.9179872  86.9319036  45.6310076 109.4393452
  81.8442451  51.5588806 108.2753639  81.7295966  50.6574063 108.5760738
  80.9886969  51.8052502 107.9238456  88.9234289  59.5006546 109.8741140
  88.4798143  58.7142924 109.5562044  89.5851503  59.6885696 109.2085031
  83.6821410  61.0302348 104.4001818  84.2328835  60.9019411 103.6278812
  82.8432886  61.3297237 104.0496711  91.0215527  59.7809346 107.9022541
  91.0034002  60.6018227 107.4102810  91.9435447  59.6563421 108.1272682
  87.4788581  57.2953475 108.7446050  88.0116918  56.5341764 108.5145358
  86.9502662  57.0027127 109.4870204  90.6458276  42.4013541 104.2739691
  90.3022546  43.2915183 104.1978802  91.0137239  42.2115199 103.4109276
  78.7144127  54.7247072  97.0928293  79.5519349  55.1344080  96.8762001
  78.8922394  53.7846514  97.0628487  90.6108559  52.3922152  92.7812126
  90.0955182  53.1626757  93.0200514  90.3385867  51.7187289  93.4045188
  88.1955670  47.2371853  97.8397365  87.3397266  46.8478704  97.6603004
  88.6082622  47.3163814  96.9797150  89.7254817  44.7718196 102.2388925
  89.2219612  44.7348332 101.4256730  90.0185423  45.6810939 102.2985581
  85.9697702  44.8556926 101.2455106  86.8350699  44.6599735 100.8860996
  86.0375211  44.6267278 102.1724463  95.5842833  55.1454507  94.7165300
  94.8072276  54.8065667  94.2720462  96.2634314  55.1507130  94.0420265
  90.3994862  50.2649245  94.6071908  90.0944998  50.5795394  95.4582051
  91.3525304  50.3430664  94.6499241  88.8441294  56.4239468  96.2564862
  88.3162655  55.6892227  95.9438099  88.3428797  57.2014144  96.0104830
  93.8234140  54.6188488 101.3731908  93.1657814  55.3087750 101.4612037
  94.6274539  55.0084920 101.7165894  83.5760022  47.0859134  98.6171473
  84.1503773  46.8634316  97.8844666  84.1631004  47.1547829  99.3700074
  92.6339599  52.9732861  99.4235850  93.1471480  53.6062853  99.9257559
  93.2840823  52.3734057  99.0579210  83.9029609  49.1163595  92.6367358
  83.0666921  49.4538282  92.9576633  83.7634378  48.9812575  91.6994495
  85.8782689  43.9600383  97.3446543  85.2247102  43.6449400  96.7203157
  85.8363163  43.3376123  98.0706365  86.9893894  54.2419678  89.2599835
  86.0820956  54.0108932  89.4590984  87.4864926  53.4457297  89.4473816
  89.8961973  62.9517185  92.1796521  89.2223672  63.2548882  92.7881479
  90.2827795  63.7546266  91.8301978  89.1120430  50.4482317 101.6694190
  88.1942991  50.6697264 101.5115878  89.5280573  50.5228627 100.8105897
  89.8955477  51.8473732  96.7996870  90.6427296  52.3595129  96.4903992
  90.1647067  51.5257785  97.6601264  88.1682128  54.3432273  93.7823825
  87.2593347  54.0591306  93.8796294  88.1977211  54.7631352  92.9227132
  93.4001395  57.9538862  97.5514992  92.9463722  57.1129772  97.6080183
  92.7695362  58.5900261  97.8889772  92.3434314  48.8830848  98.7815660
  91.6057071  48.3708235  99.1125902  92.5961088  48.4431230  97.9698937
  91.8434334  59.7915359  98.4864810  92.1357309  60.3520416  97.7677176
  92.3532955  60.0843920  99.2417970  92.4445942  41.6607100  99.3757429
  92.7504819  40.8004464  99.0883344  93.1698547  42.2524721  99.1756423
  78.7370298  52.0637787  97.7639027  78.5394698  51.4707148  97.0390093
  78.1816962  51.7589997  98.4814966  86.7167022  51.9560894  99.8833620
  86.7715631  51.0034730  99.8076097  85.9058224  52.1120333 100.3674918
  87.8658215  55.8841017  91.1211903  87.4277645  55.1676876  90.6617541
  88.6068656  56.1117131  90.5596995  84.6559381  50.5737953  97.6423999
  83.8427247  50.8732124  98.0489191  85.1518376  50.1793642  98.3598481
  86.8067959  60.5695710  99.5758264  86.7644138  60.7956557  98.6466796
  87.7230658  60.3359085  99.7244065  90.2533593  51.0379778 106.4738893
  90.6082981  51.2651251 107.3333359  90.9005724  51.3698155 105.8516148
  95.9831330  54.1598214  97.1788222  95.8449229  54.3499810  96.2509411
  95.6267549  54.9217596  97.6356273  84.1473456  48.1456309 103.2585234
  84.7872836  48.0045068 102.5608197  83.3150987  47.8590822 102.8823836
  96.0100710  56.2274741 102.1899493  96.4437216  56.1350030 103.0382547
  96.7232290  56.2032241 101.5519509  84.9233760  57.4458739  99.3720226
  85.7174359  56.9509059  99.1702801  84.2125453  56.9176602  99.0087932
  89.7428605  59.8276835 103.7232594  89.7965627  60.3967771 104.4910310
  88.8743386  59.9978720 103.3586631  81.2316524  51.5901821  95.4479979
  80.3014112  51.5286276  95.6649941  81.3273996  51.0677774  94.6516620
  81.1502073  48.1156634  98.0358221  81.4108890  49.0301967  97.9267381
  81.9719245  47.6481076  98.1854833  82.6226998  49.5294391 105.2057045
  83.2950051  49.3211753 104.5569694  81.7956785  49.3316477 104.7662278
  96.8716259  56.2698441 104.7232379  97.0652149  57.1744252 104.9691654
  96.7716877  55.8105860 105.5570964  88.5252570  46.1556332 107.2222706
  87.8780485  46.8546282 107.1287182  89.2953585  46.5892476 107.5898954
  91.9331368  56.4205184 110.2973259  91.7816874  56.1915736 109.3803343
  91.9236047  57.3775785 110.3104604  88.7016704  53.9937097 105.2819526
  89.6308764  54.1448256 105.1088493  88.2807734  54.0821118 104.4268172
  87.5005036  58.0187761 103.0518063  87.3616122  57.6506546 103.9244002
  86.7119632  58.5335401 102.8802021  88.0953188  63.1196858  94.3943600
  88.2704944  62.6484901  95.2089223  87.4085976  63.7462624  94.6224861
  89.0510251  57.3969364 100.4406901  88.7160084  57.3570134 101.3364551
  88.5514197  56.7314080  99.9677311  83.0254495  52.8036994 105.9659482
  82.8874293  52.0717233 106.5671021  83.9359419  52.7145894 105.6843670
  91.9869443  54.7425398  90.7143961  91.3698614  54.0172226  90.6177014
  91.5185931  55.5034759  90.3711035  85.6536796  52.5156953 105.4543162
  86.3636414  51.8750145 105.4129780  85.6106104  52.7669848 106.3769343
  93.6423575  59.4524307 108.3749741  93.5836121  58.7683527 107.7080324
  94.0443093  60.1943297 107.9230367  84.3665730  49.5022171 107.2738801
  83.8303087  49.0512910 107.9260398  83.7782438  49.6368080 106.5309266
  82.6614273  66.2686220 101.1683460  82.9010872  66.9004745 101.8462479
  81.8183470  65.9174260 101.4548819  83.7767989  48.9610823  89.8365265
  82.8997455  48.8399623  89.4727512  84.2525742  48.1696901  89.5844154
  93.6440982  57.4163891 106.6063721  92.7567761  57.0789812 106.7290120
  94.2139533  56.6846922 106.8432486  75.2970129  53.7487982  99.9306772
  75.9841169  53.4349712  99.3427788  75.1418258  54.6529347  99.6574024
  80.1004851  48.6378179 104.3591796  80.0163040  48.0303848 103.6242206
  79.2787558  49.1287197 104.3601292  87.1742135  62.0765343 103.5724964
  87.1012307  62.8820314 104.0844269  86.7319528  62.2757309 102.7472985
  86.9631915  61.3137113  97.0827786  86.1799437  61.8558793  97.1766010
  87.6624660  61.8311093  97.4822027  90.2728565  47.1231742  99.7261991
  90.7697265  46.3701705  99.4063061  89.5015546  47.1596059  99.1605200
  98.1258322  52.8272108 101.3680283  98.1148199  53.7096823 100.9974216
  97.2575702  52.4743659 101.1734820  89.6340819  61.9752177 105.7283123
  90.3468791  62.6099642 105.6559024  89.1430847  62.0716043 104.9123125
  91.3558346  55.8803430  97.3000414  90.4214624  56.0004892  97.1305119
  91.5335014  54.9775896  97.0360424  86.8563534  49.2649125  99.4533676
  86.4861321  48.7120166 100.1414581  87.3522626  48.6607259  98.9008676
  94.7430897  51.7220749  97.8350449  95.2091349  52.5548740  97.7610751
  95.1938398  51.2565730  98.5395707  84.6852732  59.7246620 106.5488694
  85.3862192  60.3583103 106.7018088  84.2147847  60.0661352 105.7884333
  92.8107128  58.0664570  94.8336601  93.0866972  57.9521165  95.7430475
  91.9411627  57.6682055  94.7948774  92.7147560  44.0901336 101.8741350
  91.8010640  44.3205563 102.0423557  93.1440661  44.1739780 102.7255382
  92.4854018  52.2791228 104.3741244  91.8325469  52.5267135 103.7193697
  92.8634398  51.4655366 104.0403721  89.4461192  62.3150921  98.4769414
  89.6283587  61.4972577  98.9397167  90.2694178  62.5318613  98.0394304
  89.7803358  61.2419106  95.7384463  90.3091124  60.7311561  95.1254625
  90.0431577  60.9261636  96.6029996  88.5341591  53.0211039 110.8607281
  87.8582228  52.9205168 111.5309656  89.3569225  52.8650253 111.3243278
  80.2820450  59.2582975 103.4819796  80.8673887  58.5126663 103.6147700
  80.0845289  59.5686932 104.3656460  83.1359106  62.2934223  98.4982239
  82.4669481  62.7780350  98.0146279  82.9971975  62.5403443  99.4125617
  74.8738105  51.8288576 102.2024239  74.9122205  51.2952166 102.9961358
  74.3678398  51.3023781 101.5835217  87.2764374  64.3277966 105.0964897
  87.8282682  64.4909588 105.8613982  87.6170568  64.9182404 104.4244922
  82.2528867  46.6753116 105.6986782  82.3170194  47.5367947 105.2864179
  82.1895988  46.0627118 104.9659140  81.7281140  48.7476249 109.3459816
  82.3553179  48.3653326 109.9597340  80.8709059  48.5290451 109.7115508
  92.1275249  59.1539224 110.9513551  92.6715152  59.7669182 110.4568506
  91.5462093  59.7118802 111.4680564  78.5046683  50.5552678  95.2778171
  78.8000124  49.6463356  95.2245225  77.6034718  50.5340417  94.9559173
  90.4132761  62.2759942 102.0828579  90.2883901  61.4749682 101.5739525
  91.0711853  62.7706135 101.5942549  82.0340930  48.6308674 101.2605719
  81.3127515  49.2444642 101.1213193  82.8234185  49.1666439 101.1822365
  92.4767670  60.0768962 103.7108129  91.5298005  59.9574313 103.6386456
  92.8250443  59.1891460 103.7934391  84.8367243  45.9663101 107.5346371
  85.3601645  46.2125397 108.2972680  84.6179576  46.7983136 107.1149508
  80.2334524  48.2366775  95.4017496  79.9047230  47.3564154  95.2192602
  80.5873895  48.1814444  96.2893885  89.4814103  59.8721678  99.9112481
  89.3339066  58.9438386 100.0920052  90.3067597  59.8941769  99.4269557
  83.3476347  48.5239745  95.7692974  83.6872420  49.0525667  95.0471582
  83.7948468  48.8620151  96.5451540  93.0848225  60.6950237 100.9977354
  94.0094772  60.4893098 100.8601805  92.9163528  60.4466638 101.9066696
  86.0419788  46.9076796 105.2196042  85.7016609  46.1084609 105.6216722
  85.3358795  47.2078507 104.6472875  86.6936260  43.9926108 103.6723365
  87.5162329  43.5186587 103.5502255  86.9374324  44.7716592 104.1722051
  85.3344495  47.0214367  93.9686266  86.0552857  47.3995620  93.4649983
  84.7109799  47.7403244  94.0721244  89.4775617  47.7259516  94.9044599
  89.6939232  48.6084154  94.6033427  88.9969685  47.3345729  94.1750241
  84.2174839  50.6845229 101.4815343  84.0719420  50.9985532 102.3739625
  83.7400042  51.3030129 100.9286242  86.0771222  47.6747777 101.5296233
  86.0632790  46.7788870 101.1928531  86.7943650  47.6818441 102.1634519
  87.9297352  48.1085117 103.5749360  87.6715130  49.0302188 103.5733691
  87.3982393  47.7115552 104.2649824  92.8743541  61.2135904  96.3539446
  93.0480419  60.6482327  95.6013298  93.3672432  62.0136799  96.1718936
  78.6920501  53.2250573 104.4203005  78.1473969  54.0010381 104.5523279
  79.5699851  53.5721378 104.2622126  85.4808118  46.5562157  96.7983803
  85.6024029  45.6278803  96.9974691  85.1910160  46.5700843  95.8862118
  88.3499308  44.2417068  99.9350523  88.3721005  44.3056401  98.9802502
  88.7667367  43.4021576 100.1291029  98.7282932  53.9772327  97.9729745
  99.1714078  53.2279653  97.5748869  97.8509443  53.9682464  97.5903477
  93.8618714  60.5302669  93.4536344  94.5569618  61.1509361  93.6723659
  94.2041864  59.6798020  93.7288722  79.4786523  52.3520470 107.3133161
  78.7368259  52.5003105 107.8997792  79.1579267  52.6128735 106.4499911
  95.7610137  57.9802374  94.9823675  96.2861461  58.3189647  94.2572995
  95.6732489  57.0449390  94.7986809  87.4230185  61.8936448 107.1113551
  87.7317312  61.6485595 107.9836251  88.2205668  62.0983086 106.6232422
  87.4450798  64.0474358  99.3418928  87.0055788  63.5550736 100.0351785
  88.1958915  63.5047325  99.1011003  79.9243137  60.2385898  99.3443556
  80.7501156  59.9389670  98.9642200  79.5737189  59.4693521  99.7933345
  84.8924670  59.5912367 101.4141230  84.2704679  58.9283072 101.1143457
  85.5629537  59.6173499 100.7314877  78.1251742  58.1572225 100.3032490
  77.2883650  57.7294399 100.1216491  78.0975387  58.3504668 101.2403281
  84.9649197  48.0694155 111.0073736  85.0137353  48.9456277 110.6251505
  85.5071711  47.5271548 110.4345379  95.4504043  58.6135278 110.2874873
  94.6599587  58.5959417 109.7479372  95.2137397  59.1523572 111.0423909
  95.5701918  55.4627744 107.6007601  95.6199923  55.2977752 108.5423124
  95.4615841  54.5955003 107.2105482  84.4538177  58.1416290  94.8899690
  84.6026297  58.8251754  94.2366363  85.2604620  58.1221380  95.4049146
  92.8605680  51.4458672 108.9166908  93.7615543  51.3065137 108.6250906
  92.9353655  51.6113127 109.8565085  87.1948486  48.8225527 107.7620094
  86.3251795  49.1159093 107.4902683  87.4307966  49.4065972 108.4827358
  97.0720115  57.8824686 107.8449623  96.7804923  58.2454666 108.6813084
  96.4592246  57.1691694 107.6662955  98.2715797  55.4477566 100.3652193
  99.1062688  55.8867370 100.5289753  98.4074926  54.9716219  99.5460439
  95.3207303  53.0057300 106.3129681  95.7961425  53.1984947 105.5048532
  94.3972868  53.0616486 106.0673064  82.2090810  54.1681468  95.8960759
  81.9636852  53.2643798  96.0940969  82.3786724  54.1698618  94.9540237
  89.8987519  45.0405144 105.2785515  90.4169463  45.7766171 104.9532003
  89.5442652  45.3469137 106.1132274  81.4786457  49.9009825  93.3946921
  80.7855702  49.9754180  92.7386956  81.2338209  49.1370169  93.9168437
  90.1500114  41.4605427 100.7986411  90.4301867  40.7928616 101.4246838
  90.9350721  41.6534522 100.2861075  87.9533582  60.6364420  92.3611438
  87.3807549  61.2554608  91.9081909  88.5266376  61.1863782  92.8951360
  94.0208972  49.8823061 104.5457986  94.9726395  49.9821158 104.5670210
  93.8512422  49.0901329 105.0556071  92.0423351  46.9678644 104.7317387
  91.4473284  47.2483656 104.0363876  91.7573048  47.4572545 105.5034128
  91.1730842  60.9201571  93.4920020  92.1061515  60.8547132  93.6952895
  91.0854055  61.7557837  93.0334553  93.8018859  60.2367441  90.4523967
  93.7232490  59.9027305  91.3459725  94.6228525  60.7289209  90.4515440
  96.4997050  53.1029180 103.6600286  96.4673370  52.1645181 103.8459970
  97.1097673  53.1813217 102.9266111  88.3380381  51.9725233  89.7027490
  89.2839485  51.8431441  89.7715908  87.9594626  51.2339895  90.1796918
  96.6491538  49.8940224 103.7058569  96.1330587  49.1098680 103.5188498
  97.5331487  49.5658940 103.8705089  94.3102265  43.6381239  99.6654382
  94.1127086  43.3296327 100.5497714  94.9201971  44.3642878  99.7952312
 102.3173600  54.1645187 102.8006323 103.0476988  53.9030475 103.3614026
 101.7080545  53.4273909 102.8408391 100.3988897  52.3053050 103.3980774
  99.6722060  52.1709015 102.7897266  99.9836184  52.6129878 104.2037492
  88.2219073  56.0242979 111.1628147  89.1422083  56.2021578 111.3568194
  88.1868656  55.0799025 111.0107846  86.5223298  49.8975210  89.6382375
  85.6154753  49.6008322  89.7145089  86.7999279  49.6005028  88.7716662
  77.4401238  51.2181573 100.0881422  77.1204023  50.3646881  99.7955796
  76.8934666  51.4330151 100.8439389  81.2181146  53.9344014 103.8050928
  81.4367155  54.8661122 103.8238962  81.6306920  53.5751988 104.5905732
  88.1385364  44.4412099  95.7926617  87.3286092  44.0959184  96.1681863
  88.8269780  44.1319643  96.3814228  90.0675912  43.5190146  97.4150913
  90.6206950  43.9385600  98.0740936  90.3045998  42.5925894  97.4573869
  86.0909011  49.5077220 113.1953677  85.9905738  50.4571577 113.1265768
  85.8730553  49.1795459 112.3229747  85.2922082  46.7562145  89.7794354
  86.1541246  47.0817043  90.0390172  85.4772427  45.9693641  89.2667420
  77.3089498  54.8384484 102.0574543  76.6152970  54.4238437 101.5444498
  78.0562489  54.8805021 101.4607962  93.4454719  45.6290671  96.9229577
  92.8653388  46.2875475  96.5407630  93.1790652  44.8068016  96.5116995
  91.8958285  45.0295729  99.1250898  92.3958064  45.1412264  98.3165217
  92.5393893  44.7256782  99.7651706  85.9540281  52.9374359 112.0118739
  85.4707363  53.7374719 112.2182628  86.0401220  52.9482303 111.0586183
  79.2226241  54.7702738  99.9340558  79.1996929  54.8690426  98.9822441
  79.5326877  55.6167889 100.2557724  81.8813619  56.8278893 104.0487173
  82.8356872  56.7962836 103.9817104  81.6826142  56.3669517 104.8637398
  82.4713001  55.3980009 106.6157970  83.2905890  55.8924088 106.6392808
  82.7449808  54.4811977 106.5875538  92.2279597  47.7890762  95.9785926
  91.3405452  48.0740412  95.7606121  92.6433586  47.6284525  95.1313203
  95.5794133  47.8137283  99.6940265  96.3554523  48.3033735  99.9664882
  94.8542267  48.2395337 100.1512134  98.0166692  48.5264902 100.7514206
  98.6111182  48.2860638 100.0407514  98.0893275  47.8072032 101.3787742
  80.2363847  62.3698513 101.0657370  80.1018315  61.6098914 100.4995368
  79.8195910  63.0939413 100.5986159  91.3722810  57.5535436  90.0733946
  92.0758660  57.7585439  90.6891601  90.6485459  58.1212198  90.3383029
  92.2020621  53.3045298  96.1936216  92.1455822  53.7613849  95.3543848
  92.7548963  52.5435982  96.0159059  96.0125427  49.0935029  97.0186335
  95.7562361  48.6931665  97.8494543  95.3878295  49.8078823  96.8936475
 100.3237764  51.8331103  99.5257627  99.7637322  51.9024292 100.2989189
  99.7181268  51.6572087  98.8057123  83.3932973  63.2667830 101.2775813
  83.2765357  64.2113262 101.1754503  82.5725420  62.9641391 101.6661612
  93.2809508  57.9917966  92.1232406  94.1155112  57.5599164  91.9409881
  93.1193851  57.8199979  93.0509300  92.9355400  54.4950079  93.4888745
  92.8804204  54.3294350  92.5477189  92.3101455  55.2026112  93.6450935
  77.7247915  49.7318143 107.3150167  78.3706779  49.2217097 107.8037392
  77.5165066  50.4686825 107.8893593  90.2501307  56.7998991 112.8142308
  91.1192467  56.9739643 112.4528943  89.7708059  57.6193408 112.6918037
  86.2451525  43.9958188  93.0674063  86.2330195  44.9400028  93.2242334
  87.1374947  43.8128333  92.7733525  84.4187487  63.9196092 104.4931742
  85.3214734  63.9519702 104.8098236  84.1924857  62.9896543 104.5078077
  86.1741089  62.6727078 101.1541820  85.2236720  62.6728940 101.0406192
  86.4773576  61.9259813 100.6377855  90.0603645  40.5900964  97.3220000
  89.2936041  40.0359451  97.4676683  90.4714350  40.6622833  98.1834152
  82.0645406  46.8785760 111.4125182  82.9276867  46.5222565 111.6228506
  81.4910817  46.5399655 112.1000586 101.9093783  68.5087617 102.2187583
 102.5472193  68.3894364 101.5150923 101.7914626  69.4568461 102.2775535
  98.7183489  68.4615045 102.1549107  98.3802001  68.3456109 101.2669642
  99.5873257  68.0606210 102.1350113  94.5770305  70.3150521  98.1445998
  94.0135170  70.2240458  97.3762286  94.4622700  69.4950426  98.6248491
  99.2003272  69.6149896 108.1135313  99.1891913  69.2202695 107.2415816
  99.3623912  68.8815969 108.7069084  92.1234737  71.8101713 100.9830219
  92.9156029  71.4692537 100.5676518  92.3631387  71.9196688 101.9032372
 100.1569864  73.9821489  93.4560463  99.5057843  74.5675569  93.0694477
 100.9514226  74.5127684  93.5155501  94.0825491  71.0710626  93.8547597
  94.8556367  70.5239613  93.7160473  94.4350890  71.9354875  94.0662059
  95.9210533  72.3987008 107.0614497  95.6300399  73.3032639 106.9461163
  96.5567518  72.4403536 107.7758566  96.8466740  69.7763857 103.6515856
  97.4430312  69.5519879 102.9372819  96.9041712  69.0348602 104.2541304
  96.4191769  67.2303292  91.4866047  96.6717289  66.7084813  90.7249510
  95.4816328  67.0669438  91.5892731 101.4635051  66.2339070  99.2940791
 102.2498141  65.8158494  98.9431208 101.7273756  67.1385163  99.4622439
 101.6345129  71.6711921  93.9929447 100.9990962  71.7446547  94.7050352
 101.3042535  72.2605520  93.3148527 106.8643478  66.1714304 100.1973769
 107.5968650  65.6013520 100.4311599 106.1082834  65.7835904 100.6380275
  96.1388057  69.1331398  93.6890422  96.0224315  68.4576301  94.3571507
  96.2490317  68.6463772  92.8722575  98.4819598  68.5941545  97.3937112
  98.1177805  68.0672166  98.1050033  99.3386714  68.2040014  97.2203597
 104.3868899  59.8835878 104.6568378 104.0552224  60.7531289 104.4329593
 103.7914512  59.5672162 105.3362408  98.1225085  63.6231445  92.3898460
  98.2899488  64.4911681  92.7568931  97.9322254  63.7858727  91.4659749
 100.8800418  72.0848424 104.0564290 100.5801141  72.9873463 103.9480098
 100.5351478  71.8180607 104.9085443  94.3312900  68.5362221 100.0900995
  93.4063396  68.4038435 100.2978687  94.5797313  69.3156440 100.5870937
 104.2797562  64.6030964 101.7361728 103.3714439  64.5346372 101.4420489
 104.2285158  65.0802909 102.5643553  98.1014306  66.0789102  93.3745127
  97.9813931  66.5246153  94.2130607  97.4066894  66.4274420  92.8158665
  91.6921711  68.1795494 100.9244784  91.8214092  68.4329973 101.8384196
  91.0119162  68.7723202 100.6049439  95.8621198  78.8492744  97.0235258
  95.7845228  79.8000569  97.1023739  95.2582842  78.5038617  97.6810184
  98.3538428  66.0220610 109.6796625  97.5771762  66.5814530 109.6699490
  98.9928991  66.5077393 110.2011495 106.1459209  62.8047402 103.5139602
 105.5033589  63.0979936 102.8679396 105.6414137  62.6900323 104.3192798
 103.7999372  66.5510576  94.2025461 104.7117228  66.7837962  94.0273158
 103.2909019  67.1347620  93.6400540  96.6084800  68.8306063 109.2414592
  97.3499485  69.3691107 108.9649416  95.9021786  69.4572352 109.3986144
 102.0840140  70.9735203 107.8386754 102.4923496  70.5317614 107.0941386
 101.3617401  70.3987831 108.0920946  98.4371210  65.9107810 105.2120310
  99.2832405  66.3347224 105.3554959  98.3769848  65.2541434 105.9058874
 102.4068955  71.5336394 101.5939042 101.7777817  71.6982108 100.8915110
 102.0194617  71.9478004 102.3650006 106.2858186  72.4690832  98.9483406
 105.6009225  72.8489733  98.3980439 106.3702036  73.0786159  99.6815354
 101.5870655  63.5712179 106.8701484 101.3431587  64.3254239 106.3335760
 101.8630586  63.9497526 107.7048731 103.5409118  70.1150791 105.5478750
 103.7526013  70.7582551 104.8713131 103.4938866  69.2813107 105.0800680
 101.1435347  62.7268612 102.4515322 100.2819826  63.0249865 102.7432059
 101.1697782  62.9439010 101.5196354  97.9596916  71.2710802  98.8589127
  98.4235262  71.5498505  98.0693750  97.6953715  70.3694247  98.6762218
  94.8520997  70.8182284 101.7968891  95.4222355  71.2469552 101.1586375
  95.4429109  70.5364868 102.4953076  96.8965802  67.3933954  95.6678693
  97.5989846  67.8454998  96.1352619  96.5646431  66.7517773  96.2958586
  95.3446164  65.9845711 110.0429902  94.7144825  66.6661992 110.2765299
  95.2382252  65.8728793 109.0983040  90.6391136  65.6517507 100.9695826
  89.8490190  65.9075036 100.4935937  91.1302384  66.4665845 101.0747867
 104.6554946  72.9922746 103.7201107 105.4772390  72.5902934 103.4383789
 104.6517349  72.8890980 104.6717223  92.5905882  66.0162086  97.9279303
  91.7937045  66.1280781  98.4462799  92.3631474  66.3548739  97.0620193
  98.4211549  72.5406790 105.8761818  98.4855982  73.0027197 106.7119989
  97.7122473  71.9104155 106.0044127  88.9228839  65.9047998 103.4010817
  89.1736878  66.7895007 103.6668393  89.4588388  65.7252599 102.6285909
 112.7460939  69.3361495 100.0686078 111.9924647  68.7668893  99.9130083
 112.8808480  69.3024159 101.0156713  98.1359567  74.2074897  95.7440798
  98.0005242  75.0526433  96.1725646  98.6769380  74.4094175  94.9806732
  94.6226907  60.2866477 112.4055153  94.2293852  59.7332675 113.0802797
  95.4393047  60.5977055 112.7961671  91.5888964  71.7250335  96.3168723
  92.1013485  72.5193585  96.4674288  92.2411677  71.0276626  96.2502324
  93.3983849  74.8416091  98.3991476  93.5750478  75.7634056  98.2112460
  94.1940683  74.5274511  98.8285856  97.5394868  61.7024356 109.9975410
  98.2804581  62.3031509 109.9179872  97.7712791  60.9601994 109.4393452
  92.6836206  66.8880723 108.2753639  92.5689721  65.9865981 108.5760738
  91.8280723  67.1344420 107.9238456  99.7628043  74.8298464 109.8741140
  99.3191898  74.0434842 109.5562044 100.4245257  75.0177614 109.2085031
  94.5215165  76.3594265 104.4001818  95.0722590  76.2311329 103.6278812
  93.6826641  76.6589154 104.0496711 101.8609282  75.1101264 107.9022541
 101.8427757  75.9310145 107.4102810 102.7829202  74.9855339 108.1272682
  98.3182336  72.6245393 108.7446050  98.8510672  71.8633681 108.5145358
  97.7896417  72.3319045 109.4870204 101.4852031  57.7305459 104.2739691
 101.1416300  58.6207101 104.1978802 101.8530993  57.5407117 103.4109276
  89.5537881  70.0538989  97.0928293  90.3913103  70.4635998  96.8762001
  89.7316149  69.1138432  97.0628487 101.4502313  67.7214070  92.7812126
 100.9348937  68.4918675  93.0200514 101.1779622  67.0479206  93.4045188
  99.0349424  62.5663771  97.8397365  98.1791021  62.1770621  97.6603004
  99.4476376  62.6455732  96.9797150 100.5648571  60.1010114 102.2388925
 100.0613367  60.0640249 101.4256730 100.8579178  61.0102857 102.2985581
  96.8091457  60.1848844 101.2455106  97.6744454  59.9891653 100.8860996
  96.8768966  59.9559196 102.1724463 106.4236587  70.4746425  94.7165300
 105.6466030  70.1357584  94.2720462 107.1028068  70.4799048  94.0420265
 101.2388617  65.5941162  94.6071908 100.9338752  65.9087311  95.4582051
 102.1919059  65.6722582  94.6499241  99.6835048  71.7531385  96.2564862
  99.1556410  71.0184145  95.9438099  99.1822551  72.5306062  96.0104830
 104.6627894  69.9480406 101.3731908 104.0051569  70.6379667 101.4612037
 105.4668294  70.3376838 101.7165894  94.4153776  62.4151052  98.6171473
  94.9897528  62.1926233  97.8844666  95.0024758  62.4839746  99.3700074
 103.4733353  68.3024779  99.4235850 103.9865235  68.9354771  99.9257559
 104.1234577  67.7025974  99.0579210  94.7423363  64.4455513  92.6367358
  93.9060675  64.7830199  92.9576633  94.6028133  64.3104493  91.6994495
  96.7176444  59.2892301  97.3446543  96.0640856  58.9741318  96.7203157
  96.6756918  58.6668041  98.0706365  97.8287649  69.5711596  89.2599835
  96.9214710  69.3400849  89.4590984  98.3258681  68.7749215  89.4473816
 100.7355727  78.2809103  92.1796521 100.0617426  78.5840800  92.7881479
 101.1221549  79.0838183  91.8301978  99.9514184  65.7774234 101.6694190
  99.0336745  65.9989181 101.5115878 100.3674328  65.8520545 100.8105897
 100.7349232  67.1765650  96.7996870 101.4821051  67.6887047  96.4903992
 101.0040821  66.8549703  97.6601264  99.0075882  69.6724191  93.7823825
  98.0987101  69.3883223  93.8796294  99.0370966  70.0923269  92.9227132
 104.2395149  73.2830780  97.5514992 103.7857477  72.4421690  97.6080183
 103.6089116  73.9192178  97.8889772 103.1828069  64.2122766  98.7815660
 102.4450826  63.7000152  99.1125902 103.4354843  63.7723148  97.9698937
 102.6828089  75.1207277  98.4864810 102.9751063  75.6812334  97.7677176
 103.1926709  75.4135838  99.2417970 103.2839696  56.9899018  99.3757429
 103.5898573  56.1296382  99.0883344 104.0092301  57.5816638  99.1756423
  89.5764052  67.3929705  97.7639027  89.3788452  66.7999065  97.0390093
  89.0210716  67.0881915  98.4814966  97.5560776  67.2852811  99.8833620
  97.6109386  66.3326648  99.8076097  96.7451978  67.4412250 100.3674918
  98.7051970  71.2132934  91.1211903  98.2671400  70.4968793  90.6617541
  99.4462411  71.4409049  90.5596995  95.4953136  65.9029871  97.6423999
  94.6821002  66.2024042  98.0489191  95.9912130  65.5085560  98.3598481
  97.6461714  75.8987628  99.5758264  97.6037893  76.1248474  98.6466796
  98.5624413  75.6651002  99.7244065 101.0927348  66.3671695 106.4738893
 101.4476735  66.5943169 107.3333359 101.7399479  66.6990072 105.8516148
 106.8225085  69.4890131  97.1788222 106.6842983  69.6791727  96.2509411
 106.4661303  70.2509514  97.6356273  94.9867211  63.4748226 103.2585234
  95.6266590  63.3336986 102.5608197  94.1544741  63.1882740 102.8823836
 106.8494464  71.5566658 102.1899493 107.2830971  71.4641947 103.0382547
 107.5626045  71.5324159 101.5519509  95.7627515  72.7750657  99.3720226
  96.5568113  72.2800977  99.1702801  95.0519207  72.2468520  99.0087932
 100.5822359  75.1568752 103.7232594 100.6359381  75.7259689 104.4910310
  99.7137140  75.3270637 103.3586631  92.0710278  66.9193739  95.4479979
  91.1407866  66.8578194  95.6649941  92.1667750  66.3969691  94.6516620
  91.9895827  63.4448551  98.0358221  92.2502644  64.3593885  97.9267381
  92.8112999  62.9772994  98.1854833  93.4620752  64.8586309 105.2057045
  94.1343806  64.6503671 104.5569694  92.6350539  64.6608395 104.7662278
 107.7110014  71.5990359 104.7232379 107.9045904  72.5036169 104.9691654
 107.6110632  71.1397778 105.5570964  99.3646324  61.4848250 107.2222706
  98.7174240  62.1838199 107.1287182 100.1347340  61.9184393 107.5898954
 102.7725122  71.7497102 110.2973259 102.6210629  71.5207653 109.3803343
 102.7629802  72.7067703 110.3104604  99.5410459  69.3229014 105.2819526
 100.4702519  69.4740174 105.1088493  99.1201489  69.4113035 104.4268172
  98.3398791  73.3479679 103.0518063  98.2009876  72.9798463 103.9244002
  97.5513387  73.8627318 102.8802021  98.9346943  78.4488775  94.3943600
  99.1098698  77.9776819  95.2089223  98.2479731  79.0754542  94.6224861
  99.8904006  72.7261282 100.4406901  99.5553838  72.6862052 101.3364551
  99.3907951  72.0605998  99.9677311  93.8648250  68.1328912 105.9659482
  93.7268048  67.4009150 106.5671021  94.7753173  68.0437812 105.6843670
 102.8263197  70.0717316  90.7143961 102.2092368  69.3464144  90.6177014
 102.3579686  70.8326676  90.3711035  96.4930550  67.8448871 105.4543162
  97.2030169  67.2042063 105.4129780  96.4499859  68.0961766 106.3769343
 104.4817329  74.7816224 108.3749741 104.4229875  74.0975444 107.7080324
 104.8836847  75.5235214 107.9230367  95.2059484  64.8314089 107.2738801
  94.6696841  64.3804827 107.9260398  94.6176193  64.9659998 106.5309266
  93.5008028  81.5978138 101.1683460  93.7404626  82.2296662 101.8462479
  92.6577224  81.2466178 101.4548819  94.6161743  64.2902740  89.8365265
  93.7391210  64.1691541  89.4727512  95.0919496  63.4988819  89.5844154
 104.4834736  72.7455808 106.6063721 103.5961515  72.4081730 106.7290120
 105.0533287  72.0138839 106.8432486  86.1363883  69.0779900  99.9306772
  86.8234923  68.7641630  99.3427788  85.9812012  69.9821265  99.6574024
  90.9398606  63.9670097 104.3591796  90.8556794  63.3595766 103.6242206
  90.1181312  64.4579115 104.3601292  98.0135890  77.4057261 103.5724964
  97.9406061  78.2112232 104.0844269  97.5713283  77.6049226 102.7472985
  97.8025669  76.6429031  97.0827786  97.0193191  77.1850711  97.1766010
  98.5018415  77.1603010  97.4822027 101.1122319  62.4523660  99.7261991
 101.6091019  61.6993622  99.4063061 100.3409301  62.4887977  99.1605200
 108.9652077  68.1564026 101.3680283 108.9541953  69.0388741 100.9974216
 108.0969456  67.8035576 101.1734820 100.4734573  77.3044095 105.7283123
 101.1862545  77.9391559 105.6559024  99.9824602  77.4007961 104.9123125
 102.1952100  71.2095347  97.3000414 101.2608379  71.3296810  97.1305119
 102.3728769  70.3067814  97.0360424  97.6957288  64.5941043  99.4533676
  97.3255076  64.0412083 100.1414581  98.1916381  63.9899177  98.9008676
 105.5824652  67.0512667  97.8350449 106.0485104  67.8840658  97.7610751
 106.0332152  66.5857648  98.5395707  95.5246487  75.0538538 106.5488694
  96.2255946  75.6875021 106.7018088  95.0541602  75.3953270 105.7884333
 103.6500883  73.3956488  94.8336601 103.9260727  73.2813082  95.7430475
 102.7805381  72.9973973  94.7948774 103.5541314  59.4193254 101.8741350
 102.6404394  59.6497480 102.0423557 103.9834416  59.5031698 102.7255382
 103.3247773  67.6083146 104.3741244 102.6719223  67.8559053 103.7193697
 103.7028153  66.7947284 104.0403721 100.2854947  77.6442839  98.4769414
 100.4677341  76.8264495  98.9397167 101.1087933  77.8610531  98.0394304
 100.6197112  76.5711024  95.7384463 101.1484879  76.0603478  95.1254625
 100.8825332  76.2553554  96.6029996  99.3735346  68.3502957 110.8607281
  98.6975983  68.2497086 111.5309656 100.1962980  68.1942170 111.3243278
  91.1214205  74.5874893 103.4819796  91.7067642  73.8418581 103.6147700
  90.9239043  74.8978850 104.3656460  93.9752860  77.6226141  98.4982239
  93.3063235  78.1072268  98.0146279  93.8365730  77.8695361  99.4125617
  85.7131860  67.1580493 102.2024239  85.7515959  66.6244084 102.9961358
  85.2072152  66.6315699 101.5835217  98.1158129  79.6569884 105.0964897
  98.6676437  79.8201506 105.8613982  98.4564322  80.2474322 104.4244922
  93.0922622  62.0045034 105.6986782  93.1563948  62.8659865 105.2864179
  93.0289742  61.3919035 104.9659140  92.5674894  64.0768166 109.3459816
  93.1946933  63.6945244 109.9597340  91.7102813  63.8582368 109.7115508
  89.3440437  65.8844595  95.2778171  89.6393878  64.9755274  95.2245225
  88.4428473  65.8632335  94.9559173 101.2526516  77.6051860 102.0828579
 101.1277655  76.8041599 101.5739525 101.9105607  78.0998053 101.5942549
  92.8734684  63.9600592 101.2605719  92.1521270  64.5736560 101.1213193
  93.6627940  64.4958357 101.1822365 103.3161424  75.4060880 103.7108129
 102.3691760  75.2866231 103.6386456 103.6644197  74.5183378 103.7934391
  95.6760998  61.2955019 107.5346371  96.1995400  61.5417315 108.2972680
  95.4573331  62.1275053 107.1149508  91.0728279  63.5658693  95.4017496
  90.7440985  62.6856072  95.2192602  91.4267649  63.5106362  96.2893885
 100.3207858  75.2013596  99.9112481 100.1732820  74.2730303 100.0920052
 101.1461351  75.2233687  99.4269557  94.1870102  63.8531663  95.7692974
  94.5266174  64.3817584  95.0471582  94.6342222  64.1912069  96.5451540
 103.9241979  76.0242155 100.9977354 104.8488527  75.8185016 100.8601805
 103.7557283  75.7758556 101.9066696  96.8813543  62.2368714 105.2196042
  96.5410363  61.4376527 105.6216722  96.1752549  62.5370425 104.6472875
  97.5330015  59.3218026 103.6723365  98.3556084  58.8478504 103.5502255
  97.7768078  60.1008510 104.1722051  96.1738249  62.3506285  93.9686266
  96.8946612  62.7287537  93.4649983  95.5503553  63.0695161  94.0721244
 100.3169372  63.0551434  94.9044599 100.5332986  63.9376071  94.6033427
  99.8363439  62.6637647  94.1750241  95.0568593  66.0137147 101.4815343
  94.9113174  66.3277450 102.3739625  94.5793797  66.6322047 100.9286242
  96.9164976  63.0039695 101.5296233  96.9026545  62.1080788 101.1928531
  97.6337404  63.0110358 102.1634519  98.7691107  63.4377035 103.5749360
  98.5108885  64.3594106 103.5733691  98.2376147  63.0407469 104.2649824
 103.7137296  76.5427822  96.3539446 103.8874173  75.9774245  95.6013298
 104.2066187  77.3428717  96.1718936  89.5314255  68.5542491 104.4203005
  88.9867724  69.3302299 104.5523279  90.4093605  68.9013296 104.2622126
  96.3201872  61.8854075  96.7983803  96.4417783  60.9570721  96.9974691
  96.0303915  61.8992761  95.8862118  99.1893063  59.5708985  99.9350523
  99.2114759  59.6348319  98.9802502  99.6061122  58.7313494 100.1291029
 109.5676687  69.3064245  97.9729745 110.0107833  68.5571570  97.5748869
 108.6903197  69.2974381  97.5903477 104.7012468  75.8594586  93.4536344
 105.3963373  76.4801279  93.6723659 105.0435618  75.0089938  93.7288722
  90.3180277  67.6812387 107.3133161  89.5762013  67.8295023 107.8997792
  89.9973022  67.9420653 106.4499911 106.6003891  73.3094292  94.9823675
 107.1255215  73.6481565  94.2572995 106.5126244  72.3741307  94.7986809
  98.2623940  77.2228366 107.1113551  98.5711066  76.9777512 107.9836251
  99.0599422  77.4275004 106.6232422  98.2844552  79.3766275  99.3418928
  97.8449542  78.8842654 100.0351785  99.0352669  78.8339243  99.1011003
  90.7636891  75.5677816  99.3443556  91.5894911  75.2681588  98.9642200
  90.4130943  74.7985439  99.7933345  95.7318424  74.9204284 101.4141230
  95.1098433  74.2574989 101.1143457  96.4023291  74.9465416 100.7314877
  88.9645496  73.4864143 100.3032490  88.1277404  73.0586317 100.1216491
  88.9369141  73.6796586 101.2403281  95.8042952  63.3986072 111.0073736
  95.8531107  64.2748195 110.6251505  96.3465466  62.8563465 110.4345379
 106.4095672  70.7919662 107.6007601 106.4593677  70.6269669 108.5423124
 106.3009596  69.9246921 107.2105482  95.2931931  73.4708208  94.8899690
  95.4420051  74.1543672  94.2366363  96.0998375  73.4513298  95.4049146
 103.6999435  66.7750590 108.9166908 104.6009298  66.6357055 108.6250906
 103.7747409  66.9405045 109.8565085  98.0342240  64.1517445 107.7620094
  97.1645550  64.4451011 107.4902683  98.2701720  64.7357890 108.4827358
 107.9113869  73.2116604 107.8449623 107.6198678  73.5746584 108.6813084
 107.2986001  72.4983612 107.6662955 109.1109552  70.7769483 100.3652193
 109.9456443  71.2159287 100.5289753 109.2468680  70.3008136  99.5460439
 106.1601057  68.3349218 106.3129681 106.6355179  68.5276864 105.5048532
 105.2366623  68.3908404 106.0673064  93.0484564  69.4973385  95.8960759
  92.8030606  68.5935715  96.0940969  93.2180479  69.4990536  94.9540237
 100.7381274  60.3697062 105.2785515 101.2563218  61.1058089 104.9532003
 100.3836407  60.6761055 106.1132274  92.3180212  65.2301743  93.3946921
  91.6249457  65.3046098  92.7386956  92.0731964  64.4662087  93.9168437
 100.9893868  56.7897344 100.7986411 101.2695622  56.1220533 101.4246838
 101.7744475  56.9826440 100.2861075  98.7927337  75.9656338  92.3611438
  98.2201304  76.5846525  91.9081909  99.3660130  76.5155700  92.8951360
 104.8602726  65.2114978 104.5457986 105.8120149  65.3113076 104.5670210
 104.6906177  64.4193247 105.0556071 102.8817106  62.2970561 104.7317387
 102.2867038  62.5775574 104.0363876 102.5966803  62.7864462 105.5034128
 102.0124596  76.2493488  93.4920020 102.9455270  76.1839050  93.6952895
 101.9247809  77.0849755  93.0334553 104.6412613  75.5659359  90.4523967
 104.5626245  75.2319222  91.3459725 105.4622280  76.0581127  90.4515440
 107.3390804  68.4321098 103.6600286 107.3067124  67.4937099 103.8459970
 107.9491428  68.5105135 102.9266111  99.1774135  67.3017151  89.7027490
 100.1233240  67.1723359  89.7715908  98.7988380  66.5631813  90.1796918
 107.4885293  65.2232141 103.7058569 106.9724341  64.4390598 103.5188498
 108.3725241  64.8950858 103.8705089 105.1496020  58.9673157  99.6654382
 104.9520841  58.6588245 100.5497714 105.7595725  59.6934796  99.7952312
 113.1567354  69.4937105 102.8006323 113.8870743  69.2322393 103.3614026
 112.5474300  68.7565827 102.8408391 111.2382651  67.6344967 103.3980774
 110.5115815  67.5000932 102.7897266 110.8229938  67.9421796 104.2037492
  99.0612828  71.3534897 111.1628147  99.9815837  71.5313496 111.3568194
  99.0262411  70.4090942 111.0107846  97.3617052  65.2267127  89.6382375
  96.4548508  64.9300240  89.7145089  97.6393033  64.9296945  88.7716662
  88.2794993  66.5473491 100.0881422  87.9597777  65.6938799  99.7955796
  87.7328421  66.7622069 100.8439389  92.0574900  69.2635932 103.8050928
  92.2760910  70.1953039 103.8238962  92.4700674  68.9043906 104.5905732
  98.9779118  59.7704017  95.7926617  98.1679846  59.4251102  96.1681863
  99.6663535  59.4611561  96.3814228 100.9069666  58.8482064  97.4150913
 101.4600705  59.2677517  98.0740936 101.1439753  57.9217812  97.4573869
  96.9302766  64.8369137 113.1953677  96.8299492  65.7863494 113.1265768
  96.7124308  64.5087376 112.3229747  96.1315837  62.0854062  89.7794354
  96.9935001  62.4108961  90.0390172  96.3166181  61.2985558  89.2667420
  88.1483253  70.1676402 102.0574543  87.4546724  69.7530355 101.5444498
  88.8956244  70.2096939 101.4607962 104.2848473  60.9582589  96.9229577
 103.7047142  61.6167393  96.5407630 104.0184406  60.1359934  96.5116995
 102.7352040  60.3587647  99.1250898 103.2351818  60.4704181  98.3165217
 103.3787648  60.0548700  99.7651706  96.7934036  68.2666276 112.0118739
  96.3101117  69.0666636 112.2182628  96.8794975  68.2774221 111.0586183
  90.0619995  70.0994656  99.9340558  90.0390683  70.1982343  98.9822441
  90.3720632  70.9459807 100.2557724  92.7207373  72.1570811 104.0487173
  93.6750627  72.1254753 103.9817104  92.5219897  71.6961435 104.8637398
  93.3106755  70.7271927 106.6157970  94.1299644  71.2216006 106.6392808
  93.5843563  69.8103895 106.5875538 103.0673351  63.1182679  95.9785926
 102.1799206  63.4032330  95.7606121 103.4827340  62.9576443  95.1313203
 106.4187888  63.1429200  99.6940265 107.1948278  63.6325653  99.9664882
 105.6936022  63.5687255 100.1512134 108.8560446  63.8556820 100.7514206
 109.4504937  63.6152555 100.0407514 108.9287030  63.1363950 101.3787742
  91.0757602  77.6990430 101.0657370  90.9412070  76.9390831 100.4995368
  90.6589664  78.4231330 100.5986159 102.2116565  72.8827354  90.0733946
 102.9152415  73.0877357  90.6891601 101.4879214  73.4504116  90.3383029
 103.0414375  68.6337215  96.1936216 102.9849577  69.0905767  95.3543848
 103.5942718  67.8727900  96.0159059 106.8519181  64.4226947  97.0186335
 106.5956115  64.0223583  97.8494543 106.2272049  65.1370741  96.8936475
 111.1631519  67.1623020  99.5257627 110.6031077  67.2316210 100.2989189
 110.5575022  66.9864005  98.8057123  94.2326728  78.5959747 101.2775813
  94.1159112  79.5405180 101.1754503  93.4119174  78.2933309 101.6661612
 104.1203262  73.3209883  92.1232406 104.9548866  72.8891082  91.9409881
 103.9587605  73.1491897  93.0509300 103.7749154  69.8241997  93.4888745
 103.7197958  69.6586268  92.5477189 103.1495210  70.5318029  93.6450935
  88.5641669  65.0610061 107.3150167  89.2100533  64.5509015 107.8037392
  88.3558821  65.7978743 107.8893593  97.0845280  59.3250106  93.0674063
  97.0723950  60.2691945  93.2242334  97.9768702  59.1420251  92.7733525
  95.2581242  79.2488009 104.4931742  96.1608489  79.2811620 104.8098236
  95.0318612  78.3188460 104.5078077  97.0134844  78.0018996 101.1541820
  96.0630475  78.0020858 101.0406192  97.3167330  77.2551730 100.6377855
 100.8997399  55.9192882  97.3220000 100.1329795  55.3651369  97.4676683
 101.3108104  55.9914751  98.1834152  92.9039160  62.2077678 111.4125182
  93.7670622  61.8514483 111.6228506  92.3304571  61.8691573 112.1000586
 105.4164059  85.6442439  98.1445998 104.8528924  85.5532376  97.3762286
 105.3016454  84.8242343  98.6248491 102.9628491  87.1393630 100.9830219
 103.7549783  86.7984455 100.5676518 103.2025141  87.2488605 101.9032372
 110.9963618  89.3113407  93.4560463 110.3451598  89.8967487  93.0694477
 111.7907981  89.8419601  93.5155501 104.9219245  86.4002544  93.8547597
 105.6950121  85.8531531  93.7160473 105.2744644  87.2646793  94.0662059
 107.2585523  82.5595210  91.4866047 107.5111044  82.0376731  90.7249510
 106.3210082  82.3961355  91.5892731 112.3028806  81.5630988  99.2940791
 113.0891895  81.1450411  98.9431208 112.5667510  82.4677080  99.4622439
 112.4738883  87.0003838  93.9929447 111.8384716  87.0738465  94.7050352
 112.1436290  87.5897437  93.3148527 106.9781812  84.4623316  93.6890422
 106.8618070  83.7868219  94.3571507 107.0884072  83.9755690  92.8722575
 109.3213353  83.9233463  97.3937112 108.9571560  83.3964084  98.1050033
 110.1780469  83.5331932  97.2203597 108.9618840  78.9523363  92.3898460
 109.1293242  79.8203599  92.7568931 108.7716009  79.1150644  91.4659749
 105.1706654  83.8654138 100.0900995 104.2457151  83.7330352 100.2978687
 105.4191068  84.6448358 100.5870937 108.9408061  81.4081020  93.3745127
 108.8207686  81.8538071  94.2130607 108.2460649  81.7566338  92.8158665
 102.5315465  83.5087412 100.9244784 102.6607847  83.7621891 101.8384196
 101.8512917  84.1015120 100.6049439 114.6393127  81.8802493  94.2025461
 115.5510983  82.1129880  94.0273158 114.1302774  82.4639537  93.6400540
 111.9829101  78.0560529 102.4515322 111.1213581  78.3541783 102.7432059
 112.0091536  78.2730928 101.5196354 108.7990671  86.6002720  98.8589127
 109.2629016  86.8790423  98.0693750 108.5347469  85.6986164  98.6762218
 107.7359557  82.7225872  95.6678693 108.4383600  83.1746916  96.1352619
 107.4040185  82.0809691  96.2958586 101.4784891  80.9809425 100.9695826
 100.6883945  81.2366953 100.4935937 101.9696138  81.7957763 101.0747867
 103.4299636  81.3454004  97.9279303 102.6330800  81.4572698  98.4462799
 103.2025228  81.6840656  97.0620193  99.7622594  81.2339915 103.4010817
 100.0130632  82.1186925 103.6668393 100.2982142  81.0544517 102.6285909
 108.9753322  89.5366815  95.7440798 108.8398996  90.3818350  96.1725646
 109.5163134  89.7386092  94.9806732 102.4282719  87.0542253  96.3168723
 102.9407240  87.8485503  96.4674288 103.0805432  86.3568543  96.2502324
 104.2377604  90.1708009  98.3991476 104.4144232  91.0925974  98.2112460
 105.0334437  89.8566428  98.8285856 112.3245785  73.0597377 104.2739691
 111.9810055  73.9499018 104.1978802 112.6924748  72.8699034 103.4109276
 100.3931636  85.3830907  97.0928293 101.2306858  85.7927915  96.8762001
 100.5709903  84.4430349  97.0628487 112.2896068  83.0505988  92.7812126
 111.7742691  83.8210592  93.0200514 112.0173376  82.3771124  93.4045188
 109.8743179  77.8955689  97.8397365 109.0184775  77.5062539  97.6603004
 110.2870131  77.9747649  96.9797150 111.4042326  75.4302032 102.2388925
 110.9007121  75.3932167 101.4256730 111.6972932  76.3394775 102.2985581
 107.6485211  75.5140762 101.2455106 108.5138208  75.3183570 100.8860996
 107.7162720  75.2851113 102.1724463 117.2630342  85.8038342  94.7165300
 116.4859785  85.4649502  94.2720462 117.9421823  85.8090966  94.0420265
 112.0782371  80.9233080  94.6071908 111.7732507  81.2379229  95.4582051
 113.0312813  81.0014500  94.6499241 110.5228803  87.0823303  96.2564862
 109.9950164  86.3476063  95.9438099 110.0216306  87.8597980  96.0104830
 105.2547530  77.7442969  98.6171473 105.8291282  77.5218151  97.8844666
 105.8418513  77.8131664  99.3700074 105.5817118  79.7747430  92.6367358
 104.7454430  80.1122117  92.9576633 105.4421887  79.6396410  91.6994495
 107.5570198  74.6184218  97.3446543 106.9034611  74.3033236  96.7203157
 107.5150672  73.9959959  98.0706365 108.6681403  84.9003513  89.2599835
 107.7608465  84.6692767  89.4590984 109.1652435  84.1041133  89.4473816
 111.5749482  93.6101021  92.1796521 110.9011181  93.9132717  92.7881479
 111.9615304  94.4130101  91.8301978 110.7907939  81.1066152 101.6694190
 109.8730500  81.3281099 101.5115878 111.2068082  81.1812462 100.8105897
 111.5742986  82.5057568  96.7996870 112.3214805  83.0178965  96.4903992
 111.8434576  82.1841620  97.6601264 109.8469636  85.0016108  93.7823825
 108.9380856  84.7175141  93.8796294 109.8764720  85.4215187  92.9227132
 114.0221823  79.5414684  98.7815660 113.2844580  79.0292070  99.1125902
 114.2748597  79.1015065  97.9698937 114.1233451  72.3190936  99.3757429
 114.4292328  71.4588299  99.0883344 114.8486056  72.9108556  99.1756423
 100.4157807  82.7221622  97.7639027 100.2182207  82.1290983  97.0390093
  99.8604471  82.4173833  98.4814966 108.3954531  82.6144729  99.8833620
 108.4503140  81.6618565  99.8076097 107.5845733  82.7704168 100.3674918
 109.5445724  86.5424852  91.1211903 109.1065154  85.8260711  90.6617541
 110.2856165  86.7700967  90.5596995 106.3346890  81.2321789  97.6423999
 105.5214756  81.5315959  98.0489191 106.8305885  80.8377477  98.3598481
 117.6618839  84.8182049  97.1788222 117.5236738  85.0083645  96.2509411
 117.3055058  85.5801432  97.6356273 105.8260965  78.8040144 103.2585234
 106.4660345  78.6628903 102.5608197 104.9938496  78.5174658 102.8823836
 106.6021269  88.1042575  99.3720226 107.3961868  87.6092895  99.1702801
 105.8912962  87.5760438  99.0087932 102.9104033  82.2485656  95.4479979
 101.9801621  82.1870112  95.6649941 103.0061505  81.7261609  94.6516620
 102.8289582  78.7740469  98.0358221 103.0896399  79.6885802  97.9267381
 103.6506754  78.3064912  98.1854833 104.3014507  80.1878226 105.2057045
 104.9737560  79.9795588 104.5569694 103.4744293  79.9900312 104.7662278
 109.7740697  93.7780693  94.3943600 109.9492453  93.3068736  95.2089223
 109.0873485  94.4046459  94.6224861 113.6656952  85.4009234  90.7143961
 113.0486123  84.6756062  90.6177014 113.1973440  86.1618594  90.3711035
 105.4555498  79.6194658  89.8365265 104.5784964  79.4983459  89.4727512
 105.9313251  78.8280736  89.5844154  96.9757638  84.4071818  99.9306772
  97.6628678  84.0933548  99.3427788  96.8205767  85.3113182  99.6574024
 101.7792360  79.2962014 104.3591796 101.6950549  78.6887684 103.6242206
 100.9575067  79.7871033 104.3601292 111.9516074  77.7815578  99.7261991
 112.4484774  77.0285540  99.4063061 111.1803055  77.8179894  99.1605200
 113.0345855  86.5387265  97.3000414 112.1002133  86.6588727  97.1305119
 113.2122523  85.6359732  97.0360424 108.5351043  79.9232961  99.4533676
 108.1648830  79.3704001 100.1414581 109.0310135  79.3191094  98.9008676
 116.4218406  82.3804584  97.8350449 116.8878858  83.2132576  97.7610751
 116.8725907  81.9149566  98.5395707 114.4894637  88.7248406  94.8336601
 114.7654481  88.6105000  95.7430475 113.6199136  88.3265890  94.7948774
 114.3935069  74.7485171 101.8741350 113.4798149  74.9789398 102.0423557
 114.8228170  74.8323615 102.7255382 111.4590867  91.9002942  95.7384463
 111.9878633  91.3895396  95.1254625 111.7219086  91.5845472  96.6029996
  96.5525614  82.4872411 102.2024239  96.5909714  81.9536002 102.9961358
  96.0465907  81.9607617 101.5835217 103.9316376  77.3336952 105.6986782
 103.9957703  78.1951782 105.2864179 103.8683497  76.7210953 104.9659140
 100.1834192  81.2136513  95.2778171 100.4787633  80.3047192  95.2245225
  99.2822227  81.1924253  94.9559173 103.7128439  79.2892510 101.2605719
 102.9915024  79.9028477 101.1213193 104.5021694  79.8250275 101.1822365
 101.9122033  78.8950611  95.4017496 101.5834739  78.0147990  95.2192602
 102.2661404  78.8398280  96.2893885 105.0263856  79.1823581  95.7692974
 105.3659929  79.7109502  95.0471582 105.4735977  79.5203987  96.5451540
 107.7207297  77.5660631 105.2196042 107.3804118  76.7668444 105.6216722
 107.0146303  77.8662342 104.6472875 108.3723769  74.6509944 103.6723365
 109.1949838  74.1770422 103.5502255 108.6161833  75.4300428 104.1722051
 107.0132004  77.6798202  93.9686266 107.7340366  78.0579455  93.4649983
 106.3897308  78.3987079  94.0721244 111.1563126  78.3843351  94.9044599
 111.3726741  79.2667989  94.6033427 110.6757194  77.9929565  94.1750241
 105.8962348  81.3429064 101.4815343 105.7506929  81.6569367 102.3739625
 105.4187551  81.9613965 100.9286242 107.7558731  78.3331612 101.5296233
 107.7420299  77.4372706 101.1928531 108.4731159  78.3402276 102.1634519
 109.6084861  78.7668953 103.5749360 109.3502639  79.6886023 103.5733691
 109.0769902  78.3699387 104.2649824 100.3708010  83.8834409 104.4203005
  99.8261478  84.6594217 104.5523279 101.2487360  84.2305213 104.2622126
 107.1595627  77.2145993  96.7983803 107.2811538  76.2862639  96.9974691
 106.8697669  77.2284679  95.8862118 110.0286817  74.9000903  99.9350523
 110.0508514  74.9640236  98.9802502 110.4454876  74.0605412 100.1291029
 115.5406223  91.1886504  93.4536344 116.2357127  91.8093197  93.6723659
 115.8829373  90.3381855  93.7288722 117.4397646  88.6386210  94.9823675
 117.9648970  88.9773482  94.2572995 117.3519998  87.7033225  94.7986809
 101.6030646  90.8969734  99.3443556 102.4288665  90.5973506  98.9642200
 101.2524698  90.1277356  99.7933345  99.8039251  88.8156060 100.3032490
  98.9671159  88.3878235 100.1216491  99.7762896  89.0088504 101.2403281
 106.1325686  88.8000125  94.8899690 106.2813806  89.4835590  94.2366363
 106.9392129  88.7805215  95.4049146 103.8878319  84.8265303  95.8960759
 103.6424361  83.9227633  96.0940969 104.0574233  84.8282453  94.9540237
 103.1573966  80.5593661  93.3946921 102.4643211  80.6338016  92.7386956
 102.9125718  79.7954004  93.9168437 111.8287623  72.1189262 100.7986411
 112.1089376  71.4512451 101.4246838 112.6138230  72.3118358 100.2861075
 109.6321091  91.2948256  92.3611438 109.0595058  91.9138443  91.9081909
 110.2053885  91.8447617  92.8951360 112.8518351  91.5785406  93.4920020
 113.7849024  91.5130968  93.6952895 112.7641564  92.4141673  93.0334553
 115.4806368  90.8951276  90.4523967 115.4019999  90.5611140  91.3459725
 116.3016034  91.3873044  90.4515440 110.0167890  82.6309069  89.7027490
 110.9626994  82.5015277  89.7715908 109.6382135  81.8923730  90.1796918
 115.9889774  74.2965075  99.6654382 115.7914595  73.9880163 100.5497714
 116.5989480  75.0226713  99.7952312 108.2010807  80.5559045  89.6382375
 107.2942262  80.2592158  89.7145089 108.4786788  80.2588863  88.7716662
  99.1188747  81.8765408 100.0881422  98.7991531  81.0230717  99.7955796
  98.5722175  82.0913987 100.8439389 109.8172872  75.0995935  95.7926617
 109.0073601  74.7543020  96.1681863 110.5057289  74.7903478  96.3814228
 111.7463421  74.1773981  97.4150913 112.2994459  74.5969435  98.0740936
 111.9833507  73.2509730  97.4573869 106.9709591  77.4145980  89.7794354
 107.8328755  77.7400878  90.0390172 107.1559936  76.6277476  89.2667420
  98.9877007  85.4968320 102.0574543  98.2940479  85.0822273 101.5444498
  99.7349998  85.5388856 101.4607962 115.1242228  76.2874507  96.9229577
 114.5440897  76.9459311  96.5407630 114.8578161  75.4651851  96.5116995
 113.5745794  75.6879564  99.1250898 114.0745573  75.7996099  98.3165217
 114.2181402  75.3840617  99.7651706 100.9013750  85.4286574  99.9340558
 100.8784438  85.5274261  98.9822441 101.2114386  86.2751724 100.2557724
 113.9067106  78.4474597  95.9785926 113.0192961  78.7324248  95.7606121
 114.3221095  78.2868360  95.1313203 117.2581642  78.4721118  99.6940265
 118.0342032  78.9617570  99.9664882 116.5329776  78.8979172 100.1512134
 113.0510319  88.2119272  90.0733946 113.7546169  88.4169274  90.6891601
 112.3272968  88.7796034  90.3383029 113.8808130  83.9629133  96.1936216
 113.8243331  84.4197684  95.3543848 114.4336472  83.2019818  96.0159059
 117.6912936  79.7518865  97.0186335 117.4349870  79.3515500  97.8494543
 117.0665804  80.4662659  96.8936475 114.9597017  88.6501801  92.1232406
 115.7942621  88.2182999  91.9409881 114.7981360  88.4783815  93.0509300
 114.6142909  85.1533914  93.4888745 114.5591713  84.9878186  92.5477189
 113.9888964  85.8609947  93.6450935  99.4035424  80.3901979 107.3150167
 100.0494288  79.8800933 107.8037392  99.1952575  81.1270660 107.8893593
 107.9239034  74.6542023  93.0674063 107.9117704  75.5983863  93.2242334
 108.8162456  74.4712169  92.7733525 111.7391154  71.2484800  97.3220000
 110.9723550  70.6943287  97.4676683 112.1501859  71.3206669  98.1834152
 116.4210872  95.1039348  92.6367358 115.5848184  95.4414035  92.9576633
 116.2815642  94.9688328  91.6994495 116.2949252  94.9486576  89.8365265
 115.4178719  94.8275376  89.4727512 116.7707005  94.1572654  89.5844154
 113.9967721  95.8885578  93.3946921 113.3036966  95.9629933  92.7386956
 113.7519472  95.1245922  93.9168437 119.0404561  95.8850963  89.6382375
 118.1336017  95.5884075  89.7145089 119.3180542  95.5880781  88.7716662
 117.8103346  92.7437898  89.7794354 118.6722510  93.0692796  90.0390172
 117.9953690  91.9569394  89.2667420 118.7632789  89.9833941  93.0674063
 118.7511459  90.9275781  93.2242334 119.6556211  89.8004086  92.7733525
  52.5046181  -5.4612804  83.7480565  52.4270211  -4.5104979  83.8269045
  51.9007825  -5.8066931  84.4055491  50.1433011  -2.7127410  87.8928767
  50.3829609  -2.0808886  88.5707785  49.3002208  -3.0639370  88.1794126
  50.6177843  -6.6879408  85.2227545  49.9488219  -6.2033280  84.7391585
  50.4790713  -6.4410187  86.1370924  54.7583112  -4.6535664  91.8210204
  55.3101420  -4.4904043  92.5859289  55.0989305  -4.0631226  91.1490228
  47.7182585  -6.6115118  87.7902677  47.5837053  -7.3714717  87.2240675
  47.3014647  -5.8874218  87.3231466  50.8751711  -5.7145801  88.0021120
  50.7584095  -4.7700368  87.8999810  50.0544157  -6.0172239  88.3906919
  51.9006225  -5.0617539  91.2177048  52.8033472  -5.0293928  91.5343543
  51.6743595  -5.9917088  91.2323384  66.2002227  -0.5198586  88.8794414
  65.8620738  -0.6357521  87.9914949  67.0691995  -0.9207421  88.8595420
  62.0589043   1.3336891  84.8691305  61.4953908   1.2426828  84.1007593
  61.9441438   0.5136795  85.3493797  66.6822010   0.6336266  94.8380619
  66.6710651   0.2389064  93.9661123  66.8442649  -0.0997661  95.4314391
  59.6053475   2.8288082  87.7075525  60.3974766   2.4878907  87.2921825
  59.8450125   2.9383057  88.6277679  67.6388601   5.0007858  80.1805770
  66.9876581   5.5861939  79.7939784  68.4332964   5.5314053  80.2400807
  61.5644228   2.0896996  80.5792904  62.3375104   1.5425983  80.4405780
  61.9169627   2.9541245  80.7907365  63.4029271   3.4173378  93.7859803
  63.1119137   4.3219009  93.6706470  64.0386255   3.4589905  94.5003873
  64.3285478   0.7950226  90.3761163  64.9249050   0.5706249  89.6618126
  64.3860449   0.0534972  90.9786611  69.1163866   2.6898290  80.7174754
  68.4809699   2.7632917  81.4295659  68.7861273   3.2791889  80.0393833
  63.6206795   0.1517768  80.4135729  63.5043053  -0.5237329  81.0816813
  63.7309055  -0.3349858  79.5967882  65.9638336  -0.3872085  84.1182418
  65.5996543  -0.9141464  84.8295340  66.8205452  -0.7773616  83.9448904
  68.3619156   3.1034793  90.7809597  68.0619879   4.0059832  90.6725404
  68.0170216   2.8366977  91.6330750  61.8131638  -0.4451410  86.8146301
  60.8882134  -0.5775196  87.0223993  62.0616051   0.3342809  87.3116244
  59.1740449  -0.8018136  87.6490091  59.3032830  -0.5483657  88.5629502
  58.4937900  -0.2090428  87.3294746  63.3439936   9.8679114  83.7480565
  63.2663966  10.8186939  83.8269045  62.7401580   9.5224986  84.4055491
  64.0903538  -0.1507568  95.9659899  64.8318222   0.3877476  95.6894722
  63.3840523   0.4758721  96.1231450  69.5658878   1.9921573  94.5632060
  69.9742234   1.5503983  93.8186693  68.8436139   1.4174200  94.8166253
  69.8887692   2.5522764  88.3184349  69.2596555   2.7168478  87.6160417
  69.5013354   2.9664373  89.0895313  73.7676924   3.4877201  85.6728713
  73.0827962   3.8676103  85.1225746  73.8520774   4.0972528  86.4060661
  71.0227856   1.1337160  92.2724056  71.2344751   1.7768920  91.5958437
  70.9757604   0.2999477  91.8045986  65.4415654   2.2897172  85.5834434
  65.9054000   2.5684875  84.7939057  65.1772452   1.3880616  85.4007525
  62.3339735   1.8368653  88.5214197  62.9041092   2.2655922  87.8831682
  62.9247847   1.5551238  89.2198383  58.1209874  -3.3296123  87.6941133
  57.3308928  -3.0738595  87.2181243  58.6121122  -2.5147785  87.7993173
  72.1373684   4.0109116  90.4446414  72.9591127   3.6089303  90.1629095
  72.1336087   3.9077350  91.3962529  60.0724620  -2.9651544  84.6524610
  59.2755783  -2.8532850  85.1708105  59.8450212  -2.6264892  83.7865500
  65.9030287   3.5593159  92.6007124  65.9674720   4.0213566  93.4365296
  65.1941211   2.9290524  92.7289434  56.4047577  -3.0765633  90.1256124
  56.6555616  -2.1918623  90.3913700  56.9407126  -3.2561031  89.3531215
  65.6178305   5.2261267  82.4686104  65.4823980   6.0712802  82.8970952
  66.1588117   5.4280544  81.7052038  59.0707702   2.7436705  83.0414030
  59.5832223   3.5379955  83.1919594  59.7230415   2.0462995  82.9747631
  60.8802587   5.8602461  85.1236783  61.0569215   6.7820426  84.9357767
  61.6759420   5.5460880  85.5531163  60.1654944  -2.0932907  94.9998946
  60.0508459  -2.9947650  95.3006045  59.3099461  -1.8469210  94.6483762
  67.2446781   5.8484833  96.5986447  66.8010635   5.0621212  96.2807351
  67.9063995   6.0363984  95.9330337  62.0033902   7.3780635  91.1247125
  62.5541328   7.2497698  90.3524119  61.1645378   7.6775524  90.7742018
  69.3428019   6.1287633  94.6267848  69.3246495   6.9496514  94.1348117
  70.2647939   6.0041708  94.8517989  65.8001073   3.6431763  95.4691356
  66.3329410   2.8820051  95.2390664  65.2715155   3.3505414  96.2115511
  57.0356619   1.0725359  83.8173600  57.8731841   1.4822367  83.6007308
  57.2134887   0.1324801  83.7873794  67.1653786   2.7717755  82.9810168
  66.6375148   2.0370515  82.6683406  66.6641289   3.5492431  82.7350137
  72.1446632   0.9666776  88.0977215  71.4870307   1.6566037  88.1857343
  72.9487031   1.3563207  88.4411201  65.3106386   0.5897965  75.9845141
  64.4033448   0.3587219  76.1836290  65.8077418  -0.2064415  76.1719123
  68.2174465   9.2995473  78.9041827  67.5436164   9.6027169  79.5126785
  68.6040287  10.1024553  78.5547284  66.4894620   0.6910560  80.5069131
  65.5805839   0.4069593  80.6041601  66.5189704   1.1109639  79.6472438
  71.7213887   4.3017150  84.2760299  71.2676214   3.4608060  84.3325489
  71.0907854   4.9378548  84.6135079  70.1646826   6.1393646  85.2110117
  70.4569801   6.6998703  84.4922483  70.6745447   6.4322207  85.9663276
  57.0582790  -1.5883926  84.4884334  56.8607190  -2.1814565  83.7635400
  56.5029454  -1.8931715  85.2060272  66.1870708   2.2319304  77.8457210
  65.7490138   1.5155163  77.3862847  66.9281148   2.4595419  77.2842301
  65.1280452   6.9173997  86.3003570  65.0856630   7.1434844  85.3712102
  66.0443151   6.6837372  86.4489371  74.3313202   2.5753028  88.9144800
  74.7649709   2.4828317  89.7627854  75.0444783   2.5510528  88.2764816
  63.2446252   3.7937026  86.0965533  64.0386851   3.2987347  85.8948108
  62.5337945   3.2654890  85.7333239  68.0641097   6.1755122  90.4477901
  68.1178119   6.7446058  91.2155616  67.1955878   6.3457007  90.0831938
  59.5529016  -2.0619892  82.1725286  58.6226604  -2.1235436  82.3895248
  59.6486488  -2.5843939  81.3761927  75.1928752   2.6176729  91.4477685
  75.3864642   3.5222539  91.6936960  75.0929370   2.1584148  92.2816270
  70.2543860   2.7683471  97.0218566  70.1029367   2.5394023  96.1048650
  70.2448540   3.7254073  97.0349911  67.0229197   0.3415384  92.0064832
  67.9521257   0.4926544  91.8333800  66.6020227   0.4299405  91.1513479
  65.8217528   4.3666048  89.7763370  65.6828614   3.9984833  90.6489308
  65.0332125   4.8813688  89.6047328  66.4165680   9.4675145  81.1188907
  66.5917436   8.9963188  81.9334529  65.7298468  10.0940911  81.3470167
  67.3722744   3.7447651  87.1652208  67.0372576   3.7048421  88.0609858
  66.8726689   3.0792367  86.6922618  61.3466988  -0.8484719  92.6904789
  61.2086785  -1.5804480  93.2916328  62.2571911  -0.9375819  92.4088977
  70.3081935   1.0903686  77.4389268  69.6911106   0.3650514  77.3422320
  69.8398424   1.8513046  77.0956342  63.9749288  -1.1364759  92.1788469
  64.6848907  -1.7771567  92.1375087  63.9318596  -0.8851865  93.1014649
  71.9636067   5.8002594  95.0995048  71.9048613   5.1161814  94.4325631
  72.3655585   6.5421584  94.6475674  60.9826766  12.6164508  87.8928767
  61.2223364  13.2483032  88.5707785  60.1395962  12.2652548  88.1794126
  71.9653474   3.7642178  93.3309028  71.0780253   3.4268100  93.4535426
  72.5352025   3.0325209  93.5677793  53.6182621   0.0966270  86.6552079
  54.3053661  -0.2172000  86.0673094  53.4630750   1.0007634  86.3819330
  65.4954628   8.4243630  90.2970271  65.4224799   9.2298602  90.8089575
  65.0532021   8.6235596  89.4718292  65.2844407   7.6615400  83.8073092
  64.5011929   8.2037080  83.9011317  65.9837152   8.1789380  84.2067333
  67.9553311   8.3230464  92.4528429  68.6681283   8.9577929  92.3804331
  67.4643340   8.4194330  91.6368431  69.6770838   2.2281717  84.0245721
  68.7427117   2.3483179  83.8550425  69.8547506   1.3254184  83.7605731
  63.0065225   6.0724908  93.2734000  63.7074684   6.7061391  93.4263394
  62.5360340   6.4139639  92.5129639  71.1319620   4.4142857  81.5581907
  71.4079464   4.2999452  82.4675781  70.2624119   4.0160342  81.5194080
  67.7673684   8.6629208  85.2014721  67.9496079   7.8450864  85.6642473
  68.5906670   8.8796901  84.7639611  68.1015850   7.5897393  82.4629769
  68.6303616   7.0789848  81.8499931  68.3644070   7.2739924  83.3275302
  66.8554084  -0.6310674  97.5852588  66.1794721  -0.7316545  98.2554963
  67.6781717  -0.7871460  98.0488585  58.6032943   5.6061263  90.2065103
  59.1886379   4.8604951  90.3393007  58.4057781   5.9165219  91.0901767
  61.4571598   8.6412510  85.2227545  60.7881973   9.1258638  84.7391585
  61.3184468   8.8881731  86.1370924  53.1950597  -1.8233137  88.9269546
  53.2334697  -2.3569546  89.7206664  52.6890890  -2.3497932  88.3080523
  65.5976866  10.6756254  91.8210204  66.1495174  10.8387875  92.5859289
  65.9383060  11.2660691  91.1490228  70.4487741   5.5017511  97.6758858
  70.9927645   6.1147469  97.1813813  69.8674586   6.0597090  98.1925871
  56.8259175  -3.0969035  82.0023477  57.1212616  -4.0058357  81.9490531
  55.9247211  -3.1181296  81.6804480  68.7345254   8.6238229  88.8073886
  68.6096393   7.8227969  88.2984831  69.3924345   9.1184422  88.3187856
  70.7980162   6.4247249  90.4353436  69.8510498   6.3052600  90.3631763
  71.1462935   5.5369747  90.5179697  67.8026595   6.2199965  86.6357788
  67.6551558   5.2916673  86.8165358  68.6280089   6.2420056  86.1514863
  71.4060717   7.0428524  87.7222661  72.3307265   6.8371385  87.5847112
  71.2376021   6.7944925  88.6312002  71.1956033   7.5614192  83.0784752
  71.3692911   6.9960614  82.3258605  71.6884925   8.3615086  82.8964242
  57.0132993  -0.4271139  91.1448311  56.4686461   0.3488669  91.2768585
  57.8912343  -0.0800335  90.9867433  72.1831206   6.8780956  80.1781651
  72.8782111   7.4987649  80.3968965  72.5254356   6.0276307  80.4534028
  57.7999015  -1.3001243  94.0378468  57.0580751  -1.1518608  94.6243098
  57.4791759  -1.0392977  93.1745217  74.0822629   4.3280662  81.7068981
  74.6073953   4.6667934  80.9818301  73.9944982   3.3927677  81.5232116
  65.7442678   8.2414735  93.8358858  66.0529804   7.9963882  94.7081558
  66.5418160   8.4461374  93.3477728  65.7663290  10.3952645  86.0664235
  65.3268280   9.9029024  86.7597091  66.5171407   9.8525612  85.8256310
  58.2455629   6.5864186  86.0688863  59.0713649   6.2867958  85.6887506
  57.8949681   5.8171808  86.5178651  63.2137162   5.9390654  88.1386536
  62.5917171   5.2761359  87.8388764  63.8842029   5.9651786  87.4560184
  56.4464234   4.5050512  87.0277796  55.6096142   4.0772686  86.8461797
  56.4187879   4.6982955  87.9648587  73.7716535   4.9613565  97.0120179
  72.9812079   4.9437704  96.4724679  73.5349890   5.5001859  97.7669216
  62.7750669   4.4894577  81.6144997  62.9238789   5.1730042  80.9611670
  63.5817112   4.4699667  82.1294453  75.3932607   4.2302973  94.5694929
  75.1017415   4.5932954  95.4058390  74.7804738   3.5169981  94.3908261
  60.5303302   0.5159755  82.6206066  60.2849344  -0.3877915  82.8186276
  60.6999216   0.5176905  81.6785544  66.2746074   6.9842708  79.0856744
  65.7020041   7.6032895  78.6327216  66.8478868   7.5342069  79.6196666
  69.4943334   7.2679858  80.2165326  70.4274007   7.2025420  80.4198202
  69.4066547   8.1036125  79.7579859  72.1231351   6.5845728  77.1769274
  72.0444982   6.2505592  78.0705032  72.9441018   7.0767496  77.1760746
  66.5431565   2.3721267  97.8873454  67.4634575   2.5499866  98.0813500
  66.5081148   1.4277312  97.7353153  55.7613730  -2.4340140  86.8126728
  55.4416515  -3.2874832  86.5201102  55.2147159  -2.2191562  87.5684696
  59.5393638   0.2822301  90.5296235  59.7579648   1.2139409  90.5484269
  59.9519412  -0.0769724  91.3151039  55.6301990   1.1862772  88.7819850
  54.9365462   0.7716725  88.2689804  56.3774981   1.2283308  88.1853269
  64.2752773  -0.7147354  98.7364045  63.7919855   0.0853006  98.9427934
  64.3613712  -0.7039409  97.7831489  57.5438733   1.1181026  86.6585865
  57.5209421   1.2168713  85.7067748  57.8539369   1.9646176  86.9803031
  60.2026111   3.1757181  90.7732479  61.1569364   3.1441123  90.7062411
  60.0038634   2.7147804  91.5882705  60.7925493   1.7458297  93.3403277
  61.6118382   2.2402375  93.3638114  61.0662301   0.8290265  93.3120844
  58.5576340   8.7176800  87.7902677  58.4230808   7.9577201  87.2240675
  58.1408402   9.4417700  87.3231466  69.6935303   3.9013724  76.7979252
  70.3971153   4.1063726  77.4136908  68.9697951   4.4690485  77.0628336
  61.7145466   9.6146117  88.0021120  61.5977850  10.5591550  87.8999810
  60.8937912   9.3119679  88.3906919  71.6022000   4.3396253  78.8477712
  72.4367604   3.9077451  78.6655187  71.4406343   4.1678266  79.7754607
  71.2567892   0.8428366  80.2134052  71.2016696   0.6772638  79.2722496
  70.6313948   1.5504399  80.3696241  56.0460407  -3.9203570  94.0395474
  56.6919271  -4.4304616  94.5282699  55.8377558  -3.1834888  94.6138899
  68.5713799   3.1477278  99.5387614  69.4404959   3.3217930  99.1774249
  68.0920551   3.9671695  99.4163344  62.7399980  10.2674379  91.2177048
  63.6427226  10.2997989  91.5343543  62.5137350   9.3374830  91.2323384
  64.4953582   9.0205365  87.8787127  63.5449213   9.0207227  87.7651499
  64.7986068   8.2738100  87.3623161  80.2306275  14.8565904  88.9432889
  80.8684685  14.7372651  88.2396229  80.1127118  15.8046748  89.0020841
  77.0395981  14.8093332  88.8794414  76.7014493  14.6934397  87.9914949
  77.9085750  14.4084497  88.8595420  72.8982797  16.6628808  84.8691305
  72.3347662  16.5718745  84.1007593  72.7835192  15.8428713  85.3493797
  77.5215764  15.9628184  94.8380619  77.5104405  15.5680982  93.9661123
  77.6836404  15.2294256  95.4314391  70.4447229  18.1580000  87.7075525
  71.2368521  17.8170825  87.2921825  70.6843879  18.2674975  88.6277679
  78.4782356  20.3299776  80.1805770  77.8270336  20.9153857  79.7939784
  79.2726719  20.8605971  80.2400807  72.4037983  17.4188913  80.5792904
  73.1768859  16.8717900  80.4405780  72.7563382  18.2833163  80.7907365
  74.2423026  18.7465296  93.7859803  73.9512892  19.6510926  93.6706470
  74.8780010  18.7881823  94.5003873  75.1679232  16.1242144  90.3761163
  75.7642805  15.8998166  89.6618126  75.2254204  15.3826890  90.9786611
  74.7404261  13.5781579  78.2111354  74.9929781  13.0563101  77.4494817
  73.8028820  13.4147725  78.3138038  79.7847544  12.5817358  86.0186097
  80.5710633  12.1636781  85.6676514  80.0486248  13.4863450  86.1867746
  79.9557621  18.0190208  80.7174754  79.3203454  18.0924835  81.4295659
  79.6255027  18.6083807  80.0393833  85.1855971  12.5192591  86.9219076
  85.9181143  11.9491808  87.1556905  84.4295326  12.1314191  87.3625581
  74.4600550  15.4809685  80.4135729  74.3436808  14.8054589  81.0816813
  74.5702809  14.9942059  79.5967882  76.8032090  14.9419832  84.1182418
  76.4390298  14.4150453  84.8295340  77.6599206  14.5518301  83.9448904
  82.7081391   6.2314165  91.3813684  82.3764716   7.1009576  91.1574899
  82.1127004   5.9150449  92.0607715  76.4437577   9.9709732  79.1143767
  76.6111980  10.8389969  79.4814238  76.2534747  10.1337014  78.1905056
  79.2012911  18.4326711  90.7809597  78.9013634  19.3351750  90.6725404
  78.8563970  18.1658894  91.6330750  72.6525392  14.8840508  86.8146301
  71.7275889  14.7516722  87.0223993  72.9009805  15.6634727  87.3116244
  82.6010054  10.9509251  88.4607034  81.6926932  10.8824660  88.1665795
  82.5497650  11.4281196  89.2888860  76.4226798  12.4267390  80.0990434
  76.3026424  12.8724440  80.9375914  75.7279387  12.7752707  79.5403972
  70.0134203  14.5273781  87.6490091  70.1426584  14.7808260  88.5629502
  69.3331654  15.1201489  87.3294746  74.1833690  25.1971031  83.7480565
  74.1057720  26.1478856  83.8269045  73.5795334  24.8516904  84.4055491
  76.6750920  12.3698897  96.4041932  75.8984254  12.9292817  96.3944796
  77.3141483  12.8555680  96.9256802  84.4671701   9.1525690  90.2384908
  83.8246081   9.4458223  89.5924703  83.9626629   9.0378610  91.0438105
  82.1211864  12.8988863  80.9270768  83.0329721  13.1316250  80.7518465
  81.6121512  13.4825907  80.3645846  74.9297293  15.1784350  95.9659899
  75.6711977  15.7169394  95.6894722  74.2234278  15.8050639  96.1231450
  80.4052632  17.3213491  94.5632060  80.8135988  16.8795901  93.8186693
  79.6829894  16.7466118  94.8166253  76.7583702  12.2586097  91.9365617
  77.6044897  12.6825511  92.0800266  76.6982340  11.6019722  92.6304180
  80.7281447  17.8814681  88.3184349  80.0990309  18.0460395  87.6160417
  80.3407109  18.2956291  89.0895313  84.6070679  18.8169119  85.6728713
  83.9221717  19.1968020  85.1225746  84.6914528  19.4264446  86.4060661
  79.9083148   9.9190466  93.5946791  79.6644079  10.6732526  93.0581066
  80.1843078  10.2975813  94.4294038  81.8621610  16.4629078  92.2724056
  82.0738506  17.1060838  91.5958437  81.8151359  15.6291395  91.8045986
  79.4647839   9.0746899  89.1760628  78.6032318   9.3728152  89.4677366
  79.4910274   9.2917298  88.2441661  76.2809409  17.6189089  85.5834434
  76.7447754  17.8976792  84.7939057  76.0166207  16.7172534  85.4007525
  73.1733490  17.1660571  88.5214197  73.7434847  17.5947839  87.8831682
  73.7641602  16.8843156  89.2198383  75.2178295  13.7412242  82.3923999
  75.9202338  14.1933285  82.8597926  74.8858923  13.0996061  83.0203892
  73.6658656  12.3323998  96.7675209  73.0357317  13.0140279  97.0010605
  73.5594744  12.2207080  95.8228347  68.9603629  11.9995794  87.6941133
  68.1702683  12.2553323  87.2181243  69.4514876  12.8144132  87.7993173
  82.9767438  19.3401034  90.4446414  83.7984882  18.9381221  90.1629095
  82.9729841  19.2369268  91.3962529  70.9118374  12.3640374  84.6524610
  70.1149537  12.4759068  85.1708105  70.6843966  12.7027026  83.7865500
  76.7424042  18.8885077  92.6007124  76.8068474  19.3505484  93.4365296
  76.0334966  18.2582442  92.7289434  67.2441332  12.2526285  90.1256124
  67.4949370  13.1373295  90.3913700  67.7800880  12.0730886  89.3531215
  91.0673431  15.6839782  86.7931385  90.3137140  15.1147180  86.6375390
  91.2020973  15.6502447  87.7402020  76.4572059  20.5553184  82.4686104
  76.3217734  21.4004720  82.8970952  76.9981872  20.7572462  81.7052038
  72.9439399   6.6344764  99.1300460  72.5506345   6.0810963  99.8048104
  73.7605539   6.9455343  99.5206977  69.9101457  18.0728622  83.0414030
  70.4225977  18.8671873  83.1919594  70.5624170  17.3754913  82.9747631
  71.7196341  21.1894379  85.1236783  71.8962970  22.1112343  84.9357767
  72.5153175  20.8752798  85.5531163  75.8607360   8.0502643  96.7220716
  76.6017073   8.6509796  96.6425179  76.0925283   7.3080281  96.1638759
  71.0048698  13.2359011  94.9998946  70.8902213  12.3344268  95.3006045
  70.1493216  13.4822707  94.6483762  78.0840536  21.1776751  96.5986447
  77.6404390  20.3913129  96.2807351  78.7457749  21.3655901  95.9330337
  72.8427657  22.7072552  91.1247125  73.3935082  22.5789616  90.3524119
  72.0039133  23.0067441  90.7742018  80.1821774  21.4579551  94.6267848
  80.1640249  22.2788432  94.1348117  81.1041694  21.3333626  94.8517989
  76.6394828  18.9723680  95.4691356  77.1723165  18.2111968  95.2390664
  76.1108909  18.6797332  96.2115511  79.8064523   4.0783746  90.9984998
  79.4628792   4.9685388  90.9224109  80.1743486   3.8885404  90.1354583
  67.8750374  16.4017277  83.8173600  68.7125596  16.8114285  83.6007308
  68.0528641  15.4616719  83.7873794  79.7714806  14.0692357  79.5057433
  79.2561429  14.8396962  79.7445820  79.4992114  13.3957493  80.1290495
  77.3561917   8.9142058  84.5642671  76.5003513   8.5248908  84.3848310
  77.7688868   8.9934019  83.7042457  78.8861063   6.4488401  88.9634231
  78.3825859   6.4118537  88.1502036  79.1791670   7.3581144  89.0230888
  75.1303949   6.5327131  87.9700413  75.9956946   6.3369940  87.6106302
  75.1981458   6.3037483  88.8969770  84.7449080  16.8224712  81.4410607
  83.9678523  16.4835871  80.9965769  85.4240561  16.8277335  80.7665572
  79.5601109  11.9419449  81.3317214  79.2551244  12.2565599  82.1827357
  80.5131551  12.0200869  81.3744547  78.0047541  18.1009673  82.9810168
  77.4768902  17.3662432  82.6683406  77.5035043  18.8784349  82.7350137
  82.9840387  16.2958693  88.0977215  82.3264061  16.9857955  88.1857343
  83.7880786  16.6855125  88.4411201  72.7366268   8.7629339  85.3416780
  73.3110020   8.5404521  84.6089973  73.3237251   8.8318034  86.0945381
  81.7945845  14.6503066  86.1481156  82.3077727  15.2833058  86.6502866
  82.4447069  14.0504261  85.7824516  73.0635855  10.7933800  79.3612665
  72.2273168  11.1308487  79.6821940  72.9240625  10.6582780  78.4239802
  75.0388936   5.6370588  84.0691849  74.3853348   5.3219605  83.4448464
  74.9969410   5.0146328  84.7951672  76.1500141  15.9189883  75.9845141
  75.2427203  15.6879136  76.1836290  76.6471173  15.1227502  76.1719123
  79.0568220  24.6287390  78.9041827  78.3829918  24.9319087  79.5126785
  79.4434042  25.4316471  78.5547284  78.2726676  12.1252521  88.3939497
  77.3549238  12.3467468  88.2361185  78.6886820  12.1998832  87.5351204
  79.0561724  13.5243937  83.5242177  79.8033543  14.0365334  83.2149299
  79.3253314  13.2027990  84.3846571  77.3288374  16.0202478  80.5069131
  76.4199594  15.7361511  80.6041601  77.3583458  16.4401556  79.6472438
  82.5607642  19.6309067  84.2760299  82.1069969  18.7899977  84.3325489
  81.9301608  20.2670466  84.6135079  81.5040561  10.5601053  85.5060966
  80.7663318  10.0478440  85.8371209  81.7567335  10.1201435  84.6944243
  81.0040581  21.4685564  85.2110117  81.2963555  22.0290621  84.4922483
  81.5139202  21.7614125  85.9663276  67.8976545  13.7407992  84.4884334
  67.7000944  13.1477353  83.7635400  67.3423209  13.4360202  85.2060272
  75.8773268  13.6331098  86.6078927  75.9321878  12.6804935  86.5321403
  75.0664470  13.7890538  87.0920225  77.0264462  17.5611222  77.8457210
  76.5883892  16.8447080  77.3862847  77.7674903  17.7887336  77.2842301
  73.8165628  12.2508158  84.3669306  73.0033494  12.5502329  84.7734498
  74.3124622  11.8563847  85.0843788  75.9674206  22.2465915  86.3003570
  75.9250385  22.4726761  85.3712102  76.8836905  22.0129290  86.4489371
  79.4139840  12.7149983  93.1984199  79.7689228  12.9421456  94.0578665
  80.0611971  13.0468359  92.5761455  85.1437577  15.8368419  83.9033528
  85.0055475  16.0270015  82.9754718  84.7873796  16.5987801  84.3601580
  73.3079703   9.8226514  89.9830541  73.9479082   9.6815273  89.2853504
  72.4757234   9.5361027  89.6069143  85.1706956  17.9044946  88.9144800
  85.6043463  17.8120235  89.7627854  85.8838537  17.8802446  88.2764816
  74.0840007  19.1228944  86.0965533  74.8780605  18.6279264  85.8948108
  73.3731699  18.5946807  85.7333239  78.9034851  21.5047040  90.4477901
  78.9571874  22.0737976  91.2155616  78.0349633  21.6748925  90.0831938
  70.3922770  13.2672026  82.1725286  69.4620358  13.2056481  82.3895248
  70.4880242  12.7447979  81.3761927  70.3108319   9.7926839  84.7603527
  70.5715137  10.7072172  84.6512688  71.1325492   9.3251281  84.9100140
  71.7833245  11.2064596  91.9302352  72.4556298  10.9981958  91.2815001
  70.9563031  11.0086682  91.4907584  86.0322506  17.9468646  91.4477685
  86.2258396  18.8514457  91.6936960  85.9323124  17.4876065  92.2816270
  77.6858817   7.8326537  93.9468013  77.0386732   8.5316486  93.8532489
  78.4559832   8.2662681  94.3144261  81.0937615  18.0975389  97.0218566
  80.9423121  17.8685941  96.1048650  81.0842294  19.0545990  97.0349911
  77.8622951  15.6707302  92.0064832  78.7915011  15.8218461  91.8333800
  77.4413981  15.7591323  91.1513479  76.6611283  19.6957966  89.7763370
  76.5222369  19.3276751  90.6489308  75.8725879  20.2105606  89.6047328
  77.2559435  24.7967063  81.1188907  77.4311191  24.3255106  81.9334529
  76.5692223  25.4232829  81.3470167  78.2116498  19.0739569  87.1652208
  77.8766331  19.0340339  88.0609858  77.7120444  18.4084285  86.6922618
  72.1860742  14.4807199  92.6904789  72.0480540  13.7487438  93.2916328
  73.0965665  14.3916099  92.4088977  81.1475690  16.4195603  77.4389268
  80.5304860  15.6942431  77.3422320  80.6792178  17.1804963  77.0956342
  74.8143043  14.1927158  92.1788469  75.5242661  13.5520350  92.1375087
  74.7712351  14.4440053  93.1014649  82.8029821  21.1294512  95.0995048
  82.7442368  20.4453732  94.4325631  83.2049340  21.8713502  94.6475674
  73.5271977  11.1792376  93.9984108  72.9909334  10.7283115  94.6505704
  72.9388685  11.3138285  93.2554572  71.8220520  27.9456425  87.8928767
  72.0617118  28.5774950  88.5707785  70.9789717  27.5944465  88.1794126
  72.9374236  10.6381027  76.5610572  72.0603702  10.5169828  76.1972818
  73.4131989   9.8467106  76.3089460  82.8047229  19.0934095  93.3309028
  81.9174007  18.7560017  93.4535426  83.3745780  18.3617127  93.5677793
  64.4576376  15.4258187  86.6552079  65.1447416  15.1119917  86.0673094
  64.3024504  16.3299552  86.3819330  69.2611098  10.3148384  91.0837103
  69.1769287   9.7074053  90.3487513  68.4393804  10.8057402  91.0846599
  76.3348382  23.7535548  90.2970271  76.2618554  24.5590519  90.8089575
  75.8925775  23.9527514  89.4718292  76.1238162  22.9907318  83.8073092
  75.3405684  23.5328998  83.9011317  76.8230907  23.5081297  84.2067333
  79.4334812   8.8001947  86.4507298  79.9303511   8.0471910  86.1308368
  78.6621793   8.8366264  85.8850507  87.2864569  14.5042313  88.0925589
  87.2754445  15.3867028  87.7219522  86.4181949  14.1513864  87.8980126
  78.7947066  23.6522382  92.4528429  79.5075038  24.2869847  92.3804331
  78.3037094  23.7486248  91.6368431  80.5164592  17.5573635  84.0245721
  79.5820871  17.6775097  83.8550425  80.6941261  16.6546101  83.7605731
  76.0169781  10.9419330  86.1778982  75.6467568  10.3890371  86.8659888
  76.5128873  10.3377464  85.6253982  83.9037144  13.3990954  84.5595755
  84.3697596  14.2318945  84.4856058  84.3544644  12.9335935  85.2641014
  73.8458979  21.4016825  93.2734000  74.5468439  22.0353308  93.4263394
  73.3754094  21.7431557  92.5129639  81.9713375  19.7434775  81.5581907
  82.2473219  19.6291370  82.4675781  81.1017874  19.3452260  81.5194080
  81.8753807   5.7671541  88.5986657  80.9616886   5.9975768  88.7668863
  82.3046908   5.8509985  89.4500689  81.6460265  13.9561433  91.0986551
  80.9931715  14.2037340  90.4439003  82.0240645  13.1425571  90.7649028
  78.6067439  23.9921126  85.2014721  78.7889833  23.1742782  85.6642473
  79.4300425  24.2088818  84.7639611  78.9409604  22.9189311  82.4629769
  79.4697371  22.4081766  81.8499931  79.2037824  22.6031841  83.3275302
  77.6947838  14.6981244  97.5852588  77.0188475  14.5975373  98.2554963
  78.5175472  14.5420458  98.0488585  69.4426697  20.9353180  90.2065103
  70.0280134  20.1896868  90.3393007  69.2451536  21.2457137  91.0901767
  72.2965352  23.9704428  85.2227545  71.6275728  24.4550555  84.7391585
  72.1578222  24.2173648  86.1370924  64.0344352  13.5058781  88.9269546
  64.0728451  12.9722371  89.7206664  63.5284645  12.9793986  88.3080523
  76.4370621  26.0048171  91.8210204  76.9888929  26.1679793  92.5859289
  76.7776814  26.5952609  91.1490228  71.4135114   8.3523321  92.4232088
  71.4776441   9.2138152  92.0109486  71.3502234   7.7397323  91.6904447
  70.8887387  10.4246454  96.0705123  71.5159426  10.0423531  96.6842647
  70.0315306  10.2060656  96.4360815  81.2881495  20.8309429  97.6758858
  81.8321399  21.4439387  97.1813813  80.7068340  21.3889007  98.1925871
  67.6652929  12.2322883  82.0023477  67.9606371  11.3233561  81.9490531
  66.7640965  12.2110622  81.6804480  79.5739008  23.9530147  88.8073886
  79.4490148  23.1519887  88.2984831  80.2318099  24.4476340  88.3187856
  71.1947176  10.3078879  87.9851026  70.4733762  10.9214847  87.8458499
  71.9840432  10.8436644  87.9067672  81.6373917  21.7539167  90.4353436
  80.6904252  21.6344518  90.3631763  81.9856690  20.8661665  90.5179697
  73.9973490   7.6433306  94.2591678  74.5207892   7.8895602  95.0217987
  73.7785823   8.4753341  93.8394815  69.3940771   9.9136980  82.1262803
  69.0653477   9.0334359  81.9437909  69.7480142   9.8584649  83.0139192
  78.6420350  21.5491883  86.6357788  78.4945312  20.6208591  86.8165358
  79.4673843  21.5711974  86.1514863  72.5082594  10.2009950  82.4938280
  72.8478667  10.7295871  81.7716889  72.9554715  10.5390356  83.2696847
  82.2454472  22.3720442  87.7222661  83.1701019  22.1663303  87.5847112
  82.0769775  22.1236843  88.6312002  75.2026035   8.5847001  91.9441348
  74.8622855   7.7854814  92.3462028  74.4965041   8.8848712  91.3718182
  75.8542507   5.6696313  90.3968671  76.6768576   5.1956792  90.2747562
  76.0980570   6.4486797  90.8967358  74.4950741   8.6984572  80.6931573
  75.2159104   9.0765825  80.1895290  73.8716045   9.4173449  80.7966551
  78.6381864   9.4029721  81.6289905  78.8545479  10.2854359  81.3278734
  78.1575931   9.0115934  80.8995547  73.3781086  12.3615434  88.2060650
  73.2325666  12.6755737  89.0984931  72.9006289  12.9800334  87.6531549
  75.2377468   9.3517982  88.2541540  75.2239037   8.4559075  87.9173837
  75.9549897   9.3588646  88.8879826  77.0903599   9.7855322  90.2994667
  76.8321377  10.7072393  90.2978997  76.5588640   9.3885757  90.9895131
  82.0349788  22.8906109  83.0784752  82.2086665  22.3252532  82.3258605
  82.5278679  23.6907004  82.8964242  67.8526748  14.9020778  91.1448311
  67.3080216  15.6780586  91.2768585  68.7306098  15.2491583  90.9867433
  74.6414364   8.2332362  83.5229110  74.7630276   7.3049008  83.7219997
  74.3516407   8.2471048  82.6107425  77.5105555   5.9187273  86.6595829
  77.5327252   5.9826606  85.7047809  77.9273614   5.0791781  86.8536336
  87.8889179  15.6542532  84.6975052  88.3320325  14.9049857  84.2994175
  87.0115689  15.6452669  84.3148784  83.0224960  22.2072874  80.1781651
  83.7175865  22.8279566  80.3968965  83.3648111  21.3568225  80.4534028
  68.6392770  14.0290675  94.0378468  67.8974506  14.1773310  94.6243098
  68.3185514  14.2898940  93.1745217  84.9216384  19.6572579  81.7068981
  85.4467708  19.9959852  80.9818301  84.8338736  18.7219595  81.5232116
  76.5836432  23.5706653  93.8358858  76.8923559  23.3255800  94.7081558
  77.3811914  23.7753291  93.3477728  76.6057044  25.7244562  86.0664235
  76.1662035  25.2320941  86.7597091  77.3565161  25.1817530  85.8256310
  69.0849383  21.9156103  86.0688863  69.9107403  21.6159875  85.6887506
  68.7343435  21.1463726  86.5178651  74.0530916  21.2682572  88.1386536
  73.4310926  20.6053277  87.8388764  74.7235783  21.2943703  87.4560184
  67.2857988  19.8342430  87.0277796  66.4489897  19.4064604  86.8461797
  67.2581634  20.0274873  87.9648587  74.1255444   9.7464360  97.7319042
  74.1743599  10.6226482  97.3496812  74.6677958   9.2041753  97.1590685
  84.6110290  20.2905483  97.0120179  83.8205833  20.2729622  96.4724679
  84.3743644  20.8293777  97.7669216  84.7308165  17.1397949  94.3252908
  84.7806170  16.9747957  95.2668431  84.6222088  16.2725208  93.9350789
  73.6144423  19.8186495  81.6144997  73.7632544  20.5021959  80.9611670
  74.4210867  19.7991585  82.1294453  82.0211927  13.1228877  95.6412215
  82.9221790  12.9835342  95.3496212  82.0959902  13.2883332  96.5810392
  76.3554732  10.4995732  94.4865401  75.4858042  10.7929298  94.2147989
  76.5914213  11.0836177  95.2072665  86.2326362  19.5594891  94.5694929
  85.9411170  19.9224871  95.4058390  85.6198493  18.8461899  94.3908261
  87.4322044  17.1247771  87.0897500  88.2668935  17.5637575  87.2535060
  87.5681173  16.6486424  86.2705745  84.4813550  14.6827505  93.0374987
  84.9567671  14.8755152  92.2293839  83.5579115  14.7386691  92.7918371
  71.3697056  15.8451673  82.6206066  71.1243098  14.9414003  82.8186276
  71.5392971  15.8468823  81.6785544  79.0593766   6.7175349  92.0030821
  79.5775710   7.4536376  91.6777310  78.7048899   7.0239342  92.8377580
  70.6392704  11.5780030  80.1192227  69.9461949  11.6524385  79.4632263
  70.3944456  10.8140374  80.6413744  77.1139829  22.3134625  79.0856744
  76.5413796  22.9324813  78.6327216  77.6872623  22.8633987  79.6196666
  83.1815219  11.5593265  91.2703293  84.1332642  11.6591363  91.2915517
  83.0118669  10.7671534  91.7801377  81.2029598   8.6448849  91.4562694
  80.6079530   8.9253861  90.7609183  80.9179295   9.1342750  92.2279435
  80.3337089  22.5971776  80.2165326  81.2667762  22.5317337  80.4198202
  80.2460302  23.4328042  79.7579859  82.9625105  21.9137646  77.1769274
  82.8838737  21.5797509  78.0705032  83.7834772  22.4059414  77.1760746
  85.6603297  14.7799385  90.3845593  85.6279617  13.8415386  90.5705276
  86.2703920  14.8583422  89.6511418  77.4986627  13.6495438  76.4272797
  78.4445732  13.5201646  76.4961215  77.1200872  12.9110100  76.9042225
  85.8097785  11.5710429  90.4303876  85.2936834  10.7868885  90.2433805
  86.6937734  11.2429145  90.5950395  83.4708512   5.3151444  86.3899689
  83.2733333   5.0066532  87.2743020  84.0808218   6.0413083  86.5197618
  91.4779846  15.8415392  89.5251629  92.2083235  15.5800680  90.0859333
  90.8686792  15.1044114  89.5653697  89.5595144  13.9823255  90.1226081
  88.8328307  13.8479220  89.5142572  89.1442430  14.2900083  90.9282799
  77.3825320  17.7013184  97.8873454  78.3028329  17.8791783  98.0813500
  77.3474903  16.7569230  97.7353153  75.6829545  11.5745415  76.3627682
  74.7761000  11.2778527  76.4390396  75.9605526  11.2775233  75.4961968
  66.6007485  12.8951778  86.8126728  66.2810269  12.0417086  86.5201102
  66.0540913  13.1100356  87.5684696  70.3787392  15.6114219  90.5296235
  70.5973402  16.5431327  90.5484269  70.7913166  15.2522193  91.3151039
  77.2991610   6.1182304  82.5171923  76.4892339   5.7729389  82.8927169
  77.9876027   5.8089848  83.1059535  79.2282159   5.1960351  84.1396220
  79.7813197   5.6155804  84.7986243  79.4652245   4.2696099  84.1819176
  75.2515258  11.1847425  99.9198984  75.1511985  12.1341782  99.8511075
  75.0336800  10.8565664  99.0475054  74.4528329   8.4332350  76.5039661
  75.3147493   8.7587248  76.7635478  74.6378673   7.6463846  75.9912727
  66.4695745  16.5154689  88.7819850  65.7759216  16.1008642  88.2689804
  67.2168736  16.5575226  88.1853269  82.6060966   7.3060876  83.6474884
  82.0259635   7.9645680  83.2652937  82.3396898   6.4838221  83.2362302
  81.0564532   6.7065934  85.8496204  81.5564310   6.8182468  85.0410523
  81.7000140   6.4026987  86.4897013  75.1146528  14.6144564  98.7364045
  74.6313610  15.4144924  98.9427934  75.2007467  14.6252508  97.7831489
  68.3832487  16.4472943  86.6585865  68.3603176  16.5460630  85.7067748
  68.6933124  17.2938094  86.9803031  71.0419865  18.5049098  90.7732479
  71.9963119  18.4733041  90.7062411  70.8432389  18.0439722  91.5882705
  71.6319247  17.0750214  93.3403277  72.4512136  17.5694293  93.3638114
  71.9056055  16.1582182  93.3120844  81.3885844   9.4660967  82.7031232
  80.5011699   9.7510617  82.4851427  81.8039833   9.3054730  81.8558509
  84.7400380   9.4907488  86.4185572  85.5160770   9.9803940  86.6910188
  84.0148514   9.9165542  86.8757441  87.1772938  10.2035107  87.4759512
  87.7717429   9.9630843  86.7652820  87.2499522   9.4842237  88.1033049
  69.3970094  24.0468718  87.7902677  69.2624562  23.2869119  87.2240675
  68.9802156  24.7709618  87.3231466  80.5329057  19.2305641  76.7979252
  81.2364907  19.4355644  77.4136908  79.8091706  19.7982403  77.0628336
  81.3626867  14.9815503  82.9181523  81.3062069  15.4384054  82.0789155
  81.9155210  14.2206187  82.7404365  85.1731673  10.7705234  83.7431642
  84.9168608  10.3701870  84.5739850  84.5484541  11.4849028  83.6181781
  89.4844011  13.5101308  86.2502933  88.9243569  13.5794497  87.0234495
  88.8787515  13.3342292  85.5302430  72.5539220  24.9438035  88.0021120
  72.4371604  25.8883467  87.8999810  71.7331666  24.6411596  88.3906919
  82.4415755  19.6688170  78.8477712  83.2761358  19.2369369  78.6655187
  82.2800097  19.4970184  79.7754607  82.0961647  16.1720284  80.2134052
  82.0410451  16.0064555  79.2722496  81.4707702  16.8796317  80.3696241
  66.8854162  11.4088348  94.0395474  67.5313025  10.8987302  94.5282699
  66.6771313  12.1457030  94.6138899  79.4107554  18.4769196  99.5387614
  80.2798714  18.6509848  99.1774249  78.9314305  19.2963612  99.4163344
  75.4057772   5.6728393  79.7919370  75.3936442   6.6170233  79.9487641
  76.2981194   5.4898538  79.4978831  73.5793734  25.5966297  91.2177048
  74.4820981  25.6289907  91.5343543  73.3531104  24.6666748  91.2323384
  75.3347336  24.3497283  87.8787127  74.3842967  24.3499145  87.7651499
  75.6379822  23.6030018  87.3623161  71.2251653   8.5555965  98.1370488
  72.0883114   8.1992770  98.3473813  70.6517063   8.2169860  98.8245892
  91.0700030  30.1857822  88.9432889  91.7078440  30.0664569  88.2396229
  90.9520873  31.1338666  89.0020841  87.8789736  30.1385250  88.8794414
  87.5408247  30.0226314  87.9914949  88.7479504  29.7376415  88.8595420
  83.7376552  31.9920726  84.8691305  83.1741417  31.9010663  84.1007593
  83.6228947  31.1720631  85.3493797  88.3609519  31.2920101  94.8380619
  88.3498160  30.8972900  93.9661123  88.5230158  30.5586174  95.4314391
  81.2840984  33.4871918  87.7075525  82.0762275  33.1462742  87.2921825
  81.5237634  33.5966893  88.6277679  89.3176110  35.6591694  80.1805770
  88.6664090  36.2445774  79.7939784  90.1120473  36.1897889  80.2400807
  83.2431737  32.7480831  80.5792904  84.0162613  32.2009818  80.4405780
  83.5957136  33.6125080  80.7907365  85.0816780  34.0757213  93.7859803
  84.7906646  34.9802844  93.6706470  85.7173764  34.1173741  94.5003873
  86.0072987  31.4534062  90.3761163  86.6036559  31.2290084  89.6618126
  86.0647958  30.7118807  90.9786611  85.5798015  28.9073497  78.2111354
  85.8323536  28.3855018  77.4494817  84.6422574  28.7439642  78.3138038
  90.6241298  27.9109275  86.0186097  91.4104387  27.4928699  85.6676514
  90.8880002  28.8155368  86.1867746  90.7951375  33.3482126  80.7174754
  90.1597208  33.4216752  81.4295659  90.4648782  33.9375725  80.0393833
  96.0249725  27.8484509  86.9219076  96.7574897  27.2783725  87.1556905
  95.2689081  27.4606109  87.3625581  85.2994304  30.8101603  80.4135729
  85.1830562  30.1346506  81.0816813  85.4096564  30.3233977  79.5967882
  87.6425845  30.2711750  84.1182418  87.2784052  29.7442371  84.8295340
  88.4992961  29.8810219  83.9448904  93.5475146  21.5606083  91.3813684
  93.2158470  22.4301494  91.1574899  92.9520759  21.2442367  92.0607715
  87.2831332  25.3001650  79.1143767  87.4505734  26.1681886  79.4814238
  87.0928501  25.4628932  78.1905056  90.0406665  33.7618629  90.7809597
  89.7407388  34.6643668  90.6725404  89.6957725  33.4950812  91.6330750
  83.4919147  30.2132426  86.8146301  82.5669643  30.0808640  87.0223993
  83.7403560  30.9926645  87.3116244  93.4403809  26.2801169  88.4607034
  92.5320686  26.2116577  88.1665795  93.3891405  26.7573114  89.2888860
  87.2620553  27.7559307  80.0990434  87.1420178  28.2016358  80.9375914
  86.5673141  28.1044625  79.5403972  80.8527958  29.8565699  87.6490091
  80.9820339  30.1100178  88.5629502  80.1725409  30.4493407  87.3294746
  85.0227445  40.5262949  83.7480565  84.9451475  41.4770774  83.8269045
  84.4189089  40.1808822  84.4055491  87.5144675  27.6990814  96.4041932
  86.7378009  28.2584735  96.3944796  88.1535238  28.1847597  96.9256802
  95.3065455  24.4817607  90.2384908  94.6639836  24.7750140  89.5924703
  94.8020384  24.3670528  91.0438105  92.9605619  28.2280780  80.9270768
  93.8723475  28.4608167  80.7518465  92.4515266  28.8117825  80.3645846
  85.7691047  30.5076268  95.9659899  86.5105731  31.0461312  95.6894722
  85.0628032  31.1342557  96.1231450  91.2446387  32.6505408  94.5632060
  91.6529743  32.2087819  93.8186693  90.5223648  32.0758036  94.8166253
  87.5977457  27.5878015  91.9365617  88.4438652  28.0117429  92.0800266
  87.5376094  26.9311639  92.6304180  91.5675201  33.2106599  88.3184349
  90.9384064  33.3752313  87.6160417  91.1800863  33.6248208  89.0895313
  95.4464433  34.1461037  85.6728713  94.7615471  34.5259938  85.1225746
  95.5308283  34.7556363  86.4060661  90.7476902  25.2482383  93.5946791
  90.5037834  26.0024444  93.0581066  91.0236833  25.6267731  94.4294038
  92.7015365  31.7920996  92.2724056  92.9132260  32.4352756  91.5958437
  92.6545113  30.9583312  91.8045986  90.3041594  24.4038816  89.1760628
  89.4426073  24.7020070  89.4677366  90.3304028  24.6209215  88.2441661
  87.1203163  32.9481007  85.5834434  87.5841509  33.2268710  84.7939057
  86.8559961  32.0464452  85.4007525  84.0127244  32.4952489  88.5214197
  84.5828601  32.9239757  87.8831682  84.6035356  32.2135073  89.2198383
  86.0572049  29.0704159  82.3923999  86.7596093  29.5225203  82.8597926
  85.7252678  28.4287978  83.0203892  84.5052411  27.6615916  96.7675209
  83.8751071  28.3432197  97.0010605  84.3988499  27.5498998  95.8228347
  79.7997383  27.3287712  87.6941133  79.0096437  27.5845241  87.2181243
  80.2908631  28.1436050  87.7993173  93.8161193  34.6692951  90.4446414
  94.6378636  34.2673139  90.1629095  93.8123596  34.5661185  91.3962529
  81.7512129  27.6932291  84.6524610  80.9543292  27.8050986  85.1708105
  81.5237721  28.0318944  83.7865500  87.5817796  34.2176995  92.6007124
  87.6462229  34.6797402  93.4365296  86.8728720  33.5874359  92.7289434
  78.0835086  27.5818202  90.1256124  78.3343125  28.4665212  90.3913700
  78.6194635  27.4022804  89.3531215 101.9067186  31.0131700  86.7931385
 101.1530894  30.4439098  86.6375390 102.0414727  30.9794364  87.7402020
  87.2965814  35.8845102  82.4686104  87.1611489  36.7296638  82.8970952
  87.8375626  36.0864380  81.7052038  83.7833153  21.9636682  99.1300460
  83.3900099  21.4102880  99.8048104  84.5999294  22.2747260  99.5206977
  80.7495211  33.4020540  83.0414030  81.2619732  34.1963790  83.1919594
  81.4017924  32.7046830  82.9747631  82.5590096  36.5186296  85.1236783
  82.7356724  37.4404261  84.9357767  83.3546929  36.2044716  85.5531163
  86.7001114  23.3794561  96.7220716  87.4410828  23.9801714  96.6425179
  86.9319037  22.6372199  96.1638759  81.8442452  28.5650928  94.9998946
  81.7295968  27.6636185  95.3006045  80.9886970  28.8114625  94.6483762
  88.9234290  36.5068669  96.5986447  88.4798144  35.7205047  96.2807351
  89.5851504  36.6947819  95.9330337  83.6821411  38.0364470  91.1247125
  84.2328837  37.9081533  90.3524119  82.8432887  38.3359359  90.7742018
  91.0215528  36.7871468  94.6267848  91.0034004  37.6080349  94.1348117
  91.9435448  36.6625544  94.8517989  87.4788582  34.3015598  95.4691356
  88.0116919  33.5403886  95.2390664  86.9502664  34.0089250  96.2115511
  90.6458277  19.4075664  90.9984998  90.3022547  20.2977306  90.9224109
  91.0137240  19.2177322  90.1354583  78.7144128  31.7309194  83.8173600
  79.5519350  32.1406203  83.6007308  78.8922396  30.7908637  83.7873794
  90.6108560  29.3984275  79.5057433  90.0955184  30.1688880  79.7445820
  90.3385869  28.7249411  80.1290495  88.1955671  24.2433976  84.5642671
  87.3397268  23.8540826  84.3848310  88.6082623  24.3225937  83.7042457
  89.7254818  21.7780319  88.9634231  89.2219613  21.7410454  88.1502036
  90.0185425  22.6873062  89.0230888  85.9697704  21.8619049  87.9700413
  86.8350700  21.6661857  87.6106302  86.0375213  21.6329401  88.8969770
  95.5842834  32.1516630  81.4410607  94.8072277  31.8127789  80.9965769
  96.2634315  32.1569253  80.7665572  90.3994863  27.2711367  81.3317214
  90.0944999  27.5857516  82.1827357  91.3525305  27.3492787  81.3744547
  88.8441295  33.4301590  82.9810168  88.3162657  32.6954350  82.6683406
  88.3428798  34.2076267  82.7350137  93.8234141  31.6250611  88.0977215
  93.1657816  32.3149872  88.1857343  94.6274540  32.0147043  88.4411201
  83.5760023  24.0921257  85.3416780  84.1503775  23.8696438  84.6089973
  84.1631005  24.1609951  86.0945381  92.6339600  29.9794984  86.1481156
  93.1471482  30.6124975  86.6502866  93.2840824  29.3796179  85.7824516
  83.9029610  26.1225718  79.3612665  83.0666922  26.4600404  79.6821940
  83.7634380  25.9874698  78.4239802  85.8782690  20.9662506  84.0691849
  85.2247103  20.6511523  83.4448464  85.8363165  20.3438246  84.7951672
  86.9893895  31.2481801  75.9845141  86.0820957  31.0171054  76.1836290
  87.4864927  30.4519420  76.1719123  89.8961974  39.9579308  78.9041827
  89.2223673  40.2611005  79.5126785  90.2827796  40.7608388  78.5547284
  89.1120431  27.4544439  88.3939497  88.1942992  27.6759386  88.2361185
  89.5280574  27.5290750  87.5351204  89.8955479  28.8535855  83.5242177
  90.6427298  29.3657252  83.2149299  90.1647068  28.5319908  84.3846571
  88.1682129  31.3494396  80.5069131  87.2593348  31.0653428  80.6041601
  88.1977213  31.7693474  79.6472438  93.4001396  34.9600985  84.2760299
  92.9463723  34.1191895  84.3325489  92.7695363  35.5962383  84.6135079
  92.3434316  25.8892971  85.5060966  91.6057073  25.3770357  85.8371209
  92.5961089  25.4493353  84.6944243  91.8434335  36.7977482  85.2110117
  92.1357310  37.3582539  84.4922483  92.3532956  37.0906043  85.9663276
  92.4445943  18.6669223  86.1002736  92.7504820  17.8066587  85.8128651
  93.1698548  19.2586843  85.9001730  78.7370299  29.0699910  84.4884334
  78.5394699  28.4769270  83.7635400  78.1816963  28.7652120  85.2060272
  86.7167023  28.9623016  86.6078927  86.7715633  28.0096853  86.5321403
  85.9058225  29.1182455  87.0920225  87.8658217  32.8903139  77.8457210
  87.4277647  32.1738998  77.3862847  88.6068657  33.1179254  77.2842301
  84.6559383  27.5800076  84.3669306  83.8427248  27.8794246  84.7734498
  85.1518377  27.1855765  85.0843788  86.8067961  37.5757833  86.3003570
  86.7644139  37.8018679  85.3712102  87.7230659  37.3421207  86.4489371
  90.2533594  28.0441900  93.1984199  90.6082982  28.2713373  94.0578665
  90.9005726  28.3760277  92.5761455  95.9831331  31.1660336  83.9033528
  95.8449230  31.3561932  82.9754718  95.6267550  31.9279719  84.3601580
  84.1473457  25.1518431  89.9830541  84.7872837  25.0107191  89.2853504
  83.3150988  24.8652945  89.6069143  96.0100711  33.2336863  88.9144800
  96.4437218  33.1412152  89.7627854  96.7232292  33.2094364  88.2764816
  84.9233761  34.4520862  86.0965533  85.7174360  33.9571182  85.8948108
  84.2125454  33.9238725  85.7333239  89.7428606  36.8338957  90.4477901
  89.7965628  37.4029894  91.2155616  88.8743387  37.0040842  90.0831938
  81.2316525  28.5963944  82.1725286  80.3014113  28.5348399  82.3895248
  81.3273997  28.0739896  81.3761927  81.1502074  25.1218756  84.7603527
  81.4108891  26.0364090  84.6512688  81.9719246  24.6543199  84.9100140
  82.6226999  26.5356514  91.9302352  83.2950053  26.3273876  91.2815001
  81.7956786  26.3378600  91.4907584  96.8716261  33.2760564  91.4477685
  97.0652151  34.1806374  91.6936960  96.7716879  32.8167983  92.2816270
  88.5252571  23.1618454  93.9468013  87.8780486  23.8608404  93.8532489
  89.2953587  23.5954598  94.3144261  91.9331369  33.4267307  97.0218566
  91.7816876  33.1977858  96.1048650  91.9236049  34.3837908  97.0349911
  88.7016706  30.9999219  92.0064832  89.6308766  31.1510379  91.8333800
  88.2807736  31.0883240  91.1513479  87.5005037  35.0249884  89.7763370
  87.3616123  34.6568668  90.6489308  86.7119634  35.5397523  89.6047328
  88.0953189  40.1258980  81.1188907  88.2704945  39.6547023  81.9334529
  87.4085977  40.7524746  81.3470167  89.0510253  34.4031487  87.1652208
  88.7160085  34.3632256  88.0609858  88.5514198  33.7376202  86.6922618
  83.0254497  29.8099117  92.6904789  82.8874294  29.0779355  93.2916328
  83.9359420  29.7208017  92.4088977  91.9869444  31.7487521  77.4389268
  91.3698615  31.0234349  77.3422320  91.5185933  32.5096881  77.0956342
  85.6536797  29.5219076  92.1788469  86.3636416  28.8812268  92.1375087
  85.6106105  29.7731971  93.1014649  93.6423576  36.4586429  95.0995048
  93.5836122  35.7745649  94.4325631  94.0443094  37.2005419  94.6475674
  84.3665731  26.5084294  93.9984108  83.8303088  26.0575032  94.6505704
  83.7782440  26.6430203  93.2554572  82.6614275  43.2748343  87.8928767
  82.9010873  43.9066867  88.5707785  81.8183471  42.9236383  88.1794126
  83.7767990  25.9672945  76.5610572  82.8997456  25.8461746  76.1972818
  84.2525743  25.1759023  76.3089460  93.6440983  34.4226013  93.3309028
  92.7567762  34.0851935  93.4535426  94.2139534  33.6909044  93.5677793
  75.2970130  30.7550105  86.6552079  75.9841170  30.4411835  86.0673094
  75.1418259  31.6591470  86.3819330  80.1004852  25.6440301  91.0837103
  80.0163041  25.0365971  90.3487513  79.2787559  26.1349320  91.0846599
  87.1742137  39.0827465  90.2970271  87.1012308  39.8882437  90.8089575
  86.7319530  39.2819431  89.4718292  86.9631916  38.3199236  83.8073092
  86.1799438  38.8620916  83.9011317  87.6624661  38.8373215  84.2067333
  90.2728566  24.1293865  86.4507298  90.7697266  23.3763827  86.1308368
  89.5015548  24.1658182  85.8850507  98.1258324  29.8334231  88.0925589
  98.1148200  30.7158946  87.7219522  97.2575703  29.4805781  87.8980126
  89.6340820  38.9814300  92.4528429  90.3468792  39.6161764  92.3804331
  89.1430849  39.0778166  91.6368431  91.3558347  32.8865552  84.0245721
  90.4214626  33.0067015  83.8550425  91.5335015  31.9838019  83.7605731
  86.8563535  26.2711248  86.1778982  86.4861323  25.7182288  86.8659888
  87.3522627  25.6669381  85.6253982  94.7430898  28.7282871  84.5595755
  95.2091350  29.5610863  84.4856058  95.1938399  28.2627853  85.2641014
  84.6852734  36.7308743  93.2734000  85.3862193  37.3645226  93.4263394
  84.2147849  37.0723475  92.5129639  92.8107129  35.0726693  81.5581907
  93.0866973  34.9583287  82.4675781  91.9411628  34.6744178  81.5194080
  92.7147561  21.0963458  88.5986657  91.8010641  21.3267685  88.7668863
  93.1440663  21.1801903  89.4500689  92.4854020  29.2853350  91.0986551
  91.8325470  29.5329258  90.4439003  92.8634399  28.4717489  90.7649028
  89.4461193  39.3213044  85.2014721  89.6283588  38.5034700  85.6642473
  90.2694179  39.5380736  84.7639611  89.7803359  38.2481229  82.4629769
  90.3091125  37.7373683  81.8499931  90.0431578  37.9323759  83.3275302
  88.5341593  30.0273161  97.5852588  87.8582230  29.9267291  98.2554963
  89.3569226  29.8712375  98.0488585  80.2820452  36.2645098  90.2065103
  80.8673888  35.5188786  90.3393007  80.0845290  36.5749055  91.0901767
  83.1359107  39.2996345  85.2227545  82.4669482  39.7842473  84.7391585
  82.9971977  39.5465566  86.1370924  74.8738106  28.8350698  88.9269546
  74.9122206  28.3014289  89.7206664  74.3678399  28.3085904  88.3080523
  87.2764375  41.3340089  91.8210204  87.8282683  41.4971710  92.5859289
  87.6170569  41.9244527  91.1490228  82.2528869  23.6815239  92.4232088
  82.3170195  24.5430070  92.0109486  82.1895989  23.0689240  91.6904447
  81.7281141  25.7538371  96.0705123  82.3553180  25.3715449  96.6842647
  80.8709060  25.5352573  96.4360815  92.1275250  36.1601346  97.6758858
  92.6715154  36.7731305  97.1813813  91.5462095  36.7180925  98.1925871
  78.5046684  27.5614800  82.0023477  78.8000125  26.6525479  81.9490531
  77.6034720  27.5402540  81.6804480  90.4132763  39.2822064  88.8073886
  90.2883902  38.4811804  88.2984831  91.0711854  39.7768258  88.3187856
  82.0340931  25.6370797  87.9851026  81.3127517  26.2506765  87.8458499
  82.8234187  26.1728562  87.9067672  92.4767671  37.0831085  90.4353436
  91.5298007  36.9636436  90.3631763  92.8250444  36.1953583  90.5179697
  84.8367244  22.9725223  94.2591678  85.3601646  23.2187520  95.0217987
  84.6179578  23.8045258  93.8394815  80.2334526  25.2428898  82.1262803
  79.9047232  24.3626277  81.9437909  80.5873896  25.1876567  83.0139192
  89.4814104  36.8783801  86.6357788  89.3339067  35.9500508  86.8165358
  90.3067598  36.9003891  86.1514863  83.3476349  25.5301868  82.4938280
  83.6872421  26.0587789  81.7716889  83.7948469  25.8682274  83.2696847
  93.0848226  37.7012359  87.7222661  94.0094774  37.4955221  87.5847112
  92.9163530  37.4528761  88.6312002  86.0419790  23.9138919  91.9441348
  85.7016610  23.1146732  92.3462028  85.3358796  24.2140629  91.3718182
  86.6936261  20.9988231  90.3968671  87.5162331  20.5248709  90.2747562
  86.9374325  21.7778715  90.8967358  85.3344496  24.0276489  80.6931573
  86.0552858  24.4057742  80.1895290  84.7109800  24.7465366  80.7966551
  89.4775619  24.7321638  81.6289905  89.6939233  25.6146276  81.3278734
  88.9969686  24.3407852  80.8995547  84.2174840  27.6907352  88.2060650
  84.0719421  28.0047655  89.0984931  83.7400044  28.3092252  87.6531549
  86.0771223  24.6809900  88.2541540  86.0632792  23.7850993  87.9173837
  86.7943651  24.6880563  88.8879826  87.9297354  25.1147240  90.2994667
  87.6715132  26.0364310  90.2978997  87.3982394  24.7177674  90.9895131
  92.8743542  38.2198027  83.0784752  93.0480420  37.6544449  82.3258605
  93.3672434  39.0198922  82.8964242  78.6920502  30.2312696  91.1448311
  78.1473970  31.0072504  91.2768585  79.5699852  30.5783501  90.9867433
  85.4808119  23.5624280  83.5229110  85.6024030  22.6340926  83.7219997
  85.1910161  23.5762966  82.6107425  88.3499309  21.2479190  86.6595829
  88.3721006  21.3118523  85.7047809  88.7667368  20.4083699  86.8536336
  98.7282934  30.9834450  84.6975052  99.1714080  30.2341775  84.2994175
  97.8509444  30.9744586  84.3148784  93.8618715  37.5364791  80.1781651
  94.5569620  38.1571484  80.3968965  94.2041865  36.6860143  80.4534028
  79.4786524  29.3582592  94.0378468  78.7368260  29.5065228  94.6243098
  79.1579268  29.6190858  93.1745217  95.7610138  34.9864497  81.7068981
  96.2861462  35.3251770  80.9818301  95.6732491  34.0511512  81.5232116
  87.4230187  38.8998571  93.8358858  87.7317313  38.6547717  94.7081558
  88.2205669  39.1045209  93.3477728  87.4450799  41.0536480  86.0664235
  87.0055789  40.5612859  86.7597091  88.1958916  40.5109448  85.8256310
  79.9243138  37.2448021  86.0688863  80.7501158  36.9451793  85.6887506
  79.5737190  36.4755643  86.5178651  84.8924671  36.5974489  88.1386536
  84.2704680  35.9345194  87.8388764  85.5629538  36.6235621  87.4560184
  78.1251743  35.1634347  87.0277796  77.2883651  34.7356522  86.8461797
  78.0975388  35.3566791  87.9648587  84.9649198  25.0756277  97.7319042
  85.0137354  25.9518400  97.3496812  85.5071713  24.5333670  97.1590685
  95.4504044  35.6197401  97.0120179  94.6599588  35.6021539  96.4724679
  95.2137399  36.1585694  97.7669216  95.5701919  32.4689867  94.3252908
  95.6199924  32.3039874  95.2668431  95.4615843  31.6017126  93.9350789
  84.4538178  35.1478413  81.6144997  84.6026298  35.8313877  80.9611670
  85.2604621  35.1283503  82.1294453  92.8605682  28.4520795  95.6412215
  93.7615544  28.3127260  95.3496212  92.9353656  28.6175250  96.5810392
  87.1948487  25.8287650  94.4865401  86.3251796  26.1221216  94.2147989
  87.4307967  26.4128095  95.2072665  97.0720116  34.8886808  94.5694929
  96.7804924  35.2516789  95.4058390  96.4592247  34.1753817  94.3908261
  98.2715798  32.4539688  87.0897500  99.1062690  32.8929492  87.2535060
  98.4074927  31.9778341  86.2705745  95.3207304  30.0119423  93.0374987
  95.7961426  30.2047069  92.2293839  94.3972870  30.0678609  92.7918371
  82.2090811  31.1743590  82.6206066  81.9636853  30.2705920  82.8186276
  82.3786725  31.1760741  81.6785544  89.8987521  22.0467267  92.0030821
  90.4169465  22.7828294  91.6777310  89.5442654  22.3531260  92.8377580
  81.4786458  26.9071948  80.1192227  80.7855703  26.9816303  79.4632263
  81.2338210  26.1432291  80.6413744  90.1500115  18.4667549  87.5231718
  90.4301869  17.7990738  88.1492144  90.9350722  18.6596645  87.0106382
  87.9533583  37.6426543  79.0856744  87.3807550  38.2616730  78.6327216
  88.5266377  38.1925905  79.6196666  94.0208973  26.8885183  91.2703293
  94.9726396  26.9883281  91.2915517  93.8512424  26.0963452  91.7801377
  92.0423353  23.9740766  91.4562694  91.4473285  24.2545779  90.7609183
  91.7573049  24.4634667  92.2279435  91.1730843  37.9263693  80.2165326
  92.1061516  37.8609255  80.4198202  91.0854056  38.7619960  79.7579859
  93.8018860  37.2429564  77.1769274  93.7232491  36.9089427  78.0705032
  94.6228527  37.7351331  77.1760746  96.4997051  30.1091303  90.3845593
  96.4673371  29.1707304  90.5705276  97.1097675  30.1875340  89.6511418
  88.3380382  28.9787356  76.4272797  89.2839487  28.8493564  76.4961215
  87.9594627  28.2402018  76.9042225  96.6491540  26.9002346  90.4303876
  96.1330588  26.1160803  90.2433805  97.5331488  26.5721063  90.5950395
  94.3102266  20.6443362  86.3899689  94.1127088  20.3358450  87.2743020
  94.9201972  21.3705001  86.5197618 102.3173601  31.1707310  89.5251629
 103.0476989  30.9092598  90.0859333 101.7080546  30.4336032  89.5653697
 100.3988898  29.3115172  90.1226081  99.6722062  29.1771137  89.5142572
  99.9836185  29.6192001  90.9282799  88.2219074  33.0305102  97.8873454
  89.1422084  33.2083701  98.0813500  88.1868657  32.0861147  97.7353153
  86.5223299  26.9037332  76.3627682  85.6154754  26.6070445  76.4390396
  86.7999280  26.6067150  75.4961968  77.4401239  28.2243696  86.8126728
  77.1204024  27.3709004  86.5201102  76.8934668  28.4392274  87.5684696
  81.2181147  30.9406137  90.5296235  81.4367157  31.8723244  90.5484269
  81.6306921  30.5814111  91.3151039  88.1385365  21.4474222  82.5171923
  87.3286093  21.1021307  82.8927169  88.8269782  21.1381766  83.1059535
  90.0675913  20.5252269  84.1396220  90.6206952  20.9447722  84.7986243
  90.3045999  19.5988017  84.1819176  86.0909012  26.5139342  99.9198984
  85.9905739  27.4633699  99.8511075  85.8730554  26.1857581  99.0475054
  85.2922084  23.7624267  76.5039661  86.1541248  24.0879166  76.7635478
  85.4772428  22.9755763  75.9912727  77.3089499  31.8446607  88.7819850
  76.6152971  31.4300560  88.2689804  78.0562490  31.8867144  88.1853269
  93.4454720  22.6352794  83.6474884  92.8653389  23.2937598  83.2652937
  93.1790653  21.8130138  83.2362302  91.8958287  22.0357852  85.8496204
  92.3958065  22.1474386  85.0410523  92.5393894  21.7318904  86.4897013
  85.9540282  29.9436481  98.7364045  85.4707364  30.7436841  98.9427934
  86.0401221  29.9544426  97.7831489  79.2226242  31.7764861  86.6585865
  79.1996930  31.8752548  85.7067748  79.5326878  32.6230012  86.9803031
  81.8813620  33.8341016  90.7732479  82.8356873  33.8024958  90.7062411
  81.6826143  33.3731640  91.5882705  82.4713002  32.4042132  93.3403277
  83.2905891  32.8986211  93.3638114  82.7449810  31.4874100  93.3120844
  92.2279598  24.7952884  82.7031232  91.3405453  25.0802535  82.4851427
  92.6433587  24.6346648  81.8558509  95.5794134  24.8199405  86.4185572
  96.3554524  25.3095858  86.6910188  94.8542268  25.2457459  86.8757441
  98.0166693  25.5327024  87.4759512  98.6111184  25.2922760  86.7652820
  98.0893277  24.8134155  88.1033049  80.2363849  39.3760635  87.7902677
  80.1018317  38.6161036  87.2240675  79.8195911  40.1001535  87.3231466
  91.3722812  34.5597559  76.7979252  92.0758662  34.7647561  77.4136908
  90.6485460  35.1274321  77.0628336  92.2020622  30.3107420  82.9181523
  92.1455823  30.7675972  82.0789155  92.7548964  29.5498105  82.7404365
  96.0125428  26.0997152  83.7431642  95.7562362  25.6993788  84.5739850
  95.3878296  26.8140946  83.6181781 100.3237766  28.8393225  86.2502933
  99.7637324  28.9086415  87.0234495  99.7181269  28.6634210  85.5302430
  83.3932974  40.2729952  88.0021120  83.2765359  41.2175385  87.8999810
  82.5725421  39.9703514  88.3906919  93.2809509  34.9980088  78.8477712
  94.1155113  34.5661287  78.6655187  93.1193852  34.8262102  79.7754607
  92.9355401  31.5012201  80.2134052  92.8804205  31.3356473  79.2722496
  92.3101456  32.2088234  80.3696241  77.7247916  26.7380266  94.0395474
  78.3706780  26.2279220  94.5282699  77.5165067  27.4748947  94.6138899
  90.2501308  33.8061113  99.5387614  91.1192468  33.9801766  99.1774249
  89.7708060  34.6255530  99.4163344  86.2451527  21.0020310  79.7919370
  86.2330197  21.9462150  79.9487641  87.1374949  20.8190456  79.4978831
  84.4187489  40.9258214  91.2177048  85.3214735  40.9581825  91.5343543
  84.1924859  39.9958665  91.2323384  86.1741091  39.6789201  87.8787127
  85.2236722  39.6791062  87.7651499  86.4773577  38.9321935  87.3623161
  90.0603646  17.5963087  84.0465307  89.2936042  17.0421574  84.1921989
  90.4714351  17.6684956  84.9079459  82.0645407  23.8847883  98.1370488
  82.9276869  23.5284688  98.3473813  81.4910818  23.5461778  98.8245892
 101.9093784  45.5149739  88.9432889 102.5472194  45.3956487  88.2396229
 101.7914627  46.4630583  89.0020841  98.7183490  45.4677167  88.8794414
  98.3802002  45.3518232  87.9914949  99.5873259  45.0668332  88.8595420
  94.5770306  47.3212644  84.8691305  94.0135171  47.2302581  84.1007593
  94.4622701  46.5012548  85.3493797  99.2003273  46.6212019  94.8380619
  99.1891914  46.2264817  93.9661123  99.3623913  45.8878092  95.4314391
  92.1234738  48.8163835  87.7075525  92.9156030  48.4754660  87.2921825
  92.3631388  48.9258810  88.6277679 100.1569865  50.9883611  80.1805770
  99.5057845  51.5737692  79.7939784 100.9514228  51.5189806  80.2400807
  94.0825492  48.0772749  80.5792904  94.8556368  47.5301736  80.4405780
  94.4350891  48.9416998  80.7907365  95.9210535  49.4049131  93.7859803
  95.6300401  50.3094762  93.6706470  96.5567519  49.4465658  94.5003873
  96.8466741  46.7825979  90.3761163  97.4430314  46.5582002  89.6618126
  96.9041713  46.0410725  90.9786611  96.4191770  44.2365415  78.2111354
  96.6717290  43.7146936  77.4494817  95.4816329  44.0731560  78.3138038
 101.4635053  43.2401193  86.0186097 102.2498142  42.8220616  85.6676514
 101.7273757  44.1447285  86.1867746 101.6345130  48.6774043  80.7174754
 100.9990963  48.7508670  81.4295659 101.3042536  49.2667642  80.0393833
 106.8643480  43.1776426  86.9219076 107.5968652  42.6075643  87.1556905
 106.1082835  42.7898027  87.3625581  96.1388059  46.1393521  80.4135729
  96.0224317  45.4638424  81.0816813  96.2490318  45.6525895  79.5967882
  98.4819599  45.6003668  84.1182418  98.1177807  45.0734289  84.8295340
  99.3386715  45.2102137  83.9448904 104.3868900  36.8898000  91.3813684
 104.0552225  37.7593411  91.1574899 103.7914513  36.5734284  92.0607715
  98.1225086  40.6293567  79.1143767  98.2899489  41.4973804  79.4814238
  97.9322256  40.7920849  78.1905056 100.8800420  49.0910546  90.7809597
 100.5801143  49.9935585  90.6725404 100.5351479  48.8242730  91.6330750
  94.3312901  45.5424343  86.8146301  93.4063398  45.4100557  87.0223993
  94.5797314  46.3218562  87.3116244 104.2797563  41.6093087  88.4607034
 103.3714441  41.5408495  88.1665795 104.2285159  42.0865031  89.2888860
  98.1014307  43.0851225  80.0990434  97.9813933  43.5308276  80.9375914
  97.4066896  43.4336543  79.5403972  91.6921712  45.1857617  87.6490091
  91.8214093  45.4392096  88.5629502  91.0119163  45.7785325  87.3294746
  95.8621199  55.8554867  83.7480565  95.7845229  56.8062692  83.8269045
  95.2582843  55.5100739  84.4055491  98.3538429  43.0282732  96.4041932
  97.5771763  43.5876652  96.3944796  98.9928992  43.5139515  96.9256802
 106.1459210  39.8109525  90.2384908 105.5033590  40.1042058  89.5924703
 105.6414138  39.6962445  91.0438105 103.7999373  43.5572698  80.9270768
 104.7117230  43.7900085  80.7518465 103.2909021  44.1409742  80.3645846
  96.6084801  45.8368186  95.9659899  97.3499486  46.3753229  95.6894722
  95.9021787  46.4634474  96.1231450 102.0840141  47.9797326  94.5632060
 102.4923497  47.5379737  93.8186693 101.3617403  47.4049953  94.8166253
  98.4371211  42.9169933  91.9365617  99.2832406  43.3409346  92.0800266
  98.3769849  42.2603557  92.6304180 102.4068956  48.5398517  88.3184349
 101.7777818  48.7044231  87.6160417 102.0194618  48.9540126  89.0895313
 106.2858188  49.4752954  85.6728713 105.6009226  49.8551856  85.1225746
 106.3702037  50.0848281  86.4060661 101.5870657  40.5774301  93.5946791
 101.3431588  41.3316362  93.0581066 101.8630587  40.9559649  94.4294038
 103.5409119  47.1212913  92.2724056 103.7526015  47.7644673  91.5958437
 103.4938868  46.2875230  91.8045986 101.1435348  39.7330734  89.1760628
 100.2819827  40.0311988  89.4677366 101.1697783  39.9501133  88.2441661
  97.9596918  48.2772925  85.5834434  98.4235263  48.5560628  84.7939057
  97.6953716  47.3756369  85.4007525  94.8520999  47.8244406  88.5214197
  95.4222356  48.2531675  87.8831682  95.4429111  47.5426991  89.2198383
  96.8965804  44.3996077  82.3923999  97.5989847  44.8517121  82.8597926
  96.5646432  43.7579896  83.0203892  95.3446165  42.9907834  96.7675209
  94.7144826  43.6724115  97.0010605  95.2382253  42.8790915  95.8228347
  90.6391138  42.6579630  87.6941133  89.8490192  42.9137158  87.2181243
  91.1302385  43.4727968  87.7993173 104.6554947  49.9984869  90.4446414
 105.4772391  49.5965056  90.1629095 104.6517350  49.8953103  91.3962529
  92.5905883  43.0224209  84.6524610  91.7937046  43.1342903  85.1708105
  92.3631475  43.3610861  83.7865500  98.4211551  49.5468912  92.6007124
  98.4855983  50.0089319  93.4365296  97.7122475  48.9166277  92.7289434
  88.9228841  42.9110120  90.1256124  89.1736879  43.7957130  90.3913700
  89.4588389  42.7314722  89.3531215 112.7460940  46.3423617  86.7931385
 111.9924649  45.7731015  86.6375390 112.8808481  46.3086282  87.7402020
  98.1359568  51.2137020  82.4686104  98.0005243  52.0588555  82.8970952
  98.6769381  51.4156297  81.7052038  94.6226908  37.2928600  99.1300460
  94.2293854  36.7394798  99.8048104  95.4393048  37.6039178  99.5206977
  91.5888966  48.7312458  83.0414030  92.1013486  49.5255708  83.1919594
  92.2411679  48.0338748  82.9747631  93.3983850  51.8478214  85.1236783
  93.5750479  52.7696179  84.9357767  94.1940684  51.5336633  85.5531163
  97.5394869  38.7086479  96.7220716  98.2804582  39.3093632  96.6425179
  97.7712792  37.9664116  96.1638759  92.6836207  43.8942846  94.9998946
  92.5689722  42.9928103  95.3006045  91.8280725  44.1406543  94.6483762
  99.7628045  51.8360586  96.5986447  99.3191899  51.0496965  96.2807351
 100.4245258  52.0239737  95.9330337  94.5215166  53.3656388  91.1247125
  95.0722591  53.2373451  90.3524119  93.6826642  53.6651277  90.7742018
 101.8609283  52.1163386  94.6267848 101.8427758  52.9372267  94.1348117
 102.7829203  51.9917461  94.8517989  98.3182337  49.6307516  95.4691356
  98.8510674  48.8695804  95.2390664  97.7896418  49.3381167  96.2115511
 101.4852032  34.7367582  90.9984998 101.1416301  35.6269223  90.9224109
 101.8530995  34.5469239  90.1354583  89.5537883  47.0601112  83.8173600
  90.3913105  47.4698120  83.6007308  89.7316150  46.1200554  83.7873794
 101.4502315  44.7276193  79.5057433 100.9348938  45.4980797  79.7445820
 101.1779623  44.0541329  80.1290495  99.0349426  39.5725893  84.5642671
  98.1791022  39.1832744  84.3848310  99.4476377  39.6517854  83.7042457
 100.5648572  37.1072237  88.9634231 100.0613368  37.0702372  88.1502036
 100.8579179  38.0164979  89.0230888  96.8091458  37.1910966  87.9700413
  97.6744455  36.9953775  87.6106302  96.8768967  36.9621318  88.8969770
 106.4236589  47.4808547  81.4410607 105.6466032  47.1419707  80.9965769
 107.1028070  47.4861170  80.7665572 101.2388618  42.6003285  81.3317214
 100.9338753  42.9149434  82.1827357 102.1919060  42.6784705  81.3744547
  99.6835050  48.7593508  82.9810168  99.1556411  48.0246268  82.6683406
  99.1822552  49.5368184  82.7350137 104.6627896  46.9542529  88.0977215
 104.0051570  47.6441790  88.1857343 105.4668295  47.3438961  88.4411201
  94.4153777  39.4213174  85.3416780  94.9897529  39.1988356  84.6089973
  95.0024760  39.4901869  86.0945381 103.4733354  45.3086901  86.1481156
 103.9865236  45.9416893  86.6502866 104.1234578  44.7088097  85.7824516
  94.7423364  41.4517635  79.3612665  93.9060677  41.7892322  79.6821940
  94.6028134  41.3166615  78.4239802  96.7176445  36.2954423  84.0691849
  96.0640857  35.9803440  83.4448464  96.6756919  35.6730164  84.7951672
  97.8287650  46.5773718  75.9845141  96.9214712  46.3462972  76.1836290
  98.3258682  45.7811338  76.1719123 100.7355729  55.2871226  78.9041827
 100.0617427  55.5902922  79.5126785 101.1221551  56.0900306  78.5547284
  99.9514185  42.7836357  88.3939497  99.0336747  43.0051304  88.2361185
 100.3674329  42.8582667  87.5351204 100.7349233  44.1827772  83.5242177
 101.4821052  44.6949170  83.2149299 101.0040823  43.8611825  84.3846571
  99.0075883  46.6786313  80.5069131  98.0987103  46.3945346  80.6041601
  99.0370967  47.0985392  79.6472438 104.2395151  50.2892903  84.2760299
 103.7857478  49.4483813  84.3325489 103.6089117  50.9254301  84.6135079
 103.1828070  41.2184889  85.5060966 102.4450827  40.7062275  85.8371209
 103.4354844  40.7785270  84.6944243 102.6828090  52.1269399  85.2110117
 102.9751064  52.6874457  84.4922483 103.1926710  52.4197960  85.9663276
 103.2839698  33.9961141  86.1002736 103.5898574  33.1358504  85.8128651
 104.0092302  34.5878761  85.9001730  89.5764054  44.3991827  84.4884334
  89.3788453  43.8061188  83.7635400  89.0210718  44.0944038  85.2060272
  97.5560777  44.2914934  86.6078927  97.6109387  43.3388770  86.5321403
  96.7451979  44.4474373  87.0920225  98.7051971  48.2195057  77.8457210
  98.2671401  47.5030916  77.3862847  99.4462412  48.4471172  77.2842301
  95.4953137  42.9091994  84.3669306  94.6821003  43.2086164  84.7734498
  95.9912131  42.5147682  85.0843788  97.6461715  52.9049750  86.3003570
  97.6037894  53.1310597  85.3712102  98.5624414  52.6713125  86.4489371
 101.0927349  43.3733818  93.1984199 101.4476737  43.6005291  94.0578665
 101.7399480  43.7052195  92.5761455 106.8225086  46.4952254  83.9033528
 106.6842984  46.6853850  82.9754718 106.4661305  47.2571637  84.3601580
  94.9867212  40.4810349  89.9830541  95.6266591  40.3399108  89.2853504
  94.1544743  40.1944862  89.6069143 106.8494465  48.5628781  88.9144800
 107.2830972  48.4704070  89.7627854 107.5626046  48.5386281  88.2764816
  95.7627516  49.7812780  86.0965533  96.5568114  49.2863100  85.8948108
  95.0519208  49.2530643  85.7333239 100.5822360  52.1630875  90.4477901
 100.6359383  52.7321811  91.2155616  99.7137142  52.3332760  90.0831938
  92.0710279  43.9255861  82.1725286  91.1407867  43.8640317  82.3895248
  92.1667751  43.4031814  81.3761927  91.9895828  40.4510674  84.7603527
  92.2502646  41.3656007  84.6512688  92.8113001  39.9835117  84.9100140
  93.4620754  41.8648431  91.9302352  94.1343807  41.6565793  91.2815001
  92.6350540  41.6670517  91.4907584 107.7110015  48.6052482  91.4477685
 107.9045905  49.5098292  91.6936960 107.6110633  48.1459901  92.2816270
  99.3646326  38.4910372  93.9468013  98.7174241  39.1900322  93.8532489
 100.1347341  38.9246516  94.3144261 102.7725124  48.7559224  97.0218566
 102.6210630  48.5269776  96.1048650 102.7629803  49.7129826  97.0349911
  99.5410460  46.3291137  92.0064832 100.4702520  46.4802297  91.8333800
  99.1201490  46.4175158  91.1513479  98.3398792  50.3541801  89.7763370
  98.2009878  49.9860586  90.6489308  97.5513388  50.8689441  89.6047328
  98.9346944  55.4550898  81.1188907  99.1098700  54.9838941  81.9334529
  98.2479732  56.0816664  81.3470167  99.8904007  49.7323404  87.1652208
  99.5553840  49.6924174  88.0609858  99.3907953  49.0668120  86.6922618
  93.8648251  45.1391034  92.6904789  93.7268049  44.4071273  93.2916328
  94.7753174  45.0499934  92.4088977 102.8263199  47.0779439  77.4389268
 102.2092369  46.3526267  77.3422320 102.3579687  47.8388799  77.0956342
  96.4930552  44.8510994  92.1788469  97.2030170  44.2104186  92.1375087
  96.4499860  45.1023888  93.1014649 104.4817330  51.7878347  95.0995048
 104.4229876  51.1037567  94.4325631 104.8836849  52.5297337  94.6475674
  95.2059486  41.8376211  93.9984108  94.6696843  41.3866950  94.6505704
  94.6176194  41.9722120  93.2554572  93.5008029  58.6040261  87.8928767
  93.7404627  59.2358785  88.5707785  92.6577226  58.2528301  88.1794126
  94.6161745  41.2964863  76.5610572  93.7391211  41.1753664  76.1972818
  95.0919498  40.5050941  76.3089460 104.4834738  49.7517931  93.3309028
 103.5961516  49.4143853  93.4535426 105.0533289  49.0200962  93.5677793
  86.1363885  46.0842023  86.6552079  86.8234925  45.7703753  86.0673094
  85.9812013  46.9883387  86.3819330  90.9398607  40.9732219  91.0837103
  90.8556796  40.3657889  90.3487513  90.1181313  41.4641237  91.0846599
  98.0135891  54.4119383  90.2970271  97.9406062  55.2174355  90.8089575
  97.5713284  54.6111349  89.4718292  97.8025671  53.6491153  83.8073092
  97.0193193  54.1912833  83.9011317  98.5018416  54.1665133  84.2067333
 101.1122321  39.4585783  86.4507298 101.6091020  38.7055745  86.1308368
 100.3409302  39.4950099  85.8850507 108.9652078  45.1626148  88.0925589
 108.9541954  46.0450864  87.7219522 108.0969458  44.8097699  87.8980126
 100.4734575  54.3106217  92.4528429 101.1862547  54.9453682  92.3804331
  99.9824603  54.4070083  91.6368431 102.1952101  48.2157470  84.0245721
 101.2608380  48.3358932  83.8550425 102.3728770  47.3129937  83.7605731
  97.6957289  41.6003166  86.1778982  97.3255077  41.0474206  86.8659888
  98.1916382  40.9961299  85.6253982 105.5824653  44.0574789  84.5595755
 106.0485105  44.8902781  84.4856058 106.0332153  43.5919771  85.2641014
  95.5246488  52.0600661  93.2734000  96.2255948  52.6937144  93.4263394
  95.0541603  52.4015392  92.5129639 103.6500884  50.4018610  81.5581907
 103.9260728  50.2875205  82.4675781 102.7805383  50.0036095  81.5194080
 103.5541316  36.4255376  88.5986657 102.6404395  36.6559603  88.7668863
 103.9834417  36.5093820  89.4500689 103.3247774  44.6145268  91.0986551
 102.6719224  44.8621176  90.4439003 103.7028154  43.8009406  90.7649028
 100.2854948  54.6504961  85.2014721 100.4677342  53.8326617  85.6642473
 101.1087934  54.8672654  84.7639611 100.6197113  53.5773146  82.4629769
 101.1484880  53.0665601  81.8499931 100.8825333  53.2615677  83.3275302
  99.3735347  45.3565079  97.5852588  98.6975984  45.2559209  98.2554963
 100.1962981  45.2004293  98.0488585  91.1214206  51.5937016  90.2065103
  91.7067643  50.8480704  90.3393007  90.9239045  51.9040972  91.0901767
  93.9752861  54.6288263  85.2227545  93.3063237  55.1134391  84.7391585
  93.8365731  54.8757484  86.1370924  85.7131861  44.1642616  88.9269546
  85.7515960  43.6306207  89.7206664  85.2072154  43.6377821  88.3080523
  98.1158130  56.6632007  91.8210204  98.6676438  56.8263628  92.5859289
  98.4564323  57.2536444  91.1490228  93.0922623  39.0107156  92.4232088
  93.1563950  39.8721987  92.0109486  93.0289743  38.3981158  91.6904447
  92.5674896  41.0830289  96.0705123  93.1946934  40.7007366  96.6842647
  91.7102815  40.8644491  96.4360815 102.9669004  51.4893264  97.6758858
 103.5108908  52.1023222  97.1813813 102.3855849  52.0472843  98.1925871
  89.3440438  42.8906718  82.0023477  89.6393880  41.9817396  81.9490531
  88.4428474  42.8694458  81.6804480 101.2526517  54.6113982  88.8073886
 101.1277657  53.8103722  88.2984831 101.9105608  55.1060176  88.3187856
  92.8734685  40.9662715  87.9851026  92.1521271  41.5798682  87.8458499
  93.6627941  41.5020479  87.9067672 103.3161426  52.4123002  90.4353436
 102.3691761  52.2928353  90.3631763 103.6644199  51.5245500  90.5179697
  95.6760999  38.3017141  94.2591678  96.1995401  38.5479438  95.0217987
  95.4573332  39.1337176  93.8394815  91.0728280  40.5720816  82.1262803
  90.7440986  39.6918195  81.9437909  91.4267651  40.5168484  83.0139192
 100.3207859  52.2075718  86.6357788 100.1732821  51.2792426  86.8165358
 101.1461352  52.2295809  86.1514863  94.1870103  40.8593786  82.4938280
  94.5266176  41.3879707  81.7716889  94.6342224  41.1974192  83.2696847
 103.9241981  53.0304277  87.7222661 104.8488528  52.8247139  87.5847112
 103.7557284  52.7820678  88.6312002  96.8813544  39.2430836  91.9441348
  96.5410364  38.4438649  92.3462028  96.1752550  39.5432547  91.3718182
  97.5330016  36.3280149  90.3968671  98.3556085  35.8540627  90.2747562
  97.7768079  37.1070632  90.8967358  96.1738250  39.3568407  80.6931573
  96.8946613  39.7349660  80.1895290  95.5503554  40.0757284  80.7966551
 100.3169373  40.0613556  81.6289905 100.5332988  40.9438194  81.3278734
  99.8363440  39.6699770  80.8995547  95.0568595  43.0199269  88.2060650
  94.9113175  43.3339572  89.0984931  94.5793798  43.6384170  87.6531549
  96.9164977  40.0101817  88.2541540  96.9026546  39.1142911  87.9173837
  97.6337406  40.0172481  88.8879826  98.7691108  40.4439158  90.2994667
  98.5108886  41.3656228  90.2978997  98.2376149  40.0469592  90.9895131
 103.7137297  53.5489945  83.0784752 103.8874174  52.9836367  82.3258605
 104.2066188  54.3490840  82.8964242  89.5314257  45.5604614  91.1448311
  88.9867725  46.3364422  91.2768585  90.4093607  45.9075418  90.9867433
  96.3201873  38.8916198  83.5229110  96.4417785  37.9632844  83.7219997
  96.0303916  38.9054884  82.6107425  99.1893064  36.5771108  86.6595829
  99.2114761  36.6410441  85.7047809  99.6061123  35.7375617  86.8536336
 109.5676688  46.3126368  84.6975052 110.0107834  45.5633693  84.2994175
 108.6903198  46.3036504  84.3148784 104.7012469  52.8656709  80.1781651
 105.3963374  53.4863402  80.3968965 105.0435620  52.0152060  80.4534028
  90.3180279  44.6874510  94.0378468  89.5762015  44.8357145  94.6243098
  89.9973023  44.9482776  93.1745217 106.6003893  50.3156415  81.7068981
 107.1255217  50.6543687  80.9818301 106.5126245  49.3803430  81.5232116
  98.2623941  54.2290488  93.8358858  98.5711068  53.9839635  94.7081558
  99.0599423  54.4337127  93.3477728  98.2844553  56.3828398  86.0664235
  97.8449544  55.8904777  86.7597091  99.0352670  55.8401366  85.8256310
  90.7636892  52.5739939  86.0688863  91.5894912  52.2743711  85.6887506
  90.4130944  51.8047561  86.5178651  95.7318425  51.9266407  88.1386536
  95.1098435  51.2637112  87.8388764  96.4023292  51.9527539  87.4560184
  88.9645497  50.4926265  87.0277796  88.1277406  50.0648440  86.8461797
  88.9369143  50.6858709  87.9648587  95.8042953  40.4048195  97.7319042
  95.8531108  41.2810318  97.3496812  96.3465467  39.8625588  97.1590685
 106.2897799  50.9489318  97.0120179 105.4993342  50.9313457  96.4724679
 106.0531153  51.4877612  97.7669216 106.4095674  47.7981785  94.3252908
 106.4593679  47.6331792  95.2668431 106.3009597  46.9309044  93.9350789
  95.2931932  50.4770330  81.6144997  95.4420053  51.1605795  80.9611670
  96.0998376  50.4575420  82.1294453 103.6999436  43.7812713  95.6412215
 104.6009299  43.6419177  95.3496212 103.7747411  43.9467167  96.5810392
  98.0342241  41.1579567  94.4865401  97.1645551  41.4513133  94.2147989
  98.2701722  41.7420012  95.2072665 107.9113870  50.2178726  94.5694929
 107.6198679  50.5808707  95.4058390 107.2986002  49.5045734  94.3908261
 109.1109553  47.7831606  87.0897500 109.9456444  48.2221410  87.2535060
 109.2468682  47.3070259  86.2705745 106.1601059  45.3411341  93.0374987
 106.6355180  45.5338987  92.2293839 105.2366624  45.3970527  92.7918371
  93.0484565  46.5035508  82.6206066  92.8030607  45.5997838  82.8186276
  93.2180480  46.5052658  81.6785544 100.7381275  37.3759184  92.0030821
 101.2563219  38.1120211  91.6777310 100.3836408  37.6823178  92.8377580
  92.3180213  42.2363865  80.1192227  91.6249458  42.3108220  79.4632263
  92.0731965  41.4724209  80.6413744 100.9893869  33.7959467  87.5231718
 101.2695623  33.1282656  88.1492144 101.7744476  33.9888562  87.0106382
  98.7927338  52.9718461  79.0856744  98.2201305  53.5908648  78.6327216
  99.3660132  53.5217822  79.6196666 104.8602728  42.2177101  91.2703293
 105.8120151  42.3175198  91.2915517 104.6906178  41.4255369  91.7801377
 102.8817107  39.3032684  91.4562694 102.2867039  39.5837697  90.7609183
 102.5966804  39.7926585  92.2279435 102.0124598  53.2555611  80.2165326
 102.9455271  53.1901173  80.4198202 101.9247810  54.0911878  79.7579859
 104.6412614  52.5721481  77.1769274 104.5626246  52.2381345  78.0705032
 105.4622281  53.0643249  77.1760746 107.3390806  45.4383221  90.3845593
 107.3067126  44.4999221  90.5705276 107.9491429  45.5167257  89.6511418
  99.1774136  44.3079273  76.4272797 100.1233241  44.1785482  76.4961215
  98.7988381  43.5693935  76.9042225 107.4885294  42.2294264  90.4303876
 106.9724343  41.4452721  90.2433805 108.3725243  41.9012981  90.5950395
 105.1496021  35.9735280  86.3899689 104.9520842  35.6650368  87.2743020
 105.7595727  36.6996918  86.5197618 113.1567355  46.4999227  89.5251629
 113.8870744  46.2384515  90.0859333 112.5474301  45.7627949  89.5653697
 111.2382652  44.6407090  90.1226081 110.5115816  44.5063055  89.5142572
 110.8229939  44.9483919  90.9282799  99.0612829  48.3597020  97.8873454
  99.9815838  48.5375619  98.0813500  99.0262412  47.4153065  97.7353153
  97.3617054  42.2329250  76.3627682  96.4548509  41.9362363  76.4390396
  97.6393035  41.9359068  75.4961968  88.2794994  43.5535613  86.8126728
  87.9597778  42.7000921  86.5201102  87.7328422  43.7684191  87.5684696
  92.0574901  46.2698054  90.5296235  92.2760911  47.2015162  90.5484269
  92.4700675  45.9106029  91.3151039  98.9779119  36.7766140  82.5171923
  98.1679848  36.4313225  82.8927169  99.6663536  36.4673683  83.1059535
 100.9069668  35.8544186  84.1396220 101.4600706  36.2739640  84.7986243
 101.1439754  34.9279934  84.1819176  96.9302767  41.8431260  99.9198984
  96.8299494  42.7925617  99.8511075  96.7124309  41.5149499  99.0475054
  96.1315838  39.0916185  76.5039661  96.9935002  39.4171083  76.7635478
  96.3166182  38.3047681  75.9912727  88.1483254  47.1738525  88.7819850
  87.4546725  46.7592478  88.2689804  88.8956245  47.2159061  88.1853269
 104.2848475  37.9644712  83.6474884 103.7047144  38.6229516  83.2652937
 104.0184407  37.1422056  83.2362302 102.7352041  37.3649769  85.8496204
 103.2351819  37.4766304  85.0410523 103.3787649  37.0610822  86.4897013
  96.7934037  45.2728399  98.7364045  96.3101119  46.0728759  98.9427934
  96.8794976  45.2836344  97.7831489  90.0619996  47.1056779  86.6585865
  90.0390685  47.2044466  85.7067748  90.3720633  47.9521929  86.9803031
  92.7207374  49.1632934  90.7732479  93.6750628  49.1316876  90.7062411
  92.5219898  48.7023557  91.5882705  93.3106756  47.7334050  93.3403277
  94.1299645  48.2278128  93.3638114  93.5843564  46.8166018  93.3120844
 103.0673353  40.1244802  82.7031232 102.1799208  40.4094453  82.4851427
 103.4827342  39.9638565  81.8558509 106.4187889  40.1491323  86.4185572
 107.1948279  40.6387775  86.6910188 105.6936023  40.5749377  86.8757441
 108.8560447  40.8618942  87.4759512 109.4504938  40.6214678  86.7652820
 108.9287031  40.1426073  88.1033049  91.0757603  54.7052553  87.7902677
  90.9412071  53.9452954  87.2240675  90.6589665  55.4293453  87.3231466
 102.2116566  49.8889477  76.7979252 102.9152416  50.0939479  77.4136908
 101.4879215  50.4566238  77.0628336 103.0414376  45.6399338  82.9181523
 102.9849578  46.0967889  82.0789155 103.5942719  44.8790022  82.7404365
 106.8519182  41.4289070  83.7431642 106.5956117  41.0285705  84.5739850
 106.2272050  42.1432864  83.6181781 111.1631520  44.1685143  86.2502933
 110.6031078  44.2378332  87.0234495 110.5575024  43.9926128  85.5302430
  94.2326729  55.6021870  88.0021120  94.1159113  56.5467303  87.8999810
  93.4119175  55.2995432  88.3906919 104.1203264  50.3272006  78.8477712
 104.9548867  49.8953204  78.6655187 103.9587606  50.1554019  79.7754607
 103.7749156  46.8304119  80.2134052 103.7197959  46.6648391  79.2722496
 103.1495211  47.5380152  80.3696241  88.5641671  42.0672183  94.0395474
  89.2100534  41.5571137  94.5282699  88.3558822  42.8040865  94.6138899
 101.0895063  49.1353031  99.5387614 101.9586223  49.3093683  99.1774249
 100.6101814  49.9547448  99.4163344  97.0845281  36.3312228  79.7919370
  97.0723951  37.2754068  79.9487641  97.9768703  36.1482374  79.4978831
  95.2581243  56.2550132  91.2177048  96.1608490  56.2873742  91.5343543
  95.0318613  55.3250583  91.2323384  97.0134845  55.0081119  87.8787127
  96.0630476  55.0082980  87.7651499  97.3167331  54.2613853  87.3623161
 100.8997401  32.9255005  84.0465307 100.1329796  32.3713491  84.1921989
 101.3108106  32.9976874  84.9079459  92.9039162  39.2139801  98.1370488
  93.7670623  38.8576605  98.3473813  92.3304572  38.8753695  98.8245892
 112.7487539  60.8441657  88.9432889 113.3865949  60.7248404  88.2396229
 112.6308382  61.7922501  89.0020841 109.5577245  60.7969085  88.8794414
 109.2195756  60.6810150  87.9914949 110.4267013  60.3960250  88.8595420
 105.4164061  62.6504561  84.8691305 104.8528926  62.5594498  84.1007593
 105.3016456  61.8304466  85.3493797 110.0397028  61.9503937  94.8380619
 110.0285669  61.5556735  93.9661123 110.2017667  61.2170009  95.4314391
 102.9628493  64.1455753  87.7075525 103.7549784  63.8046578  87.2921825
 103.2025143  64.2550728  88.6277679 110.9963619  66.3175529  80.1805770
 110.3451599  66.9029610  79.7939784 111.7907982  66.8481724  80.2400807
 104.9219246  63.4064666  80.5792904 105.6950122  62.8593653  80.4405780
 105.2744645  64.2708916  80.7907365 106.7604289  64.7341049  93.7859803
 106.4694155  65.6386679  93.6706470 107.3961273  64.7757576  94.5003873
 107.6860496  62.1117897  90.3761163 108.2824068  61.8873919  89.6618126
 107.7435467  61.3702643  90.9786611 107.2585524  59.5657332  78.2111354
 107.5111045  59.0438854  77.4494817 106.3210083  59.4023478  78.3138038
 112.3028807  58.5693111  86.0186097 113.0891896  58.1512534  85.6676514
 112.5667511  59.4739203  86.1867746 112.4738884  64.0065961  80.7174754
 111.8384717  64.0800588  81.4295659 112.1436291  64.5959560  80.0393833
 117.7037234  58.5068344  86.9219076 118.4362406  57.9367561  87.1556905
 116.9476590  58.1189944  87.3625581 106.9781813  61.4685438  80.4135729
 106.8618071  60.7930342  81.0816813 107.0884073  60.9817812  79.5967882
 109.3213354  60.9295585  84.1182418 108.9571561  60.4026206  84.8295340
 110.1780470  60.5394055  83.9448904 115.2262655  52.2189918  91.3813684
 114.8945979  53.0885329  91.1574899 114.6308268  51.9026202  92.0607715
 108.9618841  55.9585485  79.1143767 109.1293243  56.8265722  79.4814238
 108.7716010  56.1212767  78.1905056 111.7194174  64.4202464  90.7809597
 111.4194897  65.3227503  90.6725404 111.3745234  64.1534647  91.6330750
 105.1706656  60.8716261  86.8146301 104.2457152  60.7392475  87.0223993
 105.4191069  61.6510480  87.3116244 115.1191318  56.9385004  88.4607034
 114.2108195  56.8700413  88.1665795 115.0678914  57.4156949  89.2888860
 108.9408062  58.4143143  80.0990434 108.8207687  58.8600193  80.9375914
 108.2460650  58.7628460  79.5403972 102.5315467  60.5149534  87.6490091
 102.6607848  60.7684013  88.5629502 101.8512918  61.1077242  87.3294746
 106.7014954  71.1846784  83.7480565 106.6238984  72.1354609  83.8269045
 106.0976598  70.8392657  84.4055491 109.1932184  58.3574650  96.4041932
 108.4165518  58.9168570  96.3944796 109.8322747  58.8431433  96.9256802
 116.9852964  55.1401443  90.2384908 116.3427345  55.4333976  89.5924703
 116.4807893  55.0254363  91.0438105 114.6393128  58.8864616  80.9270768
 115.5510984  59.1192003  80.7518465 114.1302775  59.4701660  80.3645846
 107.4478556  61.1660103  95.9659899 108.1893240  61.7045147  95.6894722
 106.7415541  61.7926392  96.1231450 112.9233896  63.3089244  94.5632060
 113.3317252  62.8671654  93.8186693 112.2011157  62.7341871  94.8166253
 109.2764966  58.2461850  91.9365617 110.1226161  58.6701264  92.0800266
 109.2163603  57.5895475  92.6304180 113.2462710  63.8690434  88.3184349
 112.6171573  64.0336148  87.6160417 112.8588372  64.2832044  89.0895313
 117.1251942  64.8044872  85.6728713 116.4402980  65.1843773  85.1225746
 117.2095791  65.4140199  86.4060661 112.4264411  55.9066219  93.5946791
 112.1825343  56.6608279  93.0581066 112.7024342  56.2851566  94.4294038
 114.3802874  62.4504831  92.2724056 114.5919769  63.0936591  91.5958437
 114.3332622  61.6167148  91.8045986 111.9829103  55.0622652  89.1760628
 111.1213582  55.3603905  89.4677366 112.0091537  55.2793051  88.2441661
 108.7990672  63.6064842  85.5834434 109.2629018  63.8852545  84.7939057
 108.5347470  62.7048287  85.4007525 105.6914753  63.1536324  88.5214197
 106.2616110  63.5823592  87.8831682 106.2822865  62.8718909  89.2198383
 107.7359558  59.7287995  82.3923999 108.4383602  60.1809038  82.8597926
 107.4040187  59.0871814  83.0203892 106.1839920  58.3199751  96.7675209
 105.5538580  59.0016032  97.0010605 106.0776008  58.2082833  95.8228347
 101.4784892  57.9871547  87.6941133 100.6883946  58.2429076  87.2181243
 101.9696140  58.8019885  87.7993173 115.4948702  65.3276787  90.4446414
 116.3166145  64.9256974  90.1629095 115.4911105  65.2245021  91.3962529
 103.4299638  58.3516127  84.6524610 102.6330801  58.4634821  85.1708105
 103.2025230  58.6902779  83.7865500 109.2605305  64.8760830  92.6007124
 109.3249738  65.3381237  93.4365296 108.5516229  64.2458195  92.7289434
  99.7622595  58.2402038  90.1256124 100.0130634  59.1249048  90.3913700
 100.2982144  58.0606639  89.3531215 108.9753323  66.5428937  82.4686104
 108.8398998  67.3880473  82.8970952 109.5163135  66.7448215  81.7052038
 105.4620662  52.6220517  99.1300460 105.0687608  52.0686716  99.8048104
 106.2786803  52.9331096  99.5206977 102.4282720  64.0604375  83.0414030
 102.9407241  64.8547626  83.1919594 103.0805433  63.3630666  82.9747631
 104.2377605  67.1770132  85.1236783 104.4144233  68.0988096  84.9357767
 105.0334438  66.8628551  85.5531163 108.3788623  54.0378396  96.7220716
 109.1198337  54.6385549  96.6425179 108.6106546  53.2956034  96.1638759
 103.5229961  59.2234764  94.9998946 103.4083477  58.3220021  95.3006045
 102.6674479  59.4698460  94.6483762 110.6021799  67.1652504  96.5986447
 110.1585653  66.3788882  96.2807351 111.2639013  67.3531654  95.9330337
 105.3608920  68.6948305  91.1247125 105.9116346  68.5665369  90.3524119
 104.5220396  68.9943194  90.7742018 112.7003037  67.4455304  94.6267848
 112.6821513  68.2664185  94.1348117 113.6222957  67.3209379  94.8517989
 109.1576091  64.9599433  95.4691356 109.6904428  64.1987721  95.2390664
 108.6290173  64.6673085  96.2115511 112.3245786  50.0659499  90.9984998
 111.9810056  50.9561141  90.9224109 112.6924749  49.8761157  90.1354583
 100.3931637  62.3893030  83.8173600 101.2306859  62.7990038  83.6007308
 100.5709905  61.4492472  83.7873794 112.2896069  60.0568110  79.5057433
 111.7742693  60.8272715  79.7445820 112.0173378  59.3833247  80.1290495
 109.8743180  54.9017811  84.5642671 109.0184776  54.5124662  84.3848310
 110.2870132  54.9809772  83.7042457 111.4042327  52.4364154  88.9634231
 110.9007122  52.3994290  88.1502036 111.6972934  53.3456897  89.0230888
 107.6485213  52.5202884  87.9700413 108.5138209  52.3245693  87.6106302
 107.7162722  52.2913236  88.8969770 117.2630343  62.8100465  81.4410607
 116.4859786  62.4711624  80.9965769 117.9421824  62.8153088  80.7665572
 112.0782372  57.9295202  81.3317214 111.7732508  58.2441352  82.1827357
 113.0312814  58.0076622  81.3744547 110.5228804  64.0885426  82.9810168
 109.9950166  63.3538185  82.6683406 110.0216307  64.8660102  82.7350137
 115.5021650  62.2834446  88.0977215 114.8445325  62.9733708  88.1857343
 116.3062049  62.6730878  88.4411201 105.2547532  54.7505092  85.3416780
 105.8291284  54.5280274  84.6089973 105.8418514  54.8193787  86.0945381
 114.3127109  60.6378819  86.1481156 114.8258991  61.2708811  86.6502866
 114.9628333  60.0380014  85.7824516 105.5817119  56.7809553  79.3612665
 104.7454431  57.1184240  79.6821940 105.4421889  56.6458533  78.4239802
 107.5570199  51.6246341  84.0691849 106.9034612  51.3095358  83.4448464
 107.5150674  51.0022081  84.7951672 108.6681404  61.9065636  75.9845141
 107.7608466  61.6754889  76.1836290 109.1652436  61.1103255  76.1719123
 111.5749483  70.6163143  78.9041827 110.9011182  70.9194840  79.5126785
 111.9615305  71.4192224  78.5547284 110.7907940  58.1128274  88.3939497
 109.8730501  58.3343221  88.2361185 111.2068083  58.1874585  87.5351204
 111.5742988  59.5119690  83.5242177 112.3214807  60.0241087  83.2149299
 111.8434577  59.1903743  84.3846571 109.8469638  62.0078231  80.5069131
 108.9380857  61.7237264  80.6041601 109.8764722  62.4277309  79.6472438
 115.0788905  65.6184820  84.2760299 114.6251232  64.7775730  84.3325489
 114.4482872  66.2546219  84.6135079 114.0221825  56.5476806  85.5060966
 113.2844582  56.0354193  85.8371209 114.2748598  56.1077188  84.6944243
 113.5221844  67.4561317  85.2110117 113.8144819  68.0166374  84.4922483
 114.0320465  67.7489878  85.9663276 114.1233452  49.3253058  86.1002736
 114.4292329  48.4650422  85.8128651 114.8486057  49.9170679  85.9001730
 100.4157808  59.7283745  84.4884334 100.2182208  59.1353106  83.7635400
  99.8604472  59.4235955  85.2060272 108.3954532  59.6206851  86.6078927
 108.4503142  58.6680688  86.5321403 107.5845734  59.7766291  87.0920225
 109.5445726  63.5486975  77.8457210 109.1065155  62.8322833  77.3862847
 110.2856166  63.7763089  77.2842301 106.3346892  58.2383911  84.3669306
 105.5214757  58.5378082  84.7734498 106.8305886  57.8439600  85.0843788
 108.4855470  68.2341668  86.3003570 108.4431648  68.4602514  85.3712102
 109.4018168  68.0005043  86.4489371 111.9321103  58.7025736  93.1984199
 112.2870491  58.9297209  94.0578665 112.5793235  59.0344113  92.5761455
 117.6618840  61.8244172  83.9033528 117.5236739  62.0145768  82.9754718
 117.3055059  62.5863554  84.3601580 105.8260966  55.8102267  89.9830541
 106.4660346  55.6691026  89.2853504 104.9938497  55.5236780  89.6069143
 117.6888220  63.8920699  88.9144800 118.1224727  63.7995988  89.7627854
 118.4019801  63.8678199  88.2764816 106.6021270  65.1104697  86.0965533
 107.3961869  64.6155017  85.8948108 105.8912963  64.5822560  85.7333239
 111.4216115  67.4922793  90.4477901 111.4753137  68.0613729  91.2155616
 110.5530896  67.6624678  90.0831938 102.9104034  59.2547779  82.1725286
 101.9801622  59.1932234  82.3895248 103.0061506  58.7323732  81.3761927
 102.8289583  55.7802592  84.7603527 103.0896400  56.6947925  84.6512688
 103.6506755  55.3127034  84.9100140 104.3014508  57.1940349  91.9302352
 104.9737562  56.9857711  91.2815001 103.4744295  56.9962435  91.4907584
 118.5503770  63.9344399  91.4477685 118.7439660  64.8390210  91.6936960
 118.4504388  63.4751818  92.2816270 110.2040080  53.8202290  93.9468013
 109.5567995  54.5192240  93.8532489 110.9741096  54.2538434  94.3144261
 113.6118878  64.0851142  97.0218566 113.4604385  63.8561694  96.1048650
 113.6023558  65.0421743  97.0349911 110.3804215  61.6583055  92.0064832
 111.3096275  61.8094214  91.8333800 109.9595245  61.7467076  91.1513479
 109.1792546  65.6833719  89.7763370 109.0403632  65.3152504  90.6489308
 108.3907143  66.1981359  89.6047328 109.7740698  70.7842816  81.1188907
 109.9492454  70.3130859  81.9334529 109.0873486  71.4108582  81.3470167
 110.7297762  65.0615322  87.1652208 110.3947594  65.0216092  88.0609858
 110.2301707  64.3960038  86.6922618 104.7042005  60.4682952  92.6904789
 104.5661803  59.7363191  93.2916328 105.6146929  60.3791852  92.4088977
 113.6656953  62.4071356  77.4389268 113.0486124  61.6818184  77.3422320
 113.1973442  63.1680716  77.0956342 107.3324306  60.1802911  92.1788469
 108.0423925  59.5396103  92.1375087 107.2893614  60.4315806  93.1014649
 115.3211085  67.1170265  95.0995048 115.2623631  66.4329485  94.4325631
 115.7230603  67.8589255  94.6475674 106.0453240  57.1668129  93.9984108
 105.5090597  56.7158868  94.6505704 105.4569949  57.3014038  93.2554572
 104.3401784  73.9332178  87.8928767 104.5798382  74.5650703  88.5707785
 103.4970980  73.5820218  88.1794126 105.4555499  56.6256781  76.5610572
 104.5784965  56.5045581  76.1972818 105.9313252  55.8342859  76.3089460
 115.3228492  65.0809849  93.3309028 114.4355271  64.7435770  93.4535426
 115.8927043  64.3492880  93.5677793  96.9757639  61.4133940  86.6552079
  97.6628679  61.0995670  86.0673094  96.8205768  62.3175305  86.3819330
 101.7792361  56.3024137  91.0837103 101.6950550  55.6949806  90.3487513
 100.9575068  56.7933155  91.0846599 108.8529645  69.7411301  90.2970271
 108.7799817  70.5466272  90.8089575 108.4107039  69.9403267  89.4718292
 108.6419425  68.9783071  83.8073092 107.8586947  69.5204751  83.9011317
 109.3412170  69.4957051  84.2067333 111.9516075  54.7877700  86.4507298
 112.4484775  54.0347663  86.1308368 111.1803057  54.8242017  85.8850507
 119.8045833  60.4918066  88.0925589 119.7935709  61.3742781  87.7219522
 118.9363212  60.1389617  87.8980126 111.3128329  69.6398135  92.4528429
 112.0256301  70.2745600  92.3804331 110.8218358  69.7362001  91.6368431
 113.0345856  63.5449388  84.0245721 112.1002135  63.6650850  83.8550425
 113.2122524  62.6421854  83.7605731 108.5351044  56.9295083  86.1778982
 108.1648832  56.3766124  86.8659888 109.0310136  56.3253217  85.6253982
 116.4218407  59.3866707  84.5595755 116.8878859  60.2194698  84.4856058
 116.8725908  58.9211688  85.2641014 106.3640243  67.3892578  93.2734000
 107.0649702  68.0229061  93.4263394 105.8935358  67.7307310  92.5129639
 114.4894638  65.7310528  81.5581907 114.7654482  65.6167123  82.4675781
 113.6199137  65.3328013  81.5194080 114.3935070  51.7547294  88.5986657
 113.4798150  51.9851521  88.7668863 114.8228171  51.8385738  89.4500689
 114.1641529  59.9437186  91.0986551 113.5112979  60.1913093  90.4439003
 114.5421908  59.1301324  90.7649028 111.1248702  69.9796879  85.2014721
 111.3071097  69.1618535  85.6642473 111.9481688  70.1964571  84.7639611
 111.4590868  68.9065064  82.4629769 111.9878634  68.3957519  81.8499931
 111.7219087  68.5907594  83.3275302 110.2129102  60.6856997  97.5852588
 109.5369739  60.5851126  98.2554963 111.0356735  60.5296211  98.0488585
 101.9607961  66.9228933  90.2065103 102.5461397  66.1772621  90.3393007
 101.7632799  67.2332890  91.0901767 104.8146616  69.9580181  85.2227545
 104.1456991  70.4426308  84.7391585 104.6759486  70.2049401  86.1370924
  96.5525615  59.4934534  88.9269546  96.5909715  58.9598124  89.7206664
  96.0465908  58.9669739  88.3080523 108.9551884  71.9923924  91.8210204
 109.5070192  72.1555546  92.5859289 109.2958078  72.5828362  91.1490228
 103.9316378  54.3399074  92.4232088 103.9957704  55.2013905  92.0109486
 103.8683498  53.7273076  91.6904447 103.4068650  56.4122207  96.0705123
 104.0340689  56.0299284  96.6842647 102.5496569  56.1936409  96.4360815
 113.8062759  66.8185182  97.6758858 114.3502663  67.4315140  97.1813813
 113.2249604  67.3764760  98.1925871 100.1834193  58.2198636  82.0023477
 100.4787634  57.3109314  81.9490531  99.2822229  58.1986375  81.6804480
 112.0920272  69.9405900  88.8073886 111.9671411  69.1395640  88.2984831
 112.7499363  70.4352093  88.3187856 103.7128440  56.2954632  87.9851026
 102.9915026  56.9090600  87.8458499 104.5021696  56.8312397  87.9067672
 114.1555180  67.7414920  90.4353436 113.2085516  67.6220271  90.3631763
 114.5037953  66.8537418  90.5179697 106.5154753  53.6309059  94.2591678
 107.0389155  53.8771355  95.0217987 106.2967087  54.4629094  93.8394815
 101.9122035  55.9012733  82.1262803 101.5834741  55.0210112  81.9437909
 102.2661405  55.8460402  83.0139192 111.1601613  67.5367636  86.6357788
 111.0126576  66.6084344  86.8165358 111.9855107  67.5587727  86.1514863
 105.0263858  56.1885703  82.4938280 105.3659930  56.7171624  81.7716889
 105.4735978  56.5266109  83.2696847 114.7635735  68.3596195  87.7222661
 115.6882283  68.1539056  87.5847112 114.5951039  68.1112596  88.6312002
 107.7207298  54.5722754  91.9441348 107.3804119  53.7730567  92.3462028
 107.0146305  54.8724465  91.3718182 108.3723770  51.6572066  90.3968671
 109.1949840  51.1832545  90.2747562 108.6161834  52.4362550  90.8967358
 107.0132005  54.6860325  80.6931573 107.7340367  55.0641578  80.1895290
 106.3897309  55.4049202  80.7966551 111.1563128  55.3905474  81.6289905
 111.3726742  56.2730112  81.3278734 110.6757195  54.9991687  80.8995547
 105.8962349  58.3491187  88.2060650 105.7506930  58.6631490  89.0984931
 105.4187553  58.9676087  87.6531549 107.7558732  55.3393735  88.2541540
 107.7420301  54.4434828  87.9173837 108.4731160  55.3464399  88.8879826
 109.6084863  55.7731075  90.2994667 109.3502640  56.6948146  90.2978997
 109.0769903  55.3761510  90.9895131 114.5531051  68.8781862  83.0784752
 114.7267929  68.3128285  82.3258605 115.0459943  69.6782757  82.8964242
 100.3708011  60.8896531  91.1448311  99.8261479  61.6656339  91.2768585
 101.2487361  61.2367336  90.9867433 107.1595628  54.2208115  83.5229110
 107.2811539  53.2924761  83.7219997 106.8697670  54.2346801  82.6107425
 110.0286818  51.9063026  86.6595829 110.0508515  51.9702359  85.7047809
 110.4454877  51.0667534  86.8536336 120.4070443  61.6418285  84.6975052
 120.8501589  60.8925610  84.2994175 119.5296953  61.6328422  84.3148784
 115.5406224  68.1948627  80.1781651 116.2357129  68.8155319  80.3968965
 115.8829374  67.3443978  80.4534028 101.1574033  60.0166428  94.0378468
 100.4155769  60.1649063  94.6243098 100.8366777  60.2774693  93.1745217
 117.4397647  65.6448332  81.7068981 117.9648971  65.9835605  80.9818301
 117.3520000  64.7095348  81.5232116 109.1017696  69.5582406  93.8358858
 109.4104822  69.3131553  94.7081558 109.8993178  69.7629044  93.3477728
 109.1238308  71.7120316  86.0664235 108.6843298  71.2196694  86.7597091
 109.8746425  71.1693283  85.8256310 101.6030647  67.9031856  86.0688863
 102.4288667  67.6035628  85.6887506 101.2524699  67.1339479  86.5178651
 106.5712180  67.2558325  88.1386536 105.9492189  66.5929030  87.8388764
 107.2417047  67.2819457  87.4560184  99.8039252  65.8218183  87.0277796
  98.9671160  65.3940357  86.8461797  99.7762897  66.0150626  87.9648587
 106.6436707  55.7340113  97.7319042 106.6924863  56.6102235  97.3496812
 107.1859222  55.1917506  97.1590685 117.1291553  66.2781236  97.0120179
 116.3387097  66.2605375  96.4724679 116.8924908  66.8169530  97.7669216
 117.2489428  63.1273702  94.3252908 117.2987433  62.9623710  95.2668431
 117.1403351  62.2600961  93.9350789 106.1325687  65.8062248  81.6144997
 106.2813807  66.4897712  80.9611670 106.9392130  65.7867338  82.1294453
 114.5393191  59.1104630  95.6412215 115.4403053  58.9711095  95.3496212
 114.6141165  59.2759085  96.5810392 108.8735996  56.4871485  94.4865401
 108.0039305  56.7805051  94.2147989 109.1095476  57.0711930  95.2072665
 118.7507625  65.5470644  94.5694929 118.4592433  65.9100624  95.4058390
 118.1379756  64.8337652  94.3908261 119.9503307  63.1123524  87.0897500
 120.7850199  63.5513328  87.2535060 120.0862436  62.6362177  86.2705745
 116.9994813  60.6703258  93.0374987 117.4748935  60.8630905  92.2293839
 116.0760379  60.7262444  92.7918371 103.8878320  61.8327426  82.6206066
 103.6424362  60.9289756  82.8186276 104.0574234  61.8344576  81.6785544
 111.5775030  52.7051102  92.0030821 112.0956974  53.4412129  91.6777310
 111.2230162  53.0115095  92.8377580 103.1573967  57.5655783  80.1192227
 102.4643212  57.6400138  79.4632263 102.9125719  56.8016127  80.6413744
 111.8287624  49.1251385  87.5231718 112.1089378  48.4574574  88.1492144
 112.6138231  49.3180480  87.0106382 109.6321092  68.3010378  79.0856744
 109.0595059  68.9200566  78.6327216 110.2053886  68.8509740  79.6196666
 115.6996482  57.5469018  91.2703293 116.6513905  57.6467116  91.2915517
 115.5299933  56.7547287  91.7801377 113.7210862  54.6324602  91.4562694
 113.1260794  54.9129614  90.7609183 113.4360558  55.1218503  92.2279435
 112.8518352  68.5847529  80.2165326 113.7849025  68.5193090  80.4198202
 112.7641565  69.4203795  79.7579859 115.4806369  67.9013399  77.1769274
 115.4020000  67.5673262  78.0705032 116.3016036  68.3935167  77.1760746
 118.1784560  60.7675138  90.3845593 118.1460880  59.8291139  90.5705276
 118.7885184  60.8459175  89.6511418 110.0167891  59.6371191  76.4272797
 110.9626996  59.5077399  76.4961215 109.6382136  58.8985853  76.9042225
 118.3279048  57.5586182  90.4303876 117.8118097  56.7744638  90.2433805
 119.2118997  57.2304898  90.5950395 115.9889775  51.3027197  86.3899689
 115.7914597  50.9942285  87.2743020 116.5989481  52.0288836  86.5197618
 109.9006583  63.6888937  97.8873454 110.8209593  63.8667536  98.0813500
 109.8656166  62.7444983  97.7353153 108.2010808  57.5621168  76.3627682
 107.2942263  57.2654280  76.4390396 108.4786789  57.2650986  75.4961968
  99.1188748  58.8827531  86.8126728  98.7991533  58.0292839  86.5201102
  98.5722177  59.0976109  87.5684696 102.8968656  61.5989972  90.5296235
 103.1154666  62.5307080  90.5484269 103.3094430  61.2397946  91.3151039
 109.8172874  52.1058057  82.5171923 109.0073602  51.7605142  82.8927169
 110.5057291  51.7965601  83.1059535 111.7463422  51.1836104  84.1396220
 112.2994461  51.6031557  84.7986243 111.9833508  50.2571852  84.1819176
 107.7696521  57.1723178  99.9198984 107.6693248  58.1217535  99.8511075
 107.5518063  56.8441417  99.0475054 106.9709593  54.4208103  76.5039661
 107.8328757  54.7463001  76.7635478 107.1559937  53.6339599  75.9912727
  98.9877008  62.5030442  88.7819850  98.2940480  62.0884395  88.2689804
  99.7349999  62.5450979  88.1853269 115.1242229  53.2936629  83.6474884
 114.5440898  53.9521433  83.2652937 114.8578162  52.4713974  83.2362302
 113.5745795  52.6941687  85.8496204 114.0745574  52.8058221  85.0410523
 114.2181403  52.3902740  86.4897013 107.6327791  60.6020317  98.7364045
 107.1494873  61.4020677  98.9427934 107.7188730  60.6128261  97.7831489
 100.9013751  62.4348696  86.6585865 100.8784439  62.5336383  85.7067748
 101.2114387  63.2813847  86.9803031 103.5601129  64.4924851  90.7732479
 104.5144382  64.4608794  90.7062411 103.3613652  64.0315475  91.5882705
 104.1500511  63.0625967  93.3403277 104.9693400  63.5570046  93.3638114
 104.4237319  62.1457935  93.3120844 113.9067107  55.4536720  82.7031232
 113.0192962  55.7386370  82.4851427 114.3221096  55.2930483  81.8558509
 117.2581643  55.4783241  86.4185572 118.0342033  55.9679693  86.6910188
 116.5329777  55.9041295  86.8757441 119.6954202  56.1910860  87.4759512
 120.2898693  55.9506596  86.7652820 119.7680786  55.4717990  88.1033049
 101.9151358  70.0344471  87.7902677 101.7805826  69.2744872  87.2240675
 101.4983420  70.7585371  87.3231466 113.0510321  65.2181394  76.7979252
 113.7546171  65.4231397  77.4136908 112.3272969  65.7858156  77.0628336
 113.8808131  60.9691256  82.9181523 113.8243332  61.4259807  82.0789155
 114.4336473  60.2081940  82.7404365 117.6912937  56.7580987  83.7431642
 117.4349871  56.3577623  84.5739850 117.0665805  57.4724781  83.6181781
 105.0720483  70.9313788  88.0021120 104.9552868  71.8759220  87.8999810
 104.2512930  70.6287349  88.3906919 114.9597018  65.6563923  78.8477712
 115.7942622  65.2245122  78.6655187 114.7981361  65.4845937  79.7754607
 114.6142910  62.1596037  80.2134052 114.5591714  61.9940308  79.2722496
 113.9888965  62.8672070  80.3696241  99.4035425  57.3964101  94.0395474
 100.0494289  56.8863055  94.5282699  99.1952576  58.1332783  94.6138899
 111.9288817  64.4644949  99.5387614 112.7979977  64.6385601  99.1774249
 111.4495569  65.2839365  99.4163344 107.9239036  51.6604146  79.7919370
 107.9117705  52.6045986  79.9487641 108.8162458  51.4774291  79.4978831
 106.0974998  71.5842050  91.2177048 107.0002244  71.6165660  91.5343543
 105.8712368  70.6542501  91.2323384 107.8528600  70.3373036  87.8787127
 106.9024231  70.3374898  87.7651499 108.1561086  69.5905771  87.3623161
 111.7391155  48.2546922  84.0465307 110.9723551  47.7005409  84.1921989
 112.1501860  48.3268791  84.9079459 103.7432916  54.5431718  98.1370488
 104.6064378  54.1868523  98.3473813 103.1698327  54.2045613  98.8245892
 120.3970999  76.1261003  88.8794414 120.0589511  76.0102067  87.9914949
 121.2660768  75.7252168  88.8595420 116.2557815  77.9796479  84.8691305
 115.6922680  77.8886416  84.1007593 116.1410210  77.1596384  85.3493797
 120.8790782  77.2795854  94.8380619 120.8679423  76.8848653  93.9661123
 121.0411422  76.5461927  95.4314391 113.8022247  79.4747671  87.7075525
 114.5943539  79.1338495  87.2921825 114.0418897  79.5842646  88.6277679
 115.7613001  78.7356584  80.5792904 116.5343877  78.1885571  80.4405780
 116.1138400  79.6000833  80.7907365 117.5998044  80.0632966  93.7859803
 117.3087909  80.9678597  93.6706470 118.2355028  80.1049494  94.5003873
 118.5254250  77.4409815  90.3761163 119.1217823  77.2165837  89.6618126
 118.5829222  76.6994560  90.9786611 118.0979279  74.8949250  78.2111354
 118.3504799  74.3730771  77.4494817 117.1603838  74.7315396  78.3138038
 117.8175568  76.7977356  80.4135729 117.7011826  76.1222259  81.0816813
 117.9277827  76.3109730  79.5967882 120.1607108  76.2587503  84.1182418
 119.7965316  75.7318124  84.8295340 121.0174224  75.8685972  83.9448904
 119.8012595  71.2877403  79.1143767 119.9686998  72.1557639  79.4814238
 119.6109764  71.4504685  78.1905056 116.0100410  76.2008179  86.8146301
 115.0850907  76.0684393  87.0223993 116.2584823  76.9802398  87.3116244
 119.7801816  73.7435060  80.0990434 119.6601441  74.1892111  80.9375914
 119.0854405  74.0920378  79.5403972 113.3709221  75.8441452  87.6490091
 113.5001602  76.0975931  88.5629502 112.6906672  76.4369160  87.3294746
 117.5408708  86.5138702  83.7480565 117.4632738  87.4646527  83.8269045
 116.9370352  86.1684575  84.4055491 120.0325938  73.6866568  96.4041932
 119.2559272  74.2460488  96.3944796 120.6716501  74.1723350  96.9256802
 118.2872310  76.4952021  95.9659899 119.0286995  77.0337065  95.6894722
 117.5809296  77.1218310  96.1231450 120.1158720  73.5753768  91.9365617
 120.9619915  73.9993182  92.0800266 120.0557358  72.9187392  92.6304180
 119.6384427  78.9356760  85.5834434 120.1022772  79.2144463  84.7939057
 119.3741225  78.0340205  85.4007525 116.5308508  78.4828242  88.5214197
 117.1009865  78.9115510  87.8831682 117.1216620  78.2010826  89.2198383
 118.5753313  75.0579912  82.3923999 119.2777356  75.5100956  82.8597926
 118.2433941  74.4163731  83.0203892 117.0233674  73.6491669  96.7675209
 116.3932335  74.3307950  97.0010605 116.9169762  73.5374751  95.8228347
 112.3178647  73.3163465  87.6941133 111.5277701  73.5720994  87.2181243
 112.8089894  74.1311803  87.7993173 114.2693392  73.6808044  84.6524610
 113.4724555  73.7926739  85.1708105 114.0418984  74.0194697  83.7865500
 120.0999060  80.2052748  92.6007124 120.1643492  80.6673155  93.4365296
 119.3909984  79.5750112  92.7289434 110.6016350  73.5693956  90.1256124
 110.8524388  74.4540965  90.3913700 111.1375898  73.3898557  89.3531215
 119.8147077  81.8720855  82.4686104 119.6792752  82.7172391  82.8970952
 120.3556890  82.0740133  81.7052038 116.3014417  67.9512435  99.1300460
 115.9081363  67.3978633  99.8048104 117.1180557  68.2623013  99.5206977
 113.2676475  79.3896293  83.0414030 113.7800995  80.1839543  83.1919594
 113.9199188  78.6922584  82.9747631 115.0771359  82.5062049  85.1236783
 115.2537988  83.4280014  84.9357767 115.8728193  82.1920469  85.5531163
 119.2182378  69.3670314  96.7220716 119.9592091  69.9677467  96.6425179
 119.4500301  68.6247952  96.1638759 114.3623716  74.5526681  94.9998946
 114.2477231  73.6511938  95.3006045 113.5068234  74.7990378  94.6483762
 116.2002675  84.0240223  91.1247125 116.7510100  83.8957287  90.3524119
 115.3614151  84.3235112  90.7742018 119.9969846  80.2891351  95.4691356
 120.5298183  79.5279639  95.2390664 119.4683927  79.9965003  96.2115511
 111.2325391  77.7184947  83.8173600 112.0700613  78.1281956  83.6007308
 111.4103659  76.7784390  83.7873794 120.7136935  70.2309729  84.5642671
 119.8578531  69.8416579  84.3848310 121.1263886  70.3101690  83.7042457
 118.4878967  67.8494802  87.9700413 119.3531964  67.6537610  87.6106302
 118.5556476  67.6205154  88.8969770 121.3622559  79.4177343  82.9810168
 120.8343920  78.6830103  82.6683406 120.8610061  80.1952020  82.7350137
 116.0941286  70.0797010  85.3416780 116.6685038  69.8572191  84.6089973
 116.6812269  70.1485704  86.0945381 116.4210873  72.1101471  79.3612665
 115.5848186  72.4476157  79.6821940 116.2815643  71.9750451  78.4239802
 118.3963954  66.9538259  84.0691849 117.7428366  66.6387276  83.4448464
 118.3544428  66.3313999  84.7951672 119.5075159  77.2357554  75.9845141
 118.6002221  77.0046807  76.1836290 120.0046191  76.4395173  76.1719123
 120.6863392  77.3370149  80.5069131 119.7774612  77.0529181  80.6041601
 120.7158476  77.7569227  79.6472438 111.2551563  75.0575663  84.4884334
 111.0575962  74.4645023  83.7635400 110.6998227  74.7527873  85.2060272
 119.2348286  74.9498769  86.6078927 119.2896896  73.9972606  86.5321403
 118.4239488  75.1058208  87.0920225 120.3839480  78.8778892  77.8457210
 119.9458910  78.1614751  77.3862847 121.1249921  79.1055007  77.2842301
 117.1740646  73.5675829  84.3669306 116.3608512  73.8669999  84.7734498
 117.6699640  73.1731518  85.0843788 119.3249224  83.5633586  86.3003570
 119.2825403  83.7894432  85.3712102 120.2411923  83.3296960  86.4489371
 116.6654721  71.1394184  89.9830541 117.3054100  70.9982944  89.2853504
 115.8332252  70.8528698  89.6069143 117.4415025  80.4396615  86.0965533
 118.2355623  79.9446935  85.8948108 116.7306717  79.9114478  85.7333239
 113.7497788  74.5839697  82.1725286 112.8195376  74.5224152  82.3895248
 113.8455260  74.0615649  81.3761927 113.6683337  71.1094509  84.7603527
 113.9290155  72.0239843  84.6512688 114.4900510  70.6418952  84.9100140
 115.1408263  72.5232267  91.9302352 115.8131316  72.3149629  91.2815001
 114.3138049  72.3254353  91.4907584 120.0186301  81.0125637  89.7763370
 119.8797387  80.6444421  90.6489308 119.2300897  81.5273276  89.6047328
 120.6134453  86.1134733  81.1188907 120.7886209  85.6422777  81.9334529
 119.9267241  86.7400500  81.3470167 121.5691516  80.3907240  87.1652208
 121.2341349  80.3508010  88.0609858 121.0695462  79.7251955  86.6922618
 115.5435760  75.7974870  92.6904789 115.4055558  75.0655108  93.2916328
 116.4540683  75.7083770  92.4088977 118.1718061  75.5094829  92.1788469
 118.8817679  74.8688021  92.1375087 118.1287369  75.7607724  93.1014649
 116.8846995  72.4960047  93.9984108 116.3484352  72.0450785  94.6505704
 116.2963703  72.6305956  93.2554572 115.1795538  89.2624096  87.8928767
 115.4192136  89.8942620  88.5707785 114.3364735  88.9112136  88.1794126
 116.2949254  71.9548698  76.5610572 115.4178720  71.8337499  76.1972818
 116.7707007  71.1634776  76.3089460 107.8151394  76.7425858  86.6552079
 108.5022434  76.4287588  86.0673094 107.6599522  77.6467223  86.3819330
 112.6186116  71.6316054  91.0837103 112.5344305  71.0241724  90.3487513
 111.7968822  72.1225073  91.0846599 119.6923400  85.0703219  90.2970271
 119.6193571  85.8758190  90.8089575 119.2500793  85.2695184  89.4718292
 119.4813180  84.3074989  83.8073092 118.6980701  84.8496669  83.9011317
 120.1805925  84.8248968  84.2067333 119.3744798  72.2587001  86.1778982
 119.0042586  71.7058041  86.8659888 119.8703891  71.6545134  85.6253982
 117.2033997  82.7184496  93.2734000 117.9043457  83.3520979  93.4263394
 116.7329112  83.0599228  92.5129639 112.8001715  82.2520851  90.2065103
 113.3855152  81.5064539  90.3393007 112.6026554  82.5624808  91.0901767
 115.6540370  85.2872098  85.2227545 114.9850746  85.7718226  84.7391585
 115.5153240  85.5341319  86.1370924 107.3919370  74.8226451  88.9269546
 107.4303469  74.2890042  89.7206664 106.8859663  74.2961657  88.3080523
 119.7945639  87.3215842  91.8210204 120.3463947  87.4847463  92.5859289
 120.1351832  87.9120280  91.1490228 114.7710132  69.6690992  92.4232088
 114.8351459  70.5305823  92.0109486 114.7077252  69.0564993  91.6904447
 114.2462405  71.7414124  96.0705123 114.8734443  71.3591202  96.6842647
 113.3890324  71.5228326  96.4360815 111.0227947  73.5490553  82.0023477
 111.3181388  72.6401232  81.9490531 110.1215983  73.5278293  81.6804480
 114.5522194  71.6246550  87.9851026 113.8308780  72.2382518  87.8458499
 115.3415450  72.1604315  87.9067672 117.3548508  68.9600977  94.2591678
 117.8782910  69.2063273  95.0217987 117.1360841  69.7921011  93.8394815
 112.7515789  71.2304651  82.1262803 112.4228495  70.3502030  81.9437909
 113.1055160  71.1752320  83.0139192 115.8657612  71.5177621  82.4938280
 116.2053685  72.0463542  81.7716889 116.3129733  71.8558027  83.2696847
 118.5601053  69.9014672  91.9441348 118.2197873  69.1022485  92.3462028
 117.8540059  70.2016382  91.3718182 119.2117525  66.9863984  90.3968671
 120.0343594  66.5124462  90.2747562 119.4555588  67.7654468  90.8967358
 117.8525759  70.0152242  80.6931573 118.5734122  70.3933495  80.1895290
 117.2291063  70.7341119  80.7966551 116.7356104  73.6783105  88.2060650
 116.5900684  73.9923408  89.0984931 116.2581307  74.2968005  87.6531549
 118.5952486  70.6685653  88.2541540 118.5814055  69.7726746  87.9173837
 119.3124915  70.6756316  88.8879826 120.4478617  71.1022993  90.2994667
 120.1896395  72.0240064  90.2978997 119.9163658  70.7053427  90.9895131
 111.2101766  76.2188449  91.1448311 110.6655234  76.9948257  91.2768585
 112.0881116  76.5659254  90.9867433 117.9989382  69.5500033  83.5229110
 118.1205294  68.6216679  83.7219997 117.7091425  69.5638719  82.6107425
 120.8680573  67.2354943  86.6595829 120.8902270  67.2994276  85.7047809
 121.2848632  66.3959452  86.8536336 111.9967788  75.3458345  94.0378468
 111.2549524  75.4940981  94.6243098 111.6760532  75.6066611  93.1745217
 119.9411450  84.8874324  93.8358858 120.2498577  84.6423470  94.7081558
 120.7386932  85.0920962  93.3477728 119.9632062  87.0412233  86.0664235
 119.5237053  86.5488612  86.7597091 120.7140179  86.4985201  85.8256310
 112.4424401  83.2323774  86.0688863 113.2682421  82.9327546  85.6887506
 112.0918453  82.4631396  86.5178651 117.4105934  82.5850242  88.1386536
 116.7885944  81.9220947  87.8388764 118.0810801  82.6111374  87.4560184
 110.6433006  81.1510101  87.0277796 109.8064915  80.7232275  86.8461797
 110.6156652  81.3442544  87.9648587 117.4830462  71.0632030  97.7319042
 117.5318617  71.9394153  97.3496812 118.0252976  70.5209423  97.1590685
 116.9719441  81.1354166  81.6144997 117.1207562  81.8189630  80.9611670
 117.7785885  81.1159256  82.1294453 119.7129750  71.8163403  94.4865401
 118.8433060  72.1096969  94.2147989 119.9489231  72.4003848  95.2072665
 114.7272074  77.1619343  82.6206066 114.4818116  76.2581673  82.8186276
 114.8967989  77.1636494  81.6785544 113.9967722  72.8947701  80.1192227
 113.3036967  72.9692056  79.4632263 113.7519474  72.1308044  80.6413744
 120.4714847  83.6302296  79.0856744 119.8988814  84.2492483  78.6327216
 121.0447641  84.1801658  79.6196666 119.0404563  72.8913085  76.3627682
 118.1336018  72.5946198  76.4390396 119.3180544  72.5942903  75.4961968
 109.9582503  74.2119449  86.8126728 109.6385287  73.3584757  86.5201102
 109.4115931  74.4268027  87.5684696 113.7362410  76.9281890  90.5296235
 113.9548420  77.8598997  90.5484269 114.1488184  76.5689864  91.3151039
 120.6566628  67.4349975  82.5171923 119.8467357  67.0897060  82.8927169
 121.3451045  67.1257519  83.1059535 118.6090276  72.5015095  99.9198984
 118.5087003  73.4509452  99.8511075 118.3911818  72.1733334  99.0475054
 117.8103347  69.7500020  76.5039661 118.6722511  70.0754919  76.7635478
 117.9953691  68.9631516  75.9912727 109.8270763  77.8322360  88.7819850
 109.1334234  77.4176313  88.2689804 110.5743754  77.8742897  88.1853269
 118.4721546  75.9312234  98.7364045 117.9888628  76.7312594  98.9427934
 118.5582485  75.9420179  97.7831489 111.7407505  77.7640614  86.6585865
 111.7178194  77.8628301  85.7067748 112.0508142  78.6105765  86.9803031
 114.3994883  79.8216769  90.7732479 115.3538137  79.7900711  90.7062411
 114.2007407  79.3607393  91.5882705 114.9894265  78.3917885  93.3403277
 115.8087154  78.8861964  93.3638114 115.2631073  77.4749853  93.3120844
 112.7545112  85.3636388  87.7902677 112.6199580  84.6036789  87.2240675
 112.3377174  86.0877288  87.3231466 115.9114238  86.2605705  88.0021120
 115.7946622  87.2051138  87.8999810 115.0906684  85.9579267  88.3906919
 110.2429180  72.7256019  94.0395474 110.8888043  72.2154973  94.5282699
 110.0346331  73.4624700  94.6138899 118.7632790  66.9896063  79.7919370
 118.7511460  67.9337903  79.9487641 119.6556212  66.8066209  79.4978831
 116.9368752  86.9133967  91.2177048 117.8395999  86.9457578  91.5343543
 116.7106122  85.9834418  91.2323384 118.6922354  85.6664954  87.8787127
 117.7417985  85.6666815  87.7651499 118.9954840  84.9197688  87.3623161
 114.5826671  69.8723636  98.1370488 115.4458132  69.5160441  98.3473813
 114.0092081  69.5337531  98.8245892 118.6545148  92.0717776  86.6552079
 119.3416188  91.7579506  86.0673094 118.4993277  92.9759140  86.3819330
 118.2313124  90.1518369  88.9269546 118.2697224  89.6181960  89.7206664
 117.7253417  89.6253574  88.3080523 121.4826761  96.4802018  87.0277796
 120.6458669  96.0524193  86.8461797 121.4550406  96.6734462  87.9648587
 120.7976257  89.5411366  86.8126728 120.4779042  88.6876674  86.5201102
 120.2509686  89.7559944  87.5684696 120.6664517  93.1614278  88.7819850
 119.9727989  92.7468231  88.2689804 121.4137508  93.2034814  88.1853269
  74.1833692   2.2033154  70.4725871  74.1057721   3.1540979  70.5514352
  73.5795335   1.8579026  71.1300798  71.8220521   4.9518548  74.6174073
  72.0617120   5.5837072  75.2953092  70.9789718   4.6006588  74.9039433
  72.2965354   0.9766550  71.9472852  71.6275729   1.4612678  71.4636892
  72.1578223   1.2235771  72.8616230  76.4370622   3.0110294  78.5455510
  76.9888930   3.1741915  79.3104596  76.7776816   3.6014732  77.8735535
  69.3970095   1.0530840  74.5147984  69.2624563   0.2931241  73.9485982
  68.9802158   1.7771740  74.0476773  72.5539221   1.9500157  74.7266426
  72.4371605   2.8945590  74.6245117  71.7331668   1.6473719  75.1152226
  73.5793735   2.6028419  77.9422355  74.4820982   2.6352029  78.2588850
  73.3531105   1.6728870  77.9568691  87.8789737   7.1447372  75.6039721
  87.5408249   7.0288437  74.7160255  88.7479505   6.7438537  75.5840727
  83.7376553   8.9982849  71.5936611  83.1741418   8.9072786  70.8252899
  83.6228948   8.1782753  72.0739104  88.3609520   8.2982224  81.5625926
  88.3498161   7.9035022  80.6906430  88.5230160   7.5648297  82.1559697
  81.2840985  10.4934040  74.4320832  82.0762277  10.1524865  74.0167131
  81.5237635  10.6029015  75.3522985  89.3176112  12.6653816  66.9051076
  88.6664091  13.2507897  66.5185090  90.1120474  13.1960011  66.9646114
  83.2431739   9.7542954  67.3038211  84.0162615   9.2071941  67.1651087
  83.5957138  10.6187203  67.5152672  85.0816781  11.0819336  80.5105110
  84.7906647  11.9864967  80.3951776  85.7173766  11.1235863  81.2249180
  86.0072988   8.4596184  77.1006470  86.6036560   8.2352207  76.3863433
  86.0647960   7.7180930  77.7031918  90.7951377  10.3544248  67.4420061
  90.1597210  10.4278875  68.1540965  90.4648783  10.9437847  66.7639140
  85.2994305   7.8163726  67.1381036  85.1830563   7.1408629  67.8062120
  85.4096565   7.3296100  66.3213189  87.6425846   7.2773873  70.8427725
  87.2784053   6.7504494  71.5540646  88.4992962   6.8872342  70.6694210
  90.0406666  10.7680751  77.5054904  89.7407389  11.6705790  77.3970711
  89.6957726  10.5012935  78.3576057  83.4919148   7.2194548  73.5391608
  82.5669644   7.0870762  73.7469300  83.7403561   7.9988767  74.0361551
  80.8527959   6.8627822  74.3735397  80.9820340   7.1162301  75.2874809
  80.1725410   7.4555530  74.0540052  85.0227446  17.5325072  70.4725871
  84.9451476  18.4832897  70.5514352  84.4189090  17.1870944  71.1300798
  85.7691048   7.5138390  82.6905205  86.5105733   8.0523434  82.4140029
  85.0628034   8.1404679  82.8476757  91.2446388   9.6567531  81.2877367
  91.6529744   9.2149941  80.5431999  90.5223649   9.0820158  81.5411560
  91.5675203  10.2168722  75.0429656  90.9384065  10.3814436  74.3405724
  91.1800865  10.6310331  75.8140620  95.4464434  11.1523159  72.3974019
  94.7615473  11.5322061  71.8471053  95.5308284  11.7618486  73.1305967
  92.7015366   8.7983118  78.9969363  92.9132261   9.4414878  78.3203744
  92.6545114   7.9645435  78.5291293  87.1203164   9.9543130  72.3079741
  87.5841510  10.2330833  71.5184363  86.8559963   9.0526574  72.1252831
  84.0127245   9.5014611  75.2459504  84.5828603   9.9301880  74.6076989
  84.6035357   9.2197196  75.9443690  79.7997384   4.3349835  74.4186439
  79.0096438   4.5907363  73.9426550  80.2908632   5.1498173  74.5238480
  93.8161194  11.6755074  77.1691720  94.6378638  11.2735261  76.8874402
  93.8123597  11.5723308  78.1207836  81.7512130   4.6994414  71.3769916
  80.9543293   4.8113108  71.8953412  81.5237722   5.0381066  70.5110807
  87.5817797  11.2239117  79.3252431  87.6462230  11.6859524  80.1610603
  86.8728721  10.5936482  79.4534741  78.0835087   4.5880325  76.8501430
  78.3343126   5.4727335  77.1159006  78.6194636   4.4084927  76.0776522
  87.2965815  12.8907225  69.1931411  87.1611490  13.7358760  69.6216259
  87.8375628  13.0926502  68.4297345  80.7495212  10.4082663  69.7659336
  81.2619733  11.2025913  69.9164901  81.4017925   9.7108953  69.6992938
  82.5590097  13.5248419  71.8482089  82.7356726  14.4466384  71.6603073
  83.3546931  13.2106838  72.2776469  81.8442454   5.5713051  81.7244253
  81.7295969   4.6698308  82.0251352  80.9886971   5.8176748  81.3729069
  88.9234291  13.5130791  83.3231753  88.4798146  12.7267170  83.0052658
  89.5851505  13.7009942  82.6575644  83.6821413  15.0426593  77.8492432
  84.2328838  14.9143656  77.0769426  82.8432889  15.3421482  77.4987325
  91.0215530  13.7933591  81.3513154  91.0034005  14.6142472  80.8593424
  91.9435450  13.6687666  81.5763296  87.4788584  11.3077721  82.1936663
  88.0116921  10.5466009  81.9635971  86.9502665  11.0151372  82.9360817
  78.7144129   8.7371317  70.5418907  79.5519351   9.1468325  70.3252614
  78.8922397   7.7970759  70.5119101  88.8441296  10.4363713  69.7055475
  88.3162658   9.7016473  69.3928712  88.3428799  11.2138389  69.4595443
  93.8234142   8.6312733  74.8222521  93.1657817   9.3211995  74.9102650
  94.6274542   9.0209165  75.1656508  86.9893897   8.2543923  62.7090448
  86.0820958   8.0233177  62.9081597  87.4864929   7.4581543  62.8964429
  89.8961975  16.9641430  65.6287134  89.2223674  17.2673127  66.2372092
  90.2827797  17.7670511  65.2792591  88.1682130   8.3556518  67.2314438
  87.2593349   8.0715551  67.3286908  88.1977214   8.7755597  66.3717745
  93.4001397  11.9663108  71.0005606  92.9463725  11.1254018  71.0570796
  92.7695364  12.6024506  71.3380386  91.8434337  13.8039604  71.9355424
  92.1357311  14.3644661  71.2167789  92.3532957  14.0968165  72.6908583
  78.7370300   6.0762032  71.2129640  78.5394700   5.4831393  70.4880707
  78.1816964   5.7714242  71.9305579  87.8658218   9.8965262  64.5702517
  87.4277648   9.1801121  64.1108154  88.6068659  10.1241377  64.0087608
  86.8067962  14.5819955  73.0248877  86.7644141  14.8080802  72.0957409
  87.7230661  14.3483330  73.1734678  96.0100712  10.2398986  75.6390107
  96.4437219  10.1474275  76.4873161  96.7232293  10.2156486  75.0010123
  84.9233763  11.4582984  72.8210840  85.7174361  10.9633305  72.6193415
  84.2125455  10.9300848  72.4578545  89.7428607  13.8401080  77.1723207
  89.7965629  14.4092016  77.9400923  88.8743388  14.0102965  76.8077244
  81.2316526   5.6026066  68.8970592  80.3014114   5.5410522  69.1140554
  81.3273998   5.0802019  68.1007234  96.8716262  10.2822687  78.1722992
  97.0652152  11.1868497  78.4182267  96.7716880   9.8230106  79.0061577
  91.9331370  10.4329429  83.7463873  91.7816877  10.2039981  82.8293956
  91.9236050  11.3900031  83.7595218  88.7016707   8.0061342  78.7310139
  89.6308767   8.1572502  78.5579106  88.2807737   8.0945363  77.8758786
  87.5005039  12.0312006  76.5008677  87.3616124  11.6630791  77.3734615
  86.7119635  12.5459646  76.3292635  88.0953191  17.1321103  67.8434213
  88.2704946  16.6609146  68.6579836  87.4085979  17.7586869  68.0715474
  89.0510254  11.4093609  73.8897514  88.7160086  11.3694379  74.7855164
  88.5514199  10.7438325  73.4167925  83.0254498   6.8161239  79.4150096
  82.8874296   6.0841478  80.0161635  83.9359421   6.7270139  79.1334283
  91.9869445   8.7549643  64.1634574  91.3698616   8.0296472  64.0667627
  91.5185934   9.5159004  63.8201648  85.6536798   6.5281198  78.9033775
  86.3636417   5.8874391  78.8620394  85.6106107   6.7794093  79.8259956
  93.6423577  13.4648552  81.8240354  93.5836123  12.7807772  81.1570938
  94.0443095  14.2067542  81.3720980  82.6614276  20.2810466  74.6174073
  82.9010874  20.9128990  75.2953092  81.8183472  19.9298506  74.9039433
  93.6440984  11.4288136  80.0554334  92.7567763  11.0914058  80.1780733
  94.2139535  10.6971167  80.2923100  75.2970131   7.7612227  73.3797386
  75.9841171   7.4473958  72.7918401  75.1418260   8.6653592  73.1064637
  87.1742138  16.0889588  77.0215577  87.1012309  16.8944560  77.5334882
  86.7319531  16.2881554  76.1963599  86.9631917  15.3261358  70.5318399
  86.1799439  15.8683038  70.6256623  87.6624663  15.8435338  70.9312640
  89.6340821  15.9876422  79.1773736  90.3468793  16.6223887  79.1049638
  89.1430850  16.0840288  78.3613738  91.3558348   9.8927675  70.7491028
  90.4214627  10.0129137  70.5795732  91.5335017   8.9900142  70.4851038
  84.6852735  13.7370866  79.9979307  85.3862194  14.3707349  80.1508701
  84.2147850  14.0785597  79.2374946  92.8107131  12.0788815  68.2827214
  93.0866975  11.9645410  69.1921088  91.9411629  11.6806300  68.2439387
  89.4461195  16.3275166  71.9260028  89.6283589  15.5096822  72.3887780
  90.2694181  16.5442858  71.4884918  89.7803360  15.2543351  69.1875076
  90.3091127  14.7435806  68.5745238  90.0431580  14.9385882  70.0520609
  88.5341594   7.0335284  84.3097894  87.8582231   6.9329413  84.9800270
  89.3569228   6.8774498  84.7733892  80.2820453  13.2707221  76.9310410
  80.8673890  12.5250909  77.0638314  80.0845291  13.5811177  77.8147073
  83.1359108  16.3058468  71.9472852  82.4669483  16.7904596  71.4636892
  82.9971978  16.5527688  72.8616230  74.8738108   5.8412821  75.6514853
  74.9122207   5.3076412  76.4451971  74.3678400   5.3148026  75.0325830
  87.2764377  18.3402212  78.5455510  87.8282685  18.5033833  79.3104596
  87.6170570  18.9306649  77.8735535  92.1275251  13.1663469  84.4004165
  92.6715155  13.7793427  83.9059120  91.5462096  13.7243047  84.9171178
  78.5046685   4.5676923  68.7268784  78.8000126   3.6587601  68.6735838
  77.6034721   4.5464662  68.4049786  90.4132764  16.2884187  75.5319192
  90.2883903  15.4873927  75.0230138  91.0711855  16.7830380  75.0433162
  92.4767672  14.0893207  77.1598743  91.5298008  13.9698558  77.0877069
  92.8250445  13.2015705  77.2425004  89.4814106  13.8845923  73.3603095
  89.3339068  12.9562631  73.5410665  90.3067599  13.9066014  72.8760170
  93.0848227  14.7074482  74.4467968  94.0094775  14.5017343  74.3092419
  92.9163531  14.4590883  75.3557309  92.8743544  15.2260150  69.8030059
  93.0480421  14.6606572  69.0503911  93.3672435  16.0261044  69.6209549
  78.6920504   7.2374819  77.8693618  78.1473972   8.0134627  78.0013892
  79.5699853   7.5845623  77.7112739  93.8618716  14.5426914  66.9026957
  94.5569621  15.1633607  67.1214272  94.2041866  13.6922265  67.1779335
  79.4786525   6.3644715  80.7623775  78.7368261   6.5127350  81.3488405
  79.1579270   6.6252981  79.8990524  95.7610139  11.9926619  68.4314288
  96.2861463  12.3313892  67.7063608  95.6732492  11.0573635  68.2477423
  87.4230188  15.9060693  80.5604165  87.7317314  15.6609840  81.4326864
  88.2205670  16.1107332  80.0723035  87.4450800  18.0598603  72.7909541
  87.0055790  17.5674981  73.4842398  88.1958917  17.5171570  72.5501616
  79.9243139  14.2510144  72.7934169  80.7501159  13.9513915  72.4132813
  79.5737191  13.4817766  73.2423958  84.8924672  13.6036612  74.8631843
  84.2704681  12.9407317  74.5634071  85.5629539  13.6297744  74.1805491
  78.1251744  12.1696470  73.7523103  77.2883652  11.7418644  73.5707104
  78.0975390  12.3628913  74.6893894  95.4504045  12.6259523  83.7365486
  94.6599589  12.6083662  83.1969985  95.2137400  13.1647817  84.4914523
  84.4538179  12.1540535  68.3390303  84.6026299  12.8376000  67.6856976
  85.2604623  12.1345625  68.8539759  97.0720117  11.8948931  81.2940236
  96.7804926  12.2578912  82.1303697  96.4592249  11.1815939  81.1153568
  82.2090812   8.1805713  69.3451372  81.9636854   7.2768043  69.5431582
  82.3786727   8.1822863  68.4030850  87.9533585  14.6488666  65.8102051
  87.3807552  15.2678853  65.3572523  88.5266378  15.1988027  66.3441973
  91.1730844  14.9325816  66.9410633  92.1061518  14.8671377  67.1443509
  91.0854057  15.7682083  66.4825166  93.8018861  14.2491686  63.9014581
  93.7232493  13.9151550  64.7950339  94.6228528  14.7413454  63.9006053
  88.2219076  10.0367225  84.6118760  89.1422085  10.2145824  84.8058807
  88.1868659   9.0923270  84.4598460  77.4401241   5.2305818  73.5372035
  77.1204025   4.3771126  73.2446409  76.8934669   5.4454396  74.2930002
  81.2181148   7.9468259  77.2541541  81.4367158   8.8785367  77.2729575
  81.6306922   7.5876234  78.0396345  77.3089501   8.8508730  75.5065157
  76.6152972   8.4362682  74.9935111  78.0562492   8.8929266  74.9098575
  85.9540284   6.9498604  85.4609352  85.4707365   7.7498964  85.6673241
  86.0401223   6.9606549  84.5076796  79.2226243   8.7826983  73.3831171
  79.1996931   8.8814671  72.4313055  79.5326880   9.6292134  73.7048338
  81.8813621  10.8403138  77.4977786  82.8356875  10.8087081  77.4307717
  81.6826145  10.3793762  78.3128012  82.4713003   9.4104255  80.0648584
  83.2905892   9.9048333  80.0883421  82.7449811   8.4936223  80.0366151
  80.2363850  16.3822758  74.5147984  80.1018318  15.6223159  73.9485982
  79.8195912  17.1063658  74.0476773  91.3722813  11.5659682  63.5224559
  92.0758663  11.7709684  64.1382215  90.6485462  12.1336443  63.7873643
  83.3932976  17.2792075  74.7266426  83.2765360  18.2237507  74.6245117
  82.5725422  16.9765637  75.1152226  93.2809510  12.0042211  65.5723019
  94.1155114  11.5723409  65.3900494  93.1193853  11.8324224  66.4999914
  92.9355402   8.5074324  66.9379358  92.8804206   8.3418595  65.9967802
  92.3101458   9.2150357  67.0941548  77.7247917   3.7442388  80.7640781
  78.3706781   3.2341342  81.2528006  77.5165069   4.4811070  81.3384206
  90.2501310  10.8123236  86.2632921  91.1192469  10.9863888  85.9019556
  89.7708061  11.6317653  86.1408650  84.4187490  17.9320337  77.9422355
  85.3214737  17.9643947  78.2588850  84.1924860  17.0020788  77.9568691
  86.1741092  16.6851323  74.6032433  85.2236723  16.6853185  74.4896806
  86.4773578  15.9384058  74.0868468 101.9093785  22.5211862  75.6678196
 102.5472195  22.4018609  74.9641536 101.7914628  23.4692706  75.7266148
  98.7183492  22.4739290  75.6039721  98.3802003  22.3580355  74.7160255
  99.5873260  22.0730455  75.5840727  94.5770307  24.3274766  71.5936611
  94.0135172  24.2364703  70.8252899  94.4622702  23.5074671  72.0739104
  99.2003275  23.6274142  81.5625926  99.1891915  23.2326940  80.6906430
  99.3623914  22.8940214  82.1559697  92.1234739  25.8225958  74.4320832
  92.9156031  25.4816783  74.0167131  92.3631389  25.9320933  75.3522985
 100.1569866  27.9945734  66.9051076  99.5057846  28.5799814  66.5185090
 100.9514229  28.5251929  66.9646114  94.0825493  25.0834871  67.3038211
  94.8556369  24.5363858  67.1651087  94.4350892  25.9479121  67.5152672
  95.9210536  26.4111253  80.5105110  95.6300402  27.3156884  80.3951776
  96.5567520  26.4527781  81.2249180  96.8466743  23.7888102  77.1006470
  97.4430315  23.5644124  76.3863433  96.9041714  23.0472847  77.7031918
  96.4191771  21.2427537  64.9356661  96.6717292  20.7209059  64.1740124
  95.4816330  21.0793683  65.0383344 101.4635054  20.2463316  72.7431404
 102.2498143  19.8282739  72.3921821 101.7273758  21.1509408  72.9113052
 101.6345131  25.6836166  67.4420061 100.9990964  25.7570793  68.1540965
 101.3042538  26.2729765  66.7639140 106.8643481  20.1838549  73.6464382
 107.5968653  19.6137766  73.8802212 106.1082837  19.7960149  74.0870888
  96.1388060  23.1455643  67.1381036  96.0224318  22.4700547  67.8062120
  96.2490320  22.6588017  66.3213189  98.4819601  22.6065790  70.8427725
  98.1177808  22.0796411  71.5540646  99.3386717  22.2164259  70.6694210
 104.3868901  13.8960123  78.1058991 104.0552226  14.7655534  77.8820206
 103.7914515  13.5796407  78.7853021  98.1225088  17.6355690  65.8389073
  98.2899490  18.5035926  66.2059544  97.9322257  17.7982972  64.9150363
 100.8800421  26.0972669  77.5054904 100.5801144  26.9997708  77.3970711
 100.5351480  25.8304852  78.3576057  94.3312902  22.5486466  73.5391608
  93.4063399  22.4162680  73.7469300  94.5797316  23.3280685  74.0361551
 104.2797565  18.6155209  75.1852341 103.3714442  18.5470618  74.8911102
 104.2285160  19.0927154  76.0134167  98.1014309  20.0913348  66.8235740
  97.9813934  20.5370398  67.6621220  97.4066897  20.4398665  66.2649278
  91.6921713  22.1919739  74.3735397  91.8214095  22.4454218  75.2874809
  91.0119165  22.7847447  74.0540052  95.8621201  32.8616989  70.4725871
  95.7845230  33.8124814  70.5514352  95.2582844  32.5162862  71.1300798
  98.3538430  20.0344855  83.1287238  97.5771765  20.5938775  83.1190103
  98.9928994  20.5201638  83.6502108 106.1459211  16.8171648  76.9630215
 105.5033591  17.1104181  76.3170010 105.6414140  16.7024568  77.7683412
 103.7999375  20.5634821  67.6516074 104.7117231  20.7962208  67.4763772
 103.2909022  21.1471865  67.0891153  96.6084803  22.8430308  82.6905205
  97.3499487  23.3815352  82.4140029  95.9021788  23.4696597  82.8476757
 102.0840142  24.9859449  81.2877367 102.4923498  24.5441859  80.5431999
 101.3617404  24.4112076  81.5411560  98.4371212  19.9232055  78.6610924
  99.2832408  20.3471469  78.8045573  98.3769850  19.2665680  79.3549487
 102.4068957  25.5460639  75.0429656 101.7777819  25.7106353  74.3405724
 102.0194619  25.9602249  75.8140620 106.2858189  26.4815077  72.3974019
 105.6009227  26.8613978  71.8471053 106.3702038  27.0910404  73.1305967
 101.5870658  17.5836424  80.3192097 101.3431590  18.3378484  79.7826373
 101.8630588  17.9621771  81.1539344 103.5409121  24.1275036  78.9969363
 103.7526016  24.7706796  78.3203744 103.4938869  23.2937353  78.5291293
 101.1435350  16.7392857  75.9005935 100.2819829  17.0374110  76.1922673
 101.1697784  16.9563256  74.9686968  97.9596919  25.2835047  72.3079741
  98.4235264  25.5622750  71.5184363  97.6953717  24.3818492  72.1252831
  94.8521000  24.8306529  75.2459504  95.4222357  25.2593797  74.6076989
  95.4429112  24.5489114  75.9443690  96.8965805  21.4058200  69.1169306
  97.5989848  21.8579243  69.5843232  96.5646433  20.7642019  69.7449199
  95.3446167  19.9969956  83.4920515  94.7144827  20.6786237  83.7255912
  95.2382254  19.8853038  82.5473654  90.6391139  19.6641752  74.4186439
  89.8490193  19.9199281  73.9426550  91.1302386  20.4790090  74.5238480
 104.6554948  27.0046992  77.1691720 105.4772392  26.6027179  76.8874402
 104.6517351  26.9015226  78.1207836  92.5905884  20.0286332  71.3769916
  91.7937048  20.1405026  71.8953412  92.3631477  20.3672984  70.5110807
  98.4211552  26.5531035  79.3252431  98.4855984  27.0151442  80.1610603
  97.7122476  25.9228400  79.4534741  88.9228842  19.9172243  76.8501430
  89.1736880  20.8019253  77.1159006  89.4588390  19.7376844  76.0776522
 112.7460942  23.3485740  73.5176692 111.9924650  22.7793138  73.3620696
 112.8808483  23.3148404  74.4647326  98.1359570  28.2199142  69.1931411
  98.0005244  29.0650678  69.6216259  98.6769382  28.4218420  68.4297345
  94.6226909  14.2990722  85.8545766  94.2293855  13.7456921  86.5293411
  95.4393050  14.6101301  86.2452284  91.5888967  25.7374580  69.7659336
  92.1013488  26.5317831  69.9164901  92.2411680  25.0400871  69.6992938
  93.3983852  28.8540337  71.8482089  93.5750480  29.7758301  71.6603073
  94.1940685  28.5398756  72.2776469  97.5394870  15.7148601  83.4466023
  98.2804584  16.3155754  83.3670485  97.7712793  14.9726239  82.8884065
  92.6836208  20.9004968  81.7244253  92.5689723  19.9990226  82.0251352
  91.8280726  21.1468665  81.3729069  99.7628046  28.8422709  83.3231753
  99.3191900  28.0559087  83.0052658 100.4245260  29.0301859  82.6575644
  94.5215167  30.3718510  77.8492432  95.0722592  30.2435574  77.0769426
  93.6826643  30.6713399  77.4987325 101.8609284  29.1225509  81.3513154
 101.8427759  29.9434390  80.8593424 102.7829204  28.9979584  81.5763296
  98.3182338  26.6369638  82.1936663  98.8510675  25.8757926  81.9635971
  97.7896419  26.3443290  82.9360817 101.4852033  11.7429704  77.7230305
 101.1416303  12.6331346  77.6469415 101.8530996  11.5531362  76.8599890
  89.5537884  24.0663235  70.5418907  90.3913106  24.4760243  70.3252614
  89.7316151  23.1262677  70.5119101 101.4502316  21.7338315  66.2302740
 100.9348939  22.5042920  66.4691127 101.1779624  21.0603451  66.8535801
  99.0349427  16.5788016  71.2887978  98.1791023  16.1894866  71.1093617
  99.4476379  16.6579977  70.4287764 100.5648574  14.1134359  75.6879538
 100.0613369  14.0764494  74.8747343 100.8579180  15.0227102  75.7476194
  96.8091459  14.1973089  74.6945720  97.6744456  14.0015898  74.3351609
  96.8768968  13.9683441  75.6215076 106.4236590  24.4870670  68.1655913
 105.6466033  24.1481829  67.7211075 107.1028071  24.4923293  67.4910878
 101.2388619  19.6065407  68.0562521 100.9338755  19.9211557  68.9072664
 102.1919061  19.6846827  68.0989854  99.6835051  25.7655631  69.7055475
  99.1556412  25.0308390  69.3928712  99.1822554  26.5430307  69.4595443
 104.6627897  23.9604651  74.8222521 104.0051571  24.6503913  74.9102650
 105.4668296  24.3501083  75.1656508  94.4153779  16.4275297  72.0662086
  94.9897530  16.2050478  71.3335279  95.0024761  16.4963991  72.8190688
 103.4733356  22.3149024  72.8726463 103.9865237  22.9479016  73.3748173
 104.1234580  21.7150219  72.5069823  94.7423366  18.4579758  66.0857972
  93.9060678  18.7954445  66.4067246  94.6028135  18.3228738  65.1485109
  96.7176446  13.3016546  70.7937156  96.0640859  12.9865563  70.1693771
  96.6756920  12.6792286  71.5196979  97.8287651  23.5835841  62.7090448
  96.9214713  23.3525094  62.9081597  98.3258683  22.7873460  62.8964429
 100.7355730  32.2933348  65.6287134 100.0617429  32.5965045  66.2372092
 101.1221552  33.0962428  65.2792591  99.9514187  19.7898479  75.1184803
  99.0336748  20.0113426  74.9606491 100.3674330  19.8644790  74.2596511
 100.7349234  21.1889895  70.2487484 101.4821053  21.7011292  69.9394606
 101.0040824  20.8673948  71.1091877  99.0075885  23.6848436  67.2314438
  98.0987104  23.4007469  67.3286908  99.0370968  24.1047514  66.3717745
 104.2395152  27.2955025  71.0005606 103.7857479  26.4545935  71.0570796
 103.6089119  27.9316424  71.3380386 103.1828071  18.2247011  72.2306273
 102.4450828  17.7124398  72.5616516 103.4354845  17.7847393  71.4189550
 102.6828091  29.1331522  71.9355424 102.9751066  29.6936579  71.2167789
 103.1926712  29.4260083  72.6908583  89.5764055  21.4053950  71.2129640
  89.3788455  20.8123311  70.4880707  89.0210719  21.1006160  71.9305579
  97.5560779  21.2977056  73.3324233  97.6109388  20.3450893  73.2566710
  96.7451981  21.4536496  73.8165532  98.7051972  25.2257179  64.5702517
  98.2671402  24.5093038  64.1108154  99.4462413  25.4533294  64.0087608
  95.4953138  19.9154116  71.0914612  94.6821004  20.2148287  71.4979804
  95.9912133  19.5209805  71.8089094  97.6461716  29.9111873  73.0248877
  97.6037895  30.1372719  72.0957409  98.5624415  29.6775248  73.1734678
 101.0927350  20.3795941  79.9229506 101.4476738  20.6067414  80.7823972
 101.7399481  20.7114317  79.3006761 106.8225087  23.5014377  70.6278835
 106.6842986  23.6915972  69.7000024 106.4661306  24.2633759  71.0846886
  94.9867213  17.4872472  76.7075847  95.6266593  17.3461231  76.0098810
  94.1544744  17.2006985  76.3314449 106.8494467  25.5690904  75.6390107
 107.2830973  25.4766193  76.4873161 107.5626047  25.5448404  75.0010123
  95.7627517  26.7874902  72.8210840  96.5568116  26.2925222  72.6193415
  95.0519210  26.2592765  72.4578545 100.5822362  29.1692998  77.1723207
 100.6359384  29.7383934  77.9400923  99.7137143  29.3394883  76.8077244
  92.0710281  20.9317984  68.8970592  91.1407869  20.8702439  69.1140554
  92.1667753  20.4093937  68.1007234  91.9895830  17.4572797  71.4848834
  92.2502647  18.3718130  71.3757994  92.8113002  16.9897239  71.6345447
  93.4620755  18.8710554  78.6547658  94.1343808  18.6627916  78.0060307
  92.6350542  18.6732640  78.2152891 107.7110016  25.6114604  78.1722992
 107.9045906  26.5160415  78.4182267 107.6110634  25.1522023  79.0061577
  99.3646327  15.4972495  80.6713319  98.7174242  16.1962444  80.5777796
 100.1347342  15.9308639  81.0389568 102.7725125  25.7621347  83.7463873
 102.6210631  25.5331899  82.8293956 102.7629804  26.7191948  83.7595218
  99.5410461  23.3353260  78.7310139 100.4702521  23.4864419  78.5579106
  99.1201491  23.4237280  77.8758786  98.3398793  27.3603924  76.5008677
  98.2009879  26.9922708  77.3734615  97.5513389  27.8751564  76.3292635
  98.9346945  32.4613021  67.8434213  99.1098701  31.9901064  68.6579836
  98.2479733  33.0878787  68.0715474  99.8904008  26.7385527  73.8897514
  99.5553841  26.6986297  74.7855164  99.3907954  26.0730243  73.4167925
  93.8648252  22.1453157  79.4150096  93.7268050  21.4133396  80.0161635
  94.7753176  22.0562057  79.1334283 102.8263200  24.0841561  64.1634574
 102.2092371  23.3588389  64.0667627 102.3579688  24.8450921  63.8201648
  96.4930553  21.8573116  78.9033775  97.2030171  21.2166308  78.8620394
  96.4499861  22.1086011  79.8259956 104.4817332  28.7940469  81.8240354
 104.4229878  28.1099690  81.1570938 104.8836850  29.5359459  81.3720980
  95.2059487  18.8438334  80.7229415  94.6696844  18.3929072  81.3751011
  94.6176195  18.9784243  79.9799879  93.5008030  35.6102383  74.6174073
  93.7404629  36.2420907  75.2953092  92.6577227  35.2590423  74.9039433
  94.6161746  18.3026985  63.2855878  93.7391212  18.1815786  62.9218125
  95.0919499  17.5113064  63.0334767 104.4834739  26.7580053  80.0554334
 103.5961518  26.4205975  80.1780733 105.0533290  26.0263085  80.2923100
  86.1363886  23.0904145  73.3797386  86.8234926  22.7765875  72.7918401
  85.9812015  23.9945510  73.1064637  90.9398608  17.9794342  77.8082409
  90.8556797  17.3720011  77.0732819  90.1181315  18.4703360  77.8091906
  98.0135892  31.4181506  77.0215577  97.9406064  32.2236477  77.5334882
  97.5713285  31.6173472  76.1963599  97.8025672  30.6553276  70.5318399
  97.0193194  31.1974956  70.6256623  98.5018417  31.1727255  70.9312640
 101.1122322  16.4647905  73.1752604 101.6091022  15.7117868  72.8553675
 100.3409304  16.5012222  72.6095814 108.9652079  22.1688271  74.8170896
 108.9541956  23.0512986  74.4464829 108.0969459  21.8159822  74.6225433
 100.4734576  31.3168340  79.1773736 101.1862548  31.9515805  79.1049638
  99.9824604  31.4132206  78.3613738 102.1952103  25.2219592  70.7491028
 101.2608381  25.3421055  70.5795732 102.3728771  24.3192059  70.4851038
  97.6957291  18.6065288  72.9024289  97.3255078  18.0536329  73.5905194
  98.1916383  18.0023422  72.3499289 105.5824654  21.0636912  71.2841062
 106.0485106  21.8964903  71.2101365 106.0332155  20.5981893  71.9886320
  95.5246489  29.0662783  79.9979307  96.2255949  29.6999266  80.1508701
  95.0541604  29.4077515  79.2374946 103.6500885  27.4080733  68.2827214
 103.9260729  27.2937328  69.1921088 102.7805384  27.0098218  68.2439387
 103.5541317  13.4317499  75.3231963 102.6404397  13.6621726  75.4914170
 103.9834418  13.5155943  76.1745996 103.3247775  21.6207391  77.8231857
 102.6719226  21.8683298  77.1684310 103.7028155  20.8071529  77.4894335
 100.2854949  31.6567084  71.9260028 100.4677344  30.8388740  72.3887780
 101.1087935  31.8734776  71.4884918 100.6197115  30.5835269  69.1875076
 101.1484881  30.0727724  68.5745238 100.8825334  30.2677799  70.0520609
  99.3735348  22.3627202  84.3097894  98.6975985  22.2621331  84.9800270
 100.1962982  22.2066416  84.7733892  91.1214207  28.5999138  76.9310410
  91.7067644  27.8542826  77.0638314  90.9239046  28.9103095  77.8147073
  93.9752863  31.6350386  71.9472852  93.3063238  32.1196513  71.4636892
  93.8365732  31.8819606  72.8616230  85.7131862  21.1704739  75.6514853
  85.7515962  20.6368329  76.4451971  85.2072155  20.6439944  75.0325830
  98.1158131  33.6694129  78.5455510  98.6676439  33.8325751  79.3104596
  98.4564325  34.2598567  77.8735535  93.0922624  16.0169279  79.1477395
  93.1563951  16.8784110  78.7354793  93.0289745  15.4043281  78.4149754
  92.5674897  18.0892412  82.7950429  93.1946936  17.7069489  83.4087954
  91.7102816  17.8706614  83.1606122 102.9669006  28.4955387  84.4004165
 103.5108909  29.1085345  83.9059120 102.3855850  29.0534965  84.9171178
  89.3440440  19.8968841  68.7268784  89.6393881  18.9879519  68.6735838
  88.4428475  19.8756580  68.4049786 101.2526518  31.6176105  75.5319192
 101.1277658  30.8165845  75.0230138 101.9105610  32.1122298  75.0433162
  92.8734687  17.9724837  74.7096333  92.1521272  18.5860805  74.5703806
  93.6627942  18.5082602  74.6312979 103.3161427  29.4185125  77.1598743
 102.3691762  29.2990476  77.0877069 103.6644200  28.5307623  77.2425004
  95.6761000  15.3079264  80.9836984  96.1995402  15.5541560  81.7463294
  95.4573333  16.1399299  80.5640122  91.0728281  17.5782938  68.8508109
  90.7440987  16.6980317  68.6683215  91.4267652  17.5230607  69.7384498
 100.3207860  29.2137841  73.3603095 100.1732823  28.2854548  73.5410665
 101.1461354  29.2357932  72.8760170  94.1870104  17.8655908  69.2183587
  94.5266177  18.3941829  68.4962195  94.6342225  18.2036314  69.9942153
 103.9241982  30.0366400  74.4467968 104.8488529  29.8309261  74.3092419
 103.7557285  29.7882801  75.3557309  96.8813545  16.2492959  78.6686655
  96.5410366  15.4500772  79.0707335  96.1752552  16.5494670  78.0963488
  97.5330017  13.3342271  77.1213978  98.3556086  12.8602749  76.9992868
  97.7768081  14.1132755  77.6212664  96.1738252  16.3630530  67.4176880
  96.8946614  16.7411783  66.9140597  95.5503556  17.0819407  67.5211858
 100.3169374  17.0675679  68.3535212 100.5332989  17.9500317  68.0524040
  99.8363442  16.6761892  67.6240854  95.0568596  20.0261392  74.9305957
  94.9113177  20.3401695  75.8230238  94.5793799  20.6446292  74.3776855
  96.9164979  17.0163940  74.9786846  96.9026547  16.1205033  74.6419144
  97.6337407  17.0234604  75.6125132  98.7691109  17.4501280  77.0239974
  98.5108887  18.3718351  77.0224304  98.2376150  17.0531715  77.7140438
 103.7137298  30.5552067  69.8030059 103.8874176  29.9898490  69.0503911
 104.2066189  31.3552962  69.6209549  89.5314258  22.5666736  77.8693618
  88.9867726  23.3426544  78.0013892  90.4093608  22.9137541  77.7112739
  96.3201875  15.8978320  70.2474416  96.4417786  14.9694966  70.4465304
  96.0303917  15.9117006  69.3352732  99.1893065  13.5833231  73.3841136
  99.2114762  13.6472564  72.4293116  99.6061124  12.7437739  73.5781642
 109.5676689  23.3188490  71.4220359 110.0107835  22.5695815  71.0239482
 108.6903200  23.3098627  71.0394091 104.7012471  29.8718832  66.9026957
 105.3963375  30.4925524  67.1214272 105.0435621  29.0214183  67.1779335
  90.3180280  21.6936633  80.7623775  89.5762016  21.8419268  81.3488405
  89.9973024  21.9544898  79.8990524 106.6003894  27.3218537  68.4314288
 107.1255218  27.6605810  67.7063608 106.5126246  26.3865552  68.2477423
  98.2623943  31.2352611  80.5604165  98.5711069  30.9901758  81.4326864
  99.0599425  31.4399249  80.0723035  98.2844555  33.3890520  72.7909541
  97.8449545  32.8966899  73.4842398  99.0352672  32.8463488  72.5501616
  90.7636894  29.5802061  72.7934169  91.5894913  29.2805833  72.4132813
  90.4130946  28.8109684  73.2423958  95.7318427  28.9328530  74.8631843
  95.1098436  28.2699235  74.5634071  96.4023294  28.9589661  74.1805491
  88.9645499  27.4988388  73.7523103  88.1277407  27.0710562  73.5707104
  88.9369144  27.6920831  74.6893894  95.8042954  17.4110318  84.4564349
  95.8531110  18.2872440  84.0742119  96.3465468  16.8687711  83.8835992
 106.2897800  27.9551441  83.7365486 105.4993344  27.9375580  83.1969985
 106.0531154  28.4939734  84.4914523 106.4095675  24.8043907  81.0498215
 106.4593680  24.6393915  81.9913737 106.3009598  23.9371166  80.6596095
  95.2931934  27.4832453  68.3390303  95.4420054  28.1667917  67.6856976
  96.0998377  27.4637543  68.8539759 103.6999437  20.7874835  82.3657521
 104.6009300  20.6481300  82.0741519 103.7747412  20.9529290  83.3055699
  98.0342243  18.1641690  81.2110708  97.1645552  18.4575256  80.9393296
  98.2701723  18.7482135  81.9317971 107.9113872  27.2240849  81.2940236
 107.6198680  27.5870829  82.1303697 107.2986003  26.5107857  81.1153568
 109.1109554  24.7893728  73.8142806 109.9456445  25.2283533  73.9780367
 109.2468683  24.3132382  72.9951052 106.1601060  22.3473463  79.7620294
 106.6355182  22.5401110  78.9539145 105.2366625  22.4032649  79.5163678
  93.0484567  23.5097631  69.3451372  92.8030609  22.6059961  69.5431582
  93.2180481  23.5114781  68.4030850 100.7381276  14.3821307  78.7276128
 101.2563220  15.1182334  78.4022617 100.3836409  14.6885300  79.5622887
  92.3180214  19.2425988  66.8437534  91.6249459  19.3170343  66.1877570
  92.0731966  18.4786332  67.3659051  98.7927339  29.9780583  65.8102051
  98.2201306  30.5970770  65.3572523  99.3660133  30.5279945  66.3441973
 104.8602729  19.2239223  77.9948600 105.8120152  19.3237321  78.0160824
 104.6906179  18.4317492  78.5046684 102.8817108  16.3094807  78.1808001
 102.2867041  16.5899819  77.4854489 102.5966805  16.7988708  78.9524742
 102.0124599  30.2617733  66.9410633 102.9455272  30.1963295  67.1443509
 101.9247812  31.0974000  66.4825166 104.6412616  29.5783604  63.9014581
 104.5626247  29.2443467  64.7950339 105.4622282  30.0705372  63.9006053
 107.3390807  22.4445343  77.1090899 107.3067127  21.5061344  77.2950583
 107.9491430  22.5229380  76.3756724  99.1774138  21.3141396  63.1518103
 100.1233242  21.1847604  63.2206521  98.7988383  20.5756058  63.6287532
 107.4885295  19.2356387  77.1549182 106.9724344  18.4514843  76.9679111
 108.3725244  18.9075103  77.3195702 105.1496022  12.9797402  73.1144995
 104.9520843  12.6712490  73.9988327 105.7595728  13.7059041  73.2442925
 113.1567357  23.5061350  76.2496936 113.8870745  23.2446638  76.8104639
 112.5474302  22.7690072  76.2899004 111.2382654  21.6469213  76.8471387
 110.5115817  21.5125177  76.2387879 110.8229941  21.9546041  77.6528105
  99.0612830  25.3659142  84.6118760  99.9815840  25.5437741  84.8058807
  99.0262413  24.4215188  84.4598460  97.3617055  19.2391372  63.0872989
  96.4548510  18.9424485  63.1635702  97.6393036  18.9421191  62.2207275
  88.2794995  20.5597736  73.5372035  87.9597780  19.7063044  73.2446409
  87.7328423  20.7746314  74.2930002  92.0574903  23.2760177  77.2541541
  92.2760912  24.2077285  77.2729575  92.4700677  22.9168151  78.0396345
  98.9779121  13.7828262  69.2417230  98.1679849  13.4375347  69.6172476
  99.6663537  13.4735806  69.8304841 100.9069669  12.8606309  70.8641527
 101.4600707  13.2801762  71.5231550 101.1439755  11.9342057  70.9064483
  96.9302768  18.8493383  86.6444290  96.8299495  19.7987740  86.5756382
  96.7124310  18.5211622  85.7720361  96.1315839  16.0978308  63.2284968
  96.9935003  16.4233206  63.4880785  96.3166184  15.3109804  62.7158034
  88.1483255  24.1800647  75.5065157  87.4546727  23.7654600  74.9935111
  88.8956246  24.2221184  74.9098575 104.2848476  14.9706834  70.3720191
 103.7047145  15.6291638  69.9898243 104.0184409  14.1484179  69.9607608
 102.7352042  14.3711892  72.5741511 103.2351821  14.4828426  71.7655830
 103.3787650  14.0672945  73.2142320  96.7934038  22.2790521  85.4609352
  96.3101120  23.0790882  85.6673241  96.8794977  22.2898466  84.5076796
  90.0619998  24.1118901  73.3831171  90.0390686  24.2106588  72.4313055
  90.3720634  24.9584052  73.7048338  92.7207376  26.1695056  77.4977786
  93.6750629  26.1378999  77.4307717  92.5219899  25.7085680  78.3128012
  93.3106758  24.7396172  80.0648584  94.1299647  25.2340251  80.0883421
  93.5843565  23.8228140  80.0366151 103.0673354  17.1306925  69.4276539
 102.1799209  17.4156575  69.2096734 103.4827343  16.9700688  68.5803816
 106.4187890  17.1553446  73.1430878 107.1948280  17.6449898  73.4155495
 105.6936024  17.5811500  73.6002748 108.8560449  17.8681065  74.2004819
 109.4504939  17.6276801  73.4898127 108.9287032  17.1488195  74.8278355
  91.0757604  31.7114676  74.5147984  90.9412072  30.9515077  73.9485982
  90.6589667  32.4355576  74.0476773 102.2116567  26.8951599  63.5224559
 102.9152417  27.1001602  64.1382215 101.4879216  27.4628361  63.7873643
 103.0414378  22.6461460  69.6426829 102.9849579  23.1030012  68.8034462
 103.5942720  21.8852145  69.4649672 106.8519184  18.4351192  70.4676949
 106.5956118  18.0347828  71.2985156 106.2272052  19.1494986  70.3427088
 111.1631521  21.1747266  72.9748240 110.6031079  21.2440455  73.7479802
 110.5575025  20.9988250  72.2547736  94.2326730  32.6083993  74.7266426
  94.1159114  33.5529425  74.6245117  93.4119177  32.3057554  75.1152226
 104.1203265  27.3334128  65.5723019 104.9548869  26.9015327  65.3900494
 103.9587608  27.1616142  66.4999914 103.7749157  23.8366242  66.9379358
 103.7197961  23.6710513  65.9967802 103.1495212  24.5442275  67.0941548
  88.5641672  19.0734306  80.7640781  89.2100536  18.5633260  81.2528006
  88.3558823  19.8102988  81.3384206 101.0895064  26.1415154  86.2632921
 101.9586224  26.3155806  85.9019556 100.6101816  26.9609570  86.1408650
  97.0845282  13.3374351  66.5164677  97.0723952  14.2816191  66.6732948
  97.9768704  13.1544496  66.2224138  95.2581244  33.2612255  77.9422355
  96.1608491  33.2935865  78.2588850  95.0318614  32.3312706  77.9568691
  97.0134846  32.0143241  74.6032433  96.0630477  32.0145103  74.4896806
  97.3167333  31.2675976  74.0868468  92.9039163  16.2201923  84.8615795
  93.7670625  15.8638728  85.0719119  92.3304574  15.8815818  85.5491199
 112.7487540  37.8503780  75.6678196 113.3865950  37.7310527  74.9641536
 112.6308383  38.7984623  75.7266148 109.5577246  37.8031208  75.6039721
 109.2195758  37.6872272  74.7160255 110.4267014  37.4022373  75.5840727
 105.4164062  39.6566684  71.5936611 104.8528927  39.5656621  70.8252899
 105.3016457  38.8366588  72.0739104 110.0397029  38.9566059  81.5625926
 110.0285670  38.5618858  80.6906430 110.2017669  38.2232132  82.1559697
 102.9628494  41.1517876  74.4320832 103.7549786  40.8108700  74.0167131
 103.2025144  41.2612851  75.3522985 110.9963621  43.3237652  66.9051076
 110.3451600  43.9091732  66.5185090 111.7907983  43.8543847  66.9646114
 104.9219248  40.4126789  67.3038211 105.6950124  39.8655776  67.1651087
 105.2744647  41.2771038  67.5152672 106.7604290  41.7403171  80.5105110
 106.4694156  42.6448802  80.3951776 107.3961275  41.7819699  81.2249180
 107.6860497  39.1180020  77.1006470 108.2824069  38.8936042  76.3863433
 107.7435469  38.3764765  77.7031918 107.2585526  36.5719455  64.9356661
 107.5111046  36.0500976  64.1740124 106.3210085  36.4085600  65.0383344
 112.3028808  35.5755233  72.7431404 113.0891898  35.1574657  72.3921821
 112.5667513  36.4801326  72.9113052 112.4738886  41.0128084  67.4420061
 111.8384719  41.0862710  68.1540965 112.1436292  41.6021682  66.7639140
 117.7037235  35.5130467  73.6464382 118.4362407  34.9429683  73.8802212
 116.9476591  35.1252067  74.0870888 106.9781814  38.4747561  67.1381036
 106.8618072  37.7992464  67.8062120 107.0884074  37.9879935  66.3213189
 109.3213355  37.9357708  70.8427725 108.9571562  37.4088329  71.5540646
 110.1780471  37.5456177  70.6694210 115.2262656  29.2252041  78.1058991
 114.8945981  30.0947452  77.8820206 114.6308269  28.9088325  78.7853021
 108.9618842  32.9647608  65.8389073 109.1293245  33.8327844  66.2059544
 108.7716011  33.1274889  64.9150363 111.7194175  41.4264587  77.5054904
 111.4194898  42.3289625  77.3970711 111.3745235  41.1596770  78.3576057
 105.1706657  37.8778383  73.5391608 104.2457153  37.7454598  73.7469300
 105.4191070  38.6572603  74.0361551 115.1191319  33.9447127  75.1852341
 114.2108196  33.8762535  74.8911102 115.0678915  34.4219072  76.0134167
 108.9408063  35.4205265  66.8235740 108.8207688  35.8662316  67.6621220
 108.2460651  35.7690583  66.2649278 102.5315468  37.5211657  74.3735397
 102.6607849  37.7746136  75.2874809 101.8512919  38.1139365  74.0540052
 106.7014955  48.1908907  70.4725871 106.6238985  49.1416732  70.5514352
 106.0976599  47.8454780  71.1300798 109.1932185  35.3636772  83.1287238
 108.4165519  35.9230693  83.1190103 109.8322748  35.8493555  83.6502108
 116.9852966  32.1463565  76.9630215 116.3427346  32.4396098  76.3170010
 116.4807894  32.0316486  77.7683412 114.6393129  35.8926738  67.6516074
 115.5510985  36.1254125  67.4763772 114.1302776  36.4763783  67.0891153
 107.4478557  38.1722226  82.6905205 108.1893242  38.7107270  82.4140029
 106.7415543  38.7988515  82.8476757 112.9233897  40.3151366  81.2877367
 113.3317253  39.8733777  80.5431999 112.2011158  39.7403994  81.5411560
 109.2764967  35.2523973  78.6610924 110.1226162  35.6763387  78.8045573
 109.2163605  34.5957597  79.3549487 113.2462712  40.8752557  75.0429656
 112.6171574  41.0398271  74.3405724 112.8588374  41.2894166  75.8140620
 117.1251943  41.8106995  72.3974019 116.4402982  42.1905896  71.8471053
 117.2095793  42.4202321  73.1305967 112.4264412  32.9128341  80.3192097
 112.1825344  33.6670402  79.7826373 112.7024343  33.2913689  81.1539344
 114.3802875  39.4566954  78.9969363 114.5919770  40.0998714  78.3203744
 114.3332623  38.6229270  78.5291293 111.9829104  32.0684774  75.9005935
 111.1213583  32.3666028  76.1922673 112.0091539  32.2855173  74.9686968
 108.7990673  40.6126965  72.3079741 109.2629019  40.8914668  71.5184363
 108.5347472  39.7110410  72.1252831 105.6914754  40.1598447  75.2459504
 106.2616112  40.5885715  74.6076989 106.2822866  39.8781031  75.9443690
 107.7359559  36.7350117  69.1169306 108.4383603  37.1871161  69.5843232
 107.4040188  36.0933936  69.7449199 106.1839921  35.3261874  83.4920515
 105.5538582  36.0078155  83.7255912 106.0776009  35.2144956  82.5473654
 101.4784893  34.9933670  74.4186439 100.6883947  35.2491199  73.9426550
 101.9696141  35.8082008  74.5238480 115.4948703  42.3338909  77.1691720
 116.3166147  41.9319096  76.8874402 115.4911106  42.2307143  78.1207836
 103.4299639  35.3578249  71.3769916 102.6330802  35.4696943  71.8953412
 103.2025231  35.6964901  70.5110807 109.2605306  41.8822952  79.3252431
 109.3249739  42.3443360  80.1610603 108.5516230  41.2520317  79.4534741
  99.7622596  35.2464160  76.8501430 100.0130635  36.1311170  77.1159006
 100.2982145  35.0668762  76.0776522 108.9753324  43.5491060  69.1931411
 108.8398999  44.3942596  69.6216259 109.5163137  43.7510338  68.4297345
 105.4620664  29.6282640  85.8545766 105.0687609  29.0748838  86.5293411
 106.2786804  29.9393218  86.2452284 102.4282721  41.0666498  69.7659336
 102.9407242  41.8609748  69.9164901 103.0805434  40.3692788  69.6992938
 104.2377606  44.1832254  71.8482089 104.4144235  45.1050219  71.6603073
 105.0334440  43.8690673  72.2776469 108.3788625  31.0440519  83.4466023
 109.1198338  31.6447672  83.3670485 108.6106548  30.3018157  82.8884065
 103.5229963  36.2296886  81.7244253 103.4083478  35.3282143  82.0251352
 102.6674480  36.4760583  81.3729069 110.6021800  44.1714626  83.3231753
 110.1585655  43.3851005  83.0052658 111.2639014  44.3593777  82.6575644
 105.3608922  45.7010428  77.8492432 105.9116347  45.5727491  77.0769426
 104.5220398  46.0005317  77.4987325 112.7003039  44.4517426  81.3513154
 112.6821514  45.2726307  80.8593424 113.6222959  44.3271502  81.5763296
 109.1576093  41.9661556  82.1936663 109.6904429  41.2049844  81.9635971
 108.6290174  41.6735208  82.9360817 112.3245788  27.0721622  77.7230305
 111.9810057  27.9623264  77.6469415 112.6924750  26.8823279  76.8599890
 100.3931638  39.3955152  70.5418907 101.2306860  39.8052161  70.3252614
 100.5709906  38.4554594  70.5119101 112.2896070  37.0630233  66.2302740
 111.7742694  37.8334838  66.4691127 112.0173379  36.3895369  66.8535801
 109.8743181  31.9079934  71.2887978 109.0184778  31.5186784  71.1093617
 110.2870133  31.9871895  70.4287764 111.4042328  29.4426277  75.6879538
 110.9007124  29.4056412  74.8747343 111.6972935  30.3519020  75.7476194
 107.6485214  29.5265007  74.6945720 108.5138211  29.3307815  74.3351609
 107.7162723  29.2975358  75.6215076 117.2630345  39.8162588  68.1655913
 116.4859787  39.4773747  67.7211075 117.9421825  39.8215211  67.4910878
 112.0782374  34.9357325  68.0562521 111.7732509  35.2503474  68.9072664
 113.0312816  35.0138745  68.0989854 110.5228805  41.0947548  69.7055475
 109.9950167  40.3600308  69.3928712 110.0216308  41.8722225  69.4595443
 115.5021651  39.2896569  74.8222521 114.8445326  39.9795830  74.9102650
 116.3062051  39.6793001  75.1656508 105.2547533  31.7567215  72.0662086
 105.8291285  31.5342396  71.3335279 105.8418515  31.8255909  72.8190688
 114.3127110  37.6440942  72.8726463 114.8258992  38.2770933  73.3748173
 114.9628334  37.0442137  72.5069823 105.5817120  33.7871676  66.0857972
 104.7454432  34.1246362  66.4067246 105.4421890  33.6520655  65.1485109
 107.5570201  28.6308464  70.7937156 106.9034613  28.3157481  70.1693771
 107.5150675  28.0084204  71.5196979 108.6681406  38.9127759  62.7090448
 107.7608467  38.6817012  62.9081597 109.1652438  38.1165378  62.8964429
 111.5749484  47.6225266  65.6287134 110.9011183  47.9256963  66.2372092
 111.9615306  48.4254346  65.2792591 110.7907941  35.1190397  75.1184803
 109.8730502  35.3405344  74.9606491 111.2068085  35.1936708  74.2596511
 111.5742989  36.5181813  70.2487484 112.3214808  37.0303210  69.9394606
 111.8434578  36.1965865  71.1091877 109.8469639  39.0140353  67.2314438
 108.9380858  38.7299386  67.3286908 109.8764723  39.4339432  66.3717745
 115.0788906  42.6246943  71.0005606 114.6251234  41.7837853  71.0570796
 114.4482873  43.2608341  71.3380386 114.0221826  33.5538929  72.2306273
 113.2844583  33.0416315  72.5616516 114.2748600  33.1139311  71.4189550
 113.5221846  44.4623440  71.9355424 113.8144820  45.0228497  71.2167789
 114.0320466  44.7552001  72.6908583 114.1233453  26.3315181  72.8248042
 114.4292330  25.4712544  72.5373957 114.8486058  26.9232801  72.6247036
 100.4157809  36.7345868  71.2129640 100.2182209  36.1415228  70.4880707
  99.8604473  36.4298078  71.9305579 108.3954533  36.6268974  73.3324233
 108.4503143  35.6742810  73.2566710 107.5845735  36.7828413  73.8165532
 109.5445727  40.5549097  64.5702517 109.1065157  39.8384956  64.1108154
 110.2856168  40.7825212  64.0087608 106.3346893  35.2446034  71.0914612
 105.5214759  35.5440204  71.4979804 106.8305887  34.8501723  71.8089094
 108.4855471  45.2403791  73.0248877 108.4431650  45.4664637  72.0957409
 109.4018170  45.0067165  73.1734678 111.9321105  35.7087858  79.9229506
 112.2870492  35.9359331  80.7823972 112.5793236  36.0406235  79.3006761
 117.6618842  38.8306294  70.6278835 117.5236740  39.0207890  69.7000024
 117.3055060  39.5925677  71.0846886 105.8260968  32.8164389  76.7075847
 106.4660347  32.6753148  76.0098810 104.9938498  32.5298903  76.3314449
 117.6888221  40.8982821  75.6390107 118.1224728  40.8058110  76.4873161
 118.4019802  40.8740322  75.0010123 106.6021272  42.1166820  72.8210840
 107.3961870  41.6217140  72.6193415 105.8912964  41.5884683  72.4578545
 111.4216116  44.4984915  77.1723207 111.4753138  45.0675852  77.9400923
 110.5530897  44.6686800  76.8077244 102.9104035  36.2609902  68.8970592
 101.9801623  36.1994357  69.1140554 103.0061507  35.7385854  68.1007234
 102.8289584  32.7864714  71.4848834 103.0896401  33.7010048  71.3757994
 103.6506756  32.3189157  71.6345447 104.3014509  34.2002472  78.6547658
 104.9737563  33.9919834  78.0060307 103.4744296  34.0024558  78.2152891
 118.5503771  40.9406522  78.1722992 118.7439661  41.8452332  78.4182267
 118.4504389  40.4813941  79.0061577 110.2040081  30.8264412  80.6713319
 109.5567997  31.5254362  80.5777796 110.9741097  31.2600556  81.0389568
 113.6118879  41.0913265  83.7463873 113.4604386  40.8623816  82.8293956
 113.6023559  42.0483866  83.7595218 110.3804216  38.6645177  78.7310139
 111.3096276  38.8156337  78.5579106 109.9595246  38.7529198  77.8758786
 109.1792548  42.6895842  76.5008677 109.0403633  42.3214626  77.3734615
 108.3907144  43.2043481  76.3292635 109.7740700  47.7904938  67.8434213
 109.9492455  47.3192981  68.6579836 109.0873488  48.4170704  68.0715474
 110.7297763  42.0677444  73.8897514 110.3947595  42.0278214  74.7855164
 110.2301708  41.4022160  73.4167925 104.7042007  37.4745074  79.4150096
 104.5661805  36.7425313  80.0161635 105.6146930  37.3853975  79.1334283
 113.6656954  39.4133479  64.1634574 113.0486125  38.6880307  64.0667627
 113.1973443  40.1742839  63.8201648 107.3324307  37.1865034  78.9033775
 108.0423926  36.5458226  78.8620394 107.2893616  37.4377929  79.8259956
 115.3211086  44.1232387  81.8240354 115.2623632  43.4391607  81.1570938
 115.7230604  44.8651377  81.3720980 106.0453241  34.1730252  80.7229415
 105.5090598  33.7220990  81.3751011 105.4569950  34.3076161  79.9799879
 104.3401785  50.9394301  74.6174073 104.5798383  51.5712825  75.2953092
 103.4970981  50.5882341  74.9039433 105.4555500  33.6318903  63.2855878
 104.5784967  33.5107704  62.9218125 105.9313253  32.8404981  63.0334767
 115.3228493  42.0871971  80.0554334 114.4355272  41.7497893  80.1780733
 115.8927044  41.3555002  80.2923100  96.9757640  38.4196063  73.3797386
  97.6628680  38.1057793  72.7918401  96.8205769  39.3237427  73.1064637
 101.7792363  33.3086259  77.8082409 101.6950551  32.7011929  77.0732819
 100.9575069  33.7995278  77.8091906 108.8529647  46.7473423  77.0215577
 108.7799818  47.5528395  77.5334882 108.4107040  46.9465389  76.1963599
 108.6419426  45.9845193  70.5318399 107.8586948  46.5266874  70.6256623
 109.3412172  46.5019173  70.9312640 111.9516076  31.7939823  73.1752604
 112.4484776  31.0409785  72.8553675 111.1803058  31.8304140  72.6095814
 119.8045834  37.4980188  74.8170896 119.7935710  38.3804904  74.4464829
 118.9363213  37.1451739  74.6225433 111.3128330  46.6460257  79.1773736
 112.0256302  47.2807722  79.1049638 110.8218359  46.7424123  78.3613738
 113.0345857  40.5511510  70.7491028 112.1002136  40.6712973  70.5795732
 113.2122526  39.6483977  70.4851038 108.5351045  33.9357206  72.9024289
 108.1648833  33.3828246  73.5905194 109.0310138  33.3315339  72.3499289
 116.4218409  36.3928829  71.2841062 116.8878861  37.2256821  71.2101365
 116.8725909  35.9273811  71.9886320 106.3640244  44.3954701  79.9979307
 107.0649703  45.0291184  80.1508701 105.8935359  44.7369432  79.2374946
 114.4894640  42.7372651  68.2827214 114.7654484  42.6229245  69.1921088
 113.6199138  42.3390136  68.2439387 114.3935071  28.7609416  75.3231963
 113.4798151  28.9913643  75.4914170 114.8228173  28.8447860  76.1745996
 114.1641530  36.9499308  77.8231857 113.5112980  37.1975216  77.1684310
 114.5421910  36.1363447  77.4894335 111.1248704  46.9859002  71.9260028
 111.3071098  46.1680657  72.3887780 111.9481690  47.2026694  71.4884918
 111.4590869  45.9127187  69.1875076 111.9878636  45.4019641  68.5745238
 111.7219089  45.5969717  70.0520609 110.2129103  37.6919119  84.3097894
 109.5369740  37.5913249  84.9800270 111.0356737  37.5358333  84.7733892
 101.9607962  43.9291056  76.9310410 102.5461399  43.1834744  77.0638314
 101.7632800  44.2395013  77.8147073 104.8146617  46.9642303  71.9472852
 104.1456992  47.4488431  71.4636892 104.6759487  47.2111524  72.8616230
  96.5525617  36.4996656  75.6514853  96.5909716  35.9660247  76.4451971
  96.0465909  35.9731862  75.0325830 108.9551886  48.9986047  78.5455510
 109.5070194  49.1617668  79.3104596 109.2958079  49.5890485  77.8735535
 103.9316379  31.3461197  79.1477395 103.9957705  32.2076028  78.7354793
 103.8683499  30.7335198  78.4149754 103.4068651  33.4184329  82.7950429
 104.0340690  33.0361407  83.4087954 102.5496570  33.1998531  83.1606122
 113.8062760  43.8247304  84.4004165 114.3502664  44.4377263  83.9059120
 113.2249605  44.3826883  84.9171178 100.1834194  35.2260758  68.7268784
 100.4787635  34.3171437  68.6735838  99.2822230  35.2048498  68.4049786
 112.0920273  46.9468022  75.5319192 111.9671412  46.1457762  75.0230138
 112.7499364  47.4414216  75.0433162 103.7128441  33.3016755  74.7096333
 102.9915027  33.9152723  74.5703806 104.5021697  33.8374520  74.6312979
 114.1555181  44.7477043  77.1598743 113.2085517  44.6282394  77.0877069
 114.5037954  43.8599541  77.2425004 106.5154755  30.6371181  80.9836984
 107.0389157  30.8833478  81.7463294 106.2967088  31.4691216  80.5640122
 101.9122036  32.9074856  68.8508109 101.5834742  32.0272235  68.6683215
 102.2661406  32.8522525  69.7384498 111.1601615  44.5429759  73.3603095
 111.0126577  43.6146466  73.5410665 111.9855108  44.5649849  72.8760170
 105.0263859  33.1947826  69.2183587 105.3659931  33.7233747  68.4962195
 105.4735979  33.5328232  69.9942153 114.7635736  45.3658317  74.4467968
 115.6882284  45.1601179  74.3092419 114.5951040  45.1174719  75.3557309
 107.7207300  31.5784877  78.6686655 107.3804120  30.7792690  79.0707335
 107.0146306  31.8786587  78.0963488 108.3723772  28.6634189  77.1213978
 109.1949841  28.1894667  76.9992868 108.6161835  29.4424673  77.6212664
 107.0132006  31.6922447  67.4176880 107.7340369  32.0703700  66.9140597
 106.3897310  32.4111324  67.5211858 111.1563129  32.3967596  68.3535212
 111.3726743  33.2792234  68.0524040 110.6757196  32.0053810  67.6240854
 105.8962350  35.3553310  74.9305957 105.7506931  35.6693613  75.8230238
 105.4187554  35.9738210  74.3776855 107.7558733  32.3455858  74.9786846
 107.7420302  31.4496951  74.6419144 108.4731161  32.3526521  75.6125132
 109.6084864  32.7793198  77.0239974 109.3502642  33.7010268  77.0224304
 109.0769904  32.3823632  77.7140438 114.5531053  45.8843985  69.8030059
 114.7267930  45.3190407  69.0503911 115.0459944  46.6844880  69.6209549
 100.3708012  37.8958654  77.8693618  99.8261481  38.6718462  78.0013892
 101.2487362  38.2429458  77.7112739 107.1595629  31.2270238  70.2474416
 107.2811540  30.2986884  70.4465304 106.8697672  31.2408924  69.3352732
 110.0286820  28.9125148  73.3841136 110.0508516  28.9764481  72.4293116
 110.4454879  28.0729657  73.5781642 120.4070444  38.6480408  71.4220359
 120.8501590  37.8987733  71.0239482 119.5296954  38.6390544  71.0394091
 115.5406225  45.2010749  66.9026957 116.2357130  45.8217442  67.1214272
 115.8829375  44.3506101  67.1779335 101.1574034  37.0228550  80.7623775
 100.4155770  37.1711186  81.3488405 100.8366779  37.2836816  79.8990524
 117.4397648  42.6510455  68.4314288 117.9648972  42.9897728  67.7063608
 117.3520001  41.7157470  68.2477423 109.1017697  46.5644528  80.5604165
 109.4104823  46.3193675  81.4326864 109.8993179  46.7691167  80.0723035
 109.1238309  48.7182438  72.7909541 108.6843299  48.2258817  73.4842398
 109.8746426  48.1755406  72.5501616 101.6030648  44.9093979  72.7934169
 102.4288668  44.6097751  72.4132813 101.2524700  44.1401601  73.2423958
 106.5712181  44.2620447  74.8631843 105.9492190  43.5991152  74.5634071
 107.2417048  44.2881579  74.1805491  99.8039253  42.8280305  73.7523103
  98.9671161  42.4002480  73.5707104  99.7762898  43.0212749  74.6893894
 106.6436709  32.7402235  84.4564349 106.6924864  33.6164358  84.0742119
 107.1859223  32.1979628  83.8835992 117.1291554  43.2843358  83.7365486
 116.3387098  43.2667497  83.1969985 116.8924909  43.8231652  84.4914523
 117.2489429  40.1335825  81.0498215 117.2987434  39.9685832  81.9913737
 117.1403353  39.2663084  80.6596095 106.1325688  42.8124371  68.3390303
 106.2813808  43.4959835  67.6856976 106.9392132  42.7929461  68.8539759
 114.5393192  36.1166753  82.3657521 115.4403055  35.9773218  82.0741519
 114.6141166  36.2821208  83.3055699 108.8735997  33.4933608  81.2110708
 108.0039307  33.7867174  80.9393296 109.1095477  34.0774053  81.9317971
 118.7507626  42.5532766  81.2940236 118.4592435  42.9162747  82.1303697
 118.1379758  41.8399775  81.1153568 119.9503309  40.1185646  73.8142806
 120.7850200  40.5575450  73.9780367 120.0862437  39.6424299  72.9951052
 116.9994814  37.6765381  79.7620294 117.4748936  37.8693027  78.9539145
 116.0760380  37.7324567  79.5163678 103.8878321  38.8389548  69.3451372
 103.6424363  37.9351878  69.5431582 104.0574236  38.8406699  68.4030850
 111.5775031  29.7113225  78.7276128 112.0956975  30.4474251  78.4022617
 111.2230164  30.0177218  79.5622887 103.1573969  34.5717906  66.8437534
 102.4643214  34.6462261  66.1877570 102.9125721  33.8078249  67.3659051
 111.8287625  26.1313507  74.2477025 112.1089379  25.4636696  74.8737451
 112.6138232  26.3242603  73.7351688 109.6321094  45.3072501  65.8102051
 109.0595061  45.9262688  65.3572523 110.2053887  45.8571863  66.3441973
 115.6996483  34.5531141  77.9948600 116.6513906  34.6529239  78.0160824
 115.5299934  33.7609410  78.5046684 113.7210863  31.6386724  78.1808001
 113.1260795  31.9191737  77.4854489 113.4360560  32.1280625  78.9524742
 112.8518353  45.5909651  66.9410633 113.7849027  45.5255213  67.1443509
 112.7641566  46.4265918  66.4825166 115.4806370  44.9075521  63.9014581
 115.4020002  44.5735385  64.7950339 116.3016037  45.3997289  63.9006053
 118.1784561  37.7737261  77.1090899 118.1460881  36.8353262  77.2950583
 118.7885185  37.8521297  76.3756724 110.0167892  36.6433314  63.1518103
 110.9626997  36.5139522  63.2206521 109.6382137  35.9047976  63.6287532
 118.3279050  34.5648304  77.1549182 117.8118098  33.7806761  76.9679111
 119.2118998  34.2367021  77.3195702 115.9889777  28.3089320  73.1144995
 115.7914598  28.0004408  73.9988327 116.5989482  29.0350959  73.2442925
 109.9006585  40.6951060  84.6118760 110.8209594  40.8729659  84.8058807
 109.8656168  39.7507105  84.4598460 108.2010809  34.5683290  63.0872989
 107.2942265  34.2716403  63.1635702 108.4786790  34.2713108  62.2207275
  99.1188750  35.8889654  73.5372035  98.7991534  35.0354962  73.2446409
  98.5722178  36.1038232  74.2930002 102.8968657  38.6052095  77.2541541
 103.1154667  39.5369202  77.2729575 103.3094431  38.2460069  78.0396345
 109.8172875  29.1120180  69.2417230 109.0073603  28.7667265  69.6172476
 110.5057292  28.8027724  69.8304841 111.7463423  28.1898227  70.8641527
 112.2994462  28.6093680  71.5231550 111.9833510  27.2633975  70.9064483
 107.7696523  34.1785300  86.6444290 107.6693249  35.1279657  86.5756382
 107.5518065  33.8503539  85.7720361 106.9709594  31.4270225  63.2284968
 107.8328758  31.7525124  63.4880785 107.1559938  30.6401721  62.7158034
  98.9877010  39.5092565  75.5065157  98.2940481  39.0946518  74.9935111
  99.7350001  39.5513102  74.9098575 115.1242230  30.2998752  70.3720191
 114.5440899  30.9583556  69.9898243 114.8578163  29.4776096  69.9607608
 113.5745797  29.7003810  72.5741511 114.0745575  29.8120344  71.7655830
 114.2181405  29.3964862  73.2142320 107.6327793  37.6082439  85.4609352
 107.1494874  38.4082799  85.6673241 107.7188732  37.6190384  84.5076796
 100.9013752  39.4410819  73.3831171 100.8784440  39.5398506  72.4313055
 101.2114389  40.2875970  73.7048338 103.5601130  41.4986974  77.4977786
 104.5144384  41.4670916  77.4307717 103.3613654  41.0377598  78.3128012
 104.1500512  40.0688090  80.0648584 104.9693401  40.5632169  80.0883421
 104.4237320  39.1520058  80.0366151 113.9067108  32.4598842  69.4276539
 113.0192963  32.7448493  69.2096734 114.3221097  32.2992606  68.5803816
 117.2581645  32.4845363  73.1430878 118.0342035  32.9741816  73.4155495
 116.5329779  32.9103417  73.6002748 119.6954203  33.1972982  74.2004819
 120.2898694  32.9568718  73.4898127 119.7680787  32.4780113  74.8278355
 101.9151359  47.0406593  74.5147984 101.7805827  46.2806994  73.9485982
 101.4983421  47.7647493  74.0476773 113.0510322  42.2243517  63.5224559
 113.7546172  42.4293519  64.1382215 112.3272971  42.7920279  63.7873643
 113.8808132  37.9753378  69.6426829 113.8243334  38.4321930  68.8034462
 114.4336475  37.2144063  69.4649672 117.6912938  33.7643110  70.4676949
 117.4349872  33.3639746  71.2985156 117.0665806  34.4786904  70.3427088
 105.0720485  47.9375910  74.7266426 104.9552869  48.8821343  74.6245117
 104.2512931  47.6349472  75.1152226 114.9597019  42.6626046  65.5723019
 115.7942623  42.2307245  65.3900494 114.7981362  42.4908060  66.4999914
 114.6142911  39.1658159  66.9379358 114.5591715  39.0002431  65.9967802
 113.9888967  39.8734192  67.0941548  99.4035426  34.4026224  80.7640781
 100.0494290  33.8925178  81.2528006  99.1952578  35.1394905  81.3384206
 111.9288819  41.4707071  86.2632921 112.7979978  41.6447724  85.9019556
 111.4495570  42.2901488  86.1408650 107.9239037  28.6666268  66.5164677
 107.9117707  29.6108108  66.6732948 108.8162459  28.4836414  66.2224138
 106.0974999  48.5904172  77.9422355 107.0002246  48.6227783  78.2588850
 105.8712369  47.6604623  77.9568691 107.8528601  47.3435159  74.6032433
 106.9024232  47.3437020  74.4896806 108.1561087  46.5967893  74.0868468
 111.7391156  25.2609045  70.7710614 110.9723552  24.7067532  70.9167296
 112.1501861  25.3330914  71.6324765 103.7432917  31.5493841  84.8615795
 104.6064379  31.1930646  85.0719119 103.1698328  31.2107736  85.5491199
 120.3971001  53.1323125  75.6039721 120.0589512  53.0164190  74.7160255
 121.2660769  52.7314290  75.5840727 116.2557816  54.9858602  71.5936611
 115.6922681  54.8948539  70.8252899 116.1410211  54.1658506  72.0739104
 120.8790784  54.2857977  81.5625926 120.8679424  53.8910775  80.6906430
 121.0411423  53.5524050  82.1559697 113.8022248  56.4809793  74.4320832
 114.5943540  56.1400618  74.0167131 114.0418898  56.5904768  75.3522985
 115.7613002  55.7418707  67.3038211 116.5343878  55.1947694  67.1651087
 116.1138401  56.6062956  67.5152672 117.5998045  57.0695089  80.5105110
 117.3087911  57.9740720  80.3951776 118.2355029  57.1111616  81.2249180
 118.5254252  54.4471937  77.1006470 119.1217824  54.2227960  76.3863433
 118.5829223  53.7056683  77.7031918 118.0979280  51.9011373  64.9356661
 118.3504801  51.3792894  64.1740124 117.1603839  51.7377518  65.0383344
 117.8175569  53.8039479  67.1381036 117.7011827  53.1284382  67.8062120
 117.9277829  53.3171853  66.3213189 120.1607110  53.2649626  70.8427725
 119.7965317  52.7380247  71.5540646 121.0174226  52.8748095  70.6694210
 119.8012597  48.2939525  65.8389073 119.9686999  49.1619762  66.2059544
 119.6109766  48.4566807  64.9150363 116.0100411  53.2070301  73.5391608
 115.0850908  53.0746515  73.7469300 116.2584825  53.9864520  74.0361551
 119.7801818  50.7497183  66.8235740 119.6601443  51.1954234  67.6621220
 119.0854406  51.0982501  66.2649278 113.3709222  52.8503575  74.3735397
 113.5001604  53.1038054  75.2874809 112.6906674  53.4431283  74.0540052
 117.5408710  63.5200825  70.4725871 117.4632739  64.4708650  70.5514352
 116.9370353  63.1746697  71.1300798 120.0325939  50.6928690  83.1287238
 119.2559273  51.2522610  83.1190103 120.6716502  51.1785473  83.6502108
 118.2872312  53.5014143  82.6905205 119.0286996  54.0399187  82.4140029
 117.5809297  54.1280432  82.8476757 120.1158721  50.5815891  78.6610924
 120.9619917  51.0055304  78.8045573 120.0557359  49.9249515  79.3549487
 119.6384428  55.9418883  72.3079741 120.1022773  56.2206586  71.5184363
 119.3741226  55.0402327  72.1252831 116.5308509  55.4890364  75.2459504
 117.1009866  55.9177633  74.6076989 117.1216621  55.2072949  75.9443690
 118.5753314  52.0642035  69.1169306 119.2777357  52.5163079  69.5843232
 118.2433942  51.4225854  69.7449199 117.0233675  50.6553792  83.4920515
 116.3932336  51.3370072  83.7255912 116.9169763  50.5436873  82.5473654
 112.3178648  50.3225588  74.4186439 111.5277702  50.5783116  73.9426550
 112.8089895  51.1373926  74.5238480 114.2693393  50.6870167  71.3769916
 113.4724557  50.7988861  71.8953412 114.0418985  51.0256819  70.5110807
 120.0999061  57.2114870  79.3252431 120.1643493  57.6735277  80.1610603
 119.3909985  56.5812235  79.4534741 110.6016351  50.5756078  76.8501430
 110.8524389  51.4603088  77.1159006 111.1375899  50.3960680  76.0776522
 119.8147079  58.8782978  69.1931411 119.6792753  59.7234513  69.6216259
 120.3556891  59.0802255  68.4297345 116.3014418  44.9574557  85.8545766
 115.9081364  44.4040756  86.5293411 117.1180559  45.2685136  86.2452284
 113.2676476  56.3958416  69.7659336 113.7800997  57.1901666  69.9164901
 113.9199189  55.6984706  69.6992938 115.0771361  59.5124172  71.8482089
 115.2537989  60.4342137  71.6603073 115.8728194  59.1982591  72.2776469
 119.2182379  46.3732437  83.4466023 119.9592093  46.9739590  83.3670485
 119.4500302  45.6310074  82.8884065 114.3623717  51.5588804  81.7244253
 114.2477232  50.6574061  82.0251352 113.5068235  51.8052501  81.3729069
 116.2002676  61.0302346  77.8492432 116.7510101  60.9019409  77.0769426
 115.3614152  61.3297235  77.4987325 119.9969847  57.2953474  82.1936663
 120.5298184  56.5341762  81.9635971 119.4683928  57.0027125  82.9360817
 111.2325393  54.7247070  70.5418907 112.0700615  55.1344078  70.3252614
 111.4103660  53.7846512  70.5119101 120.7136936  47.2371851  71.2887978
 119.8578532  46.8478702  71.1093617 121.1263888  47.3163812  70.4287764
 118.4878968  44.8556924  74.6945720 119.3531965  44.6599733  74.3351609
 118.5556477  44.6267276  75.6215076 121.3622560  56.4239466  69.7055475
 120.8343921  55.6892226  69.3928712 120.8610063  57.2014142  69.4595443
 116.0941287  47.0859132  72.0662086 116.6685039  46.8634314  71.3335279
 116.6812270  47.1547827  72.8190688 116.4210875  49.1163593  66.0857972
 115.5848187  49.4538280  66.4067246 116.2815644  48.9812573  65.1485109
 118.3963955  43.9600381  70.7937156 117.7428368  43.6449398  70.1693771
 118.3544429  43.3376122  71.5196979 119.5075160  54.2419676  62.7090448
 118.6002222  54.0108930  62.9081597 120.0046192  53.4457296  62.8964429
 120.6863393  54.3432271  67.2314438 119.7774613  54.0591304  67.3286908
 120.7158477  54.7631350  66.3717745 111.2551564  52.0637785  71.2129640
 111.0575964  51.4707146  70.4880707 110.6998228  51.7589995  71.9305579
 119.2348288  51.9560892  73.3324233 119.2896897  51.0034728  73.2566710
 118.4239490  52.1120331  73.8165532 120.3839481  55.8841015  64.5702517
 119.9458911  55.1676874  64.1108154 121.1249922  56.1117130  64.0087608
 117.1740647  50.5737952  71.0914612 116.3608513  50.8732122  71.4979804
 117.6699642  50.1793640  71.8089094 119.3249225  60.5695708  73.0248877
 119.2825404  60.7956555  72.0957409 120.2411924  60.3359083  73.1734678
 116.6654722  48.1456307  76.7075847 117.3054102  48.0045066  76.0098810
 115.8332253  47.8590820  76.3314449 117.4415026  57.4458737  72.8210840
 118.2355625  56.9509058  72.6193415 116.7306719  56.9176601  72.4578545
 113.7497790  51.5901819  68.8970592 112.8195378  51.5286275  69.1140554
 113.8455262  51.0677772  68.1007234 113.6683339  48.1156632  71.4848834
 113.9290156  49.0301965  71.3757994 114.4900511  47.6481075  71.6345447
 115.1408264  49.5294389  78.6547658 115.8131317  49.3211751  78.0060307
 114.3138050  49.3316475  78.2152891 120.0186302  58.0187759  76.5008677
 119.8797388  57.6506544  77.3734615 119.2300898  58.5335399  76.3292635
 120.6134454  63.1196856  67.8434213 120.7886210  62.6484899  68.6579836
 119.9267242  63.7462622  68.0715474 121.5691517  57.3969362  73.8897514
 121.2341350  57.3570132  74.7855164 121.0695463  56.7314078  73.4167925
 115.5435761  52.8036992  79.4150096 115.4055559  52.0717231  80.0161635
 116.4540685  52.7145892  79.1334283 118.1718062  52.5156951  78.9033775
 118.8817680  51.8750144  78.8620394 118.1287370  52.7669846  79.8259956
 116.8846996  49.5022169  80.7229415 116.3484353  49.0512908  81.3751011
 116.2963704  49.6368078  79.9799879 115.1795539  66.2686219  74.6174073
 115.4192138  66.9004743  75.2953092 114.3364736  65.9174259  74.9039433
 116.2949255  48.9610821  63.2855878 115.4178721  48.8399622  62.9218125
 116.7707008  48.1696899  63.0334767 107.8151395  53.7487981  73.3797386
 108.5022435  53.4349711  72.7918401 107.6599524  54.6529345  73.1064637
 112.6186117  48.6378177  77.8082409 112.5344306  48.0303847  77.0732819
 111.7968824  49.1287195  77.8091906 119.6923401  62.0765341  77.0215577
 119.6193573  62.8820313  77.5334882 119.2500794  62.2757307  76.1963599
 119.4813181  61.3137111  70.5318399 118.6980703  61.8558791  70.6256623
 120.1805926  61.8311091  70.9312640 119.3744800  49.2649124  72.9024289
 119.0042587  48.7120164  73.5905194 119.8703892  48.6607257  72.3499289
 117.2033998  59.7246619  79.9979307 117.9043458  60.3583102  80.1508701
 116.7329113  60.0661350  79.2374946 112.8001716  59.2582974  76.9310410
 113.3855153  58.5126662  77.0638314 112.6026555  59.5686930  77.8147073
 115.6540372  62.2934221  71.9472852 114.9850747  62.7780349  71.4636892
 115.5153241  62.5403442  72.8616230 107.3919371  51.8288574  75.6514853
 107.4303471  51.2952165  76.4451971 106.8859664  51.3023779  75.0325830
 119.7945640  64.3277965  78.5455510 120.3463948  64.4909586  79.3104596
 120.1351834  64.9182402  77.8735535 114.7710133  46.6753114  79.1477395
 114.8351460  47.5367945  78.7354793 114.7077254  46.0627116  78.4149754
 114.2462406  48.7476247  82.7950429 114.8734445  48.3653324  83.4087954
 113.3890325  48.5290449  83.1606122 111.0227949  50.5552676  68.7268784
 111.3181390  49.6463354  68.6735838 110.1215984  50.5340415  68.4049786
 114.5522196  48.6308673  74.7096333 113.8308781  49.2444640  74.5703806
 115.3415451  49.1666437  74.6312979 117.3548509  45.9663099  80.9836984
 117.8782911  46.2125396  81.7463294 117.1360842  46.7983134  80.5640122
 112.7515790  48.2366774  68.8508109 112.4228496  47.3564153  68.6683215
 113.1055161  48.1814442  69.7384498 115.8657613  48.5239743  69.2183587
 116.2053686  49.0525665  68.4962195 116.3129734  48.8620150  69.9942153
 118.5601054  46.9076794  78.6686655 118.2197875  46.1084607  79.0707335
 117.8540061  47.2078505  78.0963488 119.2117526  43.9926107  77.1213978
 120.0343595  43.5186585  76.9992868 119.4555590  44.7716590  77.6212664
 117.8525761  47.0214365  67.4176880 118.5734123  47.3995618  66.9140597
 117.2291065  47.7403242  67.5211858 116.7356105  50.6845227  74.9305957
 116.5900686  50.9985530  75.8230238 116.2581308  51.3030128  74.3776855
 118.5952488  47.6747775  74.9786846 118.5814056  46.7788869  74.6419144
 119.3124916  47.6818439  75.6125132 120.4478618  48.1085115  77.0239974
 120.1896396  49.0302186  77.0224304 119.9163659  47.7115550  77.7140438
 111.2101767  53.2250572  77.8693618 110.6655235  54.0010380  78.0013892
 112.0881117  53.5721376  77.7112739 117.9989384  46.5562156  70.2474416
 118.1205295  45.6278802  70.4465304 117.7091426  46.5700842  69.3352732
 120.8680574  44.2417066  73.3841136 120.8902271  44.3056399  72.4293116
 121.2848633  43.4021575  73.5781642 111.9967789  52.3520468  80.7623775
 111.2549525  52.5003103  81.3488405 111.6760533  52.6128734  79.8990524
 119.9411451  61.8936446  80.5604165 120.2498578  61.6485593  81.4326864
 120.7386934  62.0983085  80.0723035 119.9632064  64.0474356  72.7909541
 119.5237054  63.5550734  73.4842398 120.7140180  63.5047323  72.5501616
 112.4424403  60.2385897  72.7934169 113.2682422  59.9389669  72.4132813
 112.0918455  59.4693519  73.2423958 117.4105936  59.5912365  74.8631843
 116.7885945  58.9283070  74.5634071 118.0810803  59.6173497  74.1805491
 110.6433008  58.1572223  73.7523103 109.8064916  57.7294397  73.5707104
 110.6156653  58.3504666  74.6893894 117.4830463  48.0694153  84.4564349
 117.5318619  48.9456276  84.0742119 118.0252977  47.5271546  83.8835992
 116.9719443  58.1416288  68.3390303 117.1207563  58.8251753  67.6856976
 117.7785886  58.1221378  68.8539759 119.7129752  48.8225525  81.2110708
 118.8433061  49.1159091  80.9393296 119.9489232  49.4065970  81.9317971
 114.7272076  54.1681466  69.3451372 114.4818118  53.2643796  69.5431582
 114.8967990  54.1698616  68.4030850 113.9967723  49.9009823  66.8437534
 113.3036968  49.9754178  66.1877570 113.7519475  49.1370167  67.3659051
 120.4714848  60.6364419  65.8102051 119.8988815  61.2554606  65.3572523
 121.0447642  61.1863780  66.3441973 119.0404564  49.8975208  63.0872989
 118.1336019  49.6008321  63.1635702 119.3180545  49.6005026  62.2207275
 109.9582504  51.2181571  73.5372035 109.6385288  50.3646879  73.2446409
 109.4115932  51.4330149  74.2930002 113.7362412  53.9344012  77.2541541
 113.9548421  54.8661120  77.2729575 114.1488186  53.5751987  78.0396345
 120.6566629  44.4412098  69.2417230 119.8467358  44.0959183  69.6172476
 121.3451046  44.1319641  69.8304841 118.6090277  49.5077218  86.6444290
 118.5087004  50.4571575  86.5756382 118.3911819  49.1795457  85.7720361
 117.8103348  46.7562143  63.2284968 118.6722512  47.0817041  63.4880785
 117.9953693  45.9693639  62.7158034 109.8270764  54.8384483  75.5065157
 109.1334236  54.4238436  74.9935111 110.5743755  54.8805019  74.9098575
 118.4721547  52.9374357  85.4609352 117.9888629  53.7374717  85.6673241
 118.5582486  52.9482302  84.5076796 111.7407507  54.7702736  73.3831171
 111.7178195  54.8690424  72.4313055 112.0508143  55.6167887  73.7048338
 114.3994885  56.8278892  77.4977786 115.3538138  56.7962834  77.4307717
 114.2007408  56.3669515  78.3128012 114.9894267  55.3980008  80.0648584
 115.8087156  55.8924086  80.0883421 115.2631074  54.4811976  80.0366151
 112.7545113  62.3698511  74.5147984 112.6199581  61.6098912  73.9485982
 112.3377176  63.0939411  74.0476773 115.9114239  63.2667828  74.7266426
 115.7946623  64.2113261  74.6245117 115.0906685  62.9641390  75.1152226
 110.2429181  49.7318141  80.7640781 110.8888045  49.2217095  81.2528006
 110.0346332  50.4686823  81.3384206 118.7632791  43.9958186  66.5164677
 118.7511461  44.9400026  66.6732948 119.6556213  43.8128331  66.2224138
 116.9368753  63.9196090  77.9422355 117.8396000  63.9519700  78.2588850
 116.7106123  62.9896541  77.9568691 118.6922355  62.6727076  74.6032433
 117.7417986  62.6728938  74.4896806 118.9954842  61.9259811  74.0868468
 114.5826672  46.8785759  84.8615795 115.4458133  46.5222563  85.0719119
 114.0092083  46.5399653  85.5491199 118.6545149  69.0779898  73.3797386
 119.3416189  68.7641628  72.7918401 118.4993278  69.9821263  73.1064637
 118.2313126  67.1580492  75.6514853 118.2697225  66.6244082  76.4451971
 117.7253418  66.6315697  75.0325830 121.4826762  73.4864141  73.7523103
 120.6458670  73.0586315  73.5707104 121.4550407  73.6796584  74.6893894
 120.7976259  66.5473489  73.5372035 120.4779043  65.6938797  73.2446409
 120.2509687  66.7622067  74.2930002 120.6664519  70.1676400  75.5065157
 119.9727990  69.7530353  74.9935111 121.4137510  70.2096937  74.9098575
  95.8621202   9.8679112  57.1971178  95.7845232  10.8186937  57.2759659
  95.2582846   9.5224984  57.8546104  93.5008032  12.6164506  61.3419380
  93.7404630  13.2483030  62.0198399  92.6577228  12.2652546  61.6284739
  93.9752864   8.6412508  58.6718159  93.3063239   9.1258636  58.1882199
  93.8365734   8.8881729  59.5861537  98.1158132  10.6756252  65.2700817
  98.6676440  10.8387873  66.0349902  98.4564326  11.2660690  64.5980842
  91.0757606   8.7176798  61.2393290  90.9412074   7.9577199  60.6731288
  90.6589668   9.4417698  60.7722079  94.2326731   9.6146115  61.4511733
  94.1159116  10.5591548  61.3490423  93.4119178   9.3119677  61.8397532
  95.2581246  10.2674377  64.6667661  96.1608492  10.2997987  64.9834156
  95.0318616   9.3374828  64.6813997 109.5577247  14.8093330  62.3285027
 109.2195759  14.6934395  61.4405562 110.4267016  14.4084495  62.3086033
 105.4164063  16.6628807  58.3181918 104.8528928  16.5718744  57.5498206
 105.3016458  15.8428711  58.7984411 110.0397030  15.9628182  68.2871233
 110.0285671  15.5680980  67.4151736 110.2017670  15.2294255  68.8805004
 102.9628495  18.1579998  61.1566139 103.7549787  17.8170823  60.7412438
 103.2025145  18.2674973  62.0768292 110.9963622  20.3299774  53.6296383
 110.3451602  20.9153855  53.2430397 111.7907985  20.8605969  53.6891420
 104.9219249  17.4188911  54.0283517 105.6950125  16.8717899  53.8896393
 105.2744648  18.2833161  54.2397979 106.7604292  18.7465294  67.2350417
 106.4694158  19.6510925  67.1197083 107.3961276  18.7881821  67.9494486
 107.6860498  16.1242142  63.8251776 108.2824071  15.8998165  63.1108739
 107.7435470  15.3826888  64.4277224 112.4738887  18.0190206  54.1665367
 111.8384720  18.0924833  54.8786272 112.1436293  18.6083805  53.4884447
 106.9781816  15.4809684  53.8626342 106.8618074  14.8054587  54.5307427
 107.0884075  14.9942057  53.0458495 109.3213356  14.9419831  57.5673031
 108.9571564  14.4150452  58.2785953 110.1780472  14.5518300  57.3939517
 111.7194177  18.4326709  64.2300210 111.4194900  19.3351748  64.1216018
 111.3745236  18.1658892  65.0821363 105.1706658  14.8840506  60.2636915
 104.2457155  14.7516720  60.4714607 105.4191071  15.6634725  60.7606857
 102.5315469  14.5273780  61.0980704 102.6607850  14.7808259  62.0120116
 101.8512920  15.1201488  60.7785359 106.7014956  25.1971030  57.1971178
 106.6238986  26.1478855  57.2759659 106.0976600  24.8516902  57.8546104
 107.4478559  15.1784348  69.4150512 108.1893243  15.7169392  69.1385336
 106.7415544  15.8050637  69.5722064 112.9233898  17.3213489  68.0122673
 113.3317254  16.8795899  67.2677306 112.2011160  16.7466116  68.2656866
 113.2462713  17.8814679  61.7674962 112.6171575  18.0460394  61.0651030
 112.8588375  18.2956289  62.5385926 117.1251945  18.8169117  59.1219326
 116.4402983  19.1968019  58.5716359 117.2095794  19.4264444  59.8551274
 114.3802876  16.4629076  65.7214670 114.5919772  17.1060836  65.0449051
 114.3332625  15.6291393  65.2536600 108.7990675  17.6189088  59.0325047
 109.2629020  17.8976791  58.2429670 108.5347473  16.7172532  58.8498138
 105.6914756  17.1660569  61.9704811 106.2616113  17.5947837  61.3322295
 106.2822868  16.8843154  62.6688996 101.4784895  11.9995793  61.1431746
 100.6883949  12.2553321  60.6671857 101.9696142  12.8144130  61.2483787
 115.4948704  19.3401032  63.8937027 116.3166148  18.9381219  63.6119709
 115.4911107  19.2369266  64.8453143 103.4299640  12.3640372  58.1015223
 102.6330803  12.4759066  58.6198718 103.2025232  12.7027024  57.2356113
 109.2605308  18.8885075  66.0497737 109.3249740  19.3505482  66.8855909
 108.5516232  18.2582440  66.1780047  99.7622598  12.2526283  63.5746737
 100.0130636  13.1373293  63.8404313 100.2982146  12.0730885  62.8021829
 108.9753325  20.5553183  55.9176718 108.8399000  21.4004718  56.3461566
 109.5163138  20.7572460  55.1542652 102.4282723  18.0728621  56.4904643
 102.9407243  18.8671871  56.6410208 103.0805436  17.3754911  56.4238244
 104.2377607  21.1894377  58.5727396 104.4144236  22.1112342  58.3848380
 105.0334441  20.8752796  59.0021776 103.5229964  13.2359009  68.4489559
 103.4083479  12.3344266  68.7496658 102.6674482  13.4822706  68.0974376
 110.6021802  21.1776749  70.0477060 110.1585656  20.3913128  69.7297964
 111.2639015  21.3655900  69.3820951 105.3608923  22.7072551  64.5737738
 105.9116348  22.5789614  63.8014732 104.5220399  23.0067440  64.2232631
 112.7003040  21.4579549  68.0758461 112.6821515  22.2788430  67.5838730
 113.6222960  21.3333624  68.3008602 109.1576094  18.9723678  68.9181969
 109.6904431  18.2111967  68.6881277 108.6290175  18.6797330  69.6606124
 100.3931640  16.4017275  57.2664213 101.2306862  16.8114283  57.0497921
 100.5709907  15.4616717  57.2364407 110.5228807  18.1009671  56.4300781
 109.9950168  17.3662431  56.1174019 110.0216309  18.8784347  56.1840750
 115.5021653  16.2958691  61.5467828 114.8445327  16.9857953  61.6347956
 116.3062052  16.6855123  61.8901814 108.6681407  15.9189881  49.4335755
 107.7608469  15.6879135  49.6326903 109.1652439  15.1227500  49.6209736
 111.5749486  24.6287388  52.3532441 110.9011184  24.9319085  52.9617399
 111.9615308  25.4316469  52.0037898 109.8469640  16.0202476  53.9559745
 108.9380860  15.7361509  54.0532214 109.8764724  16.4401555  53.0963051
 115.0788908  19.6309066  57.7250912 114.6251235  18.7899975  57.7816103
 114.4482874  20.2670464  58.0625692 113.5221847  21.4685562  58.6600730
 113.8144821  22.0290619  57.9413096 114.0320467  21.7614123  59.4153889
 100.4157811  13.7407990  57.9374947 100.2182210  13.1477351  57.2126013
  99.8604475  13.4360200  58.6550886 109.5445728  17.5611220  51.2947823
 109.1065158  16.8447079  50.8353461 110.2856169  17.7887335  50.7332915
 108.4855472  22.2465913  59.7494184 108.4431651  22.4726760  58.8202716
 109.4018171  22.0129288  59.8979985 117.6888222  17.9044944  62.3635413
 118.1224729  17.8120233  63.2118467 118.4019803  17.8802444  61.7255429
 106.6021273  19.1228942  59.5456146 107.3961871  18.6279263  59.3438721
 105.8912965  18.5946806  59.1823852 111.4216117  21.5047038  63.8968514
 111.4753140  22.0737974  64.6646230 110.5530899  21.6748923  63.5322551
 102.9104036  13.2672024  55.6215899 101.9801624  13.2056480  55.8385861
 103.0061508  12.7447977  54.8252540 118.5503772  17.9468644  64.8968299
 118.7439662  18.8514455  65.1427574 118.4504390  17.4876064  65.7306884
 113.6118881  18.0975387  70.4709179 113.4604387  17.8685939  69.5539263
 113.6023560  19.0545989  70.4840524 110.3804217  15.6707300  65.4555446
 111.3096277  15.8218460  65.2824413 109.9595247  15.7591321  64.6004092
 109.1792549  19.6957964  63.2253983 109.0403635  19.3276749  64.0979921
 108.3907145  20.2105604  63.0537941 109.7740701  24.7967061  54.5679520
 109.9492457  24.3255104  55.3825143 109.0873489  25.4232827  54.7960781
 110.7297764  19.0739567  60.6142821 110.3947597  19.0340337  61.5100471
 110.2301710  18.4084283  60.1413231 104.7042008  14.4807197  66.1395402
 104.5661806  13.7487436  66.7406941 105.6146931  14.3916097  65.8579590
 113.6656956  16.4195601  50.8879881 113.0486126  15.6942430  50.7912933
 113.1973444  17.1804962  50.5446955 107.3324309  14.1927156  65.6279082
 108.0423927  13.5520349  65.5865700 107.2893617  14.4440051  66.5505263
 115.3211087  21.1294510  68.5485661 115.2623633  20.4453730  67.8816244
 115.7230606  21.8713500  68.0966287 104.3401786  27.9456424  61.3419380
 104.5798384  28.5774948  62.0198399 103.4970983  27.5944464  61.6284739
 115.3228495  19.0934094  66.7799641 114.4355273  18.7560015  66.9026040
 115.8927046  18.3617125  67.0168406  96.9757642  15.4258185  60.1042692
  97.6628682  15.1119915  59.5163708  96.8205770  16.3299550  59.8309944
 108.8529648  23.7535546  63.7460884 108.7799819  24.5590518  64.2580189
 108.4107041  23.9527512  62.9208905 108.6419428  22.9907316  57.2563706
 107.8586950  23.5328996  57.3501930 109.3412173  23.5081296  57.6557947
 111.3128332  23.6522380  65.9019043 112.0256304  24.2869845  65.8294944
 110.8218360  23.7486246  65.0859045 113.0345858  17.5573633  57.4736334
 112.1002137  17.6775095  57.3041039 113.2122527  16.6546100  57.2096344
 106.3640245  21.4016824  66.7224614 107.0649705  22.0353307  66.8754008
 105.8935360  21.7431555  65.9620253 114.4894641  19.7434773  55.0072521
 114.7654485  19.6291368  55.9166395 113.6199140  19.3452258  54.9684694
 111.1248705  23.9921124  58.6505334 111.3071099  23.1742780  59.1133086
 111.9481691  24.2088816  58.2130224 111.4590870  22.9189309  55.9120383
 111.9878637  22.4081764  55.2990545 111.7219090  22.6031840  56.7765916
 110.2129104  14.6981242  71.0343201 109.5369741  14.5975371  71.7045576
 111.0356738  14.5420456  71.4979198 101.9607963  20.9353179  63.6555716
 102.5461400  20.1896866  63.7883620 101.7632802  21.2457135  64.5392380
 104.8146618  23.9704426  58.6718159 104.1456994  24.4550554  58.1882199
 104.6759488  24.2173646  59.5861537  96.5525618  13.5058779  62.3760159
  96.5909717  12.9722369  63.1697277  96.0465911  12.9793984  61.7571137
 108.9551887  26.0048169  65.2700817 109.5070195  26.1679791  66.0349902
 109.2958080  26.5952607  64.5980842 113.8062761  20.8309427  71.1249471
 114.3502665  21.4439385  70.6304426 113.2249606  21.3889005  71.6416484
 100.1834195  12.2322881  55.4514091 100.4787637  11.3233559  55.3981144
  99.2822231  12.2110620  55.1295093 112.0920274  23.9530145  62.2564499
 111.9671414  23.1519885  61.7475445 112.7499365  24.4476338  61.7678469
 114.1555183  21.7539165  63.8844049 113.2085518  21.6344516  63.8122376
 114.5037956  20.8661663  63.9670311 111.1601616  21.5491881  60.0848401
 111.0126578  20.6208589  60.2655971 111.9855109  21.5711972  59.6005477
 114.7635738  22.3720440  61.1713274 115.6882285  22.1663301  61.0337725
 114.5951041  22.1236841  62.0802616 114.5531054  22.8906107  56.5275366
 114.7267931  22.3252530  55.7749218 115.0459945  23.6907002  56.3454856
 100.3708014  14.9020777  64.5938924  99.8261482  15.6780585  64.7259199
 101.2487364  15.2491581  64.4358046 115.5406226  22.2072872  53.6272264
 116.2357131  22.8279565  53.8459579 115.8829377  21.3568223  53.9024642
 101.1574036  14.0290673  67.4869081 100.4155772  14.1773308  68.0733712
 100.8366780  14.2898938  66.6235831 117.4397650  19.6572577  55.1559595
 117.9648974  19.9959850  54.4308915 117.3520002  18.7219593  54.9722729
 109.1017698  23.5706651  67.2849471 109.4104825  23.3255798  68.1572171
 109.8993180  23.7753290  66.7968342 109.1238310  25.7244561  59.5154848
 108.6843301  25.2320939  60.2087705 109.8746427  25.1817528  59.2746923
 101.6030649  21.9156102  59.5179476 102.4288669  21.6159873  59.1378119
 101.2524701  21.1463724  59.9669265 106.5712182  21.2682570  61.5877150
 105.9492192  20.6053275  61.2879377 107.2417049  21.2943702  60.9050797
  99.8039254  19.8342428  60.4768410  98.9671163  19.4064602  60.2952411
  99.7762900  20.0274871  61.4139201 117.1291556  20.2905481  70.4610793
 116.3387099  20.2729620  69.9215292 116.8924910  20.8293775  71.2159829
 106.1325689  19.8186493  55.0635610 106.2813810  20.5021958  54.4102283
 106.9392133  19.7991583  55.5785066 118.7507627  19.5594889  68.0185543
 118.4592436  19.9224870  68.8549004 118.1379759  18.8461897  67.8398875
 103.8878322  15.8451671  56.0696679 103.6424364  14.9414001  56.2676889
 104.0574237  15.8468821  55.1276157 109.6321095  22.3134624  52.5347357
 109.0595062  22.9324811  52.0817829 110.2053889  22.8633985  53.0687279
 112.8518355  22.5971774  53.6655940 113.7849028  22.5317335  53.8688815
 112.7641567  23.4328041  53.2070472 115.4806371  21.9137644  50.6259887
 115.4020003  21.5797508  51.5195645 116.3016038  22.4059412  50.6251360
 109.9006586  17.7013182  71.3364067 110.8209595  17.8791781  71.5304113
 109.8656169  16.7569228  71.1843766  99.1188751  12.8951776  60.2617342
  98.7991535  12.0417084  59.9691716  98.5722179  13.1100354  61.0175309
 102.8968658  15.6114217  63.9786848 103.1154668  16.5431325  63.9974882
 103.3094432  15.2522192  64.7641652  98.9877011  16.5154688  62.2310463
  98.2940482  16.1008640  61.7180418  99.7350002  16.5575224  61.6343882
 107.6327794  14.6144562  72.1854659 107.1494876  15.4144922  72.3918548
 107.7188733  14.6252507  71.2322103 100.9013753  16.4472941  60.1076478
 100.8784442  16.5460629  59.1558361 101.2114390  17.2938092  60.4293644
 103.5601131  18.5049096  64.2223092 104.5144385  18.4733039  64.1553024
 103.3613655  18.0439720  65.0373318 104.1500513  17.0750212  66.7893890
 104.9693402  17.5694291  66.8128727 104.4237321  16.1582181  66.7611458
 101.9151360  24.0468716  61.2393290 101.7805828  23.2869117  60.6731288
 101.4983422  24.7709616  60.7722079 113.0510323  19.2305639  50.2469866
 113.7546173  19.4355642  50.8627521 112.3272972  19.7982401  50.5118949
 105.0720486  24.9438033  61.4511733 104.9552870  25.8883465  61.3490423
 104.2512932  24.6411595  61.8397532 114.9597021  19.6688169  52.2968326
 115.7942624  19.2369367  52.1145800 114.7981363  19.4970182  53.2245220
 114.6142913  16.1720282  53.6624665 114.5591717  16.0064553  52.7213109
 113.9888968  16.8796315  53.8186855  99.4035428  11.4088346  67.4886087
 100.0494291  10.8987300  67.9773312  99.1952579  12.1457028  68.0629512
 111.9288820  18.4769194  72.9878228 112.7979980  18.6509846  72.6264863
 111.4495571  19.2963611  72.8653957 106.0975000  25.5966295  64.6667661
 107.0002247  25.6289905  64.9834156 105.8712370  24.6666746  64.6813997
 107.8528602  24.3497281  61.3277740 106.9024233  24.3499143  61.2142112
 108.1561088  23.6030016  60.8113775 120.3971002  30.1385248  62.3285027
 120.0589513  30.0226313  61.4405562 121.2660770  29.7376413  62.3086033
 116.2557818  31.9920724  58.3181918 115.6922683  31.9010661  57.5498206
 116.1410213  31.1720629  58.7984411 120.8790785  31.2920100  68.2871233
 120.8679426  30.8972898  67.4151736 121.0411424  30.5586172  68.8805004
 113.8022250  33.4871916  61.1566139 114.5943541  33.1462741  60.7412438
 114.0418900  33.5966891  62.0768292 115.7613003  32.7480829  54.0283517
 116.5343879  32.2009816  53.8896393 116.1138402  33.6125078  54.2397979
 117.5998046  34.0757211  67.2350417 117.3087912  34.9802842  67.1197083
 118.2355030  34.1173739  67.9494486 118.5254253  31.4534060  63.8251776
 119.1217825  31.2290082  63.1108739 118.5829224  30.7118805  64.4277224
 118.0979281  28.9073495  51.6601967 118.3504802  28.3855017  50.8985430
 117.1603840  28.7439641  51.7628651 117.8175570  30.8101601  53.8626342
 117.7011828  30.1346505  54.5307427 117.9277830  30.3233975  53.0458495
 120.1607111  30.2711748  57.5673031 119.7965318  29.7442369  58.2785953
 121.0174227  29.8810217  57.3939517 119.8012598  25.3001648  52.5634380
 119.9687000  26.1681884  52.9304851 119.6109767  25.4628930  51.6395669
 116.0100413  30.2132424  60.2636915 115.0850909  30.0808638  60.4714607
 116.2584826  30.9926643  60.7606857 119.7801819  27.7559306  53.5481047
 119.6601444  28.2016356  54.3866527 119.0854407  28.1044623  52.9894585
 113.3709224  29.8565697  61.0980704 113.5001605  30.1100176  62.0120116
 112.6906675  30.4493405  60.7785359 117.5408711  40.5262947  57.1971178
 117.4632741  41.4770772  57.2759659 116.9370355  40.1808820  57.8546104
 120.0325941  27.6990813  69.8532545 119.2559275  28.2584733  69.8435410
 120.6716504  28.1847596  70.3747415 118.2872313  30.5076266  69.4150512
 119.0286997  31.0461310  69.1385336 117.5809298  31.1342555  69.5722064
 120.1158723  27.5878013  65.3856230 120.9619918  28.0117427  65.5290879
 120.0557360  26.9311638  66.0794793 119.6384429  32.9481005  59.0325047
 120.1022775  33.2268708  58.2429670 119.3741227  32.0464450  58.8498138
 116.5308510  32.4952487  61.9704811 117.1009867  32.9239755  61.3322295
 117.1216622  32.2135071  62.6688996 118.5753315  29.0704158  55.8414613
 119.2777359  29.5225201  56.3088539 118.2433944  28.4287976  56.4694506
 117.0233677  27.6615914  70.2165822 116.3932337  28.3432195  70.4501219
 116.9169765  27.5498996  69.2718960 112.3178649  27.3287710  61.1431746
 111.5277703  27.5845239  60.6671857 112.8089897  28.1436048  61.2483787
 114.2693395  27.6932290  58.1015223 113.4724558  27.8050984  58.6198718
 114.0418987  28.0318942  57.2356113 120.0999062  34.2176993  66.0497737
 120.1643495  34.6797400  66.8855909 119.3909986  33.5874358  66.1780047
 110.6016352  27.5818201  63.5746737 110.8524391  28.4665211  63.8404313
 111.1375901  27.4022802  62.8021829 119.8147080  35.8845100  55.9176718
 119.6792755  36.7296636  56.3461566 120.3556892  36.0864378  55.1542652
 116.3014419  21.9636680  72.5791073 115.9081365  21.4102879  73.2538717
 117.1180560  22.2747259  72.9697591 113.2676477  33.4020538  56.4904643
 113.7800998  34.1963789  56.6410208 113.9199190  32.7046829  56.4238244
 115.0771362  36.5186295  58.5727396 115.2537990  37.4404259  58.3848380
 115.8728195  36.2044714  59.0021776 119.2182380  23.3794559  70.1711330
 119.9592094  23.9801712  70.0915792 119.4500303  22.6372197  69.6129372
 114.3623718  28.5650926  68.4489559 114.2477234  27.6636184  68.7496658
 113.5068236  28.8114623  68.0974376 116.2002677  38.0364468  64.5737738
 116.7510103  37.9081532  63.8014732 115.3614153  38.3359357  64.2232631
 119.9969848  34.3015596  68.9181969 120.5298185  33.5403884  68.6881277
 119.4683930  34.0089248  69.6606124 111.2325394  31.7309193  57.2664213
 112.0700616  32.1406201  57.0497921 111.4103662  30.7908635  57.2364407
 120.7136937  24.2433974  58.0133285 119.8578533  23.8540824  57.8338923
 121.1263889  24.3225935  57.1533070 118.4878970  21.8619047  61.4191026
 119.3531966  21.6661856  61.0596916 118.5556479  21.6329399  62.3460383
 121.3622561  33.4301589  56.4300781 120.8343923  32.6954348  56.1174019
 120.8610064  34.2076265  56.1840750 116.0941289  24.0921255  58.7907393
 116.6685041  23.8696436  58.0580586 116.6812271  24.1609949  59.5435994
 116.4210876  26.1225716  52.8103278 115.5848188  26.4600402  53.1312553
 116.2815646  25.9874696  51.8730415 118.3963956  20.9662504  57.5182462
 117.7428369  20.6511521  56.8939077 118.3544431  20.3438244  58.2442285
 119.5075161  31.2481799  49.4335755 118.6002223  31.0171052  49.6326903
 120.0046193  30.4519418  49.6209736 120.6863395  31.3494394  53.9559745
 119.7774614  31.0653427  54.0532214 120.7158479  31.7693472  53.0963051
 111.2551565  29.0699908  57.9374947 111.0575965  28.4769269  57.2126013
 110.6998229  28.7652118  58.6550886 119.2348289  28.9623014  60.0569540
 119.2896899  28.0096851  59.9812017 118.4239491  29.1182453  60.5410838
 120.3839483  32.8903137  51.2947823 119.9458912  32.1738996  50.8353461
 121.1249923  33.1179252  50.7332915 117.1740649  27.5800074  57.8159919
 116.3608514  27.8794245  58.2225111 117.6699643  27.1855763  58.5334401
 119.3249227  37.5757831  59.7494184 119.2825405  37.8018677  58.8202716
 120.2411925  37.3421206  59.8979985 116.6654723  25.1518430  63.4321154
 117.3054103  25.0107189  62.7344117 115.8332254  24.8652943  63.0559756
 117.4415027  34.4520860  59.5456146 118.2355626  33.9571180  59.3438721
 116.7306720  33.9238723  59.1823852 113.7497791  28.5963942  55.6215899
 112.8195379  28.5348397  55.8385861 113.8455263  28.0739895  54.8252540
 113.6683340  25.1218755  58.2094141 113.9290157  26.0364088  58.1003301
 114.4900512  24.6543197  58.3590753 115.1408265  26.5356512  65.3792965
 115.8131319  26.3273874  64.7305614 114.3138052  26.3378598  64.9398197
 120.0186303  35.0249882  63.2253983 119.8797389  34.6568666  64.0979921
 119.2300900  35.5397521  63.0537941 120.6134455  40.1258979  54.5679520
 120.7886211  39.6547022  55.3825143 119.9267243  40.7524745  54.7960781
 121.5691519  34.4031485  60.6142821 121.2341351  34.3632255  61.5100471
 121.0695464  33.7376201  60.1413231 115.5435762  29.8099115  66.1395402
 115.4055560  29.0779354  66.7406941 116.4540686  29.7208015  65.8579590
 118.1718063  29.5219074  65.6279082 118.8817682  28.8812266  65.5865700
 118.1287371  29.7731969  66.5505263 116.8846997  26.5084292  67.4474721
 116.3484354  26.0575030  68.0996318 116.2963706  26.6430201  66.7045186
 115.1795541  43.2748341  61.3419380 115.4192139  43.9066865  62.0198399
 114.3364737  42.9236381  61.6284739 116.2949256  25.9672943  50.0101185
 115.4178722  25.8461744  49.6463432 116.7707009  25.1759022  49.7580074
 107.8151396  30.7550103  60.1042692 108.5022436  30.4411833  59.5163708
 107.6599525  31.6591468  59.8309944 112.6186118  25.6440300  64.5327716
 112.5344307  25.0365969  63.7978126 111.7968825  26.1349318  64.5337212
 119.6923403  39.0827464  63.7460884 119.6193574  39.8882435  64.2580189
 119.2500796  39.2819430  62.9208905 119.4813182  38.3199234  57.2563706
 118.6980704  38.8620914  57.3501930 120.1805927  38.8373213  57.6557947
 119.3744801  26.2711246  59.6269596 119.0042589  25.7182287  60.3150501
 119.8703893  25.6669380  59.0744596 117.2034000  36.7308741  66.7224614
 117.9043459  37.3645224  66.8754008 116.7329115  37.0723473  65.9620253
 112.8001718  36.2645096  63.6555716 113.3855154  35.5188784  63.7883620
 112.6026556  36.5749053  64.5392380 115.6540373  39.2996344  58.6718159
 114.9850748  39.7842471  58.1882199 115.5153243  39.5465564  59.5861537
 107.3919372  28.8350696  62.3760159 107.4303472  28.3014287  63.1697277
 106.8859665  28.3085902  61.7571137 119.7945641  41.3340087  65.2700817
 120.3463949  41.4971709  66.0349902 120.1351835  41.9244525  64.5980842
 114.7710135  23.6815237  65.8722702 114.8351461  24.5430068  65.4600099
 114.7077255  23.0689239  65.1395060 114.2462407  25.7538370  69.5195736
 114.8734446  25.3715447  70.1333260 113.3890326  25.5352571  69.8851428
 111.0227950  27.5614799  55.4514091 111.3181391  26.6525477  55.3981144
 110.1215986  27.5402538  55.1295093 114.5522197  25.6370795  61.4341639
 113.8308783  26.2506763  61.2949113 115.3415453  26.1728560  61.3558285
 117.3548510  22.9725222  67.7082291 117.8782912  23.2187518  68.4708600
 117.1360844  23.8045257  67.2885428 112.7515792  25.2428896  55.5753416
 112.4228498  24.3626275  55.3928522 113.1055162  25.1876565  56.4629805
 115.8657615  25.5301866  55.9428894 116.2053687  26.0587787  55.2207502
 116.3129735  25.8682272  56.7187460 118.5601056  23.9138917  65.3931962
 118.2197876  23.1146730  65.7952641 117.8540062  24.2140628  64.8208795
 119.2117527  20.9988229  63.8459285 120.0343597  20.5248707  63.7238175
 119.4555591  21.7778713  64.3457971 117.8525762  24.0276488  54.1422186
 118.5734124  24.4057740  53.6385903 117.2291066  24.7465364  54.2457164
 116.7356106  27.6907350  61.6551263 116.5900687  28.0047653  62.5475545
 116.2581310  28.3092250  61.1022162 118.5952489  24.6809898  61.7032153
 118.5814058  23.7850991  61.3664451 119.3124917  24.6880562  62.3370439
 120.4478620  25.1147238  63.7485280 120.1896397  26.0364309  63.7469611
 119.9163660  24.7177673  64.4385744 111.2101768  30.2312694  64.5938924
 110.6655236  31.0072502  64.7259199 112.0881118  30.5783499  64.4358046
 117.9989385  23.5624278  56.9719723 118.1205296  22.6340924  57.1710610
 117.7091427  23.5762964  56.0598038 120.8680575  21.2479189  60.1086443
 120.8902272  21.3118522  59.1538422 121.2848634  20.4083697  60.3026949
 111.9967790  29.3582591  67.4869081 111.2549526  29.5065226  68.0733712
 111.6760534  29.6190856  66.6235831 119.9411453  38.8998569  67.2849471
 120.2498579  38.6547716  68.1572171 120.7386935  39.1045207  66.7968342
 119.9632065  41.0536478  59.5154848 119.5237055  40.5612857  60.2087705
 120.7140182  40.5109446  59.2746923 112.4424404  37.2448019  59.5179476
 113.2682424  36.9451791  59.1378119 112.0918456  36.4755642  59.9669265
 117.4105937  36.5974487  61.5877150 116.7885946  35.9345193  61.2879377
 118.0810804  36.6235619  60.9050797 110.6433009  35.1634346  60.4768410
 109.8064917  34.7356520  60.2952411 110.6156654  35.3566789  61.4139201
 117.4830464  25.0756276  71.1809656 117.5318620  25.9518398  70.7987425
 118.0252979  24.5333669  70.6081299 116.9719444  35.1478411  55.0635610
 117.1207564  35.8313875  54.4102283 117.7785887  35.1283501  55.5785066
 119.7129753  25.8287648  67.9356014 118.8433062  26.1221214  67.6638603
 119.9489233  26.4128093  68.6563278 114.7272077  31.1743588  56.0696679
 114.4818119  30.2705918  56.2676889 114.8967991  31.1760739  55.1276157
 113.9967724  26.9071946  53.5682840 113.3036969  26.9816301  52.9122876
 113.7519476  26.1432290  54.0904357 120.4714849  37.6426541  52.5347357
 119.8988816  38.2616728  52.0817829 121.0447643  38.1925903  53.0687279
 119.0404565  26.9037330  49.8118295 118.1336020  26.6070443  49.8881009
 119.3180546  26.6067148  48.9452581 109.9582505  28.2243694  60.2617342
 109.6385290  27.3709002  59.9691716 109.4115934  28.4392272  61.0175309
 113.7362413  30.9406135  63.9786848 113.9548423  31.8723243  63.9974882
 114.1488187  30.5814109  64.7641652 120.6566631  21.4474220  55.9662537
 119.8467359  21.1021305  56.3417783 121.3451048  21.1381764  56.5550148
 118.6090278  26.5139341  73.3689597 118.5087005  27.4633698  73.3001688
 118.3911820  26.1857579  72.4965667 117.8103350  23.7624266  49.9530274
 118.6722514  24.0879164  50.2126092 117.9953694  22.9755762  49.4403340
 109.8270765  31.8446605  62.2310463 109.1334237  31.4300558  61.7180418
 110.5743756  31.8867142  61.6343882 118.4721548  29.9436479  72.1854659
 117.9888630  30.7436840  72.3918548 118.5582487  29.9544424  71.2322103
 111.7407508  31.7764859  60.1076478 111.7178196  31.8752546  59.1558361
 112.0508144  32.6230010  60.4293644 114.3994886  33.8341014  64.2223092
 115.3538139  33.8024956  64.1553024 114.2007409  33.3731638  65.0373318
 114.9894268  32.4042130  66.7893890 115.8087157  32.8986209  66.8128727
 115.2631076  31.4874098  66.7611458 112.7545115  39.3760634  61.2393290
 112.6199583  38.6161034  60.6731288 112.3377177  40.1001533  60.7722079
 115.9114240  40.2729951  61.4511733 115.7946625  41.2175383  61.3490423
 115.0906687  39.9703512  61.8397532 110.2429182  26.7380264  67.4886087
 110.8888046  26.2279218  67.9773312 110.0346333  27.4748946  68.0629512
 118.7632793  21.0020309  53.2409983 118.7511462  21.9462149  53.3978254
 119.6556215  20.8190454  52.9469445 116.9368755  40.9258213  64.6667661
 117.8396001  40.9581823  64.9834156 116.7106125  39.9958663  64.6813997
 118.6922357  39.6789199  61.3277740 117.7417988  39.6791061  61.2142112
 118.9954843  38.9321934  60.8113775 114.5826673  23.8847881  71.5861101
 115.4458135  23.5284686  71.7964426 114.0092084  23.5461776  72.2736506
 118.6545151  46.0842021  60.1042692 119.3416191  45.7703751  59.5163708
 118.4993279  46.9883385  59.8309944 118.2313127  44.1642614  62.3760159
 118.2697226  43.6306205  63.1697277 117.7253420  43.6377820  61.7571137
 121.4826763  50.4926263  60.4768410 120.6458672  50.0648438  60.2952411
 121.4550409  50.6858707  61.4139201 120.7976260  43.5535612  60.2617342
 120.4779044  42.7000920  59.9691716 120.2509688  43.7684190  61.0175309
 120.6664520  47.1738523  62.2310463 119.9727991  46.7592476  61.7180418
 121.4137511  47.2159060  61.6343882 117.5408712  17.5325070  43.9216485
 117.4632742  18.4832895  44.0004965 116.9370356  17.1870942  44.5791411
 115.1795542  20.2810464  48.0664687 115.4192140  20.9128988  48.7443705
 114.3364738  19.9298504  48.3530046 115.6540374  16.3058466  45.3963465
 114.9850749  16.7904594  44.9127505 115.5153244  16.5527687  46.3106844
 119.7945643  18.3402210  51.9946124 120.3463951  18.5033831  52.7595209
 120.1351836  18.9306648  51.3226148 112.7545116  16.3822756  47.9638597
 112.6199584  15.6223157  47.3976595 112.3377178  17.1063656  47.4967386
 115.9114242  17.2792073  48.1757040 115.7946626  18.2237506  48.0735730
 115.0906688  16.9765635  48.5642839 116.9368756  17.9320335  51.3912968
 117.8396003  17.9643945  51.7079463 116.7106126  17.0020786  51.4059304
 118.6545152  23.0904143  46.8287999 119.3416192  22.7765873  46.2409014
 118.4993281  23.9945508  46.5555250 118.2313128  21.1704737  49.1005466
 118.2697228  20.6368327  49.8942584 117.7253421  20.6439942  48.4816443
 121.4826765  27.4988386  47.2013716 120.6458673  27.0710560  47.0197717
 121.4550410  27.6920829  48.1384507 120.7976261  20.5597734  46.9862648
 120.4779046  19.7063042  46.6937022 120.2509689  20.7746312  47.7420616
 120.6664521  24.1800646  48.9555770 119.9727993  23.7654598  48.4425724
 121.4137512  24.2221182  48.3589189  24.8599444  62.9517187 118.7305904
  24.1861142  63.2548884 119.3390862  25.2465265  63.7546267 118.3811361
  28.8256184  60.5302671 120.0045728  29.5207089  61.1509363 120.2233042
  29.1679334  59.6798022 120.2798106  22.9171053  60.6364422 118.9120821
  22.3445020  61.2554609 118.4591293  23.4903846  61.1863784 119.4460743
  26.1368312  60.9201572 120.0429403  27.0698986  60.8547134 120.2462279
  26.0491525  61.7557839 119.5843936  28.7656329  60.2367443 117.0033351
  28.6869961  59.9027306 117.8969109  29.5865996  60.7289211 117.0024823
  26.3360281  57.5535438 116.6243329  27.0396131  57.7585441 117.2400985
  25.6122930  58.1212200 116.8892413  28.2446978  57.9917967 118.6741789
  29.0792582  57.5599166 118.4919264  28.0831321  57.8199981 119.6018684
  36.8731253  68.5087618 128.7696966  37.5109663  68.3894366 128.0660306
  36.7552096  69.4568462 128.8284918  29.5407775  70.3150523 124.6955382
  28.9772641  70.2240460 123.9271670  29.4260170  69.4950427 125.1757874
  35.1207334  73.9821491 120.0069847  34.4695314  74.5675571 119.6203861
  35.9151697  74.5127686 120.0664884  29.0462961  71.0710628 120.4056981
  29.8193837  70.5239615 120.2669857  29.3988360  71.9354877 120.6171442
  31.3829239  67.2303294 118.0375431  31.6354760  66.7084815 117.2758894
  30.4453798  67.0669439 118.1402115  36.4272522  66.2339072 125.8450174
  37.2135611  65.8158495 125.4940591  36.6911226  67.1385164 126.0131823
  36.5982599  71.6711923 120.5438831  35.9628432  71.7446549 121.2559736
  36.2680006  72.2605521 119.8657910  41.8280949  66.1714305 126.7483153
  42.5606121  65.6013522 126.9820982  41.0720305  65.7835906 127.1889658
  31.1025528  69.1331400 120.2399806  30.9861786  68.4576303 120.9080890
  31.2127788  68.6463774 119.4231959  33.4457069  68.5941547 123.9446495
  33.0815276  68.0672168 124.6559417  34.3024185  68.2040016 123.7712981
  33.0862556  63.6231447 118.9407844  33.2536958  64.4911683 119.3078315
  32.8959725  63.7858728 118.0169133  33.0651777  66.0789104 119.9254511
  32.9451402  66.5246155 120.7639991  32.3704365  66.4274422 119.3668049
  30.8258669  78.8492746 123.5744642  30.7482698  79.8000571 123.6533122
  30.2220312  78.5038618 124.2319568  38.7636843  66.5510577 120.7534845
  39.6754699  66.7837964 120.5782542  38.2546490  67.1347622 120.1909923
  37.3706425  71.5336396 128.1448426  36.7415288  71.6982110 127.4424494
  36.9832087  71.9478005 128.9159390  41.2495657  72.4690834 125.4992790
  40.5646695  72.8489735 124.9489823  41.3339506  73.0786160 126.2324738
  32.9234387  71.2710804 125.4098511  33.3872732  71.5498507 124.6203134
  32.6591185  70.3694248 125.2271602  31.8603273  67.3933956 122.2188076
  32.5627316  67.8455000 122.6862003  31.5283901  66.7517775 122.8467969
  39.6192417  72.9922748 130.2710491  40.4409860  72.5902935 129.9893172
  39.6154819  72.8890982 131.2226606  47.7098410  69.3361497 126.6195462
  46.9562118  68.7668895 126.4639467  47.8445951  69.3024161 127.5666097
  33.0997038  74.2074899 122.2950181  32.9642712  75.0526435 122.7235029
  33.6406850  74.4094177 121.5316115  26.5526435  71.7250337 122.8678107
  27.0650956  72.5193587 123.0183671  27.2049148  71.0276627 122.8011708
  28.3621320  74.8416093 124.9500860  28.5387948  75.7634058 124.7621844
  29.1578153  74.5274512 125.3795240  24.5175352  70.0538991 123.6437677
  25.3550574  70.4636000 123.4271385  24.6953619  69.1138433 123.6137871
  36.4139784  67.7214072 119.3321510  35.8986407  68.4918676 119.5709897
  36.1417092  67.0479208 119.9554572  33.9986895  62.5663773 124.3906748
  33.1428491  62.1770623 124.2112387  34.4113847  62.6455733 123.5306534
  41.3874058  70.4746427 121.2674684  40.6103501  70.1357586 120.8229846
  42.0665539  70.4799050 120.5929649  36.2026087  65.5941164 121.1581291
  35.8976223  65.9087313 122.0091434  37.1556529  65.6722584 121.2008624
  34.6472519  71.7531387 122.8074245  34.1193881  71.0184147 122.4947483
  34.1460022  72.5306064 122.5614214  39.6265365  69.9480408 127.9241292
  38.9689039  70.6379669 128.0121420  40.4305764  70.3376840 128.2675278
  38.4370824  68.3024780 125.9745233  38.9502705  68.9354772 126.4766943
  39.0872048  67.7025976 125.6088593  29.7060834  64.4455515 119.1876742
  28.8698146  64.7830201 119.5086017  29.5665603  64.3104494 118.2503879
  32.7925119  69.5711598 115.8109218  31.8852181  69.3400851 116.0100367
  33.2896151  68.7749217 115.9983200  35.6993198  78.2809105 118.7305904
  35.0254897  78.5840801 119.3390862  36.0859020  79.0838185 118.3811361
  35.6986702  67.1765652 123.3506254  36.4458521  67.6887049 123.0413376
  35.9678292  66.8549704 124.2110648  33.9713353  69.6724192 120.3333208
  33.0624572  69.3883225 120.4305678  34.0008436  70.0923271 119.4736515
  39.2032620  73.2830782 124.1024376  38.7494947  72.4421692 124.1589566
  38.5726587  73.9192180 124.4399156  38.1465540  64.2122768 125.3325043
  37.4088296  63.7000154 125.6635286  38.3992313  63.7723150 124.5208320
  37.6465559  75.1207279 125.0374194  37.9388534  75.6812336 124.3186560
  38.1564180  75.4135840 125.7927353  32.5198247  67.2852813 126.4343004
  32.5746856  66.3326649 126.3585480  31.7089449  67.4412252 126.9184302
  33.6689440  71.2132936 117.6721287  33.2308870  70.4968795 117.2126924
  34.4099881  71.4409051 117.1106378  30.4590607  65.9029873 124.1933383
  29.6458472  66.2024043 124.5998575  30.9549601  65.5085562 124.9107865
  32.6099184  75.8987630 126.1267647  32.5675363  76.1248476 125.1976179
  33.5261883  75.6651004 126.2753448  41.7862555  69.4890133 123.7297605
  41.6480454  69.6791729 122.8018795  41.4298774  70.2509516 124.1865657
  41.8131935  71.5566660 128.7408877  42.2468441  71.4641949 129.5891931
  42.5263515  71.5324161 128.1028893  30.7264985  72.7750659 125.9229610
  31.5205584  72.2800979 125.7212185  30.0156678  72.2468522 125.5597316
  27.0347749  66.9193740 121.9989363  26.1045337  66.8578196 122.2159325
  27.1305221  66.3969693 121.2026004  42.6747484  71.5990361 131.2741762
  42.8683374  72.5036171 131.5201037  42.5748102  71.1397780 132.1080347
  33.8984413  78.4488777 120.9452984  34.0736169  77.9776820 121.7598606
  33.2117201  79.0754543 121.1734244  34.8541476  72.7261283 126.9916285
  34.5191309  72.6862053 127.8873935  34.3545422  72.0605999 126.5186695
  37.7900668  70.0717318 117.2653345  37.1729839  69.3464146 117.1686397
  37.3217156  70.8326678 116.9220419  29.5799214  64.2902742 116.3874649
  28.7028680  64.1691543 116.0236895  30.0556967  63.4988820 116.1353537
  32.7663140  76.6429032 123.6337169  31.9830662  77.1850713 123.7275394
  33.4655885  77.1603012 124.0331410  43.9289547  68.1564027 127.9189666
  43.9179424  69.0388743 127.5483599  43.0606927  67.8035578 127.7244203
  37.1589571  71.2095349 123.8509798  36.2245849  71.3296812 123.6814502
  37.3366239  70.3067816 123.5869808  40.5462122  67.0512668 124.3859832
  41.0122574  67.8840660 124.3120135  40.9969623  66.5857650 125.0905091
  38.6138353  73.3956490 121.3845984  38.8898197  73.2813084 122.2939858
  37.7442852  72.9973974 121.3458157  35.2492417  77.6442840 125.0278798
  35.4314812  76.8264496 125.4906550  36.0725403  77.8610533 124.5903688
  35.5834583  76.5711026 122.2893846  36.1122349  76.0603480 121.6764008
  35.8462802  76.2553556 123.1539379  24.3077908  65.8844597 121.8287554
  24.6031349  64.9755276 121.7754608  23.4065943  65.8632337 121.5068557
  36.2163986  77.6051861 128.6337963  36.0915126  76.8041601 128.1248908
  36.8743078  78.0998055 128.1451933  38.2798895  75.4060881 130.2617513
  37.3329230  75.2866233 130.1895840  38.6281668  74.5183379 130.3443774
  35.2845328  75.2013598 126.4621865  35.1370291  74.2730305 126.6429435
  36.1098822  75.2233688 125.9778940  29.1507572  63.8531665 122.3202357
  29.4903645  64.3817586 121.5980966  29.5979693  64.1912071 123.0960924
  38.8879450  76.0242156 127.5486738  39.8125997  75.8185018 127.4111189
  38.7194753  75.7758558 128.4576079  31.1375720  62.3506286 120.5195650
  31.8584082  62.7287539 120.0159367  30.5141024  63.0695163 120.6230628
  35.2806842  63.0551435 121.4553982  35.4970457  63.9376073 121.1542811
  34.8000910  62.6637649 120.7259624  38.6774766  76.5427824 122.9048829
  38.8511644  75.9774246 122.1522682  39.1703657  77.3428719 122.7228319
  44.5314157  69.3064247 124.5239129  44.9745303  68.5571572 124.1258252
  43.6540668  69.2974383 124.1412861  39.6649939  75.8594588 120.0045728
  40.3600843  76.4801281 120.2233042  40.0073089  75.0089939 120.2798106
  41.5641362  73.3094294 121.5333058  42.0892686  73.6481567 120.8082378
  41.4763714  72.3741309 121.3496193  30.2569402  73.4708209 121.4409074
  30.4057522  74.1543674 120.7875747  31.0635845  73.4513300 121.9558530
  44.0747022  70.7769485 126.9161577  44.9093913  71.2159289 127.0799137
  44.2106151  70.3008138 126.0969822  28.0122035  69.4973387 122.4470143
  27.7668077  68.5935717 122.6450353  28.1817949  69.4990538 121.5049621
  27.2817682  65.2301745 119.9456304  26.5886927  65.3046100 119.2896340
  27.0369434  64.4662088 120.4677821  33.7564807  75.9656340 118.9120821
  33.1838774  76.5846527 118.4591293  34.3297601  76.5155702 119.4460743
  36.9762067  76.2493490 120.0429403  37.9092740  76.1839052 120.2462279
  36.8885280  77.0849757 119.5843936  39.6050084  75.5659360 117.0033351
  39.5263715  75.2319224 117.8969109  40.4259750  76.0581128 117.0024823
  42.3028275  68.4321100 130.2109670  42.2704595  67.4937100 130.3969353
  42.9128898  68.5105136 129.4775495  34.1411606  67.3017153 116.2536874
  35.0870710  67.1723361 116.3225292  33.7625851  66.5631815 116.7306302
  48.1204825  69.4937107 129.3515706  48.8508213  69.2322395 129.9123410
  47.5111770  68.7565828 129.3917774  46.2020122  67.6344969 129.9490158
  45.4753285  67.5000934 129.3406649  45.7867409  67.9421798 130.7546876
  32.3254523  65.2267129 116.1891759  31.4185978  64.9300242 116.2654473
  32.6030504  64.9296947 115.3226045  33.9416589  59.7704019 122.3436000
  33.1317317  59.4251104 122.7191246  34.6301005  59.4611562 122.9323612
  31.0953307  62.0854064 116.3303738  31.9572471  62.4108963 116.5899555
  31.2803652  61.2985560 115.8176804  39.2485944  60.9582591 123.4738961
  38.6684613  61.6167395 123.0917014  38.9821877  60.1359935 123.0626379
  38.0310822  63.1182681 122.5295309  37.1436677  63.4032332 122.3115504
  38.4464811  62.9576444 121.6822586  41.3825358  63.1429202 126.2449649
  42.1585748  63.6325655 126.5174265  40.6573492  63.5687256 126.7021518
  43.8197917  63.8556821 127.3023589  44.4142408  63.6152557 126.5916897
  43.8924500  63.1363952 127.9297126  37.1754035  72.8827356 116.6243329
  37.8789886  73.0877358 117.2400985  36.4516684  73.4504118 116.8892413
  38.0051846  68.6337217 122.7445600  37.9487047  69.0905768 121.9053232
  38.5580188  67.8727902 122.5668442  41.8156652  64.4226949 123.5695719
  41.5593586  64.0223585 124.4003927  41.1909520  65.1370743 123.4445858
  46.1268989  67.1623022 126.0767010  45.5668547  67.2316211 126.8498572
  45.5212493  66.9864007 125.3566507  39.0840733  73.3209885 118.6741789
  39.9186337  72.8891083 118.4919264  38.9225076  73.1491899 119.6018684
  38.7386625  69.8241998 120.0398129  38.6835429  69.6586270 119.0986573
  38.1132680  70.5318031 120.1960318  32.0482750  59.3250107 119.6183447
  32.0361420  60.2691947 119.7751718  32.9406172  59.1420253 119.3242908
  40.3801530  85.6442441 124.6955382  39.8166395  85.5532378 123.9271670
  40.2653925  84.8242345 125.1757874  45.9601089  89.3113408 120.0069847
  45.3089068  89.8967489 119.6203861  46.7545451  89.8419603 120.0664884
  39.8856716  86.4002545 120.4056981  40.6587592  85.8531533 120.2669857
  40.2382115  87.2646795 120.6171442  42.2222994  82.5595212 118.0375431
  42.4748514  82.0376733 117.2758894  41.2847553  82.3961357 118.1402115
  47.2666276  81.5630990 125.8450174  48.0529366  81.1450413 125.4940591
  47.5304981  82.4677082 126.0131823  47.4376354  87.0003840 120.5438831
  46.8022187  87.0738467 121.2559736  47.1073760  87.5897439 119.8657910
  41.9419282  84.4623318 120.2399806  41.8255540  83.7868221 120.9080890
  42.0521542  83.9755691 119.4231959  44.2850823  83.9233465 123.9446495
  43.9209030  83.3964086 124.6559417  45.1417939  83.5331934 123.7712981
  43.9256310  78.9523364 118.9407844  44.0930713  79.8203601 119.3078315
  43.7353479  79.1150646 118.0169133  40.1344125  83.8654140 126.6410378
  39.2094621  83.7330354 126.8488070  40.3828538  84.6448359 127.1380321
  43.9045531  81.4081022 119.9254511  43.7845156  81.8538073 120.7639991
  43.2098119  81.7566340 119.3668049  49.6030597  81.8802495 120.7534845
  50.5148453  82.1129882 120.5782542  49.0940244  82.4639539 120.1909923
  46.9466572  78.0560531 129.0024705  46.0851051  78.3541785 129.2941443
  46.9729007  78.2730930 128.0705738  43.7628141  86.6002722 125.4098511
  44.2266487  86.8790425 124.6203134  43.4984940  85.6986166 125.2271602
  42.6997027  82.7225874 122.2188076  43.4021071  83.1746918 122.6862003
  42.3677656  82.0809693 122.8467969  36.4422361  80.9809427 127.5205210
  35.6521415  81.2366955 127.0445320  36.9333609  81.7957764 127.6257250
  38.3937107  81.3454006 124.4788687  37.5968270  81.4572700 124.9972182
  38.1662699  81.6840658 123.6129577  43.9390792  89.5366817 122.2950181
  43.8036467  90.3818352 122.7235029  44.4800605  89.7386094 121.5316115
  37.3920190  87.0542255 122.8678107  37.9044710  87.8485505 123.0183671
  38.0442902  86.3568545 122.8011708  39.2015074  90.1708011 124.9500860
  39.3781703  91.0925976 124.7621844  39.9971908  89.8566430 125.3795240
  47.2883256  73.0597378 130.8249075  46.9447525  73.9499020 130.7488186
  47.6562218  72.8699036 129.9618660  35.3569106  85.3830909 123.6437677
  36.1944328  85.7927917 123.4271385  35.5347374  84.4430351 123.6137871
  47.2533538  83.0505990 119.3321510  46.7380162  83.8210594 119.5709897
  46.9810847  82.3771126 119.9554572  44.8380649  77.8955690 124.3906748
  43.9822246  77.5062541 124.2112387  45.2507601  77.9747651 123.5306534
  46.3679796  75.4302034 128.7898308  45.8644592  75.3932169 127.9766113
  46.6610403  76.3394776 128.8494965  42.6122682  75.5140763 127.7964490
  43.4775679  75.3183572 127.4370379  42.6800191  75.2851115 128.7233847
  52.2267813  85.8038344 121.2674684  51.4497255  85.4649504 120.8229846
  52.9059294  85.8090967 120.5929649  47.0419842  80.9233082 121.1581291
  46.7369977  81.2379231 122.0091434  47.9950284  81.0014502 121.2008624
  45.4866273  87.0823305 122.8074245  44.9587635  86.3476065 122.4947483
  44.9853776  87.8597981 122.5614214  40.2185001  77.7442971 125.1680857
  40.7928753  77.5218153 124.4354050  40.8055983  77.8131666 125.9209458
  40.5454588  79.7747432 119.1876742  39.7091900  80.1122119 119.5086017
  40.4059358  79.6396412 118.2503879  42.5207669  74.6184220 123.8955926
  41.8672081  74.3033237 123.2712541  42.4788143  73.9959961 124.6215749
  43.6318874  84.9003515 115.8109218  42.7245935  84.6692769 116.0100367
  44.1289906  84.1041134 115.9983200  46.5386952  93.6101022 118.7305904
  45.8648651  93.9132719 119.3390862  46.9252774  94.4130103 118.3811361
  45.7545409  81.1066154 128.2203574  44.8367970  81.3281101 128.0625262
  46.1705553  81.1812464 127.3615281  46.5380457  82.5057569 123.3506254
  47.2852276  83.0178967 123.0413376  46.8072046  82.1841622 124.2110648
  44.8107107  85.0016110 120.3333208  43.9018326  84.7175143 120.4305678
  44.8402191  85.4215189 119.4736515  48.9859294  79.5414686 125.3325043
  48.2482051  79.0292072 125.6635286  49.2386068  79.1015067 124.5208320
  49.0870921  72.3190938 125.9266813  49.3929798  71.4588301 125.6392728
  49.8123526  72.9108558 125.7265807  35.3795277  82.7221624 124.3148411
  35.1819677  82.1290985 123.5899477  34.8241941  82.4173834 125.0324349
  43.3592001  82.6144731 126.4343004  43.4140611  81.6618567 126.3585480
  42.5483203  82.7704170 126.9184302  44.5083195  86.5424854 117.6721287
  44.0702625  85.8260713 117.2126924  45.2493636  86.7700969 117.1106378
  41.2984361  81.2321790 124.1933383  40.4852227  81.5315961 124.5998575
  41.7943355  80.8377479 124.9107865  52.6256310  84.8182051 123.7297605
  52.4874208  85.0083647 122.8018795  52.2692528  85.5801434 124.1865657
  40.7898436  78.8040146 129.8094618  41.4297815  78.6628905 129.1117581
  39.9575966  78.5174659 129.4333220  41.5658740  88.1042576 125.9229610
  42.3599338  87.6092897 125.7212185  40.8550432  87.5760440 125.5597316
  37.8741503  82.2485658 121.9989363  36.9439091  82.1870114 122.2159325
  37.9698975  81.7261611 121.2026004  37.7927052  78.7740471 124.5867604
  38.0533869  79.6885804 124.4776765  38.6144225  78.3064914 124.7364217
  44.7378168  93.7780695 120.9452984  44.9129923  93.3068738 121.7598606
  44.0510956  94.4046461 121.1734244  48.6294422  85.4009235 117.2653345
  48.0123593  84.6756064 117.1686397  48.1610911  86.1618596 116.9220419
  40.4192968  79.6194660 116.3874649  39.5422435  79.4983460 116.0236895
  40.8950721  78.8280738 116.1353537  46.9153545  77.7815580 126.2771375
  47.4122244  77.0285542 125.9572445  46.1440526  77.8179896 125.7114584
  47.9983325  86.5387267 123.8509798  47.0639604  86.6588729 123.6814502
  48.1759994  85.6359734 123.5869808  43.4988513  79.9232963 126.0043059
  43.1286301  79.3704003 126.6923965  43.9947606  79.3191096 125.4518059
  51.3855877  82.3804586 124.3859832  51.8516329  83.2132578 124.3120135
  51.8363377  81.9149568 125.0905091  49.4532108  88.7248407 121.3845984
  49.7291952  88.6105002 122.2939858  48.5836606  88.3265892 121.3458157
  49.3572539  74.7485173 128.4250734  48.4435619  74.9789400 128.5932940
  49.7865641  74.8323617 129.2764766  46.4228337  91.9002943 122.2893846
  46.9516104  91.3895398 121.6764008  46.6856557  91.5845473 123.1539379
  38.8953847  77.3336953 132.2496165  38.9595173  78.1951784 131.8373563
  38.8320967  76.7210955 131.5168524  35.1471662  81.2136515 121.8287554
  35.4425103  80.3047193 121.7754608  34.2459698  81.1924254 121.5068557
  38.6765909  79.2892512 127.8115103  37.9552495  79.9028479 127.6722576
  39.4659165  79.8250276 127.7331749  36.8759504  78.8950613 121.9526880
  36.5472210  78.0147992 121.7701986  37.2298874  78.8398281 122.8403269
  39.9901327  79.1823582 122.3202357  40.3297399  79.7109504 121.5980966
  40.4373447  79.5203989 123.0960924  42.6844768  77.5660633 131.7705425
  42.3441588  76.7668446 132.1726105  41.9783774  77.8662344 131.1982259
  43.3361240  74.6509946 130.2232748  44.1587309  74.1770424 130.1011639
  43.5799303  75.4300429 130.7231435  41.9769474  77.6798204 120.5195650
  42.6977837  78.0579457 120.0159367  41.3534778  78.3987081 120.6230628
  46.1200597  78.3843353 121.4553982  46.3364211  79.2667991 121.1542811
  45.6394664  77.9929566 120.7259624  40.8599818  81.3429066 128.0324727
  40.7144399  81.6569369 128.9249008  40.3825022  81.9613967 127.4795626
  42.7196201  78.3331614 128.0805617  42.7057770  77.4372707 127.7437914
  43.4368629  78.3402278 128.7143903  44.5722332  78.7668954 130.1258744
  44.3140110  79.6886025 130.1243074  44.0407372  78.3699389 130.8159208
  42.1233097  77.2145994 123.3493187  42.2449008  76.2862641 123.5484074
  41.8335140  77.2284680 122.4371502  44.9924288  74.9000905 126.4859907
  45.0145984  74.9640238 125.5311886  45.4092347  74.0605414 126.6800413
  50.5043693  91.1886506 120.0045728  51.1994598  91.8093199 120.2233042
  50.8466843  90.3381857 120.2798106  52.4035116  88.6386211 121.5333058
  52.9286440  88.9773484 120.8082378  52.3157469  87.7033227 121.3496193
  41.0963156  88.8000127 121.4409074  41.2451276  89.4835592 120.7875747
  41.9029600  88.7805217 121.9558530  38.8515789  84.8265305 122.4470143
  38.6061831  83.9227635 122.6450353  39.0211704  84.8282455 121.5049621
  38.1211437  80.5593662 119.9456304  37.4280682  80.6338017 119.2896340
  37.8763189  79.7954006 120.4677821  46.7925093  72.1189264 127.3495795
  47.0726847  71.4512453 127.9756221  47.5775700  72.3118359 126.8370459
  44.5958562  91.2948258 118.9120821  44.0232529  91.9138445 118.4591293
  45.1691355  91.8447619 119.4460743  47.8155821  91.5785408 120.0429403
  48.7486495  91.5130969 120.2462279  47.7279034  92.4141675 119.5843936
  50.4443838  90.8951278 117.0033351  50.3657470  90.5611142 117.8969109
  51.2653505  91.3873046 117.0024823  44.9805360  82.6309070 116.2536874
  45.9264465  82.5015278 116.3225292  44.6019605  81.8923732 116.7306302
  50.9527245  74.2965076 126.2163766  50.7552066  73.9880165 127.1007097
  51.5626950  75.0226715 126.3461695  43.1648277  80.5559047 116.1891759
  42.2579733  80.2592159 116.2654473  43.4424258  80.2588865 115.3226045
  44.7810343  75.0995936 122.3436000  43.9711071  74.7543021 122.7191246
  45.4694760  74.7903480 122.9323612  46.7100891  74.1773983 123.9660297
  47.2631930  74.5969437 124.6250320  46.9470978  73.2509731 124.0083253
  41.9347062  77.4145982 116.3303738  42.7966226  77.7400880 116.5899555
  42.1197406  76.6277478 115.8176804  50.0879698  76.2874508 123.4738961
  49.5078367  76.9459312 123.0917014  49.8215631  75.4651853 123.0626379
  48.5383265  75.6879566 125.6760281  49.0383043  75.7996101 124.8674600
  49.1818873  75.3840619 126.3161090  48.8704576  78.4474599 122.5295309
  47.9830431  78.7324249 122.3115504  49.2858566  78.2868362 121.6822586
  52.2219113  78.4721120 126.2449649  52.9979503  78.9617572 126.5174265
  51.4967247  78.8979174 126.7021518  48.0147790  88.2119273 116.6243329
  48.7183640  88.4169276 117.2400985  47.2910439  88.7796035 116.8892413
  48.8445600  83.9629135 122.7445600  48.7880802  84.4197686 121.9053232
  49.3973943  83.2019819 122.5668442  52.6550406  79.7518867 123.5695719
  52.3987340  79.3515502 124.4003927  52.0303274  80.4662661 123.4445858
  49.9234487  88.6501803 118.6741789  50.7580091  88.2183001 118.4919264
  49.7618830  88.4783816 119.6018684  49.5780379  85.1533916 120.0398129
  49.5229183  84.9878187 119.0986573  48.9526435  85.8609949 120.1960318
  42.8876505  74.6542025 119.6183447  42.8755175  75.5983865 119.7751718
  43.7799927  74.4712170 119.3242908  46.7028624  71.2484802 123.8729384
  45.9361020  70.6943288 124.0186066  47.1139329  71.3206670 124.7343536
  51.3848343  95.1039350 119.1876742  50.5485655  95.4414036 119.5086017
  51.2453112  94.9688330 118.2503879  51.2586723  94.9486577 116.3874649
  50.3816189  94.8275378 116.0236895  51.7344476  94.1572656 116.1353537
  48.9605191  95.8885580 119.9456304  48.2674436  95.9629935 119.2896340
  48.7156943  95.1245924 120.4677821  54.0042032  95.8850964 116.1891759
  53.0973487  95.5884077 116.2654473  54.2818013  95.5880782 115.3226045
  52.7740816  92.7437900 116.3303738  53.6359980  93.0692798 116.5899555
  52.9591161  91.9569396 115.8176804  53.7270259  89.9833943 119.6183447
  53.7148929  90.9275783 119.7751718  54.6193681  89.8004088 119.3242908
  24.8599445  39.9579310 105.4551211  24.1861144  40.2611006 106.0636169
  25.2465267  40.7608390 105.1056668  28.8256185  37.5364793 106.7291034
  29.5207090  38.1571486 106.9478349  29.1679336  36.6860144 107.0043412
  22.9171054  37.6426545 105.6366128  22.3445021  38.2616732 105.1836600
  23.4903848  38.1925907 106.1706050  26.1368314  37.9263695 106.7674710
  27.0698987  37.8609257 106.9707586  26.0491527  38.7619962 106.3089243
  28.7656330  37.2429565 103.7278658  28.6869962  36.9089429 104.6214416
  29.5865997  37.7351333 103.7270130  26.3360282  34.5597561 103.3488636
  27.0396132  34.7647563 103.9646292  25.6122931  35.1274323 103.6137720
  28.2446980  34.9980090 105.3987096  29.0792584  34.5661288 105.2164571
  28.0831322  34.8262104 106.3263991  36.8731255  45.5149741 115.4942273
  37.5109665  45.3956488 114.7905613  36.7552098  46.4630585 115.5530225
  29.5407777  47.3212646 111.4200688  28.9772642  47.2302582 110.6516976
  29.4260172  46.5012550 111.9003181  35.1207335  50.9883613 106.7315153
  34.4695315  51.5737694 106.3449167  35.9151698  51.5189808 106.7910191
  29.0462963  48.0772750 107.1302288  29.8193839  47.5301737 106.9915164
  29.3988361  48.9417000 107.3416749  31.3829240  44.2365417 104.7620738
  31.6354761  43.7146938 104.0004201  30.4453799  44.0731562 104.8647421
  36.4272523  43.2401195 112.5695481  37.2135612  42.8220618 112.2185898
  36.6911227  44.1447287 112.7377129  36.5982601  48.6774045 107.2684138
  35.9628433  48.7508672 107.9805042  36.2680007  49.2667644 106.5903217
  41.8280950  43.1776428 113.4728459  42.5606122  42.6075645 113.7066289
  41.0720306  42.7898029 113.9134965  31.1025529  46.1393522 106.9645113
  30.9861787  45.4638426 107.6326197  31.2127789  45.6525896 106.1477266
  33.4457070  45.6003670 110.6691802  33.0815277  45.0734291 111.3804723
  34.3024186  45.2102139 110.4958287  33.0862557  40.6293569 105.6653150
  33.2536959  41.4973806 106.0323621  32.8959726  40.7920851 104.7414440
  33.0651778  43.0851227 106.6499817  32.9451403  43.5308278 107.4885297
  32.3704366  43.4336544 106.0913355  30.8258670  55.8554869 110.2989948
  30.7482700  56.8062694 110.3778429  30.2220314  55.5100741 110.9564875
  38.7636844  43.5572700 107.4780151  39.6754700  43.7900087 107.3027849
  38.2546491  44.1409744 106.9155230  37.3706426  48.5398518 114.8693733
  36.7415289  48.7044233 114.1669801  36.9832088  48.9540128 115.6404697
  41.2495658  49.4752956 112.2238096  40.5646696  49.8551858 111.6735130
  41.3339508  50.0848283 112.9570044  32.9234388  48.2772926 112.1343818
  33.3872734  48.5560629 111.3448440  32.6591186  47.3756371 111.9516908
  31.8603274  44.3996079 108.9433383  32.5627318  44.8517123 109.4107309
  31.5283903  43.7579898 109.5713276  39.6192418  49.9984871 116.9955797
  40.4409862  49.5965058 116.7138479  39.6154821  49.8953105 117.9471913
  47.7098411  46.3423619 113.3440769  46.9562119  45.7731017 113.1884773
  47.8445952  46.3086284 114.2911403  33.0997039  51.2137021 109.0195488
  32.9642714  52.0588557 109.4480336  33.6406851  51.4156299 108.2561422
  26.5526436  48.7312460 109.5923413  27.0650957  49.5255710 109.7428978
  27.2049149  48.0338750 109.5257015  28.3621321  51.8478216 111.6746166
  28.5387949  52.7696180 111.4867150  29.1578154  51.5336635 112.1040546
  29.4852636  53.3656390 117.6756509  30.0360062  53.2373453 116.9033503
  28.6464112  53.6651279 117.3251402  24.5175353  47.0601114 110.3682984
  25.3550575  47.4698122 110.1516691  24.6953621  46.1200556 110.3383178
  36.4139785  44.7276194 106.0566817  35.8986409  45.4980799 106.2955204
  36.1417094  44.0541331 106.6799878  33.9986896  39.5725895 111.1152055
  33.1428493  39.1832746 110.9357694  34.4113848  39.6517856 110.2551841
  41.3874059  47.4808549 107.9919990  40.6103502  47.1419709 107.5475152
  42.0665540  47.4861172 107.3174955  36.2026088  42.6003287 107.8826598
  35.8976224  42.9149436 108.7336741  37.1556530  42.6784706 107.9253931
  34.6472520  48.7593510 109.5319552  34.1193882  48.0246269 109.2192789
  34.1460023  49.5368186 109.2859520  39.6265366  46.9542530 114.6486598
  38.9689041  47.6441792 114.7366727  40.4305765  47.3438962 114.9920585
  38.4370825  45.3086903 112.6990540  38.9502707  45.9416895 113.2012250
  39.0872049  44.7088099 112.3333900  29.7060835  41.4517637 105.9122049
  28.8698147  41.7892324 106.2331323  29.5665605  41.3166617 104.9749186
  32.7925120  46.5773720 102.5354525  31.8852182  46.3462974 102.7345674
  33.2896152  45.7811339 102.7228506  35.6993199  55.2871227 105.4551211
  35.0254898  55.5902924 106.0636169  36.0859021  56.0900308 105.1056668
  35.6986704  44.1827774 110.0751561  36.4458523  44.6949171 109.7658683
  35.9678293  43.8611827 110.9355954  33.9713354  46.6786315 107.0578515
  33.0624573  46.3945348 107.1550985  34.0008438  47.0985394 106.1981822
  39.2032621  50.2892904 110.8269683  38.7494948  49.4483814 110.8834873
  38.5726588  50.9254303 111.1644463  38.1465541  41.2184891 112.0570350
  37.4088298  40.7062277 112.3880593  38.3992314  40.7785272 111.2453627
  37.6465560  52.1269401 111.7619501  37.9388535  52.6874458 111.0431866
  38.1564181  52.4197962 112.5172660  32.5198248  44.2914936 113.1588310
  32.5746858  43.3388772 113.0830787  31.7089450  44.4474375 113.6429609
  33.6689442  48.2195059 104.3966594  33.2308872  47.5030918 103.9372231
  34.4099882  48.4471173 103.8351685  30.4590608  42.9091995 110.9178689
  29.6458473  43.2086166 111.3243881  30.9549602  42.5147684 111.6353171
  32.6099186  52.9049752 112.8512954  32.5675364  53.1310599 111.9221486
  33.5261885  52.6713127 112.9998755  41.7862556  46.4952256 110.4542912
  41.6480455  46.6853852 109.5264101  41.4298775  47.2571639 110.9110963
  41.8131936  48.5628783 115.4654184  42.2468443  48.4704072 116.3137238
  42.5263517  48.5386283 114.8274200  30.7264986  49.7812781 112.6474917
  31.5205585  49.2863101 112.4457492  30.0156679  49.2530644 112.2842622
  35.5459831  52.1630877 116.9987284  35.5996853  52.7321813 117.7665000
  34.6774612  52.3332762 116.6341321  27.0347750  43.9255863 108.7234669
  26.1045338  43.8640319 108.9404631  27.1305222  43.4031816 107.9271311
  42.6747486  48.6052483 117.9987069  42.8683376  49.5098294 118.2446344
  42.5748104  48.1459902 118.8325654  33.3036262  50.3541803 116.3272754
  33.1647348  49.9860588 117.1998692  32.5150859  50.8689443 116.1556712
  33.8984414  55.4550900 107.6698290  34.0736170  54.9838943 108.4843913
  33.2117202  56.0816666 107.8979551  34.8541478  49.7323406 113.7161591
  34.5191310  49.6924176 114.6119241  34.3545423  49.0668122 113.2432002
  37.7900669  47.0779440 103.9898651  37.1729840  46.3526268 103.8931704
  37.3217158  47.8388801 103.6465725  28.4645500  58.6040263 114.4438150
  28.7042098  59.2358787 115.1217169  27.6214696  58.2528303 114.7303510
  29.5799215  41.2964865 103.1119955  28.7028681  41.1753665 102.7482202
  30.0556968  40.5050943 102.8598844  32.9773362  54.4119385 116.8479654
  32.9043533  55.2174356 117.3598959  32.5350755  54.6111351 116.0227676
  32.7663141  53.6491155 110.3582476  31.9830663  54.1912835 110.4520700
  33.4655886  54.1665135 110.7576717  43.9289549  45.1626150 114.6434973
  43.9179425  46.0450865 114.2728906  43.0606928  44.8097701 114.4489510
  35.4372045  54.3106219 119.0037813  36.1500017  54.9453684 118.9313715
  34.9462074  54.4070085 118.1877815  37.1589572  48.2157472 110.5755105
  36.2245851  48.3358934 110.4059809  37.3366240  47.3129938 110.3115115
  40.5462123  44.0574791 111.1105139  41.0122576  44.8902783 111.0365442
  40.9969624  43.5919773 111.8150397  38.6138354  50.4018612 108.1091291
  38.8898198  50.2875207 109.0185165  37.7442853  50.0036097 108.0703464
  35.2492418  54.6504963 111.7524105  35.4314813  53.8326619 112.2151857
  36.0725404  54.8672655 111.3148995  35.5834584  53.5773148 109.0139153
  36.1122350  53.0665603 108.4009315  35.8462804  53.2615678 109.8784686
  28.9390332  54.6288265 111.7736929  28.2700707  55.1134393 111.2900969
  28.8003202  54.8757485 112.6880307  33.0795600  56.6632008 118.3719587
  33.6313909  56.8263630 119.1368673  33.4201794  57.2536446 117.6999612
  24.3077909  42.8906720 108.5532861  24.6031350  41.9817398 108.4999915
  23.4065945  42.8694459 108.2313863  36.2163988  54.6113984 115.3583269
  36.0915127  53.8103724 114.8494215  36.8743079  55.1060177 114.8697239
  38.2798896  52.4123004 116.9862820  37.3329232  52.2928355 116.9141146
  38.6281669  51.5245502 117.0689081  35.2845329  52.2075720 113.1867172
  35.1370292  51.2792428 113.3674742  36.1098823  52.2295811 112.7024247
  29.1507574  40.8593787 109.0447664  29.4903646  41.3879709 108.3226272
  29.5979694  41.1974193 109.8206230  38.8879451  53.0304279 114.2732045
  39.8125999  52.8247140 114.1356496  38.7194755  52.7820680 115.1821386
  31.1375721  39.3568409 107.2440957  31.8584083  39.7349662 106.7404674
  30.5141025  40.0757286 107.3475935  35.2806844  40.0613558 108.1799289
  35.4970458  40.9438196 107.8788117  34.8000911  39.6699771 107.4504931
  38.6774767  53.5489946 109.6294136  38.8511645  52.9836369 108.8767988
  39.1703659  54.3490841 109.4473626  44.5314159  46.3126369 111.2484436
  44.9745305  45.5633695 110.8503559  43.6540669  46.3036506 110.8658168
  39.6649940  52.8656711 106.7291034  40.3600845  53.4863403 106.9478349
  40.0073090  52.0152062 107.0043412  41.5641363  50.3156416 108.2578365
  42.0892687  50.6543689 107.5327685  41.4763716  49.3803432 108.0741500
  33.2482024  56.3828400 112.6173618  32.8087014  55.8904778 113.3106475
  33.9990141  55.8401367 112.3765693  25.7274363  52.5739940 112.6198246
  26.5532383  52.2743712 112.2396890  25.3768415  51.8047563 113.0688035
  30.6955896  51.9266409 114.6895920  30.0735905  51.2637114 114.3898148
  31.3660763  51.9527541 114.0069568  30.2569403  50.4770332 108.1654380
  30.4057523  51.1605796 107.5121053  31.0635846  50.4575422 108.6803836
  44.0747023  47.7831608 113.6406883  44.9093915  48.2221412 113.8044444
  44.2106152  47.3070261 112.8215129  28.0122036  46.5035510 109.1715449
  27.7668078  45.5997840 109.3695659  28.1817950  46.5052660 108.2294927
  27.2817683  42.2363867 106.6701611  26.5886928  42.3108222 106.0141647
  27.0369435  41.4724211 107.1923128  33.7564808  52.9718462 105.6366128
  33.1838776  53.5908650 105.1836600  34.3297602  53.5217824 106.1706050
  36.9762068  53.2555613 106.7674710  37.9092741  53.1901174 106.9707586
  36.8885281  54.0911879 106.3089243  42.3028276  45.4383222 116.9354976
  42.2704596  44.4999223 117.1214660  42.9128900  45.5167259 116.2020801
  34.1411607  44.3079275 102.9782180  35.0870712  44.1785483 103.0470598
  33.7625852  43.5693937 103.4551609  48.1204826  46.4999229 116.0761013
  48.8508214  46.2384517 116.6368716  47.5111771  45.7627951 116.1163081
  46.2020123  44.6407092 116.6735464  45.4753287  44.5063057 116.0651956
  45.7867410  44.9483920 117.4792182  32.3254524  42.2329252 102.9137066
  31.4185979  41.9362364 102.9899779  32.6030505  41.9359070 102.0471352
  33.9416590  36.7766141 109.0681307  33.1317318  36.4313226 109.4436553
  34.6301007  36.4673685 109.6568918  31.0953309  39.0916187 103.0549045
  31.9572473  39.4171085 103.3144862  31.2803653  38.3047683 102.5422111
  39.2485945  37.9644713 110.1984268  38.6684614  38.6229517 109.8162320
  38.9821878  37.1422058 109.7871685  38.0310823  40.1244804 109.2540616
  37.1436678  40.4094454 109.0360811  38.4464812  39.9638567 108.4067893
  41.3825359  40.1491325 112.9694955  42.1585749  40.6387777 113.2419572
  40.6573493  40.5749379 113.4266825  43.8197918  40.8618944 114.0268896
  44.4142409  40.6214680 113.3162204  43.8924502  40.1426074 114.6542432
  26.0395074  54.7052555 114.3412061  25.9049542  53.9452956 113.7750059
  25.6227136  55.4293455 113.8740850  37.1754037  49.8889478 103.3488636
  37.8789887  50.0939481 103.9646292  36.4516685  50.4566240 103.6137720
  38.0051847  45.6399340 109.4690906  37.9487048  46.0967891 108.6298539
  38.5580189  44.8790024 109.2913749  41.8156653  41.4289072 110.2941026
  41.5593587  41.0285707 111.1249233  41.1909521  42.1432865 110.1691165
  46.1268991  44.1685145 112.8012317  45.5668549  44.2378334 113.5743879
  45.5212494  43.9926129 112.0811813  29.1964200  55.6021872 114.5530503
  29.0796584  56.5467304 114.4509194  28.3756646  55.2995433 114.9416303
  39.0840734  50.3272008 105.3987096  39.9186338  49.8953206 105.2164571
  38.9225077  50.1554021 106.3263991  38.7386626  46.8304121 106.7643435
  38.6835430  46.6648392 105.8231879  38.1132682  47.5380154 106.9205625
  32.0482752  36.3312230 106.3428754  32.0361422  37.2754070 106.4997025
  32.9406174  36.1482375 106.0488215  30.2218714  56.2550134 117.7686432
  31.1245960  56.2873744 118.0852927  29.9956084  55.3250585 117.7832768
  31.9772316  55.0081120 114.4296510  31.0267947  55.0082982 114.3160883
  32.2804802  54.2613855 113.9132545  47.7125009  60.8441659 115.4942273
  48.3503419  60.7248406 114.7905613  47.5945852  61.7922503 115.5530225
  44.5214715  60.7969087 115.4303798  44.1833227  60.6810151 114.5424332
  45.3904484  60.3960252 115.4104804  45.0034498  61.9503939 121.3890003
  44.9923139  61.5556737 120.5170507  45.1655138  61.2170011 121.9823774
  37.9265963  64.1455755 114.2584909  38.7187255  63.8046579 113.8431208
  38.1662613  64.2550730 115.1787062  41.7241760  64.7341050 120.3369187
  41.4331626  65.6386681 120.2215853  42.3598744  64.7757578 121.0513257
  42.6497966  62.1117899 116.9270547  43.2461539  61.8873921 116.2127510
  42.7072938  61.3702644 117.5295995  47.2666278  58.5693113 112.5695481
  48.0529367  58.1512536 112.2185898  47.5304982  59.4739205 112.7377129
  52.6674705  58.5068346 113.4728459  53.3999877  57.9367563 113.7066289
  51.9114060  58.1189946 113.9134965  44.2850824  60.9295587 110.6691802
  43.9209032  60.4026208 111.3804723  45.1417940  60.5394056 110.4958287
  50.1900125  52.2189920 117.9323068  49.8583450  53.0885331 117.7084283
  49.5945739  51.9026204 118.6117098  46.6831645  64.4202466 117.3318981
  46.3832368  65.3227505 117.2234788  46.3382704  64.1534649 118.1840134
  40.1344126  60.8716263 113.3655685  39.2094623  60.7392477 113.5733377
  40.3828539  61.6510482 113.8625628  50.0828788  56.9385006 115.0116418
  49.1745666  56.8700414 114.7175179  50.0316384  57.4156951 115.8398244
  37.4952937  60.5149536 114.1999474  37.6245318  60.7684015 115.1138886
  36.8150388  61.1077244 113.8804129  44.1569654  58.3574652 122.9551315
  43.3802988  58.9168572 122.9454180  44.7960217  58.8431435 123.4766185
  51.9490435  55.1401444 116.7894292  51.3064815  55.4333978 116.1434087
  51.4445363  55.0254365 117.5947489  49.6030599  58.8864618 107.4780151
  50.5148455  59.1192004 107.3027849  49.0940246  59.4701662 106.9155230
  42.4116027  61.1660105 122.5169282  43.1530711  61.7045149 122.2404106
  41.7053012  61.7926394 122.6740834  47.8871366  63.3089245 121.1141444
  48.2954722  62.8671656 120.3696076  47.1648628  62.7341873 121.3675637
  44.2402436  58.2461852 118.4875001  45.0863631  58.6701266 118.6309650
  44.1801074  57.5895477 119.1813564  52.0889413  64.8044874 112.2238096
  51.4040451  65.1843775 111.6735130  52.1733262  65.4140201 112.9570044
  47.3901882  55.9066221 120.1456174  47.1462813  56.6608281 119.6090450
  47.6661812  56.2851568 120.9803421  49.3440344  62.4504833 118.8233440
  49.5557240  63.0936593 118.1467821  49.2970093  61.6167149 118.3555370
  46.9466573  55.0622654 115.7270012  46.0851052  55.3603907 116.0186750
  46.9729008  55.2793052 114.7951045  40.6552224  63.1536326 115.0723581
  41.2253581  63.5823594 114.4341066  41.2460336  62.8718910 115.7707767
  42.6997029  59.7287997 108.9433383  43.4021072  60.1809040 109.4107309
  42.3677657  59.0871815 109.5713276  41.1477390  58.3199753 123.3184592
  40.5176051  59.0016034 123.5519989  41.0413478  58.2082835 122.3737731
  36.4422363  57.9871549 114.2450516  35.6521417  58.2429078 113.7690627
  36.9333610  58.8019887 114.3502557  50.4586172  65.3276788 116.9955797
  51.2803616  64.9256976 116.7138479  50.4548575  65.2245023 117.9471913
  38.3937108  58.3516128 111.2033993  37.5968271  58.4634823 111.7217489
  38.1662700  58.6902781 110.3374884  44.2242776  64.8760832 119.1516508
  44.2887208  65.3381239 119.9874680  43.5153700  64.2458197 119.2798818
  34.7260066  58.2402040 116.6765507  34.9768104  59.1249050 116.9423083
  35.2619614  58.0606641 115.9040599  58.5492165  61.6715537 113.3440769
  57.7955874  61.1022935 113.1884773  58.6839707  61.6378201 114.2911403
  37.3920191  64.0604377 109.5923413  37.9044711  64.8547627 109.7428978
  38.0442904  63.3630668 109.5257015  43.3426094  54.0378398 123.2730100
  44.0835807  54.6385551 123.1934562  43.5744017  53.2956036 122.7148142
  38.4867432  59.2234765 121.5508330  38.3720947  58.3220023 121.8515429
  37.6311950  59.4698462 121.1993146  45.5659270  67.1652506 123.1495830
  45.1223124  66.3788884 122.8316735  46.2276483  67.3531656 122.4839721
  40.3246391  68.6948307 117.6756509  40.8753816  68.5665371 116.9033503
  39.4857867  68.9943196 117.3251402  47.6640508  67.4455306 121.1777231
  47.6458983  68.2664187 120.6857501  48.5860428  67.3209381 121.4027373
  44.1213562  64.9599435 122.0200740  44.6541899  64.1987723 121.7900048
  43.5927643  64.6673087 122.7624894  47.2883257  50.0659501 117.5494382
  46.9447526  50.9561143 117.4733492  47.6562220  49.8761159 116.6863967
  35.3569108  62.3893031 110.3682984  36.1944330  62.7990040 110.1516691
  35.5347375  61.4492474 110.3383178  44.8380651  54.9017813 111.1152055
  43.9822247  54.5124663 110.9357694  45.2507602  54.9809774 110.2551841
  46.3679797  52.4364156 115.5143615  45.8644593  52.3994291 114.7011420
  46.6610404  53.3456899 115.5740272  42.6122683  52.5202886 114.5209797
  43.4775680  52.3245695 114.1615686  42.6800192  52.2913238 115.4479153
  52.2267814  62.8100467 107.9919990  51.4497257  62.4711626 107.5475152
  52.9059295  62.8153090 107.3174955  47.0419843  57.9295204 107.8826598
  46.7369978  58.2441353 108.7336741  47.9950285  58.0076624 107.9253931
  50.4659121  62.2834448 114.6486598  49.8082795  62.9733709 114.7366727
  51.2699520  62.6730880 114.9920585  40.2185002  54.7505094 111.8926163
  40.7928754  54.5280275 111.1599356  40.8055985  54.8193788 112.6454765
  49.2764580  60.6378821 112.6990540  49.7896461  61.2708813 113.2012250
  49.9265803  60.0380016 112.3333900  42.5207670  51.6246343 110.6201233
  41.8672082  51.3095360 109.9957848  42.4788144  51.0022083 111.3461056
  45.7545410  58.1128276 114.9448880  44.8367972  58.3343223 114.7870569
  46.1705554  58.1874587 114.0860588  46.5380458  59.5119692 110.0751561
  47.2852277  60.0241089 109.7658683  46.8072048  59.1903745 110.9355954
  48.9859295  56.5476808 112.0570350  48.2482052  56.0354194 112.3880593
  49.2386069  56.1077190 111.2453627  49.0870923  49.3253060 112.6512119
  49.3929799  48.4650424 112.3638034  49.8123527  49.9170680 112.4511113
  35.3795279  59.7283747 111.0393717  35.1819678  59.1353108 110.3144784
  34.8241943  59.4235957 111.7569656  43.3592002  59.6206853 113.1588310
  43.4140612  58.6680690 113.0830787  42.5483204  59.7766292 113.6429609
  41.2984362  58.2383913 110.9178689  40.4852228  58.5378084 111.3243881
  41.7943356  57.8439602 111.6353171  46.8958574  58.7025737 119.7493583
  47.2507962  58.9297211 120.6088049  47.5430705  59.0344114 119.1270838
  52.6256311  61.8244173 110.4542912  52.4874209  62.0145769 109.5264101
  52.2692530  62.5863556 110.9110963  40.7898437  55.8102269 116.5339924
  41.4297816  55.6691028 115.8362887  39.9575968  55.5236782 116.1578526
  52.6525690  63.8920700 115.4654184  53.0862197  63.7995989 116.3137238
  53.3657271  63.8678201 114.8274200  46.3853585  67.4922795 116.9987284
  46.4390608  68.0613731 117.7665000  45.5168367  67.6624680 116.6341321
  37.8741504  59.2547781 108.7234669  36.9439092  59.1932236 108.9404631
  37.9698976  58.7323733 107.9271311  37.7927053  55.7802594 111.3112911
  38.0533871  56.6947927 111.2022071  38.6144226  55.3127036 111.4609524
  39.2651979  57.1940351 118.4811735  39.9375032  56.9857713 117.8324384
  38.4381765  56.9962437 118.0416968  53.5141240  63.9344401 117.9987069
  53.7077130  64.8390212 118.2446344  53.4141858  63.4751820 118.8325654
  45.1677551  53.8202292 120.4977396  44.5205466  54.5192241 120.4041873
  45.9378566  54.2538436 120.8653645  48.5756349  64.0851144 123.5727950
  48.4241855  63.8561695 122.6558033  48.5661028  65.0421745 123.5859295
  45.3441685  61.6583057 118.5574216  46.2733745  61.8094216 118.3843183
  44.9232715  61.7467077 117.7022863  39.6679476  60.4682954 119.2414173
  39.5299274  59.7363193 119.8425712  40.5784399  60.3791854 118.9598360
  42.2961777  60.1802913 118.7297852  43.0061395  59.5396105 118.6884471
  42.2531085  60.4315808 119.6524033  50.2848555  67.1170266 121.6504432
  50.2261102  66.4329486 120.9835015  50.6868074  67.8589256 121.1985057
  41.0090711  57.1668131 120.5493492  40.4728068  56.7158869 121.2015088
  40.4207419  57.3014040 119.8063956  39.3039254  73.9332180 114.4438150
  39.5435852  74.5650704 115.1217169  38.4608451  73.5820220 114.7303510
  50.2865963  65.0809850 119.8818411  49.3992741  64.7435772 120.0044810
  50.8564514  64.3492882 120.1187177  31.9395110  61.4133942 113.2061463
  32.6266150  61.0995672 112.6182478  31.7843238  62.3175307 112.9328714
  36.7429832  56.3024139 117.6346486  36.6588021  55.6949808 116.8996896
  35.9212538  56.7933157 117.6355983  43.8167116  69.7411303 116.8479654
  43.7437288  70.5466274 117.3598959  43.3744509  69.9403268 116.0227676
  46.9153546  54.7877702 113.0016681  47.4122245  54.0347664 112.6817752
  46.1440527  54.8242019 112.4359891  54.7683303  60.4918068 114.6434973
  54.7573179  61.3742783 114.2728906  53.9000683  60.1389618 114.4489510
  46.2765800  69.6398137 119.0037813  46.9893772  70.2745601 118.9313715
  45.7855828  69.7362003 118.1877815  43.4988515  56.9295085 112.7288366
  43.1286302  56.3766125 113.4169271  43.9947607  56.3253219 112.1763366
  51.3855878  59.3866709 111.1105139  51.8516330  60.2194700 111.0365442
  51.8363378  58.9211690 111.8150397  41.3277713  67.3892580 119.8243384
  42.0287173  68.0229063 119.9772778  40.8572828  67.7307312 119.0639023
  49.3572541  51.7547296 115.1496040  48.4435620  51.9851522 115.3178247
  49.7865642  51.8385740 116.0010073  49.1278999  59.9437188 117.6495934
  48.4750449  60.1913095 116.9948387  49.5059379  59.1301326 117.3158412
  45.1766572  60.6856999 124.1361971  44.5007209  60.5851128 124.8064347
  45.9994206  60.5296212 124.5997969  36.9245431  66.9228935 116.7574487
  37.5098868  66.1772623 116.8902391  36.7270270  67.2332892 117.6411150
  31.5163086  59.4934535 115.4778930  31.5547185  58.9598126 116.2716048
  31.0103379  58.9669741 114.8589907  43.9189355  71.9923926 118.3719587
  44.4707663  72.1555548 119.1368673  44.2595548  72.5828364 117.6999612
  38.8953848  54.3399076 118.9741472  38.9595175  55.2013907 118.5618870
  38.8320968  53.7273078 118.2413831  48.7700229  66.8185184 124.2268242
  49.3140133  67.4315142 123.7323197  48.1887074  67.3764762 124.7435255
  35.1471663  58.2198638 108.5532861  35.4425105  57.3109316 108.4999915
  34.2459699  58.1986377 108.2313863  47.0557742  69.9405902 115.3583269
  46.9308882  69.1395641 114.8494215  47.7136833  70.4352095 114.8697239
  38.6765910  56.2954634 114.5360410  37.9552496  56.9090602 114.3967883
  39.4659166  56.8312399 114.4577056  49.1192651  67.7414922 116.9862820
  48.1722986  67.6220273 116.9141146  49.4675424  66.8537420 117.0689081
  41.4792224  53.6309061 120.8101061  42.0026626  53.8771357 121.5727371
  41.2604557  54.4629095 120.3904199  36.8759505  55.9012735 108.6772186
  36.5472211  55.0210114 108.4947292  37.2298876  55.8460404 109.5648575
  39.9901328  56.1885705 109.0447664  40.3297401  56.7171626 108.3226272
  40.4373449  56.5266111 109.8206230  49.7273206  68.3596197 114.2732045
  50.6519753  68.1539058 114.1356496  49.5588509  68.1112598 115.1821386
  42.6844769  54.5722756 118.4950732  42.3441589  53.7730569 118.8971412
  41.9783775  54.8724467 117.9227565  43.3361241  51.6572068 116.9478055
  44.1587310  51.1832546 116.8256945  43.5799304  52.4362552 117.4476741
  41.9769475  54.6860327 107.2440957  42.6977838  55.0641579 106.7404674
  41.3534779  55.4049203 107.3475935  46.1200598  55.3905476 108.1799289
  46.3364213  56.2730113 107.8788117  45.6394665  54.9991689 107.4504931
  40.8599820  58.3491189 114.7570034  40.7144400  58.6631492 115.6494315
  40.3825023  58.9676089 114.2040932  42.7196202  55.3393737 114.8050923
  42.7057771  54.4434830 114.4683221  43.4368631  55.3464401 115.4389209
  44.5722333  55.7731077 116.8504051  44.3140111  56.6948148 116.8488381
  44.0407374  55.3761512 117.5404515  35.3345482  60.8896533 117.6957695
  34.7898950  61.6656341 117.8277969  36.2124832  61.2367338 117.5376816
  42.1233098  54.2208117 110.0738493  42.2449010  53.2924763 110.2729381
  41.8335141  54.2346803 109.1616809  44.9924289  51.9063027 113.2105213
  45.0145986  51.9702361 112.2557193  45.4092348  51.0667536 113.4045719
  55.3707913  61.6418287 111.2484436  55.8139059  60.8925612 110.8503559
  54.4934423  61.6328423 110.8658168  36.1211504  60.0166429 120.5887852
  35.3793240  60.1649065 121.1752482  35.8004248  60.2774695 119.7254601
  52.4035118  65.6448334 108.2578365  52.9286442  65.9835607 107.5327685
  52.3157470  64.7095349 108.0741500  44.0655166  69.5582408 120.3868242
  44.3742293  69.3131554 121.2590941  44.8630648  69.7629046 119.8987112
  34.7676722  65.8218185 113.5787180  33.9308631  65.3940359 113.3971181
  34.7400368  66.0150628 114.5157971  52.0929024  66.2781238 123.5629563
  51.3024567  66.2605377 123.0234062  51.8562378  66.8169531 124.3178600
  52.2126899  63.1273704 120.8762292  52.2624904  62.9623711 121.8177814
  52.1040822  62.2600963 120.4860172  49.5030661  59.1104632 122.1921598
  50.4040524  58.9711097 121.9005596  49.5778636  59.2759087 123.1319776
  43.8373466  56.4871487 121.0374785  42.9676776  56.7805053 120.7657373
  44.0732947  57.0711932 121.7582048  53.7145096  65.5470646 121.1204313
  53.4229904  65.9100626 121.9567774  53.1017227  64.8337654 120.9417645
  54.9140778  63.1123525 113.6406883  55.7487669  63.5513329 113.8044444
  55.0499907  62.6362179 112.8215129  51.9632284  60.6703260 119.5884371
  52.4386405  60.8630906 118.7803222  51.0397849  60.7262446 119.3427755
  46.5412500  52.7051104 118.5540205  47.0594444  53.4412131 118.2286694
  46.1867633  53.0115097 119.3886964  38.1211438  57.5655785 106.6701611
  37.4280683  57.6400140 106.0141647  37.8763190  56.8016129 107.1923128
  46.7925094  49.1251386 114.0741102  47.0726848  48.4574575 114.7001528
  47.5775701  49.3180482 113.5615765  50.6633953  57.5469020 117.8212677
  51.6151376  57.6467118 117.8424901  50.4937403  56.7547289 118.3310761
  48.6848332  54.6324603 118.0072078  48.0898264  54.9129616 117.3118566
  48.3998029  55.1218504 118.7788819  50.4443839  67.9013401 103.7278658
  50.3657471  67.5673264 104.6214416  51.2653506  68.3935169 103.7270130
  53.1422031  60.7675140 116.9354976  53.1098351  59.8291141 117.1214660
  53.7522654  60.8459177 116.2020801  53.2916519  57.5586183 116.9813260
  52.7755568  56.7744640 116.7943188  54.1756468  57.2304900 117.1459779
  50.9527246  51.3027199 112.9409072  50.7552067  50.9942287 113.8252404
  51.5626952  52.0288838 113.0707002  58.9598580  61.8291147 116.0761013
  59.6901969  61.5676435 116.6368716  58.3505526  61.0919869 116.1163081
  57.0413878  59.9699009 116.6735464  56.3147041  59.8354974 116.0651956
  56.6261164  60.2775838 117.4792182  44.8644054  63.6888939 124.4382837
  45.7847063  63.8667538 124.6322884  44.8293637  62.7444984 124.2862537
  34.0826219  58.8827533 113.3636112  33.7629003  58.0292841 113.0710486
  33.5359647  59.0976111 114.1194079  37.8606126  61.5989974 117.0805618
  38.0792136  62.5307082 117.0993652  38.2731900  61.2397948 117.8660422
  44.7810344  52.1058059 109.0681307  43.9711073  51.7605144 109.4436553
  45.4694761  51.7965603 109.6568918  46.7100893  51.1836106 110.6905604
  47.2631931  51.6031559 111.3495627  46.9470979  50.2571854 110.7328560
  33.9514479  62.5030444 115.3329234  33.2577950  62.0884397 114.8199188
  34.6987470  62.5450981 114.7362652  50.0879700  53.2936631 110.1984268
  49.5078369  53.9521435 109.8162320  49.8215632  52.4713976 109.7871685
  48.5383266  52.6941689 112.4005588  49.0383044  52.8058223 111.5919907
  49.1818874  52.3902742 113.0406397  42.5965262  60.6020318 125.2873429
  42.1132344  61.4020678 125.4937318  42.6826201  60.6128263 124.3340873
  35.8651221  62.4348698 113.2095248  35.8421910  62.5336385 112.2577132
  36.1751858  63.2813849 113.5312415  38.5238599  64.4924853 117.3241863
  39.4781853  64.4608795 117.2571794  38.3251123  64.0315477 118.1392089
  39.1137981  63.0625969 119.8912661  39.9330870  63.5570048 119.9147498
  39.3874789  62.1457937 119.8630228  48.8704578  55.4536721 109.2540616
  47.9830433  55.7386372 109.0360811  49.2858567  55.2930485 108.4067893
  52.2219114  55.4783242 112.9694955  52.9979504  55.9679695 113.2419572
  51.4967248  55.9041297 113.4266825  54.6591672  56.1910862 114.0268896
  55.2536163  55.9506598 113.3162204  54.7318256  55.4717992 114.6542432
  36.8788828  70.0344473 114.3412061  36.7443296  69.2744873 113.7750059
  36.4620890  70.7585372 113.8740850  48.8445601  60.9691257 109.4690906
  48.7880803  61.4259809 108.6298539  49.3973944  60.2081942 109.2913749
  52.6550407  56.7580989 110.2941026  52.3987342  56.3577625 111.1249233
  52.0303275  57.4724783 110.1691165  56.9662745  59.4977062 112.8012317
  56.4062303  59.5670252 113.5743879  56.3606249  59.3218047 112.0811813
  49.9234489  65.6563925 105.3987096  50.7580092  65.2245124 105.2164571
  49.7618831  65.4845939 106.3263991  34.3672896  57.3964103 120.5904858
  35.0131759  56.8863057 121.0792083  34.1590047  58.1332785 121.1648283
  46.8926288  64.4644950 126.0896998  47.7617448  64.6385603 125.7283633
  46.4133039  65.2839367 125.9672727  42.8876506  51.6604148 106.3428754
  42.8755176  52.6045987 106.4997025  43.7799928  51.4774293 106.0488215
  41.0612468  71.5842051 117.7686432  41.9639715  71.6165662 118.0852927
  40.8349838  70.6542502 117.7832768  46.7028626  48.2546924 110.5974691
  45.9361021  47.7005411 110.7431373  47.1139331  48.3268793 111.4588842
  58.5518764  76.1733576 115.4942273  59.1897174  76.0540324 114.7905613
  58.4339607  77.1214420 115.5530225  55.3608470  76.1261004 115.4303798
  55.0226981  76.0102069 114.5424332  56.2298238  75.7252170 115.4104804
  51.2195286  77.9796481 111.4200688  50.6560151  77.8886418 110.6516976
  51.1047681  77.1596385 111.9003181  55.8428253  77.2795856 121.3890003
  55.8316894  76.8848654 120.5170507  56.0048892  76.5461929 121.9823774
  48.7659718  79.4747672 114.2584909  49.5581009  79.1338497 113.8431208
  49.0056368  79.5842648 115.1787062  56.7994844  81.6467449 106.7315153
  56.1482824  82.2321529 106.3449167  57.5939207  82.1773643 106.7910191
  50.7250471  78.7356586 107.1302288  51.4981347  78.1885573 106.9915164
  51.0775870  79.6000835 107.3416749  52.5635514  80.0632968 120.3369187
  52.2725380  80.9678599 120.2215853  53.1992498  80.1049496 121.0513257
  53.4891721  77.4409817 116.9270547  54.0855293  77.2165839 116.2127510
  53.5466692  76.6994562 117.5295995  53.0616749  74.8949252 104.7620738
  53.3142270  74.3730773 104.0004201  52.1241308  74.7315397 104.8647421
  58.1060032  73.8985030 112.5695481  58.8923121  73.4804453 112.2185898
  58.3698736  74.8031122 112.7377129  58.2770109  79.3357881 107.2684138
  57.6415942  79.4092507 107.9805042  57.9467516  79.9251479 106.5903217
  63.5068459  73.8360263 113.4728459  64.2393631  73.2659480 113.7066289
  62.7507815  73.4481864 113.9134965  52.7813038  76.7977358 106.9645113
  52.6649296  76.1222261 107.6326197  52.8915298  76.3109732 106.1477266
  55.1244579  76.2587505 110.6691802  54.7602786  75.7318126 111.3804723
  55.9811695  75.8685974 110.4958287  61.0293880  67.5481838 117.9323068
  60.6977204  68.4177248 117.7084283  60.4339493  67.2318122 118.6117098
  54.7650066  71.2877405 105.6653150  54.9324468  72.1557641 106.0323621
  54.5747235  71.4504686 104.7414440  57.5225399  79.7494384 117.3318981
  57.2226122  80.6519422 117.2234788  57.1776459  79.4826567 118.1840134
  50.9737881  76.2008180 113.3655685  50.0488377  76.0684394 113.5733377
  51.2222294  76.9802400 113.8625628  60.9222543  72.2676924 115.0116418
  60.0139420  72.1992332 114.7175179  60.8710139  72.7448869 115.8398244
  54.7439287  73.7435062 106.6499817  54.6238912  74.1892113 107.4885297
  54.0491875  74.0920380 106.0913355  48.3346692  75.8441454 114.1999474
  48.4639073  76.0975933 115.1138886  47.6544143  76.4369162 113.8804129
  52.5046179  86.5138704 110.2989948  52.4270209  87.4646529 110.3778429
  51.9007823  86.1684576 110.9564875  54.9963409  73.6866569 122.9551315
  54.2196743  74.2460489 122.9454180  55.6353972  74.1723352 123.4766185
  62.7884189  70.4693362 116.7894292  62.1458570  70.7625895 116.1434087
  62.2839118  70.3546282 117.5947489  60.4424353  74.2156535 107.4780151
  61.3542209  74.4483922 107.3027849  59.9334000  74.7993579 106.9155230
  53.2509781  76.4952023 122.5169282  53.9924465  77.0337067 122.2404106
  52.5446766  77.1218311 122.6740834  58.7265121  78.6381163 121.1141444
  59.1348477  78.1963574 120.3696076  58.0042382  78.0633791 121.3675637
  55.0796191  73.5753770 118.4875001  55.9257386  73.9993183 118.6309650
  55.0194828  72.9187394 119.1813564  59.0493935  79.1982354 114.8693733
  58.4202798  79.3628068 114.1669801  58.6619597  79.6123963 115.6404697
  62.9283167  80.1336792 112.2238096  62.2434205  80.5135693 111.6735130
  63.0127017  80.7432118 112.9570044  58.2295636  71.2358138 120.1456174
  57.9856568  71.9900199 119.6090450  58.5055567  71.6143486 120.9803421
  60.1834099  77.7796751 118.8233440  60.3950994  78.4228511 118.1467821
  60.1363847  76.9459067 118.3555370  57.7860328  70.3914571 115.7270012
  56.9244807  70.6895825 116.0186750  57.8122762  70.6084970 114.7951045
  54.6021897  78.9356762 112.1343818  55.0660243  79.2144465 111.3448440
  54.3378695  78.0340206 111.9516908  51.4945978  78.4828243 115.0723581
  52.0647335  78.9115512 114.4341066  52.0854090  78.2010828 115.7707767
  53.5390783  75.0579914 108.9433383  54.2414827  75.5100958 109.4107309
  53.2071412  74.4163733 109.5713276  51.9871145  73.6491671 123.3184592
  51.3569805  74.3307952 123.5519989  51.8807233  73.5374752 122.3737731
  61.2979927  80.6568706 116.9955797  62.1197370  80.2548893 116.7138479
  61.2942330  80.5536940 117.9471913  55.0636530  80.2052749 119.1516508
  55.1280963  80.6673157 119.9874680  54.3547454  79.5750114 119.2798818
  45.5653820  73.5693957 116.6765507  45.8161859  74.4540967 116.9423083
  46.1013369  73.3898559 115.9040599  69.3885920  77.0007455 113.3440769
  68.6349628  76.4314853 113.1884773  69.5233461  76.9670119 114.2911403
  54.7784548  81.8720857 109.0195488  54.6430223  82.7172393 109.4480336
  55.3194360  82.0740134 108.2561422  51.2651887  67.9512437 125.6809843
  50.8718833  67.3978635 126.3557488  52.0818028  68.2623015 126.0716361
  48.2313945  79.3896295 109.5923413  48.7438466  80.1839545 109.7428978
  48.8836658  78.6922585 109.5257015  50.0408830  82.5062051 111.6746166
  50.2175458  83.4280016 111.4867150  50.8365663  82.1920470 112.1040546
  54.1819848  69.3670316 123.2730100  54.9229562  69.9677469 123.1934562
  54.4137771  68.6247954 122.7148142  49.3261186  74.5526683 121.5508330
  49.2114702  73.6511940 121.8515429  48.4705704  74.7990380 121.1993146
  56.4053024  82.4944423 123.1495830  55.9616878  81.7080802 122.8316735
  57.0670238  82.6823574 122.4839721  51.1640145  84.0240225 117.6756509
  51.7147571  83.8957288 116.9033503  50.3251621  84.3235114 117.3251402
  58.5034262  82.7747223 121.1777231  58.4852738  83.5956104 120.6857501
  59.4254182  82.6501298 121.4027373  54.9607316  80.2891353 122.0200740
  55.4935653  79.5279641 121.7900048  54.4321398  79.9965005 122.7624894
  58.1277011  65.3951419 117.5494382  57.7841281  66.2853060 117.4733492
  58.4955974  65.2053076 116.6863967  58.0927294  75.3860030 106.0566817
  57.5773918  76.1564634 106.2955204  57.8204603  74.7125166 106.6799878
  55.6774405  70.2309731 111.1152055  54.8216002  69.8416581 110.9357694
  56.0901357  70.3101691 110.2551841  57.2073552  67.7656074 115.5143615
  56.7038347  67.7286209 114.7011420  57.5004159  68.6748817 115.5740272
  53.4516438  67.8494804 114.5209797  54.3169434  67.6537612 114.1615686
  53.5193947  67.6205155 115.4479153  63.0661568  78.1392384 107.9919990
  62.2891011  77.8003544 107.5475152  63.7453049  78.1445008 107.3174955
  57.8813597  73.2587122 107.8826598  57.5763733  73.5733271 108.7336741
  58.8344039  73.3368542 107.9253931  56.3260029  79.4177345 109.5319552
  55.7981391  78.6830105 109.2192789  55.8247532  80.1952022 109.2859520
  61.3052875  77.6126366 114.6486598  60.6476550  78.3025627 114.7366727
  62.1093274  78.0022798 114.9920585  51.0578757  70.0797012 111.8926163
  51.6322509  69.8572193 111.1599356  51.6449739  70.1485706 112.6454765
  60.1158334  75.9670738 112.6990540  60.6290216  76.6000730 113.2012250
  60.7659558  75.3671934 112.3333900  51.3848344  72.1101473 105.9122049
  50.5485656  72.4476159 106.2331323  51.2453114  71.9750452 104.9749186
  53.3601424  66.9538260 110.6201233  52.7065837  66.6387278 109.9957848
  53.3181899  66.3314001 111.3461056  54.4712629  77.2357555 102.5354525
  53.5639691  77.0046809 102.7345674  54.9683661  76.4395175 102.7228506
  57.3780708  85.9455063 105.4551211  56.7042407  86.2486759 106.0636169
  57.7646530  86.7484143 105.1056668  56.5939165  73.4420194 114.9448880
  55.6761726  73.6635141 114.7870569  57.0099308  73.5166504 114.0860588
  57.3774213  74.8411610 110.0751561  58.1246032  75.3533007 109.7658683
  57.6465802  74.5195662 110.9355954  55.6500863  77.3370150 107.0578515
  54.7412082  77.0529183 107.1550985  55.6795947  77.7569229 106.1981822
  60.8820130  80.9476740 110.8269683  60.4282457  80.1067650 110.8834873
  60.2514097  81.5838138 111.1644463  59.8253050  71.8768726 112.0570350
  59.0875807  71.3646112 112.3880593  60.0779823  71.4369107 111.2453627
  59.3253069  82.7853237 111.7619501  59.6176044  83.3458294 111.0431866
  59.8351690  83.0781798 112.5172660  59.9264677  64.6544978 112.6512119
  60.2323554  63.7942341 112.3638034  60.6517282  65.2462598 112.4511113
  54.1985757  74.9498771 113.1588310  54.2534367  73.9972607 113.0830787
  53.3876959  75.1058210 113.6429609  55.3476951  78.8778894 104.3966594
  54.9096381  78.1614753 103.9372231  56.0887391  79.1055009 103.8351685
  52.1378117  73.5675831 110.9178689  51.3245982  73.8670001 111.3243881
  52.6337111  73.1731519 111.6353171  54.2886695  83.5633588 112.8512954
  54.2462873  83.7894434 111.9221486  55.2049393  83.3296962 112.9998755
  57.7352328  74.0317655 119.7493583  58.0901716  74.2589128 120.6088049
  58.3824460  74.3636032 119.1270838  63.4650065  77.1536091 110.4542912
  63.3267964  77.3437687 109.5264101  63.1086284  77.9155474 110.9110963
  51.6292192  71.1394186 116.5339924  52.2691571  70.9982945 115.8362887
  50.7969722  70.8528700 116.1578526  63.4919445  79.2212618 115.4654184
  63.9255952  79.1287907 116.3137238  64.2051026  79.1970119 114.8274200
  52.4052495  80.4396617 112.6474917  53.1993094  79.9446937 112.4457492
  51.6944188  79.9114480 112.2842622  57.2247340  82.8214712 116.9987284
  57.2784362  83.3905648 117.7665000  56.3562121  82.9916597 116.6341321
  50.1045733  72.5232268 118.4811735  50.7768787  72.3149631 117.8324384
  49.2775520  72.3254354 118.0416968  64.3534995  79.2636319 117.9987069
  64.5470885  80.1682129 118.2446344  64.2535613  78.8043738 118.8325654
  56.0071305  69.1494209 120.4977396  55.3599220  69.8484159 120.4041873
  56.7772321  69.5830353 120.8653645  59.4150103  79.4143061 123.5727950
  59.2635610  79.1853613 122.6558033  59.4054783  80.3713663 123.5859295
  56.1835440  76.9874974 118.5574216  57.1127500  77.1386134 118.3843183
  55.7626470  77.0758995 117.7022863  54.9823771  81.0125639 116.3272754
  54.8434857  80.6444423 117.1998692  54.1938368  81.5273278 116.1556712
  55.5771923  86.1134735 107.6698290  55.7523679  85.6422778 108.4843913
  54.8904711  86.7400501 107.8979551  56.5328987  80.3907241 113.7161591
  56.1978819  80.3508011 114.6119241  56.0332932  79.7251957 113.2432002
  50.5073231  75.7974871 119.2414173  50.3693028  75.0655110 119.8425712
  51.4178154  75.7083771 118.9598360  59.4688178  77.7363276 103.9898651
  58.8517349  77.0110104 103.8931704  59.0004667  78.4972636 103.6465725
  53.1355531  75.5094831 118.7297852  53.8455150  74.8688023 118.6884471
  53.0924839  75.7607726 119.6524033  61.1242310  82.4462184 121.6504432
  61.0654856  81.7621404 120.9835015  61.5261828  83.1881174 121.1985057
  51.8484465  72.4960049 120.5493492  51.3121822  72.0450787 121.2015088
  51.2601174  72.6305957 119.8063956  50.1433009  89.2624098 114.4438150
  50.3829607  89.8942622 115.1217169  49.3002205  88.9112138 114.7303510
  51.2586724  71.9548700 103.1119955  50.3816190  71.8337501 102.7482202
  51.7344477  71.1634778 102.8598844  61.1259717  80.4101768 119.8818411
  60.2386496  80.0727690 120.0044810  61.6958268  79.6784799 120.1187177
  42.7788864  76.7425860 113.2061463  43.4659904  76.4287590 112.6182478
  42.6236993  77.6467224 112.9328714  47.5823586  71.6316056 117.6346486
  47.4981775  71.0241726 116.8996896  46.7606293  72.1225075 117.6355983
  54.6560871  85.0703220 116.8479654  54.5831042  85.8758192 117.3598959
  54.2138264  85.2695186 116.0227676  54.4450650  84.3074990 110.3582476
  53.6618172  84.8496671 110.4520700  55.1443395  84.8248970 110.7576717
  57.7547300  70.1169620 113.0016681  58.2516000  69.3639582 112.6817752
  56.9834282  70.1533936 112.4359891  65.6077058  75.8209985 114.6434973
  65.5966934  76.7034701 114.2728906  64.7394437  75.4681536 114.4489510
  57.1159554  84.9690054 119.0037813  57.8287526  85.6037519 118.9313715
  56.6249583  85.0653920 118.1877815  58.8377081  78.8741307 110.5755105
  57.9033360  78.9942769 110.4059809  59.0153749  77.9713774 110.3115115
  54.3382269  72.2587003 112.7288366  53.9680057  71.7058043 113.4169271
  54.8341361  71.6545136 112.1763366  62.2249632  74.7158626 111.1105139
  62.6910085  75.5486618 111.0365442  62.6757133  74.2503608 111.8150397
  52.1671468  82.7184498 119.8243384  52.8680927  83.3520981 119.9772778
  51.6966583  83.0599229 119.0639023  60.2925863  81.0602448 108.1091291
  60.5685707  80.9459042 109.0185165  59.4230362  80.6619932 108.0703464
  60.1966295  67.0839213 115.1496040  59.2829375  67.3143440 115.3178247
  60.6259397  67.1677657 116.0010073  59.9672754  75.2729105 117.6495934
  59.3144204  75.5205013 116.9948387  60.3453133  74.4593243 117.3158412
  56.9279927  85.3088798 111.7524105  57.1102322  84.4910454 112.2151857
  57.7512913  85.5256491 111.3148995  57.2622093  84.2356984 109.0139153
  57.7909859  83.7249438 108.4009315  57.5250313  83.9199514 109.8784686
  56.0160327  76.0148916 124.1361971  55.3400964  75.9143046 124.8064347
  56.8387960  75.8588130 124.5997969  47.7639186  82.2520853 116.7574487
  48.3492622  81.5064541 116.8902391  47.5664024  82.5624810 117.6411150
  50.6177841  85.2872100 111.7736929  49.9488216  85.7718228 111.2900969
  50.4790711  85.5341321 112.6880307  42.3556840  74.8226453 115.4778930
  42.3940940  74.2890044 116.2716048  41.8497133  74.2961659 114.8589907
  54.7583109  87.3215844 118.3719587  55.3101417  87.4847465 119.1368673
  55.0989303  87.9120282 117.6999612  49.7347603  69.6690994 118.9741472
  49.7988929  70.5305824 118.5618870  49.6714723  69.0564995 118.2413831
  49.2099875  71.7414126 122.6214506  49.8371914  71.3591203 123.2352031
  48.3527794  71.5228328 122.9870199  57.8951497  85.2697819 115.3583269
  57.7702636  84.4687559 114.8494215  58.5530588  85.7644013 114.8697239
  49.5159665  71.6246552 114.5360410  48.7946251  72.2382519 114.3967883
  50.3052921  72.1604317 114.4577056  59.9586405  83.0706839 116.9862820
  59.0116741  82.9512191 116.9141146  60.3069178  82.1829337 117.0689081
  52.3185978  68.9600978 120.8101061  52.8420380  69.2063275 121.5727371
  52.0998312  69.7921013 120.3904199  56.9632838  82.8659556 113.1867172
  56.8157801  81.9376263 113.3674742  57.7886332  82.8879646 112.7024247
  60.5666960  83.6888114 114.2732045  61.4913508  83.4830976 114.1356496
  60.3982264  83.4404515 115.1821386  53.5238524  69.9014673 118.4950732
  53.1835344  69.1022486 118.8971412  52.8177530  70.2016384 117.9227565
  54.1754995  66.9863986 116.9478055  54.9981065  66.5124464 116.8256945
  54.4193059  67.7654470 117.4476741  52.8163230  70.0152244 107.2440957
  53.5371592  70.3933497 106.7404674  52.1928534  70.7341121 107.3475935
  56.9594353  70.7197393 108.1799289  57.1757967  71.6022031 107.8788117
  56.4788420  70.3283607 107.4504931  51.6993574  73.6783106 114.7570034
  51.5538155  73.9923410 115.6494315  51.2218778  74.2968007 114.2040932
  53.5589957  70.6685654 114.8050923  53.5451526  69.7726748 114.4683221
  54.2762385  70.6756318 115.4389209  55.4116088  71.1022995 116.8504051
  55.1533866  72.0240065 116.8488381  54.8801128  70.7053429 117.5404515
  60.3562276  84.2073782 109.6294136  60.5299154  83.6420204 108.8767988
  60.8491168  85.0074677 109.4473626  46.1739236  76.2188451 117.6957695
  45.6292704  76.9948259 117.8277969  47.0518586  76.5659255 117.5376816
  52.9626853  69.5500035 110.0738493  53.0842764  68.6216681 110.2729381
  52.6728895  69.5638721 109.1616809  55.8318043  67.2354945 113.2105213
  55.8539740  67.2994278 112.2557193  56.2486102  66.3959454 113.4045719
  66.2101668  76.9710205 111.2484436  66.6532814  76.2217530 110.8503559
  65.3328178  76.9620341 110.8658168  61.3437449  83.5240546 106.7291034
  62.0388354  84.1447239 106.9478349  61.6860599  82.6735897 107.0043412
  46.9605258  75.3458347 120.5887852  46.2186994  75.4940982 121.1752482
  46.6398002  75.6066613 119.7254601  63.2428872  80.9740252 108.2578365
  63.7680196  81.3127524 107.5327685  63.1551225  80.0387267 108.0741500
  54.9048921  84.8874325 120.3868242  55.2136047  84.6423472 121.2590941
  55.7024403  85.0920964 119.8987112  54.9269533  87.0412235 112.6173618
  54.4874523  86.5488614 113.3106475  55.6777650  86.4985203 112.3765693
  47.4061872  83.2323776 112.6198246  48.2319892  82.9327548 112.2396890
  47.0555924  82.4631398 113.0688035  52.3743405  82.5850244 114.6895920
  51.7523414  81.9220949 114.3898148  53.0448272  82.6111376 114.0069568
  45.6070477  81.1510102 113.5787180  44.7702385  80.7232277 113.3971181
  45.5794122  81.3442546 114.5157971  52.4467932  71.0632032 124.2828426
  52.4956088  71.9394155 123.9006196  52.9890447  70.5209425 123.7100069
  63.0520653  78.4565622 120.8762292  63.1018658  78.2915629 121.8177814
  62.9434577  77.5892881 120.4860172  51.9356912  81.1354167 108.1654380
  52.0845032  81.8189632 107.5121053  52.7423355  81.1159257 108.6803836
  60.3424416  74.4396550 122.1921598  61.2434278  74.3003015 121.9005596
  60.4172390  74.6051005 123.1319776  54.6767221  71.8163404 121.0374785
  53.8070530  72.1096971 120.7657373  54.9126701  72.4003849 121.7582048
  64.5538850  80.8762563 121.1204313  64.2623658  81.2392544 121.9567774
  63.9410981  80.1629572 120.9417645  65.7534532  78.4415443 113.6406883
  66.5881424  78.8805247 113.8044444  65.8893661  77.9654096 112.8215129
  62.8026038  75.9995178 119.5884371  63.2780160  76.1922824 118.7803222
  61.8791604  76.0554364 119.3427755  49.6909545  77.1619345 109.1715449
  49.4455587  76.2581675 109.3695659  49.8605459  77.1636495 108.2294927
  57.3806255  68.0343021 118.5540205  57.8988199  68.7704048 118.2286694
  57.0261388  68.3407015 119.3886964  57.6318849  64.4543304 114.0741102
  57.9120603  63.7866493 114.7001528  58.4169456  64.6472400 113.5615765
  55.4352317  83.6302298 105.6366128  54.8626284  84.2492485 105.1836600
  56.0085111  84.1801660 106.1706050  61.5027707  72.8760938 117.8212677
  62.4545130  72.9759036 117.8424901  61.3331158  72.0839207 118.3310761
  59.5242087  69.9616521 118.0072078  58.9292019  70.2421534 117.3118566
  59.2391783  70.4510422 118.7788819  58.6549577  83.9139448 106.7674710
  59.5880250  83.8485010 106.9707586  58.5672790  84.7495715 106.3089243
  61.2837594  83.2305318 103.7278658  61.2051225  82.8965182 104.6214416
  62.1047261  83.7227086 103.7270130  63.9815785  76.0967058 116.9354976
  63.9492105  75.1583058 117.1214660  64.5916409  76.1751094 116.2020801
  55.8199116  74.9663111 102.9782180  56.7658221  74.8369319 103.0470598
  55.4413361  74.2277773 103.4551609  64.1310274  72.8878101 116.9813260
  63.6149322  72.1036558 116.7943188  65.0150222  72.5596818 117.1459779
  61.7921000  66.6319117 112.9409072  61.5945822  66.3234205 113.8252404
  62.4020706  67.3580756 113.0707002  69.7992335  77.1583064 116.0761013
  70.5295723  76.8968353 116.6368716  69.1899280  76.4211786 116.1163081
  67.8807632  75.2990927 116.6735464  67.1540796  75.1646892 116.0651956
  67.4654919  75.6067756 117.4792182  55.7037808  79.0180857 124.4382837
  56.6240818  79.1959456 124.6322884  55.6687391  78.0736902 124.2862537
  54.0042033  72.8913087 102.9137066  53.0973488  72.5946200 102.9899779
  54.2818014  72.5942905 102.0471352  48.6999881  76.9281891 117.0805618
  48.9185891  77.8598999 117.0993652  49.1125655  76.5689866 117.8660422
  55.6204099  67.4349977 109.0681307  54.8104827  67.0897062 109.4436553
  56.3088516  67.1257520 109.6568918  57.5494647  66.5128024 110.6905604
  58.1025686  66.9323477 111.3495627  57.7864733  65.5863772 110.7328560
  53.5727746  72.5015097 126.4708367  53.4724473  73.4509454 126.4020459
  53.3549288  72.1733336 125.5984438  52.7740818  69.7500022 103.0549045
  53.6359982  70.0754921 103.3144862  52.9591162  68.9631518 102.5422111
  44.7908233  77.8322362 115.3329234  44.0971705  77.4176315 114.8199188
  45.5381224  77.8742898 114.7362652  60.9273454  68.6228549 110.1984268
  60.3472123  69.2813353 109.8162320  60.6609387  67.8005893 109.7871685
  59.3777021  68.0233606 112.4005588  59.8776799  68.1350141 111.5919907
  60.0212628  67.7194659 113.0406397  53.4359016  75.9312236 125.2873429
  52.9526098  76.7312596 125.4937318  53.5219955  75.9420181 124.3340873
  46.7044976  77.7640616 113.2095248  46.6815664  77.8628303 112.2577132
  47.0145612  78.6105766 113.5312415  49.3632354  79.8216771 117.3241863
  50.3175607  79.7900713 117.2571794  49.1644877  79.3607394 118.1392089
  49.9531736  78.3917887 119.8912661  50.7724625  78.8861965 119.9147498
  50.2268544  77.4749855 119.8630228  59.7098332  70.7828639 109.2540616
  58.8224187  71.0678290 109.0360811  60.1252321  70.6222402 108.4067893
  63.0612868  70.8075160 112.9694955  63.8373258  71.2971612 113.2419572
  62.3361002  71.2333214 113.4266825  65.4985427  71.5202779 114.0268896
  66.0929918  71.2798515 113.3162204  65.5712011  70.8009910 114.6542432
  47.7182583  85.3636390 114.3412061  47.5837051  84.6036791 113.7750059
  47.3014645  86.0877290 113.8740850  58.8541546  80.5473314 103.3488636
  59.5577396  80.7523316 103.9646292  58.1304194  81.1150076 103.6137720
  59.6839356  76.2983175 109.4690906  59.6274557  76.7551726 108.6298539
  60.2367698  75.5373860 109.2913749  63.4944162  72.0872907 110.2941026
  63.2381096  71.6869543 111.1249233  62.8697030  72.8016701 110.1691165
  67.8056500  74.8268980 112.8012317  67.2456058  74.8962169 113.5743879
  67.2000003  74.6509965 112.0811813  50.8751709  86.2605707 114.5530503
  50.7584093  87.2051140 114.4509194  50.0544155  85.9579269 114.9416303
  60.7628243  80.9855843 105.3987096  61.5973847  80.5537041 105.2164571
  60.6012586  80.8137857 106.3263991  60.4174135  77.4887956 106.7643435
  60.3622939  77.3232228 105.8231879  59.7920191  78.1963989 106.9205625
  45.2066650  72.7256021 120.5904858  45.8525514  72.2154975 121.0792083
  44.9983801  73.4624702 121.1648283  53.7270261  66.9896065 106.3428754
  53.7148931  67.9337905 106.4997025  54.6193683  66.8066211 106.0488215
  51.9006223  86.9133969 117.7686432  52.8033469  86.9457579 118.0852927
  51.6743593  85.9834420 117.7832768  53.6559825  85.6664956 114.4296510
  52.7055456  85.6666817 114.3160883  53.9592311  84.9197690 113.9132545
  57.5422380  63.5838842 110.5974691  56.7754776  63.0297329 110.7431373
  57.9533085  63.6560711 111.4588842  49.5464141  69.8723638 124.6879872
  50.4095603  69.5160443 124.8983196  48.9729552  69.5337533 125.3755276
  62.0589040  93.3088399 111.4200688  61.4953905  93.2178336 110.6516976
  61.9441435  92.4888303 111.9003181  59.6053472  94.8039590 114.2584909
  60.3974764  94.4630415 113.8431208  59.8450122  94.9134565 115.1787062
  67.6388599  96.9759366 106.7315153  66.9876579  97.5613447 106.3449167
  68.4332962  97.5065561 106.7910191  61.5644226  94.0648503 107.1302288
  62.3375102  93.5177490 106.9915164  61.9169625  94.9292753 107.3416749
  63.9010504  90.2241170 104.7620738  64.1536024  89.7022691 104.0004201
  62.9635063  90.0607315 104.8647421  68.9453787  89.2276948 112.5695481
  69.7316876  88.8096371 112.2185898  69.2092491  90.1323040 112.7377129
  69.1163864  94.6649798 107.2684138  68.4809697  94.7384425 107.9805042
  68.7861270  95.2543397 106.5903217  63.6206793  92.1269275 106.9645113
  63.5043051  91.4514179 107.6326197  63.7309052  91.6401649 106.1477266
  65.9638333  91.5879423 110.6691802  65.5996541  91.0610044 111.3804723
  66.8205449  91.1977892 110.4958287  65.6043820  86.6169322 105.6653150
  65.7718223  87.4849559 106.0323621  65.4140990  86.7796604 104.7414440
  61.8131635  91.5300098 113.3655685  60.8882132  91.3976312 113.5733377
  62.0616048  92.3094317 113.8625628  65.5833041  89.0726980 106.6499817
  65.4632667  89.5184031 107.4885297  64.8885630  89.4212297 106.0913355
  59.1740446  91.1733372 114.1999474  59.3032827  91.4267851 115.1138886
  58.4937897  91.7661080 113.8804129  71.2818107  89.5448453 107.4780151
  72.1935964  89.7775840 107.3027849  70.7727755  90.1285497 106.9155230
  68.6254082  85.7206489 115.7270012  67.7638561  86.0187743 116.0186750
  68.6516517  85.9376888 114.7951045  65.4415652  94.2648680 112.1343818
  65.9053997  94.5436382 111.3448440  65.1772450  93.3632124 111.9516908
  64.3784538  90.3871832 108.9433383  65.0808581  90.8392876 109.4107309
  64.0465166  89.7455651 109.5713276  58.1209872  88.6455385 114.2450516
  57.3308926  88.9012913 113.7690627  58.6121119  89.4603722 114.3502557
  60.0724617  89.0099964 111.2033993  59.2755780  89.1218658 111.7217489
  59.8450209  89.3486616 110.3374884  56.4047575  88.8985875 116.6765507
  56.6555613  89.7832885 116.9423083  56.9407123  88.7190477 115.9040599
  65.6178302  97.2012774 109.0195488  65.4823977  98.0464310 109.4480336
  66.1588115  97.4032052 108.2561422  59.0707700  94.7188213 109.5923413
  59.5832220  95.5131463 109.7428978  59.7230413  94.0214503 109.5257015
  60.8802584  97.8353969 111.6746166  61.0569213  98.7571934 111.4867150
  61.6759418  97.5212388 112.1040546  68.9670766  80.7243336 117.5494382
  68.6235035  81.6144978 117.4733492  69.3349729  80.5344994 116.6863967
  57.0356617  93.0476867 110.3682984  57.8731839  93.4573875 110.1516691
  57.2134884  92.1076309 110.3383178  68.9321049  90.7151947 106.0566817
  68.4167672  91.4856552 106.2955204  68.6598357  90.0417084 106.6799878
  66.5168160  85.5601648 111.1152055  65.6609756  85.1708499 110.9357694
  66.9295111  85.6393609 110.2551841  68.0467306  83.0947992 115.5143615
  67.5432102  83.0578127 114.7011420  68.3397913  84.0040734 115.5740272
  64.2910192  83.1786721 114.5209797  65.1563189  82.9829530 114.1615686
  64.3587701  82.9497073 115.4479153  73.9055323  93.4684302 107.9919990
  73.1284766  93.1295462 107.5475152  74.5846804  93.4736925 107.3174955
  68.7207352  88.5879040 107.8826598  68.4157487  88.9025189 108.7336741
  69.6737794  88.6660459 107.9253931  67.1653784  94.7469263 109.5319552
  66.6375145  94.0122022 109.2192789  66.6641286  95.5243939 109.2859520
  61.8972511  85.4088929 111.8926163  62.4716263  85.1864111 111.1599356
  62.4843494  85.4777624 112.6454765  62.2242098  87.4393390 105.9122049
  61.3879411  87.7768077 106.2331323  62.0846868  87.3042370 104.9749186
  64.1995179  82.2830178 110.6201233  63.5459591  81.9679195 109.9957848
  64.1575653  81.6605919 111.3461056  65.3106384  92.5649473 102.5354525
  64.4033446  92.3338727 102.7345674  65.8077416  91.7687092 102.7228506
  68.2174463 101.2746980 105.4551211  67.5436161 101.5778677 106.0636169
  68.6040285 102.0776061 105.1056668  67.4332919  88.7712112 114.9448880
  66.5155481  88.9927059 114.7870569  67.8493063  88.8458422 114.0860588
  68.2167967  90.1703527 110.0751561  68.9639786  90.6824925 109.7658683
  68.4859557  89.8487580 110.9355954  66.4894617  92.6662068 107.0578515
  65.5805837  92.3821101 107.1550985  66.5189701  93.0861147 106.1981822
  70.6646804  87.2060644 112.0570350  69.9269561  86.6938030 112.3880593
  70.9173578  86.7661025 111.2453627  70.7658432  79.9836896 112.6512119
  71.0717308  79.1234259 112.3638034  71.4911036  80.5754516 112.4511113
  57.0582788  90.3867582 111.0393717  56.8607187  89.7936943 110.3144784
  56.5029452  90.0819792 111.7569656  65.0379511  90.2790689 113.1588310
  65.0928121  89.3264525 113.0830787  64.2270713  90.4350128 113.6429609
  66.1870705  94.2070812 104.3966594  65.7490135  93.4906671 103.9372231
  66.9281146  94.4346927 103.8351685  62.9771871  88.8967748 110.9178689
  62.1639737  89.1961919 111.3243881  63.4730865  88.5023437 111.6353171
  74.3043820  92.4828009 110.4542912  74.1661718  92.6729605 109.5264101
  73.9480039  93.2447392 110.9110963  62.4685946  86.4686104 116.5339924
  63.1085325  86.3274863 115.8362887  61.6363477  86.1820617 116.1578526
  63.2446250  95.7688534 112.6474917  64.0386848  95.2738854 112.4457492
  62.5337942  95.2406397 112.2842622  59.5529013  89.9131616 108.7234669
  58.6226601  89.8516072 108.9404631  59.6486485  89.3907569 107.9271311
  59.4714562  86.4386429 111.3112911  59.7321380  87.3531762 111.2022071
  60.2931735  85.9710871 111.4609524  60.9439488  87.8524186 118.4811735
  61.6162541  87.6441548 117.8324384  60.1169274  87.6546272 118.0416968
  66.4165678 101.4426653 107.6698290  66.5917434 100.9714696 108.4843913
  65.7298466 102.0692419 107.8979551  70.3081933  93.0655193 103.9898651
  69.6911103  92.3402022 103.8931704  69.8398421  93.8264554 103.6465725
  62.0980479  87.2840618 103.1119955  61.2209945  87.1629418 102.7482202
  62.5738232  86.4926696 102.8598844  53.6182619  92.0717777 113.2061463
  54.3053659  91.7579507 112.6182478  53.4630747  92.9759142 112.9328714
  58.4217341  86.9607974 117.6346486  58.3375530  86.3533643 116.8996896
  57.6000047  87.4516992 117.6355983  68.5941055  85.4461537 113.0016681
  69.0909754  84.6931500 112.6817752  67.8228036  85.4825854 112.4359891
  69.6770835  94.2033225 110.5755105  68.7427114  94.3234687 110.4059809
  69.8547504  93.3005691 110.3115115  65.1776024  87.5878920 112.7288366
  64.8073811  87.0349961 113.4169271  65.6735116  86.9837054 112.1763366
  73.0643387  90.0450544 111.1105139  73.5303839  90.8778536 111.0365442
  73.5150887  89.5795526 111.8150397  71.1319618  96.3894365 108.1091291
  71.4079462  96.2750960 109.0185165  70.2624117  95.9911850 108.0703464
  71.0360050  82.4131131 115.1496040  70.1223129  82.6435358 115.3178247
  71.4653151  82.4969575 116.0010073  68.1015847  99.5648901 109.0139153
  68.6303614  99.0541356 108.4009315  68.3644067  99.2491431 109.8784686
  53.1950595  90.1518371 115.4778930  53.2334694  89.6181961 116.2716048
  52.6890888  89.6253576 114.8589907  60.5741357  84.9982911 118.9741472
  60.6382684  85.8597742 118.5618870  60.5108477  84.3856913 118.2413831
  56.8259172  88.8782473 108.5532861  57.1212614  87.9693151 108.4999915
  55.9247208  88.8570212 108.2313863  60.3553419  86.9538469 114.5360410
  59.6340005  87.5674437 114.3967883  61.1446675  87.4896234 114.4577056
  58.5547014  86.5596571 108.6772186  58.2259720  85.6793949 108.4947292
  58.9086385  86.5044239 109.5648575  61.6688837  86.8469540 109.0447664
  62.0084910  87.3755462 108.3226272  62.1160958  87.1849946 109.8206230
  64.3632278  85.2306591 118.4950732  64.0229098  84.4314404 118.8971412
  63.6571284  85.5308302 117.9227565  65.0148750  82.3155903 116.9478055
  65.8374819  81.8416382 116.8256945  65.2586813  83.0946387 117.4476741
  63.6556984  85.3444162 107.2440957  64.3765347  85.7225415 106.7404674
  63.0322288  86.0633039 107.3475935  67.7988107  86.0489311 108.1799289
  68.0151722  86.9313949 107.8788117  67.3182174  85.6575524 107.4504931
  62.5387329  89.0075024 114.7570034  62.3931909  89.3215327 115.6494315
  62.0612532  89.6259924 114.2040932  64.3983711  85.9977572 114.8050923
  64.3845280  85.1018665 114.4683221  65.1156140  86.0048236 115.4389209
  66.2509842  86.4314912 116.8504051  65.9927620  87.3531983 116.8488381
  65.7194883  86.0345347 117.5404515  57.0132991  91.5480369 117.6957695
  56.4686459  92.3240176 117.8277969  57.8912341  91.8951173 117.5376816
  63.8020607  84.8791952 110.0738493  63.9236519  83.9508599 110.2729381
  63.5122650  84.8930638 109.1616809  66.6711798  82.5646863 113.2105213
  66.6933495  82.6286196 112.2557193  67.0879857  81.7251371 113.4045719
  72.1831203  98.8532464 106.7291034  72.8782108  99.4739157 106.9478349
  72.5254354  98.0027815 107.0043412  74.0822627  96.3032169 108.2578365
  74.6073951  96.6419442 107.5327685  73.9944979  95.3679185 108.0741500
  58.2455626  98.5615694 112.6198246  59.0713646  98.2619465 112.2396890
  57.8949678  97.7923316 113.0688035  56.4464231  96.4802020 113.5787180
  55.6096140  96.0524194 113.3971181  56.4187877  96.6734463 114.5157971
  62.7750666  96.4646085 108.1654380  62.9238787  97.1481549 107.5121053
  63.5817110  96.4451175 108.6803836  60.5303299  92.4911263 109.1715449
  60.2849341  91.5873593 109.3695659  60.6999214  92.4928413 108.2294927
  59.7998947  88.2239620 106.6701611  59.1068192  88.2983975 106.0141647
  59.5550699  87.4599964 107.1923128  68.4712603  79.7835222 114.0741102
  68.7514357  79.1158411 114.7001528  69.2563210  79.9764317 113.5615765
  66.2746072  98.9594216 105.6366128  65.7020039  99.5784403 105.1836600
  66.8478866  99.5093577 106.1706050  69.4943332  99.2431366 106.7674710
  70.4274005  99.1776927 106.9707586  69.4066545 100.0787633 106.3089243
  72.1231348  98.5597236 103.7278658  72.0444980  98.2257100 104.6214416
  72.9441015  99.0519004 103.7270130  66.6592870  90.2955028 102.9782180
  67.6051975  90.1661236 103.0470598  66.2807115  89.5569690 103.4551609
  72.6314755  81.9611034 112.9409072  72.4339576  81.6526123 113.8252404
  73.2414461  82.6872673 113.0707002  64.8435788  88.2205005 102.9137066
  63.9367243  87.9238117 102.9899779  65.1211769  87.9234823 102.0471352
  55.7613728  89.5411368 113.3636112  55.4416512  88.6876676 113.0710486
  55.2147156  89.7559946 114.1194079  66.4597853  82.7641894 109.0681307
  65.6498582  82.4188979 109.4436553  67.1482270  82.4549438 109.6568918
  68.3888402  81.8419941 110.6905604  68.9419440  82.2615395 111.3495627
  68.6258488  80.9155689 110.7328560  63.6134572  85.0791940 103.0549045
  64.4753736  85.4046838 103.3144862  63.7984916  84.2923436 102.5422111
  55.6301988  93.1614280 115.3329234  54.9365459  92.7468232 114.8199188
  56.3774979  93.2034816 114.7362652  71.7667209  83.9520466 110.1984268
  71.1865878  84.6105270 109.8162320  71.5003141  83.1297811 109.7871685
  70.2170775  83.3525524 112.4005588  70.7170553  83.4642059 111.5919907
  70.8606383  83.0486577 113.0406397  57.5438730  93.0932533 113.2095248
  57.5209419  93.1920221 112.2577132  57.8539367  93.9397684 113.5312415
  70.5492087  86.1120557 109.2540616  69.6617942  86.3970207 109.0360811
  70.9646076  85.9514320 108.4067893  73.9006623  86.1367078 112.9694955
  74.6767013  86.6263530 113.2419572  73.1754757  86.5625132 113.4266825
  69.6935300  95.8765231 103.3488636  70.3971150  96.0815234 103.9646292
  68.9697949  96.4441993 103.6137720  70.5233110  91.6275093 109.4690906
  70.4668312  92.0843644 108.6298539  71.0761453  90.8665777 109.2913749
  74.3337916  87.4164825 110.2941026  74.0774851  87.0161460 111.1249233
  73.7090784  88.1308618 110.1691165  71.6021998  96.3147761 105.3987096
  72.4367601  95.8828959 105.2164571  71.4406340  96.1429774 106.3263991
  71.2567890  92.8179874 106.7643435  71.2016694  92.6524145 105.8231879
  70.6313945  93.5255907 106.9205625  56.0460405  88.0547938 120.5904858
  56.6919268  87.5446892 121.0792083  55.8377556  88.7916620 121.1648283
  64.5664015  82.3187983 106.3428754  64.5542685  83.2629823 106.4997025
  65.4587437  82.1358128 106.0488215  68.3816135  78.9130760 110.5974691
  67.6148530  78.3589246 110.7431373  68.7926840  78.9852628 111.4588842
  73.0635853 102.7685308 105.9122049  72.2273165 103.1059994 106.2331323
  72.9240623 102.6334288 104.9749186  72.9374233 102.6132535 103.1119955
  72.0603699 102.4921336 102.7482202  73.4131986 101.8218614 102.8598844
  70.6392701 103.5531538 106.6701611  69.9461946 103.6275893 106.0141647
  70.3944453 102.7891882 107.1923128  75.6829542 103.5496922 102.9137066
  74.7760997 103.2530035 102.9899779  75.9605523 103.2526740 102.0471352
  74.4528327 100.4083858 103.0549045  75.3147491 100.7338756 103.3144862
  74.6378671  99.6215353 102.5422111  75.4057770  97.6479901 106.3428754
  75.3936439  98.5921741 106.4997025  76.2981192  97.4650046 106.0488215
  24.8599446  16.9641432  92.1796518  24.1861145  17.2673129  92.7881476
  25.2465268  17.7670513  91.8301975  28.8256187  14.5426916  93.4536341
  29.5207091  15.1633608  93.6723656  29.1679337  13.6922267  93.7288719
  22.9171055  14.6488667  92.3611434  22.3445022  15.2678855  91.9081906
  23.4903849  15.1988029  92.8951356  26.1368315  14.9325818  93.4920017
  27.0698988  14.8671379  93.6952892  26.0491528  15.7682084  93.0334549
  28.7656332  14.2491688  90.4523964  28.6869963  13.9151551  91.3459722
  29.5865998  14.7413456  90.4515437  26.3360283  11.5659683  90.0733943
  27.0396134  11.7709686  90.6891598  25.6122932  12.1336445  90.3383026
  28.2446981  12.0042212  92.1232403  29.0792585  11.5723411  91.9409878
  28.0831324  11.8324226  93.0509297  36.8731256  22.5211864 102.2187579
  37.5109666  22.4018611 101.5150920  36.7552099  23.4692708 102.2775532
  29.5407778  24.3274768  98.1445995  28.9772643  24.2364705  97.3762283
  29.4260173  23.5074673  98.6248488  35.1207337  27.9945736  93.4560460
  34.4695316  28.5799816  93.0694474  35.9151699  28.5251931  93.5155497
  29.0462964  25.0834873  93.8547594  29.8193840  24.5363860  93.7160470
  29.3988363  25.9479122  94.0662056  31.3829242  21.2427539  91.4866044
  31.6354762  20.7209060  90.7249507  30.4453801  21.0793685  91.5892728
  36.4272524  20.2463317  99.2940787  37.2135614  19.8282741  98.9431205
  36.6911229  21.1509410  99.4622436  36.5982602  25.6836168  93.9929444
  35.9628435  25.7570794  94.7050349  36.2680008  26.2729767  93.3148524
  41.8280952  20.1838551 100.1973766  42.5606123  19.6137767 100.4311595
  41.0720307  19.7960151 100.6380272  31.1025530  23.1455645  93.6890419
  30.9861788  22.4700548  94.3571504  31.2127790  22.6588019  92.8722572
  33.4457071  22.6065792  97.3937108  33.0815278  22.0796413  98.1050030
  34.3024187  22.2164261  97.2203594  33.0862558  17.6355692  92.3898457
  33.2536961  18.5035928  92.7568928  32.8959727  17.7982974  91.4659746
  33.0651779  20.0913349  93.3745124  32.9451404  20.5370400  94.2130604
  32.3704367  20.4398667  92.8158662  30.8258671  32.8616991  97.0235255
  30.7482701  33.8124816  97.1023736  30.2220315  32.5162864  97.6810181
  38.7636845  20.5634823  94.2025458  39.6754701  20.7962209  94.0273155
  38.2546492  21.1471867  93.6400536  37.3706428  25.5460641 101.5939039
  36.7415290  25.7106355 100.8915107  36.9832090  25.9602251 102.3650003
  41.2495659  26.4815079  98.9483403  40.5646698  26.8613980  98.3980436
  41.3339509  27.0910405  99.6815351  32.9234389  25.2835049  98.8589124
  33.3872735  25.5622752  98.0693747  32.6591188  24.3818494  98.6762215
  31.8603276  21.4058201  95.6678690  32.5627319  21.8579245  96.1352616
  31.5283904  20.7642020  96.2958583  39.6192419  27.0046993 103.7201104
  40.4409863  26.6027181 103.4383786  39.6154822  26.9015227 104.6717220
  47.7098412  23.3485742 100.0686075  46.9562120  22.7793140  99.9130080
  47.8445953  23.3148406 101.0156710  33.0997040  28.2199144  95.7440795
  32.9642715  29.0650680  96.1725643  33.6406853  28.4218422  94.9806729
  26.5526438  25.7374582  96.3168720  27.0650958  26.5317832  96.4674285
  27.2049150  25.0400873  96.2502321  28.3621322  28.8540338  98.3991473
  28.5387951  29.7758303  98.2112457  29.1578156  28.5398758  98.8285853
  29.4852638  30.3718512 104.4001815  30.0360063  30.2435576 103.6278809
  28.6464114  30.6713401 104.0496708  24.5175354  24.0663236  97.0928290
  25.3550576  24.4760245  96.8761998  24.6953622  23.1262679  97.0628484
  36.4139786  21.7338317  92.7812123  35.8986410  22.5042922  93.0200511
  36.1417095  21.0603453  93.4045185  33.9986897  16.5788018  97.8397362
  33.1428494  16.1894868  97.6603000  34.4113849  16.6579979  96.9797147
  41.3874061  24.4870672  94.7165297  40.6103503  24.1481831  94.2720459
  42.0665542  24.4923295  94.0420262  36.2026090  19.6065409  94.6071905
  35.8976225  19.9211558  95.4582048  37.1556532  19.6846829  94.6499238
  34.6472521  25.7655632  96.2564858  34.1193883  25.0308392  95.9438096
  34.1460024  26.5430309  96.0104827  39.6265367  23.9604653 101.3731905
  38.9689042  24.6503914 101.4612033  40.4305767  24.3501085 101.7165891
  38.4370826  22.3149026  99.4235847  38.9502708  22.9479017  99.9257556
  39.0872050  21.7150221  99.0579207  29.7060836  18.4579760  92.6367355
  28.8698148  18.7954446  92.9576630  29.5665606  18.3228740  91.6994492
  32.7925122  23.5835843  89.2599832  31.8852183  23.3525096  89.4590981
  33.2896154  22.7873462  89.4473813  35.6993201  32.2933350  92.1796518
  35.0254899  32.5965047  92.7881476  36.0859022  33.0962430  91.8301975
  35.6986705  21.1889897  96.7996867  36.4458524  21.7011294  96.4903989
  35.9678294  20.8673950  97.6601261  33.9713355  23.6848438  93.7823822
  33.0624574  23.4007470  93.8796291  34.0008439  24.1047516  92.9227128
  39.2032622  27.2955027  97.5514989  38.7494950  26.4545937  97.6080180
  38.5726589  27.9316425  97.8889769  38.1465542  18.2247013  98.7815657
  37.4088299  17.7124399  99.1125899  38.3992316  17.7847395  97.9698934
  37.6465562  29.1331524  98.4864807  37.9388536  29.6936581  97.7677173
  38.1564182  29.4260085  99.2417966  32.5198249  21.2977058  99.8833617
  32.5746859  20.3450895  99.8076094  31.7089451  21.4536497 100.3674915
  33.6689443  25.2257181  91.1211900  33.2308873  24.5093040  90.6617538
  34.4099884  25.4533296  90.5596992  30.4590609  19.9154118  97.6423996
  29.6458475  20.2148288  98.0489188  30.9549603  19.5209807  98.3598478
  32.6099187  29.9111875  99.5758261  32.5675366  30.1372721  98.6466793
  33.5261886  29.6775249  99.7244062  41.7862558  23.5014378  97.1788219
  41.6480456  23.6915974  96.2509408  41.4298776  24.2633761  97.6356270
  41.8131937  25.5690905 102.1899490  42.2468444  25.4766194 103.0382544
  42.5263518  25.5448406 101.5519506  30.7264988  26.7874904  99.3720223
  31.5205586  26.2925224  99.1702798  30.0156680  26.2592767  99.0087929
  35.5459832  29.1692999 103.7232591  35.5996854  29.7383936 104.4910307
  34.6774614  29.3394884 103.3586628  27.0347751  20.9317986  95.4479976
  26.1045339  20.8702441  95.6649938  27.1305223  20.4093938  94.6516617
  42.6747487  25.6114606 104.7232376  42.8683377  26.5160416 104.9691651
  42.5748105  25.1522025 105.5570961  33.3036264  27.3603926 103.0518060
  33.1647349  26.9922710 103.9243998  32.5150860  27.8751565 102.8802018
  33.8984416  32.4613022  94.3943597  34.0736171  31.9901066  95.2089220
  33.2117204  33.0878789  94.6224858  34.8541479  26.7385529 100.4406898
  34.5191311  26.6986299 101.3364548  34.3545425  26.0730244  99.9677308
  37.7900670  24.0841563  90.7143958  37.1729841  23.3588391  90.6177010
  37.3217159  24.8450923  90.3711032  28.4645501  35.6102385 101.1683457
  28.7042099  36.2420909 101.8462476  27.6214697  35.2590425 101.4548816
  29.5799216  18.3026987  89.8365262  28.7028683  18.1815788  89.4727509
  30.0556969  17.5113066  89.5844151  32.9773363  31.4181508 103.5724961
  32.9043534  32.2236479 104.0844266  32.5350756  31.6173473 102.7472982
  32.7663142  30.6553278  97.0827783  31.9830664  31.1974958  97.1766007
  33.4655888  31.1727257  97.4822024  43.9289550  22.1688273 101.3680279
  43.9179426  23.0512988 100.9974213  43.0606929  21.8159823 101.1734817
  35.4372046  31.3168342 105.7283120  36.1500019  31.9515806 105.6559021
  34.9462075  31.4132208 104.9123122  37.1589573  25.2219594  97.3000411
  36.2245852  25.3421057  97.1305116  37.3366242  24.3192061  97.0360421
  40.5462125  21.0636914  97.8350446  41.0122577  21.8964905  97.7610748
  40.9969625  20.5981895  98.5395704  38.6138356  27.4080735  94.8336598
  38.8898200  27.2937329  95.7430472  37.7442854  27.0098220  94.7948771
  35.2492420  31.6567086  98.4769411  35.4314814  30.8388742  98.9397163
  36.0725406  31.8734778  98.0394301  35.5834585  30.5835271  95.7384460
  36.1122352  30.0727725  95.1254622  35.8462805  30.2677801  96.6029993
  28.9390333  31.6350387  98.4982236  28.2700708  32.1196515  98.0146276
  28.8003203  31.8819608  99.4125614  33.0795602  33.6694131 105.0964894
  33.6313910  33.8325753 105.8613979  33.4201795  34.2598569 104.4244919
  24.3077910  19.8968842  95.2778168  24.6031351  18.9879521  95.2245221
  23.4065946  19.8756582  94.9559170  36.2163989  31.6176107 102.0828576
  36.0915128  30.8165846 101.5739522  36.8743080  32.1122300 101.5942546
  38.2798897  29.4185127 103.7108126  37.3329233  29.2990478 103.6386453
  38.6281670  28.5307625 103.7934388  35.2845331  29.2137843  99.9112478
  35.1370293  28.2854550 100.0920048  36.1098824  29.2357934  99.4269554
  29.1507575  17.8655910  95.7692971  29.4903647  18.3941831  95.0471579
  29.5979695  18.2036316  96.5451537  38.8879453  30.0366402 100.9977351
  39.8126000  29.8309263 100.8601802  38.7194756  29.7882803 101.9066693
  31.1375722  16.3630532  93.9686263  31.8584085  16.7411784  93.4649980
  30.5141026  17.0819408  94.0721241  35.2806845  17.0675680  94.9044596
  35.4970459  17.9500318  94.6033424  34.8000912  16.6761894  94.1750238
  38.6774769  30.5552069  96.3539443  38.8511646  29.9898491  95.6013295
  39.1703660  31.3552964  96.1718933  44.5314160  23.3188492  97.9729742
  44.9745306  22.5695817  97.5748866  43.6540670  23.3098628  97.5903474
  39.6649941  29.8718833  93.4536341  40.3600846  30.4925526  93.6723656
  40.0073091  29.0214185  93.7288719  41.5641364  27.3218539  94.9823672
  42.0892688  27.6605812  94.2572992  41.4763717  26.3865554  94.7986806
  33.2482025  33.3890522  99.3418925  32.8087015  32.8966901 100.0351782
  33.9990142  32.8463490  99.1011000  25.7274364  29.5802063  99.3443553
  26.5532384  29.2805835  98.9642196  25.3768416  28.8109686  99.7933342
  30.6955897  28.9328531 101.4141227  30.0735907  28.2699236 101.1143454
  31.3660764  28.9589663 100.7314874  30.2569404  27.4832455  94.8899687
  30.4057525  28.1667919  94.2366360  31.0635848  27.4637545  95.4049143
  44.0747025  24.7893730 100.3652190  44.9093916  25.2283534 100.5289750
  44.2106153  24.3132383  99.5460436  28.0122037  23.5097632  95.8960756
  27.7668079  22.6059962  96.0940966  28.1817952  23.5114783  94.9540234
  27.2817685  19.2425990  93.3946917  26.5886930  19.3170345  92.7386953
  27.0369437  18.4786333  93.9168434  33.7564810  29.9780585  92.3611434
  33.1838777  30.5970772  91.9081906  34.3297603  30.5279947  92.8951356
  36.9762069  30.2617735  93.4920017  37.9092743  30.1963297  93.6952892
  36.8885282  31.0974002  93.0334549  39.6050086  29.5783606  90.4523964
  39.5263718  29.2443469  91.3459722  40.4259753  30.0705373  90.4515437
  42.3028277  22.4445345 103.6600283  42.2704597  21.5061346 103.8459967
  42.9128901  22.5229382 102.9266108  34.1411608  21.3141398  89.7027487
  35.0870713  21.1847606  89.7715905  33.7625853  20.5756060  90.1796915
  48.1204827  23.5061352 102.8006320  48.8508216  23.2446640 103.3614023
  47.5111773  22.7690074 102.8408388  46.2020124  21.6469214 103.3980771
  45.4753288  21.5125179 102.7897263  45.7867411  21.9546043 104.2037489
  32.3254525  19.2391374  89.6382372  31.4185981  18.9424487  89.7145086
  32.6030506  18.9421192  88.7716658  33.9416591  13.7828264  95.7926614
  33.1317319  13.4375349  96.1681860  34.6301008  13.4735808  96.3814225
  31.0953310  16.0978309  89.7794351  31.9572474  16.4233208  90.0390169
  31.2803654  15.3109805  89.2667417  39.2485946  14.9706836  96.9229574
  38.6684615  15.6291640  96.5407627  38.9821879  14.1484181  96.5116992
  38.0310824  17.1306926  95.9785923  37.1436679  17.4156577  95.7606117
  38.4464814  16.9700690  95.1313200  41.3825361  17.1553447  99.6940262
  42.1585751  17.6449900  99.9664879  40.6573495  17.5811501 100.1512131
  43.8197919  17.8681067 100.7514203  44.4142410  17.6276802 100.0407511
  43.8924503  17.1488197 101.3787739  26.0395075  31.7114677 101.0657367
  25.9049543  30.9515078 100.4995365  25.6227137  32.4355577 100.5986156
  37.1754038  26.8951601  90.0733943  37.8789888  27.1001603  90.6891598
  36.4516687  27.4628363  90.3383026  38.0051848  22.6461462  96.1936213
  37.9487050  23.1030014  95.3543845  38.5580191  21.8852147  96.0159056
  41.8156654  18.4351194  97.0186332  41.5593588  18.0347830  97.8494540
  41.1909522  19.1494988  96.8936471  46.1268992  21.1747267  99.5257624
  45.5668550  21.2440457 100.2989186  45.5212495  20.9988252  98.8057120
  29.1964201  32.6083994 101.2775810  29.0796585  33.5529427 101.1754500
  28.3756647  32.3057556 101.6661609  39.0840735  27.3334130  92.1232403
  39.9186339  26.9015329  91.9409878  38.9225078  27.1616144  93.0509297
  38.7386628  23.8366243  93.4888742  38.6835431  23.6710515  92.5477186
  38.1132683  24.5442276  93.6450932  32.0482753  13.3374352  93.0674060
  32.0361423  14.2816192  93.2242331  32.9406175  13.1544498  92.7733522
  30.2218715  33.2612256 104.4931738  31.1245962  33.2935867 104.8098233
  29.9956085  32.3312707 104.5078074  31.9772317  32.0143243 101.1541817
  31.0267948  32.0145105 101.0406189  32.2804803  31.2675977 100.6377852
  47.7125010  37.8503781 102.2187579  48.3503420  37.7310529 101.5150920
  47.5945853  38.7984625 102.2775532  44.5214717  37.8031209 102.1549104
  44.1833228  37.6872274 101.2669639  45.3904485  37.4022374 102.1350110
  40.3801532  39.6566686  98.1445995  39.8166398  39.5656623  97.3762283
  40.2653927  38.8366590  98.6248488  45.0034500  38.9566061 108.1135310
  44.9923140  38.5618859 107.2415813  45.1655139  38.2232134 108.7069081
  37.9265964  41.1517877 100.9830216  38.7187256  40.8108702 100.5676515
  38.1662614  41.2612852 101.9032369  45.9601091  43.3237654  93.4560460
  45.3089071  43.9091734  93.0694474  46.7545454  43.8543848  93.5155497
  39.8856718  40.4126791  93.8547594  40.6587594  39.8655778  93.7160470
  40.2382117  41.2771040  94.0662056  41.7241761  41.7403173 107.0614494
  41.4331627  42.6448804 106.9461160  42.3598745  41.7819701 107.7758563
  42.6497968  39.1180021 103.6515853  43.2461540  38.8936044 102.9372816
  42.7072939  38.3764767 104.2541301  42.2222996  36.5719457  91.4866044
  42.4748517  36.0500978  90.7249507  41.2847555  36.4085602  91.5892728
  47.2666279  35.5755235  99.2940787  48.0529368  35.1574658  98.9431205
  47.5304983  36.4801327  99.4622436  47.4376356  41.0128085  93.9929444
  46.8022189  41.0862712  94.7050349  47.1073763  41.6021684  93.3148524
  52.6674706  35.5130468 100.1973766  53.3999878  34.9429685 100.4311595
  51.9114062  35.1252069 100.6380272  41.9419285  38.4747563  93.6890419
  41.8255543  37.7992466  94.3571504  42.0521545  37.9879937  92.8722572
  44.2850826  37.9357710  97.3937108  43.9209033  37.4088331  98.1050030
  45.1417942  37.5456179  97.2203594  50.1900126  29.2252042 104.6568375
  49.8583451  30.0947453 104.4329590  49.5945740  28.9088326 105.3362405
  43.9256313  32.9647610  92.3898457  44.0930715  33.8327846  92.7568928
  43.7353482  33.1274891  91.4659746  46.6831646  41.4264588 104.0564287
  46.3832369  42.3289627 103.9480095  46.3382705  41.1596772 104.9085440
  40.1344127  37.8778385 100.0900992  39.2094624  37.7454599 100.2978684
  40.3828541  38.6572605 100.5870934  50.0828790  33.9447129 101.7361725
  49.1745667  33.8762537 101.4420486  50.0316385  34.4219074 102.5643550
  43.9045534  35.4205267  93.3745124  43.7845159  35.8662318  94.2130604
  43.2098122  35.7690585  92.8158662  37.4952938  37.5211659 100.9244781
  37.6245320  37.7746138 101.8384193  36.8150390  38.1139367 100.6049436
  44.1569655  35.3636774 109.6796622  43.3802990  35.9230694 109.6699487
  44.7960219  35.8493557 110.2011492  51.9490436  32.1463567 103.5139599
  51.3064816  32.4396100 102.8679393  51.4445365  32.0316487 104.3192795
  49.6030600  35.8926740  94.2025458  50.5148456  36.1254127  94.0273155
  49.0940247  36.4763784  93.6400536  42.4116028  38.1722228 109.2414589
  43.1530712  38.7107272 108.9649413  41.7053013  38.7988516 109.3986141
  47.8871367  40.3151368 107.8386750  48.2954723  39.8733779 107.0941383
  47.1648629  39.7403996 108.0920943  44.2402437  35.2523975 105.2120307
  45.0863633  35.6763388 105.3554956  44.1801075  34.5957599 105.9058870
  48.2100182  40.8752559 101.5939039  47.5809045  41.0398273 100.8915107
  47.8225844  41.2894168 102.3650003  52.0889414  41.8106997  98.9483403
  51.4040452  42.1905898  98.3980436  52.1733263  42.4202323  99.6815351
  47.3901883  32.9128343 106.8701481  47.1462815  33.6670404 106.3335757
  47.6661813  33.2913691 107.7048728  49.3440346  39.4566956 105.5478747
  49.5557241  40.0998715 104.8713128  49.2970094  38.6229272 105.0800677
  46.9466575  32.0684776 102.4515319  46.0851054  32.3666030 102.7432056
  46.9729009  32.2855175 101.5196351  43.7628144  40.6126967  98.8589124
  44.2266489  40.8914670  98.0693747  43.4984942  39.7110411  98.6762215
  40.6552225  40.1598448 101.7968888  41.2253582  40.5885717 101.1586372
  41.2460337  39.8781033 102.4953073  42.6997030  36.7350119  95.6678690
  43.4021073  37.1871163  96.1352616  42.3677659  36.0933938  96.2958583
  41.1477392  35.3261876 110.0429899  40.5176052  36.0078157 110.2765296
  41.0413479  35.2144957 109.0983037  36.4422364  34.9933672 100.9695823
  35.6521418  35.2491200 100.4935934  36.9333611  35.8082010 101.0747864
  50.4586174  42.3338911 103.7201104  51.2803617  41.9319098 103.4383786
  50.4548576  42.2307145 104.6717220  38.3937109  35.3578251  97.9279300
  37.5968273  35.4696945  98.4462795  38.1662702  35.6964903  97.0620190
  44.2242777  41.8822954 105.8761814  44.2887209  42.3443361 106.7119986
  43.5153701  41.2520319 106.0044124  34.7260067  35.2464162 103.4010814
  34.9768105  36.1311172 103.6668390  35.2619615  35.0668764 102.6285906
  58.5492167  38.6777659 100.0686075  57.7955875  38.1085058  99.9130080
  58.6839708  38.6440324 101.0156710  43.9390795  43.5491062  95.7440795
  43.8036469  44.3942597  96.1725643  44.4800607  43.7510339  94.9806729
  37.3920192  41.0666500  96.3168720  37.9044713  41.8609750  96.4674285
  38.0442905  40.3692790  96.2502321  39.2015077  44.1832256  98.3991473
  39.3781705  45.1050221  98.2112457  39.9971910  43.8690675  98.8285853
  43.3426095  31.0440521 109.9975407  44.0835809  31.6447674 109.9179869
  43.5744018  30.3018158 109.4393449  38.4867433  36.2296888 108.2753636
  38.3720948  35.3282145 108.5760735  37.6311951  36.4760585 107.9238453
  45.5659271  44.1714628 109.8741137  45.1223125  43.3851007 109.5562041
  46.2276485  44.3593779 109.2085028  40.3246392  45.7010430 104.4001815
  40.8753817  45.5727493 103.6278809  39.4857868  46.0005319 104.0496708
  47.6640509  44.4517428 107.9022538  47.6458984  45.2726309 107.4102807
  48.5860429  44.3271503 108.1272679  44.1213563  41.9661558 108.7446046
  44.6541900  41.2049846 108.5145354  43.5927644  41.6735209 109.4870201
  47.2883258  27.0721624 104.2739688  46.9447528  27.9623265 104.1978799
  47.6562221  26.8823281 103.4109273  35.3569109  39.3955154  97.0928290
  36.1944331  39.8052162  96.8761998  35.5347377  38.4554596  97.0628484
  47.2533541  37.0630235  92.7812123  46.7380164  37.8334839  93.0200511
  46.9810849  36.3895371  93.4045185  44.8380652  31.9079936  97.8397362
  43.9822248  31.5186786  97.6603000  45.2507604  31.9871896  96.9797147
  46.3679799  29.4426279 102.2388921  45.8644594  29.4056414 101.4256727
  46.6610405  30.3519021 102.2985578  42.6122684  29.5265008 101.2455103
  43.4775681  29.3307817 100.8860993  42.6800193  29.2975360 102.1724460
  52.2267815  39.8162589  94.7165297  51.4497258  39.4773749  94.2720459
  52.9059296  39.8215213  94.0420262  47.0419844  34.9357327  94.6071905
  46.7369980  35.2503476  95.4582048  47.9950286  35.0138747  94.6499238
  45.4866276  41.0947550  96.2564858  44.9587638  40.3600310  95.9438096
  44.9853779  41.8722226  96.0104827  50.4659122  39.2896571 101.3731905
  49.8082796  39.9795832 101.4612033  51.2699521  39.6793003 101.7165891
  40.2185004  31.7567216  98.6171470  40.7928755  31.5342398  97.8844663
  40.8055986  31.8255911  99.3700071  49.2764581  37.6440943  99.4235847
  49.7896463  38.2770935  99.9257556  49.9265805  37.0442139  99.0579207
  40.5454591  33.7871677  92.6367355  39.7091903  34.1246364  92.9576630
  40.4059360  33.6520657  91.6994492  42.5207671  28.6308465  97.3446539
  41.8672084  28.3157482  96.7203154  42.4788145  28.0084206  98.0706362
  43.6318876  38.9127760  89.2599832  42.7245938  38.6817014  89.4590981
  44.1289908  38.1165380  89.4473813  45.7545412  35.1190399 101.6694187
  44.8367973  35.3405346 101.5115875  46.1705555  35.1936709 100.8105894
  46.5380459  36.5181815  96.7996867  47.2852278  37.0303212  96.4903989
  46.8072049  36.1965867  97.6601261  44.8107110  39.0140355  93.7823822
  43.9018329  38.7299388  93.8796291  44.8402193  39.4339434  92.9227128
  50.0426377  42.6246945  97.5514989  49.5888704  41.7837855  97.6080180
  49.4120344  43.2608343  97.8889769  48.9859297  33.5538931  98.7815657
  48.2482053  33.0416317  99.1125899  49.2386070  33.1139312  97.9698934
  48.4859316  44.4623441  98.4864807  48.7782291  45.0228499  97.7677173
  48.9957937  44.7552002  99.2417966  49.0870924  26.3315183  99.3757426
  49.3929801  25.4712546  99.0883341  49.8123529  26.9232803  99.1756420
  35.3795280  36.7345869  97.7639024  35.1819680  36.1415230  97.0390090
  34.8241944  36.4298080  98.4814963  43.3592004  36.6268976  99.8833617
  43.4140613  35.6742812  99.8076094  42.5483206  36.7828415 100.3674915
  44.5083197  40.5549099  91.1211900  44.0702627  39.8384958  90.6617538
  45.2493638  40.7825214  90.5596992  41.2984364  35.2446036  97.6423996
  40.4852229  35.5440206  98.0489188  41.7943358  34.8501724  98.3598478
  43.4492941  45.2403793  99.5758261  43.4069120  45.4664639  98.6466793
  44.3655640  45.0067167  99.7244062  46.8958575  35.7087860 106.4738890
  47.2507963  35.9359333 107.3333355  47.5430706  36.0406237 105.8516145
  52.6256312  38.8306296  97.1788219  52.4874211  39.0207892  96.2509408
  52.2692531  39.5925679  97.6356270  40.7898438  32.8164391 103.2585231
  41.4297818  32.6753150 102.5608194  39.9575969  32.5298905 102.8823833
  52.6525692  40.8982823 102.1899490  53.0862198  40.8058112 103.0382544
  53.3657272  40.8740323 101.5519506  41.5658742  42.1166822  99.3720223
  42.3599341  41.6217142  99.1702798  40.8550435  41.5884685  99.0087929
  46.3853587  44.4984917 103.7232591  46.4390609  45.0675853 104.4910307
  45.5168368  44.6686802 103.3586628  37.8741506  36.2609903  95.4479976
  36.9439094  36.1994359  95.6649938  37.9698978  35.7385856  94.6516617
  37.7927055  32.7864716  98.0358218  38.0533872  33.7010049  97.9267378
  38.6144227  32.3189159  98.1854830  39.2651980  34.2002473 105.2057042
  39.9375033  33.9919835 104.5569691  38.4381767  34.0024559 104.7662274
  53.5141241  40.9406524 104.7232376  53.7077131  41.8452334 104.9691651
  53.4141859  40.4813943 105.5570961  45.1677552  30.8264414 107.2222703
  44.5205467  31.5254364 107.1287179  45.9378567  31.2600558 107.5898951
  48.5756350  41.0913266 110.2973256  48.4241856  40.8623818 109.3803340
  48.5661029  42.0483868 110.3104601  45.3441686  38.6645179 105.2819523
  46.2733746  38.8156339 105.1088490  44.9232716  38.7529200 104.4268169
  44.1430018  42.6895844 103.0518060  44.0041104  42.3214628 103.9243998
  43.3544614  43.2043483 102.8802018  45.6935233  42.0677446 100.4406898
  45.3585066  42.0278216 101.3364548  45.1939179  41.4022162  99.9677308
  39.6679477  37.4745076 105.9659479  39.5299275  36.7425315 106.5671018
  40.5784401  37.3853976 105.6843667  48.6294425  39.4133481  90.7143958
  48.0123596  38.6880309  90.6177010  48.1610913  40.1742841  90.3711032
  42.2961778  37.1865036 105.4543159  43.0061396  36.5458228 105.4129777
  42.2531086  37.4377930 106.3769340  50.2848557  44.1232389 108.3749738
  50.2261103  43.4391609 107.7080321  50.6868075  44.8651379 107.9230364
  41.0090712  34.1730253 107.2738798  40.4728069  33.7220992 107.9260395
  40.4207420  34.3076162 106.5309263  39.3039255  50.9394303 101.1683457
  39.5435854  51.5712827 101.8462476  38.4608452  50.5882343 101.4548816
  40.4192971  33.6318905  89.8365262  39.5422437  33.5107706  89.4727509
  40.8950724  32.8404983  89.5844151  50.2865964  42.0871973 106.6063718
  49.3992743  41.7497895 106.7290117  50.8564515  41.3555004 106.8432483
  31.9395111  38.4196065  99.9306769  32.6266151  38.1057795  99.3427785
  31.7843240  39.3237429  99.6574021  36.7429833  33.3086261 104.3591793
  36.6588022  32.7011931 103.6242203  35.9212540  33.7995279 104.3601289
  43.8167117  46.7473425 103.5724961  43.7437289  47.5528397 104.0844266
  43.3744510  46.9465391 102.7472982  46.9153547  31.7939825  99.7261988
  47.4122247  31.0409787  99.4063058  46.1440529  31.8304141  99.1605197
  54.7683304  37.4980190 101.3680279  54.7573181  38.3804906 100.9974213
  53.9000684  37.1451741 101.1734817  46.2765801  46.6460259 105.7283120
  46.9893773  47.2807724 105.6559021  45.7855829  46.7424125 104.9123122
  47.9983328  40.5511512  97.3000411  47.0639606  40.6712974  97.1305116
  48.1759996  39.6483979  97.0360421  43.4988516  33.9357208  99.4533673
  43.1286303  33.3828248 100.1414578  43.9947608  33.3315341  98.9008673
  51.3855879  36.3928831  97.8350446  51.8516331  37.2256823  97.7610748
  51.8363380  35.9273813  98.5395704  41.3277714  44.3954703 106.5488691
  42.0287174  45.0291186 106.7018085  40.8572829  44.7369434 105.7884330
  49.4532110  42.7372653  94.8336598  49.7291954  42.6229247  95.7430472
  48.5836609  42.3390137  94.7948771  49.3572542  28.7609418 101.8741347
  48.4435622  28.9913645 102.0423554  49.7865643  28.8447862 102.7255379
  49.1279000  36.9499310 104.3741241  48.4750451  37.1975218 103.7193694
  49.5059380  36.1363448 104.0403718  46.0886174  46.9859003  98.4769411
  46.2708569  46.1680659  98.9397163  46.9119160  47.2026696  98.0394301
  46.4228340  45.9127188  95.7384460  46.9516106  45.4019643  95.1254622
  46.6856559  45.5969719  96.6029993  45.1766573  37.6919121 110.8607278
  44.5007210  37.5913251 111.5309653  45.9994207  37.5358335 111.3243275
  36.9245432  43.9291058 103.4819793  37.5098869  43.1834746 103.6147697
  36.7270271  44.2395014 104.3656457  39.7784088  46.9642305  98.4982236
  39.1094463  47.4488433  98.0146276  39.6396957  47.2111526  99.4125614
  31.5163087  36.4996658 102.2024236  31.5547187  35.9660249 102.9961354
  31.0103380  35.9731863 101.5835214  43.9189356  48.9986049 105.0964894
  44.4707664  49.1617670 105.8613979  44.2595550  49.5890487 104.4244919
  38.8953849  31.3461198 105.6986779  38.9595176  32.2076029 105.2864176
  38.8320970  30.7335200 104.9659137  48.7700231  43.8247306 110.9513548
  49.3140135  44.4377264 110.4568503  48.1887075  44.3826885 111.4680561
  35.1471665  35.2260760  95.2778168  35.4425106  34.3171439  95.2245221
  34.2459700  35.2048500  94.9559170  47.0557743  46.9468024 102.0828576
  46.9308883  46.1457764 101.5739522  47.7136835  47.4414218 101.5942546
  38.6765912  33.3016757 101.2605716  37.9552497  33.9152724 101.1213190
  39.4659167  33.8374522 101.1822362  49.1192652  44.7477044 103.7108126
  48.1722987  44.6282395 103.6386453  49.4675425  43.8599542 103.7934388
  41.4792225  30.6371183 107.5346368  42.0026627  30.8833480 108.2972677
  41.2604559  31.4691218 107.1149505  36.8759506  32.9074858  95.4017493
  36.5472212  32.0272237  95.2192599  37.2298877  32.8522526  96.2893882
  46.1239085  44.5429761  99.9112478  45.9764048  43.6146468 100.0920048
  46.9492579  44.5649851  99.4269554  39.9901329  33.1947828  95.7692971
  40.3297402  33.7233749  95.0471579  40.4373450  33.5328234  96.5451537
  49.7273207  45.3658319 100.9977351  50.6519754  45.1601181 100.8601802
  49.5588510  45.1174720 101.9066693  42.6844770  31.5784878 105.2196039
  42.3441591  30.7792691 105.6216718  41.9783777  31.8786589 104.6472872
  43.3361242  28.6634191 103.6723362  44.1587311  28.1894669 103.5502252
  43.5799306  29.4424674 104.1722048  41.9769477  31.6922449  93.9686263
  42.6977839  32.0703702  93.4649980  41.3534781  32.4111326  94.0721241
  46.1200599  32.3967598  94.9044596  46.3364214  33.2792236  94.6033424
  45.6394667  32.0053812  94.1750238  40.8599821  35.3553311 101.4815340
  40.7144402  35.6693614 102.3739622  40.3825025  35.9738212 100.9286239
  42.7196204  32.3455859 101.5296230  42.7057773  31.4496953 101.1928528
  43.4368632  32.3526523 102.1634516  44.5722334  32.7793200 103.5749357
  44.3140112  33.7010270 103.5733688  44.0407375  32.3823634 104.2649821
  49.5168523  45.8843987  96.3539443  49.6905401  45.3190409  95.6013295
  50.0097414  46.6844882  96.1718933  35.3345483  37.8958656 104.4203001
  34.7898951  38.6718464 104.5523276  36.2124833  38.2429460 104.2622123
  42.1233100  31.2270240  96.7983800  42.2449011  30.2986886  96.9974687
  41.8335142  31.2408926  95.8862115  44.9924290  28.9125150  99.9350520
  45.0145987  28.9764483  98.9802499  45.4092349  28.0729659 100.1291026
  55.3707914  38.6480410  97.9729742  55.8139060  37.8987735  97.5748866
  54.4934425  38.6390546  97.5903474  50.5043696  45.2010751  93.4536341
  51.1994600  45.8217444  93.6723656  50.8466846  44.3506102  93.7288719
  36.1211505  37.0228552 107.3133158  35.3793241  37.1711187 107.8997789
  35.8004249  37.2836818 106.4499908  52.4035119  42.6510457  94.9823672
  52.9286443  42.9897729  94.2572992  52.3157471  41.7157472  94.7986806
  44.0655168  46.5644530 107.1113548  44.3742294  46.3193677 107.9836248
  44.8630650  46.7691169 106.6232419  44.0875780  48.7182440  99.3418925
  43.6480770  48.2258819 100.0351782  44.8383897  48.1755408  99.1011000
  36.5668119  44.9093981  99.3443553  37.3926138  44.6097753  98.9642196
  36.2162171  44.1401603  99.7933342  41.5349652  44.2620449 101.4141227
  40.9129661  43.5991154 101.1143454  42.2054519  44.2881581 100.7314874
  34.7676724  42.8280307 100.3032487  33.9308632  42.4002482 100.1216488
  34.7400369  43.0212751 101.2403278  52.0929025  43.2843360 110.2874870
  51.3024569  43.2667499 109.7479369  51.8562379  43.8231654 111.0423906
  52.2126900  40.1335827 107.6007598  52.2624905  39.9685834 108.5423121
  52.1040823  39.2663086 107.2105479  41.0963159  42.8124372  94.8899687
  41.2451279  43.4959837  94.2366360  41.9029602  42.7929462  95.4049143
  49.5030662  36.1166755 108.9166905  50.4040525  35.9773220 108.6250903
  49.5778637  36.2821209 109.8565082  43.8373468  33.4933609 107.7620091
  42.9676777  33.7867175 107.4902680  44.0732948  34.0774054 108.4827355
  53.7145097  42.5532768 107.8449620  53.4229905  42.9162749 108.6813081
  53.1017228  41.8399776 107.6662952  54.9140779  40.1185648 100.3652190
  55.7487670  40.5575452 100.5289750  55.0499908  39.6424301  99.5460436
  51.9632285  37.6765383 106.3129678  52.4386407  37.8693029 105.5048529
  51.0397850  37.7324569 106.0673061  38.8515792  38.8389550  95.8960756
  38.6061834  37.9351880  96.0940966  39.0211706  38.8406700  94.9540234
  46.5412502  29.7113226 105.2785512  47.0594445  30.4474253 104.9532000
  46.1867634  30.0177220 106.1132271  38.1211439  34.5717908  93.3946917
  37.4280684  34.6462263  92.7386953  37.8763191  33.8078251  93.9168434
  46.7925096  26.1313509 100.7986408  47.0726849  25.4636698 101.4246835
  47.5775703  26.3242604 100.2861072  50.6633954  34.5531143 104.5457983
  51.6151377  34.6529241 104.5670207  50.4937404  33.7609411 105.0556068
  48.6848333  31.6386726 104.7317384  48.0898266  31.9191739 104.0363873
  48.3998030  32.1280627 105.5034125  50.4443841  44.9075523  90.4523964
  50.3657472  44.5735387  91.3459722  51.2653507  45.3997291  90.4515437
  53.1422032  37.7737263 103.6600283  53.1098352  36.8353263 103.8459967
  53.7522655  37.8521299 102.9266108  44.9805363  36.6433316  89.7027487
  45.9264467  36.5139524  89.7715905  44.6019608  35.9047977  90.1796915
  53.2916520  34.5648306 103.7058566  52.7755569  33.7806763 103.5188495
  54.1756469  34.2367023 103.8705086  50.9527247  28.3089322  99.6654379
  50.7552068  28.0004410 100.5497711  51.5626953  29.0350960  99.7952309
  58.9598582  38.8353269 102.8006320  59.6901970  38.5738558 103.3614023
  58.3505527  38.0981991 102.8408388  57.0413879  36.9761132 103.3980771
  56.3147042  36.8417097 102.7897263  56.6261166  37.2837961 104.2037489
  44.8644055  40.6951062 111.1628144  45.7847065  40.8729661 111.3568190
  44.8293638  39.7507107 111.0107843  43.1648280  34.5683292  89.6382372
  42.2579735  34.2716405  89.7145086  43.4424261  34.2713110  88.7716658
  34.0826220  35.8889655 100.0881419  33.7629005  35.0354964  99.7955793
  33.5359648  36.1038233 100.8439386  37.8606128  38.6052096 103.8050925
  38.0792138  39.5369204 103.8238959  38.2731902  38.2460071 104.5905729
  44.7810346  29.1120182  95.7926614  43.9711074  28.7667267  96.1681860
  45.4694762  28.8027725  96.3814225  46.7100894  28.1898228  97.4150910
  47.2631932  28.6093682  98.0740933  46.9470980  27.2633977  97.4573866
  41.9347064  31.4270227  89.7794351  42.7966228  31.7525125  90.0390169
  42.1197409  30.6401723  89.2667417  33.9514480  39.5092567 102.0574540
  33.2577952  39.0946520 101.5444495  34.6987471  39.5513103 101.4607959
  50.0879701  30.2998754  96.9229574  49.5078370  30.9583558  96.5407627
  49.8215634  29.4776098  96.5116992  48.5383267  29.7003811  99.1250895
  49.0383046  29.8120346  98.3165214  49.1818875  29.3964864  99.7651703
  42.5965263  37.6082441 112.0118736  42.1132345  38.4082801 112.2182625
  42.6826202  37.6190386 111.0586180  35.8651223  39.4410821  99.9340555
  35.8421911  39.5398508  98.9822438  36.1751859  40.2875971 100.2557721
  38.5238601  41.4986976 104.0487169  39.4781854  41.4670918 103.9817101
  38.3251124  41.0377599 104.8637395  39.1137983  40.0688092 106.6157967
  39.9330872  40.5632170 106.6392804  39.3874790  39.1520060 106.5875535
  48.8704579  32.4598844  95.9785923  47.9830434  32.7448495  95.7606117
  49.2858568  32.2992607  95.1313200  52.2219115  32.4845365  99.6940262
  52.9979505  32.9741817  99.9664879  51.4967249  32.9103419 100.1512131
  54.6591674  33.1972984 100.7514203  55.2536165  32.9568720 100.0407511
  54.7318257  32.4780115 101.3787739  36.8788829  47.0406595 101.0657367
  36.7443297  46.2806996 100.4995365  36.4620892  47.7647495 100.5986156
  48.0147792  42.2243519  90.0733943  48.7183643  42.4293521  90.6891598
  47.2910441  42.7920281  90.3383026  48.8445603  37.9753380  96.1936213
  48.7880804  38.4321931  95.3543845  49.3973945  37.2144065  96.0159056
  52.6550409  33.7643112  97.0186332  52.3987343  33.3639747  97.8494540
  52.0303277  34.4786906  96.8936471  56.9662746  36.5039185  99.5257624
  56.4062304  36.5732374 100.2989186  56.3606250  36.3280170  98.8057120
  40.0357955  47.9375912 101.2775810  39.9190339  48.8821345 101.1754500
  39.2150402  47.6349474 101.6661609  49.9234490  42.6626048  92.1232403
  50.7580094  42.2307246  91.9409878  49.7618833  42.4908062  93.0509297
  49.5780382  39.1658161  93.4888742  49.5229186  39.0002433  92.5477186
  48.9526437  39.8734194  93.6450932  34.3672897  34.4026226 107.3150164
  35.0131761  33.8925180 107.8037389  34.1590048  35.1394907 107.8893589
  46.8926289  41.4707073 112.8142305  47.7617449  41.6447725 112.4528940
  46.4133041  42.2901490 112.6918034  42.8876507  28.6666270  93.0674060
  42.8755177  29.6108110  93.2242331  43.7799929  28.4836416  92.7733522
  41.0612469  48.5904174 104.4931738  41.9639716  48.6227784 104.8098233
  40.8349839  47.6604625 104.5078074  42.8166071  47.3435161 101.1541817
  41.8661702  47.3437022 101.0406189  43.1198558  46.5967895 100.6377852
  46.7028627  25.2609047  97.3219997  45.9361023  24.7067534  97.4676680
  47.1139332  25.3330916  98.1834149  58.5518765  53.1795699 102.2187579
  59.1897175  53.0602446 101.5150920  58.4339608  54.1276543 102.2775532
  55.3608471  53.1323127 102.1549104  55.0226983  53.0164192 101.2669639
  56.2298239  52.7314292 102.1350110  55.8428254  54.2857979 108.1135310
  55.8316895  53.8910777 107.2415813  56.0048894  53.5524051 108.7069081
  56.7994846  58.6529571  93.4560460  56.1482825  59.2383652  93.0694474
  57.5939208  59.1835766  93.5155497  52.5635515  57.0695091 107.0614494
  52.2725381  57.9740721 106.9461160  53.1992500  57.1111618 107.7758563
  53.4891722  54.4471939 103.6515853  54.0855294  54.2227962 102.9372816
  53.5466694  53.7056685 104.2541301  53.0616751  51.9011374  91.4866044
  53.3142271  51.3792896  90.7249507  52.1241310  51.7377520  91.5892728
  58.1060033  50.9047153  99.2940787  58.8923123  50.4866576  98.9431205
  58.3698738  51.8093245  99.4622436  58.2770111  56.3420003  93.9929444
  57.6415944  56.4154630  94.7050349  57.9467517  56.9313602  93.3148524
  63.5068461  50.8422386 100.1973766  64.2393632  50.2721603 100.4311595
  62.7507816  50.4543986 100.6380272  52.7813039  53.8039480  93.6890419
  52.6649297  53.1284384  94.3571504  52.8915299  53.3171854  92.8722572
  55.1244580  53.2649628  97.3937108  54.7602787  52.7380248  98.1050030
  55.9811696  52.8748097  97.2203594  61.0293881  44.5543960 104.6568375
  60.6977206  45.4239371 104.4329590  60.4339494  44.2380244 105.3362405
  54.7650067  48.2939527  92.3898457  54.9324470  49.1619764  92.7568928
  54.5747236  48.4566809  91.4659746  57.5225400  56.7556506 104.0564287
  57.2226123  57.6581545 103.9480095  57.1776460  56.4888689 104.9085440
  50.9737882  53.2070303 100.0900992  50.0488378  53.0746517 100.2978684
  51.2222295  53.9864522 100.5870934  60.9222544  49.2739046 101.7361725
  60.0139422  49.2054455 101.4420486  60.8710140  49.7510991 102.5643550
  54.7439288  50.7497185  93.3745124  54.6238913  51.1954235  94.2130604
  54.0491876  51.0982502  92.8158662  52.5046180  63.5200826  97.0235255
  52.4270210  64.4708652  97.1023736  51.9007824  63.1746699  97.6810181
  54.9963410  50.6928692 109.6796622  54.2196744  51.2522612 109.6699487
  55.6353973  51.1785475 110.2011492  62.7884191  47.4755485 103.5139599
  62.1458571  47.7688018 102.8679393  62.2839119  47.3608405 104.3192795
  60.4424354  51.2218658  94.2025458  61.3542210  51.4546045  94.0273155
  59.9334001  51.8055702  93.6400536  53.2509782  53.5014145 109.2414589
  53.9924467  54.0399189 108.9649413  52.5446768  54.1280434 109.3986141
  58.7265122  55.6443286 107.8386750  59.1348478  55.2025696 107.0941383
  58.0042383  55.0695913 108.0920943  55.0796192  50.5815892 105.2120307
  55.9257387  51.0055306 105.3554956  55.0194830  49.9249517 105.9058870
  59.0493937  56.2044476 101.5939039  58.4202799  56.3690190 100.8915107
  58.6619599  56.6186086 102.3650003  62.9283168  57.1398914  98.9483403
  62.2434207  57.5197816  98.3980436  63.0127018  57.7494241  99.6815351
  58.2295637  48.2420261 106.8701481  57.9856569  48.9962321 106.3335757
  58.5055568  48.6205608 107.7048728  60.1834100  54.7858873 105.5478747
  60.3950995  55.4290633 104.8713128  60.1363848  53.9521190 105.0800677
  57.7860329  47.3976694 102.4515319  56.9244808  47.6957947 102.7432056
  57.8122764  47.6147093 101.5196351  54.6021898  55.9418884  98.8589124
  55.0660244  56.2206587  98.0693747  54.3378697  55.0402329  98.6762215
  51.4945980  55.4890366 101.7968888  52.0647337  55.9177634 101.1586372
  52.0854091  55.2072951 102.4953073  53.5390785  52.0642037  95.6678690
  54.2414828  52.5163080  96.1352616  53.2071413  51.4225856  96.2958583
  51.9871146  50.6553793 110.0429899  51.3569807  51.3370074 110.2765296
  51.8807234  50.5436875 109.0983037  61.2979928  57.6630829 103.7201104
  62.1197372  57.2611016 103.4383786  61.2942331  57.5599063 104.6717220
  55.0636531  57.2114872 105.8761814  55.1280964  57.6735279 106.7119986
  54.3547455  56.5812237 106.0044124  69.3885921  54.0069577 100.0686075
  68.6349629  53.4376975  99.9130080  69.5233462  53.9732242 101.0156710
  54.7784549  58.8782979  95.7440795  54.6430224  59.7234515  96.1725643
  55.3194362  59.0802257  94.9806729  51.2651889  44.9574559 112.4055150
  50.8718834  44.4040758 113.0802794  52.0818029  45.2685138 112.7961668
  54.1819850  46.3732438 109.9975407  54.9229563  46.9739591 109.9179869
  54.4137773  45.6310076 109.4393449  49.3261188  51.5588806 108.2753636
  49.2114703  50.6574063 108.5760735  48.4705706  51.8052502 107.9238453
  56.4053026  59.5006546 109.8741137  55.9616880  58.7142924 109.5562041
  57.0670239  59.6885696 109.2085028  58.5034264  59.7809346 107.9022538
  58.4852739  60.6018227 107.4102807  59.4254184  59.6563421 108.1272679
  54.9607318  57.2953475 108.7446046  55.4935655  56.5341764 108.5145354
  54.4321399  57.0027127 109.4870201  58.1277013  42.4013541 104.2739688
  57.7841282  43.2915183 104.1978799  58.4955975  42.2115199 103.4109273
  58.0927295  52.3922152  92.7812123  57.5773919  53.1626757  93.0200511
  57.8204604  51.7187289  93.4045185  55.6774406  47.2371853  97.8397362
  54.8216003  46.8478704  97.6603000  56.0901358  47.3163814  96.9797147
  57.2073553  44.7718196 102.2388921  56.7038349  44.7348332 101.4256727
  57.5004160  45.6810939 102.2985578  53.4516439  44.8556926 101.2455103
  54.3169436  44.6599735 100.8860993  53.5193948  44.6267278 102.1724460
  63.0661570  55.1454507  94.7165297  62.2891012  54.8065667  94.2720459
  63.7453051  55.1507130  94.0420262  57.8813599  50.2649245  94.6071905
  57.5763734  50.5795394  95.4582048  58.8344041  50.3430664  94.6499238
  56.3260030  56.4239468  96.2564858  55.7981392  55.6892227  95.9438096
  55.8247533  57.2014144  96.0104827  61.3052876  54.6188488 101.3731905
  60.6476551  55.3087750 101.4612033  62.1093276  55.0084920 101.7165891
  51.0578758  47.0859134  98.6171470  51.6322510  46.8634316  97.8844663
  51.6449740  47.1547829  99.3700071  60.1158335  52.9732861  99.4235847
  60.6290217  53.6062853  99.9257556  60.7659559  52.3734057  99.0579207
  51.3848345  49.1163595  92.6367355  50.5485657  49.4538282  92.9576630
  51.2453115  48.9812575  91.6994492  53.3601426  43.9600383  97.3446539
  52.7065838  43.6449400  96.7203154  53.3181900  43.3376123  98.0706362
  54.4712631  54.2419678  89.2599832  53.5639692  54.0108932  89.4590981
  54.9683663  53.4457297  89.4473813  57.3780709  62.9517185  92.1796518
  56.7042408  63.2548882  92.7881476  57.7646531  63.7546266  91.8301975
  56.5939166  50.4482317 101.6694187  55.6761727  50.6697264 101.5115875
  57.0099310  50.5228627 100.8105894  57.3774214  51.8473732  96.7996867
  58.1246033  52.3595129  96.4903989  57.6465803  51.5257785  97.6601261
  55.6500864  54.3432273  93.7823822  54.7412083  54.0591306  93.8796291
  55.6795948  54.7631352  92.9227128  60.8820131  57.9538862  97.5514989
  60.4282459  57.1129772  97.6080180  60.2514098  58.5900261  97.8889769
  59.8253051  48.8830848  98.7815657  59.0875808  48.3708235  99.1125899
  60.0779825  48.4431230  97.9698934  59.3253071  59.7915359  98.4864807
  59.6176045  60.3520416  97.7677173  59.8351691  60.0843920  99.2417966
  59.9264678  41.6607100  99.3757426  60.2323555  40.8004464  99.0883341
  60.6517283  42.2524721  99.1756420  54.1985758  51.9560894  99.8833617
  54.2534368  51.0034730  99.8076094  53.3876960  52.1120333 100.3674915
  55.3476952  55.8841017  91.1211900  54.9096382  55.1676876  90.6617538
  56.0887393  56.1117131  90.5596992  52.1378118  50.5737953  97.6423996
  51.3245984  50.8732124  98.0489188  52.6337112  50.1793642  98.3598478
  54.2886696  60.5695710  99.5758261  54.2462875  60.7956557  98.6466793
  55.2049395  60.3359085  99.7244062  57.7352330  51.0379778 106.4738890
  58.0901717  51.2651251 107.3333355  58.3824461  51.3698155 105.8516145
  63.4650067  54.1598214  97.1788219  63.3267965  54.3499810  96.2509408
  63.1086285  54.9217596  97.6356270  51.6292193  48.1456309 103.2585231
  52.2691572  48.0045068 102.5608194  50.7969723  47.8590822 102.8823833
  63.4919446  56.2274741 102.1899490  63.9255953  56.1350030 103.0382544
  64.2051027  56.2032241 101.5519506  52.4052497  57.4458739  99.3720223
  53.1993095  56.9509059  99.1702798  51.6944189  56.9176602  99.0087929
  57.2247341  59.8276835 103.7232591  57.2784363  60.3967771 104.4910307
  56.3562123  59.9978720 103.3586628  48.6320809  48.1156634  98.0358218
  48.8927626  49.0301967  97.9267378  49.4537982  47.6481076  98.1854830
  50.1045735  49.5294391 105.2057042  50.7768788  49.3211753 104.5569691
  49.2775521  49.3316477 104.7662274  64.3534996  56.2698441 104.7232376
  64.5470886  57.1744252 104.9691651  64.2535614  55.8105860 105.5570961
  56.0071307  46.1556332 107.2222703  55.3599222  46.8546282 107.1287179
  56.7772322  46.5892476 107.5898951  59.4150104  56.4205184 110.2973256
  59.2635611  56.1915736 109.3803340  59.4054784  57.3775785 110.3104601
  56.1835441  53.9937097 105.2819523  57.1127501  54.1448256 105.1088490
  55.7626471  54.0821118 104.4268169  54.9823773  58.0187761 103.0518060
  54.8434858  57.6506546 103.9243998  54.1938369  58.5335401 102.8802018
  55.5771925  63.1196858  94.3943597  55.7523680  62.6484901  95.2089220
  54.8904713  63.7462624  94.6224858  56.5328988  57.3969364 100.4406898
  56.1978820  57.3570134 101.3364548  56.0332933  56.7314080  99.9677308
  50.5073232  52.8036994 105.9659479  50.3693030  52.0717233 106.5671018
  51.4178155  52.7145894 105.6843667  59.4688179  54.7425398  90.7143958
  58.8517350  54.0172226  90.6177010  59.0004668  55.5034759  90.3711032
  53.1355532  52.5156953 105.4543159  53.8455151  51.8750145 105.4129777
  53.0924841  52.7669848 106.3769340  61.1242311  59.4524307 108.3749738
  61.0654857  58.7683527 107.7080321  61.5261830  60.1943297 107.9230364
  51.8484466  49.5022171 107.2738798  51.3121823  49.0512910 107.9260395
  51.2601175  49.6368080 106.5309263  50.1433010  66.2686220 101.1683457
  50.3829608  66.9004745 101.8462476  49.3002206  65.9174260 101.4548816
  51.2586725  48.9610823  89.8365262  50.3816192  48.8399623  89.4727509
  51.7344478  48.1696901  89.5844151  61.1259718  57.4163891 106.6063718
  60.2386497  57.0789812 106.7290117  61.6958269  56.6846922 106.8432483
  47.5823588  48.6378179 104.3591793  47.4981776  48.0303848 103.6242203
  46.7606294  49.1287197 104.3601289  54.6560872  62.0765343 103.5724961
  54.5831043  62.8820314 104.0844266  54.2138265  62.2757309 102.7472982
  54.4450651  61.3137113  97.0827783  53.6618173  61.8558793  97.1766007
  55.1443397  61.8311093  97.4822024  57.7547302  47.1231742  99.7261988
  58.2516001  46.3701705  99.4063058  56.9834283  47.1596059  99.1605197
  65.6077059  52.8272108 101.3680279  65.5966935  53.7096823 100.9974213
  64.7394438  52.4743659 101.1734817  57.1159555  61.9752177 105.7283120
  57.8287528  62.6099642 105.6559021  56.6249584  62.0716043 104.9123122
  58.8377082  55.8803430  97.3000411  57.9033361  56.0004892  97.1305116
  59.0153751  54.9775896  97.0360421  54.3382270  49.2649125  99.4533673
  53.9680058  48.7120166 100.1414578  54.8341363  48.6607259  98.9008673
  62.2249634  51.7220749  97.8350446  62.6910086  52.5548740  97.7610748
  62.6757134  51.2565730  98.5395704  60.2925865  58.0664570  94.8336598
  60.5685709  57.9521165  95.7430472  59.4230363  57.6682055  94.7948771
  60.1966296  44.0901336 101.8741347  59.2829376  44.3205563 102.0423554
  60.6259398  44.1739780 102.7255379  59.9672755  52.2791228 104.3741241
  59.3144205  52.5267135 103.7193694  60.3453135  51.4655366 104.0403718
  56.9279929  62.3150921  98.4769411  57.1102323  61.4972577  98.9397163
  57.7512915  62.5318613  98.0394301  57.2622094  61.2419106  95.7384460
  57.7909861  60.7311561  95.1254622  57.5250314  60.9261636  96.6029993
  56.0160328  53.0211039 110.8607278  55.3400965  52.9205168 111.5309653
  56.8387962  52.8650253 111.3243275  54.7583111  64.3277966 105.0964894
  55.3101419  64.4909588 105.8613979  55.0989304  64.9182404 104.4244919
  49.7347604  46.6753116 105.6986779  49.7988930  47.5367947 105.2864176
  49.6714724  46.0627118 104.9659137  49.2099876  48.7476249 109.3459813
  49.8371915  48.3653326 109.9597337  48.3527795  48.5290451 109.7115505
  59.6093985  59.1539224 110.9513548  60.1533889  59.7669182 110.4568503
  59.0280830  59.7118802 111.4680561  57.8951498  62.2759942 102.0828576
  57.7702637  61.4749682 101.5739522  58.5530589  62.7706135 101.5942546
  49.5159666  48.6308674 101.2605716  48.7946252  49.2444642 101.1213190
  50.3052922  49.1666439 101.1822362  59.9586406  60.0768962 103.7108126
  59.0116742  59.9574313 103.6386453  60.3069179  59.1891460 103.7934388
  52.3185980  45.9663101 107.5346368  52.8420382  46.2125397 108.2972677
  52.0998313  46.7983136 107.1149505  47.7153261  48.2366775  95.4017493
  47.3865967  47.3564154  95.2192599  48.0692631  48.1814444  96.2893882
  56.9632840  59.8721678  99.9112478  56.8157802  58.9438386 100.0920048
  57.7886333  59.8941769  99.4269554  50.8295084  48.5239745  95.7692971
  51.1691156  49.0525667  95.0471579  51.2767204  48.8620151  96.5451537
  60.5666962  60.6950237 100.9977351  61.4913509  60.4893098 100.8601802
  60.3982265  60.4466638 101.9066693  53.5238525  46.9076796 105.2196039
  53.1835345  46.1084609 105.6216718  52.8177531  47.2078507 104.6472872
  54.1754997  43.9926108 103.6723362  54.9981066  43.5186587 103.5502252
  54.4193060  44.7716592 104.1722048  52.8163231  47.0214367  93.9686263
  53.5371594  47.3995620  93.4649980  52.1928535  47.7403244  94.0721241
  56.9594354  47.7259516  94.9044596  57.1757968  48.6084154  94.6033424
  56.4788421  47.3345729  94.1750238  51.6993575  50.6845229 101.4815340
  51.5538156  50.9985532 102.3739622  51.2218779  51.3030129 100.9286239
  53.5589958  47.6747777 101.5296230  53.5451527  46.7788870 101.1928528
  54.2762386  47.6818441 102.1634516  55.4116089  48.1085117 103.5749357
  55.1533867  49.0302188 103.5733688  54.8801129  47.7115552 104.2649821
  60.3562278  61.2135904  96.3539443  60.5299155  60.6482327  95.6013295
  60.8491169  62.0136799  96.1718933  52.9626854  46.5562157  96.7983800
  53.0842765  45.6278803  96.9974687  52.6728897  46.5700843  95.8862115
  55.8318045  44.2417068  99.9350520  55.8539741  44.3056401  98.9802499
  56.2486104  43.4021576 100.1291026  66.2101669  53.9772327  97.9729742
  66.6532815  53.2279653  97.5748866  65.3328179  53.9682464  97.5903474
  61.3437450  60.5302669  93.4536341  62.0388355  61.1509361  93.6723656
  61.6860600  59.6798020  93.7288719  46.9605259  52.3520470 107.3133158
  46.2186995  52.5003105 107.8997789  46.6398004  52.6128735 106.4499908
  63.2428873  57.9802374  94.9823672  63.7680197  58.3189647  94.2572992
  63.1551226  57.0449390  94.7986806  54.9048922  61.8936448 107.1113548
  55.2136048  61.6485595 107.9836248  55.7024404  62.0983086 106.6232419
  54.9269534  64.0474358  99.3418925  54.4874524  63.5550736 100.0351782
  55.6777651  63.5047325  99.1011000  52.4467934  48.0694155 111.0073733
  52.4956089  48.9456277 110.6251502  52.9890448  47.5271548 110.4345376
  62.9322779  58.6135278 110.2874870  62.1418323  58.5959417 109.7479369
  62.6956134  59.1523572 111.0423906  63.0520654  55.4627744 107.6007598
  63.1018659  55.2977752 108.5423121  62.9434578  54.5955003 107.2105479
  51.9356913  58.1416290  94.8899687  52.0845034  58.8251754  94.2366360
  52.7423357  58.1221380  95.4049143  60.3424417  51.4458672 108.9166905
  61.2434280  51.3065137 108.6250903  60.4172391  51.6113127 109.8565082
  54.6767222  48.8225527 107.7620091  53.8070532  49.1159093 107.4902680
  54.9126703  49.4065972 108.4827355  64.5538851  57.8824686 107.8449620
  64.2623660  58.2454666 108.6813081  63.9410983  57.1691694 107.6662952
  65.7534534  55.4477566 100.3652190  66.5881425  55.8867370 100.5289750
  65.8893662  54.9716219  99.5460436  62.8026040  53.0057300 106.3129678
  63.2780161  53.1984947 105.5048529  61.8791605  53.0616486 106.0673061
  57.3806256  45.0405144 105.2785512  57.8988200  45.7766171 104.9532000
  57.0261389  45.3469137 106.1132271  48.9605194  49.9009825  93.3946917
  48.2674439  49.9754180  92.7386953  48.7156946  49.1370169  93.9168434
  57.6318850  41.4605427 100.7986408  57.9120604  40.7928616 101.4246835
  58.4169457  41.6534522 100.2861072  55.4352319  60.6364420  92.3611434
  54.8626286  61.2554608  91.9081906  56.0085112  61.1863782  92.8951356
  61.5027709  49.8823061 104.5457983  62.4545131  49.9821158 104.5670207
  61.3331159  49.0901329 105.0556068  59.5242088  46.9678644 104.7317384
  58.9292020  47.2483656 104.0363873  59.2391785  47.4572545 105.5034125
  58.6549578  60.9201571  93.4920017  59.5880252  60.8547132  93.6952892
  58.5672791  61.7557837  93.0334549  61.2837595  60.2367441  90.4523964
  61.2051227  59.9027305  91.3459722  62.1047262  60.7289209  90.4515437
  63.9815786  53.1029180 103.6600283  63.9492106  52.1645181 103.8459967
  64.5916410  53.1813217 102.9266108  55.8199117  51.9725233  89.7027487
  56.7658222  51.8431441  89.7715905  55.4413362  51.2339895  90.1796915
  64.1310275  49.8940224 103.7058566  63.6149323  49.1098680 103.5188495
  65.0150223  49.5658940 103.8705086  61.7921002  43.6381239  99.6654379
  61.5945823  43.3296327 100.5497711  62.4020707  44.3642878  99.7952309
  69.7992336  54.1645187 102.8006320  70.5295725  53.9030475 103.3614023
  69.1899282  53.4273909 102.8408388  67.8807633  52.3053050 103.3980771
  67.1540797  52.1709015 102.7897263  67.4654920  52.6129878 104.2037489
  55.7037810  56.0242979 111.1628144  56.6240819  56.2021578 111.3568190
  55.6687393  55.0799025 111.0107843  54.0042034  49.8975210  89.6382372
  53.0973490  49.6008322  89.7145086  54.2818015  49.6005028  88.7716658
  55.6204100  44.4412099  95.7926614  54.8104828  44.0959184  96.1681860
  56.3088517  44.1319643  96.3814225  57.5494648  43.5190146  97.4150910
  58.1025687  43.9385600  98.0740933  57.7864735  42.5925894  97.4573866
  53.5727748  49.5077220 113.1953674  53.4724474  50.4571577 113.1265765
  53.3549290  49.1795459 112.3229744  52.7740819  46.7562145  89.7794351
  53.6359983  47.0817043  90.0390169  52.9591163  45.9693641  89.2667417
  60.9273455  45.6290671  96.9229574  60.3472124  46.2875475  96.5407627
  60.6609388  44.8068016  96.5116992  59.3777022  45.0295729  99.1250895
  59.8776800  45.1412264  98.3165214  60.0212630  44.7256782  99.7651703
  53.4359018  52.9374359 112.0118736  52.9526099  53.7374719 112.2182625
  53.5219957  52.9482303 111.0586180  49.3632355  56.8278893 104.0487169
  50.3175609  56.7962836 103.9817101  49.1644879  56.3669517 104.8637395
  49.9531737  55.3980009 106.6157967  50.7724626  55.8924088 106.6392804
  50.2268545  54.4811977 106.5875535  59.7098333  47.7890762  95.9785923
  58.8224188  48.0740412  95.7606117  60.1252323  47.6284525  95.1313200
  63.0612870  47.8137283  99.6940262  63.8373260  48.3033735  99.9664879
  62.3361004  48.2395337 100.1512131  65.4985428  48.5264902 100.7514203
  66.0929919  48.2860638 100.0407511  65.5712012  47.8072032 101.3787739
  58.8541547  57.5535436  90.0733943  59.5577397  57.7585439  90.6891598
  58.1304196  58.1212198  90.3383026  59.6839357  53.3045298  96.1936213
  59.6274559  53.7613849  95.3543845  60.2367700  52.5435982  96.0159056
  63.4944163  49.0935029  97.0186332  63.2381097  48.6931665  97.8494540
  62.8697031  49.8078823  96.8936471  67.8056501  51.8331103  99.5257624
  67.2456059  51.9024292 100.2989186  67.2000004  51.6572087  98.8057120
  60.7628244  57.9917966  92.1232403  61.5973848  57.5599164  91.9409878
  60.6012587  57.8199979  93.0509297  60.4174136  54.4950079  93.4888742
  60.3622940  54.3294350  92.5477186  59.7920192  55.2026112  93.6450932
  45.2066651  49.7318143 107.3150164  45.8525515  49.2217097 107.8037389
  44.9983803  50.4686825 107.8893589  57.7320044  56.7998991 112.8142305
  58.6011203  56.9739643 112.4528940  57.2526795  57.6193408 112.6918034
  53.7270262  43.9958188  93.0674060  53.7148932  44.9400028  93.2242331
  54.6193684  43.8128333  92.7733522  57.5422381  40.5900964  97.3219997
  56.7754777  40.0359451  97.4676680  57.9533086  40.6622833  98.1834149
  49.5464142  46.8785760 111.4125178  50.4095604  46.5222565 111.6228503
  48.9729553  46.5399655 112.1000583  69.3912519  68.5087617 102.2187579
  70.0290929  68.3894364 101.5150920  69.2733362  69.4568461 102.2775532
  66.2002226  68.4615045 102.1549104  65.8620737  68.3456109 101.2669639
  67.0691994  68.0606210 102.1350110  62.0589041  70.3150521  98.1445995
  61.4953907  70.2240458  97.3762283  61.9441436  69.4950426  98.6248488
  66.6822009  69.6149896 108.1135310  66.6710649  69.2202695 107.2415813
  66.8442648  68.8815969 108.7069081  59.6053473  71.8101713 100.9830216
  60.3974765  71.4692537 100.5676515  59.8450123  71.9196688 101.9032369
  67.6388600  73.9821489  93.4560460  66.9876580  74.5675569  93.0694474
  68.4332963  74.5127684  93.5155497  61.5644227  71.0710626  93.8547594
  62.3375103  70.5239613  93.7160470  61.9169626  71.9354875  94.0662056
  63.4029270  72.3987008 107.0614494  63.1119136  73.3032639 106.9461160
  64.0386254  72.4403536 107.7758563  64.3285477  69.7763857 103.6515853
  64.9249049  69.5519879 102.9372816  64.3860448  69.0348602 104.2541301
  63.9010505  67.2303292  91.4866044  64.1536026  66.7084813  90.7249507
  62.9635064  67.0669438  91.5892728  68.9453788  66.2339070  99.2940787
  69.7316877  65.8158494  98.9431205  69.2092492  67.1385163  99.4622436
  69.1163865  71.6711921  93.9929444  68.4809698  71.7446547  94.7050349
  68.7861272  72.2605520  93.3148524  74.3462215  66.1714304 100.1973766
  75.0787387  65.6013520 100.4311595  73.5901571  65.7835904 100.6380272
  63.6206794  69.1331398  93.6890419  63.5043052  68.4576301  94.3571504
  63.7309054  68.6463772  92.8722572  65.9638335  68.5941545  97.3937108
  65.5996542  68.0672166  98.1050030  66.8205451  68.2040014  97.2203594
  71.8687635  59.8835878 104.6568375  71.5370960  60.7531289 104.4329590
  71.2733249  59.5672162 105.3362405  65.6043822  63.6231445  92.3898457
  65.7718224  64.4911681  92.7568928  65.4140991  63.7858727  91.4659746
  68.3619155  72.0848424 104.0564287  68.0619878  72.9873463 103.9480095
  68.0170214  71.8180607 104.9085440  61.8131636  68.5362221 100.0900992
  60.8882133  68.4038435 100.2978684  62.0616050  69.3156440 100.5870934
  71.7616299  64.6030964 101.7361725  70.8533176  64.5346372 101.4420486
  71.7103894  65.0802909 102.5643550  65.5833043  66.0789102  93.3745124
  65.4632668  66.5246153  94.2130604  64.8885631  66.4274420  92.8158662
  59.1740447  68.1795494 100.9244781  59.3032829  68.4329973 101.8384193
  58.4937899  68.7723202 100.6049436  63.3439935  78.8492744  97.0235255
  63.2663964  79.8000569  97.1023736  62.7401578  78.5038617  97.6810181
  65.8357164  66.0220610 109.6796622  65.0590499  66.5814530 109.6699487
  66.4747728  66.5077393 110.2011492  73.6277945  62.8047402 103.5139599
  72.9852325  63.0979936 102.8679393  73.1232874  62.6900323 104.3192795
  71.2818109  66.5510576  94.2025458  72.1935965  66.7837962  94.0273155
  70.7727756  67.1347620  93.6400536  64.0903537  68.8306063 109.2414589
  64.8318221  69.3691107 108.9649413  63.3840522  69.4572352 109.3986141
  69.5658876  70.9735203 107.8386750  69.9742232  70.5317614 107.0941383
  68.8436138  70.3987831 108.0920943  65.9189946  65.9107810 105.2120307
  66.7651142  66.3347224 105.3554956  65.8588584  65.2541434 105.9058870
  69.8887691  71.5336394 101.5939039  69.2596553  71.6982108 100.8915107
  69.5013353  71.9478004 102.3650003  73.7676923  72.4690832  98.9483403
  73.0827961  72.8489733  98.3980436  73.8520772  73.0786159  99.6815351
  69.0689392  63.5712179 106.8701481  68.8250324  64.3254239 106.3335757
  69.3449322  63.9497526 107.7048728  71.0227855  70.1150791 105.5478747
  71.2344750  70.7582551 104.8713128  70.9757603  69.2813107 105.0800677
  68.6254084  62.7268612 102.4515319  67.7638563  63.0249865 102.7432056
  68.6516518  62.9439010 101.5196351  65.4415653  71.2710802  98.8589124
  65.9053998  71.5498505  98.0693747  65.1772451  70.3694247  98.6762215
  62.3339734  70.8182284 101.7968888  62.9041091  71.2469552 101.1586372
  62.9247846  70.5364868 102.4953073  64.3784539  67.3933954  95.6678690
  65.0808582  67.8454998  96.1352616  64.0465167  66.7517773  96.2958583
  62.8264901  65.9845711 110.0429899  62.1963561  66.6661992 110.2765296
  62.7200988  65.8728793 109.0983037  58.1209873  65.6517507 100.9695823
  57.3308927  65.9075036 100.4935934  58.6121120  66.4665845 101.0747864
  72.1373683  72.9922746 103.7201104  72.9591126  72.5902934 103.4383786
  72.1336085  72.8890980 104.6717220  60.0724618  66.0162086  97.9279300
  59.2755782  66.1280781  98.4462795  59.8450211  66.3548739  97.0620190
  65.9030286  72.5406790 105.8761814  65.9674718  73.0027197 106.7119986
  65.1941210  71.9104155 106.0044124  56.4047576  65.9047998 103.4010814
  56.6555614  66.7895007 103.6668390  56.9407124  65.7252599 102.6285906
  80.2279676  69.3361495 100.0686075  79.4743384  68.7668893  99.9130080
  80.3627217  69.3024159 101.0156710  65.6178304  74.2074897  95.7440795
  65.4823978  75.0526433  96.1725643  66.1588116  74.4094175  94.9806729
  62.1045643  60.2866477 112.4055150  61.7112589  59.7332675 113.0802794
  62.9211784  60.5977055 112.7961668  59.0707701  71.7250335  96.3168720
  59.5832222  72.5193585  96.4674285  59.7230414  71.0276626  96.2502321
  60.8802586  74.8416091  98.3991473  61.0569214  75.7634056  98.2112457
  61.6759419  74.5274511  98.8285853  65.0213604  61.7024356 109.9975407
  65.7623318  62.3031509 109.9179869  65.2531527  60.9601994 109.4393449
  60.1654942  66.8880723 108.2753636  60.0508457  65.9865981 108.5760735
  59.3099460  67.1344420 107.9238453  67.2446780  74.8298464 109.8741137
  66.8010634  74.0434842 109.5562041  67.9063994  75.0177614 109.2085028
  62.0033901  76.3594265 104.4001815  62.5541326  76.2311329 103.6278809
  61.1645377  76.6589154 104.0496708  69.3428018  75.1101264 107.9022538
  69.3246493  75.9310145 107.4102807  70.2647938  74.9855339 108.1272679
  65.8001072  72.6245393 108.7446046  66.3329409  71.8633681 108.5145354
  65.2715153  72.3319045 109.4870201  68.9670767  57.7305459 104.2739688
  68.6235037  58.6207101 104.1978799  69.3349730  57.5407117 103.4109273
  57.0356618  70.0538989  97.0928290  57.8731840  70.4635998  96.8761998
  57.2134885  69.1138432  97.0628484  68.9321050  67.7214070  92.7812123
  68.4167673  68.4918675  93.0200511  68.6598358  67.0479206  93.4045185
  66.5168161  62.5663771  97.8397362  65.6609757  62.1770621  97.6603000
  66.9295113  62.6455732  96.9797147  68.0467308  60.1010114 102.2388921
  67.5432103  60.0640249 101.4256727  68.3397914  61.0102857 102.2985578
  64.2910193  60.1848844 101.2455103  65.1563190  59.9891653 100.8860993
  64.3587702  59.9559196 102.1724460  73.9055324  70.4746425  94.7165297
  73.1284767  70.1357584  94.2720459  74.5846805  70.4799048  94.0420262
  68.7207353  65.5941162  94.6071905  68.4157489  65.9087311  95.4582048
  69.6737795  65.6722582  94.6499238  67.1653785  71.7531385  96.2564858
  66.6375146  71.0184145  95.9438096  66.6641288  72.5306062  96.0104827
  72.1446631  69.9480406 101.3731905  71.4870305  70.6379667 101.4612033
  72.9487030  70.3376838 101.7165891  61.8972513  62.4151052  98.6171470
  62.4716264  62.1926233  97.8844663  62.4843495  62.4839746  99.3700071
  70.9552090  68.3024779  99.4235847  71.4683971  68.9354771  99.9257556
  71.6053314  67.7025974  99.0579207  62.2242100  64.4455513  92.6367355
  61.3879412  64.7830199  92.9576630  62.0846869  64.3104493  91.6994492
  64.1995180  59.2892301  97.3446539  63.5459593  58.9741318  96.7203154
  64.1575654  58.6668041  98.0706362  65.3106385  69.5711596  89.2599832
  64.4033447  69.3400849  89.4590981  65.8077417  68.7749215  89.4473813
  68.2174464  78.2809103  92.1796518  67.5436163  78.5840800  92.7881476
  68.6040286  79.0838183  91.8301975  67.4332921  65.7774234 101.6694187
  66.5155482  65.9989181 101.5115875  67.8493064  65.8520545 100.8105894
  68.2167968  67.1765650  96.7996867  68.9639787  67.6887047  96.4903989
  68.4859558  66.8549703  97.6601261  66.4894619  69.6724191  93.7823822
  65.5805838  69.3883223  93.8796291  66.5189702  70.0923269  92.9227128
  71.7213886  73.2830780  97.5514989  71.2676213  72.4421690  97.6080180
  71.0907853  73.9192178  97.8889769  70.6646806  64.2122766  98.7815657
  69.9269562  63.7000152  99.1125899  70.9173579  63.7723148  97.9698934
  70.1646825  75.1207277  98.4864807  70.4569800  75.6812334  97.7677173
  70.6745446  75.4135838  99.2417966  70.7658433  56.9899018  99.3757426
  71.0717310  56.1296382  99.0883341  71.4911038  57.5816638  99.1756420
  57.0582789  67.3929705  97.7639024  56.8607189  66.7999065  97.0390090
  56.5029453  67.0881915  98.4814963  65.0379513  67.2852811  99.8833617
  65.0928122  66.3326648  99.8076094  64.2270715  67.4412250 100.3674915
  66.1870706  71.2132934  91.1211900  65.7490136  70.4968793  90.6617538
  66.9281147  71.4409049  90.5596992  62.9771872  65.9029871  97.6423996
  62.1639738  66.2024042  98.0489188  63.4730867  65.5085560  98.3598478
  65.1280450  75.8987628  99.5758261  65.0856629  76.1248474  98.6466793
  66.0443149  75.6651002  99.7244062  68.5746084  66.3671695 106.4738890
  68.9295472  66.5943169 107.3333355  69.2218215  66.6990072 105.8516145
  74.3043821  69.4890131  97.1788219  74.1661720  69.6791727  96.2509408
  73.9480040  70.2509514  97.6356270  62.4685947  63.4748226 103.2585231
  63.1085327  63.3336986 102.5608194  61.6363478  63.1882740 102.8823833
  74.3313201  71.5566658 102.1899490  74.7649707  71.4641947 103.0382544
  75.0444781  71.5324159 101.5519506  63.2446251  72.7750657  99.3720223
  64.0386850  72.2800977  99.1702798  62.5337944  72.2468520  99.0087929
  68.0641096  75.1568752 103.7232591  68.1178118  75.7259689 104.4910307
  67.1955877  75.3270637 103.3586628  59.5529015  66.9193739  95.4479976
  58.6226603  66.8578194  95.6649938  59.6486487  66.3969691  94.6516617
  59.4714564  63.4448551  98.0358218  59.7321381  64.3593885  97.9267378
  60.2931736  62.9772994  98.1854830  60.9439489  64.8586309 105.2057042
  61.6162542  64.6503671 104.5569691  60.1169276  64.6608395 104.7662274
  75.1928750  71.5990359 104.7232376  75.3864640  72.5036169 104.9691651
  75.0929368  71.1397778 105.5570961  66.8465061  61.4848250 107.2222703
  66.1992976  62.1838199 107.1287179  67.6166076  61.9184393 107.5898951
  70.2543859  71.7497102 110.2973256  70.1029365  71.5207653 109.3803340
  70.2448538  72.7067703 110.3104601  67.0229195  69.3229014 105.2819523
  67.9521255  69.4740174 105.1088490  66.6020225  69.4113035 104.4268169
  65.8217527  73.3479679 103.0518060  65.6828613  72.9798463 103.9243998
  65.0332123  73.8627318 102.8802018  66.4165679  78.4488775  94.3943597
  66.5917435  77.9776819  95.2089220  65.7298467  79.0754542  94.6224858
  67.3722742  72.7261282 100.4406898  67.0372575  72.6862052 101.3364548
  66.8726688  72.0605998  99.9677308  61.3466986  68.1328912 105.9659479
  61.2086784  67.4009150 106.5671018  62.2571910  68.0437812 105.6843667
  70.3081934  70.0717316  90.7143958  69.6911105  69.3464144  90.6177010
  69.8398422  70.8326676  90.3711032  63.9749287  67.8448871 105.4543159
  64.6848905  67.2042063 105.4129777  63.9318595  68.0961766 106.3769340
  71.9636066  74.7816224 108.3749738  71.9048612  74.0975444 107.7080321
  72.3655584  75.5235214 107.9230364  62.6878221  64.8314089 107.2738798
  62.1515578  64.3804827 107.9260395  62.0994929  64.9659998 106.5309263
  60.9826764  81.5978138 101.1683457  61.2223363  82.2296662 101.8462476
  60.1395961  81.2466178 101.4548816  62.0980480  64.2902740  89.8365262
  61.2209946  64.1691541  89.4727509  62.5738233  63.4988819  89.5844151
  71.9653473  72.7455808 106.6063718  71.0780252  72.4081730 106.7290117
  72.5352024  72.0138839 106.8432483  53.6182620  69.0779900  99.9306769
  54.3053660  68.7641630  99.3427785  53.4630749  69.9821265  99.6574021
  58.4217342  63.9670097 104.3591793  58.3375531  63.3595766 103.6242203
  57.6000049  64.4579115 104.3601289  65.4954626  77.4057261 103.5724961
  65.4224798  78.2112232 104.0844266  65.0532019  77.6049226 102.7472982
  65.2844406  76.6429031  97.0827783  64.5011928  77.1850711  97.1766007
  65.9837151  77.1603010  97.4822024  68.5941056  62.4523660  99.7261988
  69.0909756  61.6993622  99.4063058  67.8228038  62.4887977  99.1605197
  76.4470813  68.1564026 101.3680279  76.4360690  69.0388741 100.9974213
  75.5788193  67.8035576 101.1734817  67.9553310  77.3044095 105.7283120
  68.6681282  77.9391559 105.6559021  67.4643338  77.4007961 104.9123122
  69.6770837  71.2095347  97.3000411  68.7427115  71.3296810  97.1305116
  69.8547505  70.3067814  97.0360421  65.1776025  64.5941043  99.4533673
  64.8073812  64.0412083 100.1414578  65.6735117  63.9899177  98.9008673
  73.0643388  67.0512667  97.8350446  73.5303840  67.8840658  97.7610748
  73.5150889  66.5857648  98.5395704  63.0065223  75.0538538 106.5488691
  63.7074683  75.6875021 106.7018085  62.5360338  75.3953270 105.7884330
  71.1319619  73.3956488  94.8336598  71.4079463  73.2813082  95.7430472
  70.2624118  72.9973973  94.7948771  71.0360051  59.4193254 101.8741347
  70.1223131  59.6497480 102.0423554  71.4653152  59.5031698 102.7255379
  70.8066509  67.6083146 104.3741241  70.1537960  67.8559053 103.7193694
  71.1846889  66.7947284 104.0403718  67.7673683  77.6442839  98.4769411
  67.9496078  76.8264495  98.9397163  68.5906669  77.8610531  98.0394301
  68.1015849  76.5711024  95.7384460  68.6303615  76.0603478  95.1254622
  68.3644068  76.2553554  96.6029993  66.8554082  68.3502957 110.8607278
  66.1794719  68.2497086 111.5309653  67.6781716  68.1942170 111.3243275
  58.6032941  74.5874893 103.4819793  59.1886378  73.8418581 103.6147697
  58.4057780  74.8978850 104.3656457  61.4571597  77.6226141  98.4982236
  60.7881972  78.1072268  98.0146276  61.3184466  77.8695361  99.4125614
  53.1950596  67.1580493 102.2024236  53.2334696  66.6244084 102.9961354
  52.6890889  66.6315699 101.5835214  65.5976865  79.6569884 105.0964894
  66.1495173  79.8201506 105.8613979  65.9383059  80.2474322 104.4244919
  60.5741358  62.0045034 105.6986779  60.6382685  62.8659865 105.2864176
  60.5108479  61.3919035 104.9659137  60.0493631  64.0768166 109.3459813
  60.6765670  63.6945244 109.9597337  59.1921550  63.8582368 109.7115505
  70.4487740  74.4831142 110.9513548  70.9927643  75.0961100 110.4568503
  69.8674584  75.0410720 111.4680561  56.8259174  65.8844595  95.2778168
  57.1212615  64.9755274  95.2245221  55.9247209  65.8632335  94.9559170
  68.7345252  77.6051860 102.0828576  68.6096392  76.8041599 101.5739522
  69.3924344  78.0998053 101.5942546  60.3553421  63.9600592 101.2605716
  59.6340006  64.5736560 101.1213190  61.1446676  64.4958357 101.1822362
  70.7980161  75.4060880 103.7108126  69.8510496  75.2866231 103.6386453
  71.1462934  74.5183378 103.7934388  63.1579734  61.2955019 107.5346368
  63.6814136  61.5417315 108.2972677  62.9392067  62.1275053 107.1149505
  58.5547015  63.5658693  95.4017493  58.2259721  62.6856072  95.2192599
  58.9086386  63.5106362  96.2893882  67.8026594  75.2013596  99.9112478
  67.6551557  74.2730303 100.0920048  68.6280088  75.2233687  99.4269554
  61.6688838  63.8531663  95.7692971  62.0084911  64.3817584  95.0471579
  62.1160959  64.1912069  96.5451537  71.4060716  76.0242155 100.9977351
  72.3307263  75.8185016 100.8601802  71.2376019  75.7758556 101.9066693
  64.3632279  62.2368714 105.2196039  64.0229100  61.4376527 105.6216718
  63.6571286  62.5370425 104.6472872  65.0148751  59.3218026 103.6723362
  65.8374820  58.8478504 103.5502252  65.2586815  60.1008510 104.1722048
  63.6556986  62.3506285  93.9686263  64.3765348  62.7287537  93.4649980
  63.0322290  63.0695161  94.0721241  67.7988108  63.0551434  94.9044596
  68.0151723  63.9376071  94.6033424  67.3182176  62.6637647  94.1750238
  62.5387330  66.0137147 101.4815340  62.3931911  66.3277450 102.3739622
  62.0612533  66.6322047 100.9286239  64.3983713  63.0039695 101.5296230
  64.3845281  62.1080788 101.1928528  65.1156141  63.0110358 102.1634516
  66.2509843  63.4377035 103.5749357  65.9927621  64.3594106 103.5733688
  65.7194884  63.0407469 104.2649821  71.1956032  76.5427822  96.3539443
  71.3692910  75.9774245  95.6013295  71.6884923  77.3428717  96.1718933
  57.0132992  68.5542491 104.4203001  56.4686460  69.3302299 104.5523276
  57.8912342  68.9013296 104.2622123  63.8020609  61.8854075  96.7983800
  63.9236520  60.9570721  96.9974687  63.5122651  61.8992761  95.8862115
  66.6711799  59.5708985  99.9350520  66.6933496  59.6348319  98.9802499
  67.0879858  58.7313494 100.1291026  77.0495423  69.3064245  97.9729742
  77.4926569  68.5571570  97.5748866  76.1721934  69.2974381  97.5903474
  72.1831205  75.8594586  93.4536341  72.8782109  76.4801279  93.6723656
  72.5254355  75.0089938  93.7288719  57.7999014  67.6812387 107.3133158
  57.0580750  67.8295023 107.8997789  57.4791758  67.9420653 106.4499908
  74.0822628  73.3094292  94.9823672  74.6073952  73.6481565  94.2572992
  73.9944980  72.3741307  94.7986806  65.7442677  77.2228366 107.1113548
  66.0529803  76.9777512 107.9836248  66.5418159  77.4275004 106.6232419
  65.7663289  79.3766275  99.3418925  65.3268279  78.8842654 100.0351782
  66.5171406  78.8339243  99.1011000  58.2455628  75.5677816  99.3443553
  59.0713647  75.2681588  98.9642196  57.8949680  74.7985439  99.7933342
  63.2137161  74.9204284 101.4141227  62.5917170  74.2574989 101.1143454
  63.8842028  74.9465416 100.7314874  56.4464233  73.4864143 100.3032487
  55.6096141  73.0586317 100.1216488  56.4187878  73.6796586 101.2403278
  63.2861688  63.3986072 111.0073733  63.3349844  64.2748195 110.6251502
  63.8284202  62.8563465 110.4345376  73.7716534  73.9427196 110.2874870
  72.9812078  73.9251334 109.7479369  73.5349888  74.4815489 111.0423906
  73.8914409  70.7919662 107.6007598  73.9412414  70.6269669 108.5423121
  73.7828332  69.9246921 107.2105479  62.7750668  73.4708208  94.8899687
  62.9238788  74.1543672  94.2366360  63.5817111  73.4513298  95.4049143
  71.1818171  66.7750590 108.9166905  72.0828034  66.6357055 108.6250903
  71.2566146  66.9405045 109.8565082  65.5160977  64.1517445 107.7620091
  64.6464286  64.4451011 107.4902680  65.7520457  64.7357890 108.4827355
  75.3932606  73.2116604 107.8449620  75.1017414  73.5746584 108.6813081
  74.7804737  72.4983612 107.6662952  76.5928288  70.7769483 100.3652190
  77.4275179  71.2159287 100.5289750  76.7287417  70.3008136  99.5460436
  73.6419794  68.3349218 106.3129678  74.1173916  68.5276864 105.5048529
  72.7185359  68.3908404 106.0673061  60.5303301  69.4973385  95.8960756
  60.2849343  68.5935715  96.0940966  60.6999215  69.4990536  94.9540234
  68.2200010  60.3697062 105.2785512  68.7381954  61.1058089 104.9532000
  67.8655143  60.6761055 106.1132271  59.7998948  65.2301743  93.3946917
  59.1068193  65.3046098  92.7386953  59.5550700  64.4662087  93.9168434
  68.4712605  56.7897344 100.7986408  68.7514358  56.1220533 101.4246835
  69.2563212  56.9826440 100.2861072  66.2746073  75.9656338  92.3611434
  65.7020040  76.5846525  91.9081906  66.8478867  76.5155700  92.8951356
  72.3421463  65.2114978 104.5457983  73.2938886  65.3113076 104.5670207
  72.1724913  64.4193247 105.0556068  70.3635842  62.2970561 104.7317384
  69.7685775  62.5775574 104.0363873  70.0785539  62.7864462 105.5034125
  69.4943333  76.2493488  93.4920017  70.4274006  76.1839050  93.6952892
  69.4066546  77.0849755  93.0334549  72.1231350  75.5659359  90.4523964
  72.0444981  75.2319222  91.3459722  72.9441016  76.0581127  90.4515437
  74.8209541  68.4321098 103.6600283  74.7885861  67.4937099 103.8459967
  75.4310164  68.5105135 102.9266108  66.6592872  67.3017151  89.7027487
  67.6051976  67.1723359  89.7715905  66.2807117  66.5631813  90.1796915
  74.9704029  65.2232141 103.7058566  74.4543078  64.4390598 103.5188495
  75.8543978  64.8950858 103.8705086  72.6314756  58.9673157  99.6654379
  72.4339577  58.6588245 100.5497711  73.2414462  59.6934796  99.7952309
  80.6386091  69.4937105 102.8006320  81.3689479  69.2322393 103.3614023
  80.0293036  68.7565827 102.8408388  78.7201388  67.6344967 103.3980771
  77.9934551  67.5000932 102.7897263  78.3048675  67.9421796 104.2037489
  66.5431564  71.3534897 111.1628144  67.4634574  71.5313496 111.3568190
  66.5081147  70.4090942 111.0107843  64.8435789  65.2267127  89.6382372
  63.9367244  64.9300240  89.7145086  65.1211770  64.9296945  88.7716658
  55.7613729  66.5473491 100.0881419  55.4416514  65.6938799  99.7955793
  55.2147157  66.7622069 100.8439386  59.5393637  69.2635932 103.8050925
  59.7579647  70.1953039 103.8238959  59.9519411  68.9043906 104.5905729
  66.4597855  59.7704017  95.7926614  65.6498583  59.4251102  96.1681860
  67.1482271  59.4611561  96.3814225  68.3888403  58.8482064  97.4150910
  68.9419441  59.2677517  98.0740933  68.6258489  57.9217812  97.4573866
  64.4121502  64.8369137 113.1953674  64.3118229  65.7863494 113.1265765
  64.1943044  64.5087376 112.3229744  63.6134573  62.0854062  89.7794351
  64.4753737  62.4108961  90.0390169  63.7984918  61.2985558  89.2667417
  55.6301989  70.1676402 102.0574540  54.9365461  69.7530355 101.5444495
  56.3774980  70.2096939 101.4607959  71.7667210  60.9582589  96.9229574
  71.1865879  61.6167393  96.5407627  71.5003143  60.1359934  96.5116992
  70.2170776  60.3587647  99.1250895  70.7170555  60.4704181  98.3165214
  70.8606384  60.0548700  99.7651703  64.2752772  68.2666276 112.0118736
  63.7919854  69.0666636 112.2182625  64.3613711  68.2774221 111.0586180
  57.5438732  70.0994656  99.9340555  57.5209420  70.1982343  98.9822438
  57.8539368  70.9459807 100.2557721  60.2026110  72.1570811 104.0487169
  61.1569363  72.1254753 103.9817101  60.0038633  71.6961435 104.8637395
  60.7925492  70.7271927 106.6157967  61.6118381  71.2216006 106.6392804
  61.0662299  69.8103895 106.5875535  70.5492088  63.1182679  95.9785923
  69.6617943  63.4032330  95.7606117  70.9646077  62.9576443  95.1313200
  73.9006624  63.1429200  99.6940262  74.6767014  63.6325653  99.9664879
  73.1754758  63.5687255 100.1512131  76.3379183  63.8556820 100.7514203
  76.9323673  63.6152555 100.0407511  76.4105766  63.1363950 101.3787739
  58.5576338  77.6990430 101.0657367  58.4230806  76.9390831 100.4995365
  58.1408401  78.4231330 100.5986156  69.6935301  72.8827354  90.0733943
  70.3971152  73.0877357  90.6891598  68.9697950  73.4504116  90.3383026
  70.5233112  68.6337215  96.1936213  70.4668313  69.0905767  95.3543845
  71.0761454  67.8727900  96.0159056  74.3337918  64.4226947  97.0186332
  74.0774852  64.0223583  97.8494540  73.7090786  65.1370741  96.8936471
  78.6450255  67.1623020  99.5257624  78.0849813  67.2316210 100.2989186
  78.0393759  66.9864005  98.8057120  61.7145464  78.5959747 101.2775810
  61.5977848  79.5405180 101.1754500  60.8937911  78.2933309 101.6661609
  71.6021999  73.3209883  92.1232403  72.4367603  72.8891082  91.9409878
  71.4406342  73.1491897  93.0509297  71.2567891  69.8241997  93.4888742
  71.2016695  69.6586268  92.5477186  70.6313946  70.5318029  93.6450932
  56.0460406  65.0610061 107.3150164  56.6919270  64.5509015 107.8037389
  55.8377557  65.7978743 107.8893589  68.5713798  72.1290908 112.8142305
  69.4404958  72.3031561 112.4528940  68.0920550  72.9485325 112.6918034
  64.5664016  59.3250106  93.0674060  64.5542686  60.2691945  93.2242331
  65.4587438  59.1420251  92.7733522  62.7399978  79.2488009 104.4931738
  63.6427225  79.2811620 104.8098233  62.5137348  78.3188460 104.5078074
  64.4953580  78.0018996 101.1541817  63.5449211  78.0020858 101.0406189
  64.7986067  77.2551730 100.6377852  68.3816136  55.9192882  97.3219997
  67.6148532  55.3651369  97.4676680  68.7926841  55.9914751  98.1834149
  60.3857897  62.2077678 111.4125178  61.2489359  61.8514483 111.6228503
  59.8123308  61.8691573 112.1000583  80.2306274  83.8379534 102.2187579
  80.8684684  83.7186282 101.5150920  80.1127117  84.7860378 102.2775532
  77.0395980  83.7906962 102.1549104  76.7014492  83.6748027 101.2669639
  77.9085748  83.3898128 102.1350110  72.8982796  85.6442439  98.1445995
  72.3347661  85.5532376  97.3762283  72.7835191  84.8242343  98.6248488
  77.5215763  84.9441814 108.1135310  77.5104404  84.5494612 107.2415813
  77.6836403  84.2107887 108.7069081  70.4447228  87.1393630 100.9830216
  71.2368520  86.7984455 100.5676515  70.6843878  87.2488605 101.9032369
  78.4782355  89.3113407  93.4560460  77.8270334  89.8967487  93.0694474
  79.2726717  89.8419601  93.5155497  72.4037982  86.4002544  93.8547594
  73.1768858  85.8531531  93.7160470  72.7563381  87.2646793  94.0662056
  74.2423024  87.7278926 107.0614494  73.9512890  88.6324557 106.9461160
  74.8780009  87.7695454 107.7758563  75.1679231  85.1055774 103.6515853
  75.7642803  84.8811797 102.9372816  75.2254203  84.3640520 104.2541301
  74.7404260  82.5595210  91.4866044  74.9929780  82.0376731  90.7249507
  73.8028819  82.3961355  91.5892728  79.7847542  81.5630988  99.2940787
  80.5710632  81.1450411  98.9431205  80.0486247  82.4677080  99.4622436
  79.9557620  87.0003838  93.9929444  79.3203453  87.0738465  94.7050349
  79.6255026  87.5897437  93.3148524  85.1855970  81.5006221 100.1973766
  85.9181141  80.9305438 100.4311595  84.4295325  81.1127822 100.6380272
  74.4600548  84.4623316  93.6890419  74.3436806  83.7868219  94.3571504
  74.5702808  83.9755690  92.8722572  76.8032089  83.9233463  97.3937108
  76.4390296  83.3964084  98.1050030  77.6599205  83.5331932  97.2203594
  82.7081390  75.2127795 104.6568375  82.3764715  76.0823206 104.4329590
  82.1127003  74.8964079 105.3362405  76.4437576  78.9523363  92.3898457
  76.6111979  79.8203599  92.7568928  76.2534745  79.1150644  91.4659746
  79.2012909  87.4140341 104.0564287  78.9013632  88.3165380 103.9480095
  78.8563969  87.1472525 104.9085440  72.6525391  83.8654138 100.0900992
  71.7275887  83.7330352 100.2978684  72.9009804  84.6448358 100.5870934
  82.6010053  79.9322882 101.7361725  81.6926931  79.8638290 101.4420486
  82.5497649  80.4094827 102.5643550  76.4226797  81.4081020  93.3745124
  76.3026422  81.8538071  94.2130604  75.7279385  81.7566338  92.8158662
  70.0134202  83.5087412 100.9244781  70.1426583  83.7621891 101.8384193
  69.3331653  84.1015120 100.6049436  74.1833689  94.1784662  97.0235255
  74.1057719  95.1292487  97.1023736  73.5795333  93.8330534  97.6810181
  76.6750919  81.3512527 109.6796622  75.8984253  81.9106447 109.6699487
  77.3141482  81.8369310 110.2011492  84.4671700  78.1339320 103.5139599
  83.8246080  78.4271853 102.8679393  83.9626628  78.0192240 104.3192795
  82.1211863  81.8802493  94.2025458  83.0329719  82.1129880  94.0273155
  81.6121510  82.4639537  93.6400536  74.9297291  84.1597981 109.2414589
  75.6711976  84.6983025 108.9649413  74.2234277  84.7864269 109.3986141
  80.4052631  86.3027121 107.8386750  80.8135987  85.8609532 107.0941383
  79.6829892  85.7279749 108.0920943  76.7583701  81.2399728 105.2120307
  77.6044896  81.6639141 105.3554956  76.6982339  80.5833352 105.9058870
  80.7281446  86.8628312 101.5939039  80.0990308  87.0274026 100.8915107
  80.3407108  87.2769921 102.3650003  84.6070677  87.7982750  98.9483403
  83.9221716  88.1781651  98.3980436  84.6914527  88.4078076  99.6815351
  79.9083146  78.9004096 106.8701481  79.6644078  79.6546157 106.3335757
  80.1843077  79.2789444 107.7048728  81.8621609  85.4442709 105.5478747
  82.0738504  86.0874468 104.8713128  81.8151357  84.6105025 105.0800677
  79.4647838  78.0560529 102.4515319  78.6032317  78.3541783 102.7432056
  79.4910273  78.2730928 101.5196351  76.2809407  86.6002720  98.8589124
  76.7447753  86.8790423  98.0693747  76.0166206  85.6986164  98.6762215
  73.1733488  86.1474201 101.7968888  73.7434846  86.5761470 101.1586372
  73.7641600  85.8656786 102.4953073  75.2178293  82.7225872  95.6678690
  75.9202337  83.1746916  96.1352616  74.8858922  82.0809691  96.2958583
  73.6658655  81.3137629 110.0429899  73.0357316  81.9953910 110.2765296
  73.5594743  81.2020710 109.0983037  68.9603627  80.9809425 100.9695823
  68.1702681  81.2366953 100.4935934  69.4514875  81.7957763 101.0747864
  82.9767437  88.3214664 103.7201104  83.7984881  87.9194851 103.4383786
  82.9729840  88.2182898 104.6717220  70.9118373  81.3454004  97.9279300
  70.1149536  81.4572698  98.4462795  70.6843965  81.6840656  97.0620190
  76.7424040  87.8698707 105.8761814  76.8068473  88.3319115 106.7119986
  76.0334964  87.2396072 106.0044124  67.2441330  81.2339915 103.4010814
  67.4949369  82.1186925 103.6668390  67.7800879  81.0544517 102.6285906
  91.0673430  84.6653412 100.0686075  90.3137138  84.0960811  99.9130080
  91.2020971  84.6316077 101.0156710  76.4572058  89.5366815  95.7440795
  76.3217733  90.3818350  96.1725643  76.9981871  89.7386092  94.9806729
  72.9439398  75.6158395 112.4055150  72.5506343  75.0624593 113.0802794
  73.7605538  75.9268973 112.7961668  69.9101455  87.0542253  96.3168720
  70.4225976  87.8485503  96.4674285  70.5624168  86.3568543  96.2502321
  71.7196340  90.1708009  98.3991473  71.8962969  91.0925974  98.2112457
  72.5153174  89.8566428  98.8285853  75.8607359  77.0316274 109.9975407
  76.6017072  77.6323427 109.9179869  76.0925282  76.2893912 109.4393449
  71.0048697  82.2172641 108.2753636  70.8902212  81.3157898 108.5760735
  70.1493214  82.4636338 107.9238453  78.0840534  90.1590381 109.8741137
  77.6404389  89.3726760 109.5562041  78.7457748  90.3469532 109.2085028
  72.8427656  91.6886183 104.4001815  73.3935081  91.5603246 103.6278809
  72.0039132  91.9881072 104.0496708  80.1821773  90.4393181 107.9022538
  80.1640248  91.2602062 107.4102807  81.1041693  90.3147256 108.1272679
  76.6394827  87.9537311 108.7446046  77.1723163  87.1925599 108.5145354
  76.1108908  87.6610963 109.4870201  79.8064522  73.0597377 104.2739688
  79.4628791  73.9499018 104.1978799  80.1743484  72.8699034 103.4109273
  67.8750372  85.3830907  97.0928290  68.7125594  85.7927915  96.8761998
  68.0528640  84.4430349  97.0628484  79.7714804  83.0505988  92.7812123
  79.2561428  83.8210592  93.0200511  79.4992113  82.3771124  93.4045185
  77.3561915  77.8955689  97.8397362  76.5003512  77.5062539  97.6603000
  77.7688867  77.9747649  96.9797147  78.8861062  75.4302032 102.2388921
  78.3825858  75.3932167 101.4256727  79.1791669  76.3394775 102.2985578
  75.1303948  75.5140762 101.2455103  75.9956945  75.3183570 100.8860993
  75.1981457  75.2851113 102.1724460  84.7449079  85.8038342  94.7165297
  83.9678521  85.4649502  94.2720459  85.4240559  85.8090966  94.0420262
  79.5601108  80.9233080  94.6071905  79.2551243  81.2379229  95.4582048
  80.5131550  81.0014500  94.6499238  78.0047539  87.0823303  96.2564858
  77.4768901  86.3476063  95.9438096  77.5035042  87.8597980  96.0104827
  82.9840385  85.2772324 101.3731905  82.3264060  85.9671585 101.4612033
  83.7880785  85.6668756 101.7165891  72.7366267  77.7442969  98.6171470
  73.3110019  77.5218151  97.8844663  73.3237249  77.8131664  99.3700071
  81.7945844  83.6316696  99.4235847  82.3077726  84.2646688  99.9257556
  82.4447068  83.0317892  99.0579207  73.0635854  79.7747430  92.6367355
  72.2273166  80.1122117  92.9576630  72.9240624  79.6396410  91.6994492
  75.0388935  74.6184218  97.3446539  74.3853347  74.3033236  96.7203154
  74.9969409  73.9959959  98.0706362  76.1500140  84.9003513  89.2599832
  75.2427201  84.6692767  89.4590981  76.6471172  84.1041133  89.4473813
  79.0568218  93.6101021  92.1796518  78.3829917  93.9132717  92.7881476
  79.4434040  94.4130101  91.8301975  78.2726675  81.1066152 101.6694187
  77.3549236  81.3281099 101.5115875  78.6886819  81.1812462 100.8105894
  79.0561723  82.5057568  96.7996867  79.8033542  83.0178965  96.4903989
  79.3253312  82.1841620  97.6601261  77.3288373  85.0016108  93.7823822
  76.4199592  84.7175141  93.8796291  77.3583457  85.4215187  92.9227128
  82.5607640  88.6122698  97.5514989  82.1069968  87.7713608  97.6080180
  81.9301607  89.2484096  97.8889769  81.5040560  79.5414684  98.7815657
  80.7663317  79.0292070  99.1125899  81.7567334  79.1015065  97.9698934
  81.0040580  90.4499194  98.4864807  81.2963554  91.0104252  97.7677173
  81.5139200  90.7427755  99.2417966  81.6052187  72.3190936  99.3757426
  81.9111064  71.4588299  99.0883341  82.3304792  72.9108556  99.1756420
  67.8976543  82.7221622  97.7639024  67.7000943  82.1290983  97.0390090
  67.3423207  82.4173833  98.4814963  75.8773267  82.6144729  99.8833617
  75.9321877  81.6618565  99.8076094  75.0664469  82.7704168 100.3674915
  77.0264461  86.5424852  91.1211900  76.5883891  85.8260711  90.6617538
  77.7674902  86.7700967  90.5596992  73.8165627  81.2321789  97.6423996
  73.0033493  81.5315959  98.0489188  74.3124621  80.8377477  98.3598478
  75.9674205  91.2279546  99.5758261  75.9250384  91.4540392  98.6466793
  76.8836904  90.9942920  99.7244062  79.4139839  81.6963613 106.4738890
  79.7689226  81.9235086 107.3333355  80.0611970  82.0281990 105.8516145
  85.1437576  84.8182049  97.1788219  85.0055474  85.0083645  96.2509408
  84.7873794  85.5801432  97.6356270  73.3079702  78.8040144 103.2585231
  73.9479081  78.6628903 102.5608194  72.4757232  78.5174658 102.8823833
  85.1706955  86.8858576 102.1899490  85.6043462  86.7933865 103.0382544
  85.8838536  86.8616076 101.5519506  74.0840006  88.1042575  99.3720223
  74.8780604  87.6092895  99.1702798  73.3731698  87.5760438  99.0087929
  78.9034850  90.4860670 103.7232591  78.9571872  91.0551606 104.4910307
  78.0349631  90.6562555 103.3586628  70.3922769  82.2485656  95.4479976
  69.4620357  82.1870112  95.6649938  70.4880241  81.7261609  94.6516617
  70.3108318  78.7740469  98.0358218  70.5715135  79.6885802  97.9267378
  71.1325490  78.3064912  98.1854830  71.7833243  80.1878226 105.2057042
  72.4556297  79.9795588 104.5569691  70.9563030  79.9900312 104.7662274
  86.0322505  86.9282277 104.7232376  86.2258395  87.8328087 104.9691651
  85.9323123  86.4689696 105.5570961  77.6858816  76.8140167 107.2222703
  77.0386731  77.5130117 107.1287179  78.4559831  77.2476311 107.5898951
  81.0937613  87.0789019 110.2973256  80.9423120  86.8499571 109.3803340
  81.0842293  88.0359621 110.3104601  77.8622950  84.6520932 105.2819523
  78.7915010  84.8032092 105.1088490  77.4413980  84.7404953 104.4268169
  76.6611282  88.6771597 103.0518060  76.5222367  88.3090381 103.9243998
  75.8725878  89.1919236 102.8802018  77.2559434  93.7780693  94.3943597
  77.4311189  93.3068736  95.2089220  76.5692222  94.4046459  94.6224858
  78.2116497  88.0553199 100.4406898  77.8766329  88.0153969 101.3364548
  77.7120442  87.3897915  99.9677308  72.1860741  83.4620829 105.9659479
  72.0480539  82.7301068 106.5671018  73.0965664  83.3729729 105.6843667
  81.1475688  85.4009234  90.7143958  80.5304859  84.6756062  90.6177010
  80.6792177  86.1618594  90.3711032  74.8143041  83.1740789 105.4543159
  75.5242660  82.5333981 105.4129777  74.7712350  83.4253683 106.3769340
  82.8029820  90.1108142 108.3749738  82.7442366  89.4267362 107.7080321
  83.2049338  90.8527132 107.9230364  73.5271975  80.1606007 107.2738798
  72.9909332  79.7096745 107.9260395  72.9388684  80.2951915 106.5309263
  71.8220519  96.9270056 101.1683457  72.0617117  97.5588580 101.8462476
  70.9789715  96.5758096 101.4548816  72.9374234  79.6194658  89.8365262
  72.0603701  79.4983459  89.4727509  73.4131987  78.8280736  89.5844151
  82.8047227  88.0747726 106.6063718  81.9174006  87.7373648 106.7290117
  83.3745778  87.3430757 106.8432483  64.4576374  84.4071818  99.9306769
  65.1447414  84.0933548  99.3427785  64.3024503  85.3113182  99.6574021
  69.2611097  79.2962014 104.3591793  69.1769285  78.6887684 103.6242203
  68.4393803  79.7871033 104.3601289  76.3348381  92.7349178 103.5724961
  76.2618552  93.5404150 104.0844266  75.8925774  92.9341144 102.7472982
  76.1238160  91.9720948  97.0827783  75.3405682  92.5142628  97.1766007
  76.8230906  92.4894928  97.4822024  79.4334810  77.7815578  99.7261988
  79.9303510  77.0285540  99.4063058  78.6621792  77.8179894  99.1605197
  87.2864568  83.4855943 101.3680279  87.2754444  84.3680659 100.9974213
  86.4181947  83.1327494 101.1734817  78.7947064  92.6336012 105.7283120
  79.5075036  93.2683477 105.6559021  78.3037093  92.7299878 104.9123122
  80.5164591  86.5387265  97.3000411  79.5820870  86.6588727  97.1305116
  80.6941260  85.6359732  97.0360421  76.0169779  79.9232961  99.4533673
  75.6467567  79.3704001 100.1414578  76.5128872  79.3191094  98.9008673
  83.9037143  82.3804584  97.8350446  84.3697595  83.2132576  97.7610748
  84.3544643  81.9149566  98.5395704  73.8458978  90.3830456 106.5488691
  74.5468437  91.0166939 106.7018085  73.3754093  90.7245187 105.7884330
  81.9713374  88.7248406  94.8336598  82.2473218  88.6105000  95.7430472
  81.1017872  88.3265890  94.7948771  81.8753805  74.7485171 101.8741347
  80.9616885  74.9789398 102.0423554  82.3046907  74.8323615 102.7255379
  81.6460264  82.9375063 104.3741241  80.9931714  83.1850971 103.7193694
  82.0240644  82.1239201 104.0403718  78.6067438  92.9734756  98.4769411
  78.7889832  92.1556412  98.9397163  79.4300424  93.1902449  98.0394301
  78.9409603  91.9002942  95.7384460  79.4697370  91.3895396  95.1254622
  79.2037823  91.5845472  96.6029993  77.6947837  83.6794874 110.8607278
  77.0188474  83.5789004 111.5309653  78.5175471  83.5234088 111.3243275
  69.4426696  89.9166811 103.4819793  70.0280133  89.1710499 103.6147697
  69.2451534  90.2270768 104.3656457  72.2965351  92.9518058  98.4982236
  71.6275726  93.4364186  98.0146276  72.1578221  93.1987279  99.4125614
  64.0344351  82.4872411 102.2024236  64.0728450  81.9536002 102.9961354
  63.5284643  81.9607617 101.5835214  76.4370620  94.9861802 105.0964894
  76.9888928  95.1493423 105.8613979  76.7776813  95.5766240 104.4244919
  71.4135113  77.3336952 105.6986779  71.4776439  78.1951782 105.2864176
  71.3502233  76.7210953 104.9659137  70.8887385  79.4060084 109.3459813
  71.5159424  79.0237161 109.9597337  70.0315304  79.1874286 109.7115505
  67.6652928  81.2136513  95.2778168  67.9606369  80.3047192  95.2245221
  66.7640964  81.1924253  94.9559170  79.5739007  92.9343777 102.0828576
  79.4490146  92.1333517 101.5739522  80.2318098  93.4289971 101.5942546
  71.1947175  79.2892510 101.2605716  70.4733761  79.9028477 101.1213190
  71.9840431  79.8250275 101.1822362  81.6373915  90.7352797 103.7108126
  80.6904251  90.6158149 103.6386453  81.9856688  89.8475295 103.7934388
  73.9973489  76.6246936 107.5346368  74.5207891  76.8709233 108.2972677
  73.7785822  77.4566971 107.1149505  69.3940770  78.8950611  95.4017493
  69.0653476  78.0147990  95.2192599  69.7480140  78.8398280  96.2893882
  78.6420349  90.5305514  99.9112478  78.4945311  89.6022221 100.0920048
  79.4673842  90.5525604  99.4269554  72.5082593  79.1823581  95.7692971
  72.8478665  79.7109502  95.0471579  72.9554713  79.5203987  96.5451537
  82.2454470  91.3534072 100.9977351  83.1701018  91.1476934 100.8601802
  82.0769774  91.1050473 101.9066693  75.2026034  77.5660631 105.2196039
  74.8622854  76.7668444 105.6216718  74.4965040  77.8662342 104.6472872
  75.8542506  74.6509944 103.6723362  76.6768575  74.1770422 103.5502252
  76.0980569  75.4300428 104.1722048  74.4950740  77.6798202  93.9686263
  75.2159103  78.0579455  93.4649980  73.8716044  78.3987079  94.0721241
  78.6381863  78.3843351  94.9044596  78.8545477  79.2667989  94.6033424
  78.1575930  77.9929565  94.1750238  73.3781084  81.3429064 101.4815340
  73.2325665  81.6569367 102.3739622  72.9006288  81.9613965 100.9286239
  75.2377467  78.3331612 101.5296230  75.2239036  77.4372706 101.1928528
  75.9549895  78.3402276 102.1634516  77.0903598  78.7668953 103.5749357
  76.8321376  79.6886023 103.5733688  76.5588638  78.3699387 104.2649821
  82.0349787  91.8719740  96.3539443  82.2086664  91.3066162  95.6013295
  82.5278678  92.6720635  96.1718933  67.8526746  83.8834409 104.4203001
  67.3080215  84.6594217 104.5523276  68.7306096  84.2305213 104.2622123
  74.6414363  77.2145993  96.7983800  74.7630274  76.2862639  96.9974687
  74.3516406  77.2284679  95.8862115  77.5105554  74.9000903  99.9350520
  77.5327250  74.9640236  98.9802499  77.9273613  74.0605412 100.1291026
  87.8889178  84.6356163  97.9729742  88.3320324  83.8863488  97.5748866
  87.0115688  84.6266299  97.5903474  83.0224959  91.1886504  93.4536341
  83.7175864  91.8093197  93.6723656  83.3648109  90.3381855  93.7288719
  68.6392768  83.0104305 107.3133158  67.8974504  83.1586940 107.8997789
  68.3185513  83.2712571 106.4499908  84.9216382  88.6386210  94.9823672
  85.4467706  88.9773482  94.2572992  84.8338735  87.7033225  94.7986806
  76.5836431  92.5520283 107.1113548  76.8923557  92.3069430 107.9836248
  77.3811913  92.7566922 106.6232419  76.6057043  94.7058193  99.3418925
  76.1662033  94.2134572 100.0351782  77.3565160  94.1631161  99.1011000
  69.0849382  90.8969734  99.3443553  69.9107402  90.5973506  98.9642196
  68.7343434  90.1277356  99.7933342  74.0530915  90.2496202 101.4141227
  73.4310924  89.5866907 101.1143454  74.7235782  90.2757334 100.7314874
  67.2857987  88.8156060 100.3032487  66.4489895  88.3878235 100.1216488
  67.2581633  89.0088504 101.2403278  74.1255443  78.7277990 111.0073733
  74.1743598  79.6040113 110.6251502  74.6677957  78.1855383 110.4345376
  84.7308163  86.1211580 107.6007598  84.7806168  85.9561587 108.5423121
  84.6222087  85.2538839 107.2105479  73.6144422  88.8000125  94.8899687
  73.7632542  89.4835590  94.2366360  74.4210866  88.7805215  95.4049143
  82.0211926  82.1042508 108.9166905  82.9221789  81.9648973 108.6250903
  82.0959900  82.2696963 109.8565082  76.3554731  79.4809362 107.7620091
  75.4858041  79.7742929 107.4902680  76.5914212  80.0649807 108.4827355
  86.2326360  88.5408521 107.8449620  85.9411169  88.9038502 108.6813081
  85.6198492  87.8275529 107.6662952  87.4322043  86.1061401 100.3652190
  88.2668934  86.5451205 100.5289750  87.5681171  85.6300054  99.5460436
  84.4813548  83.6641136 106.3129678  84.9567670  83.8568782 105.5048529
  83.5579114  83.7200322 106.0673061  71.3697055  84.8265303  95.8960756
  71.1243097  83.9227633  96.0940966  71.5392970  84.8282453  94.9540234
  79.0593765  75.6988979 105.2785512  79.5775709  76.4350006 104.9532000
  78.7048898  76.0052973 106.1132271  70.6392703  80.5593661  93.3946917
  69.9461948  80.6338016  92.7386953  70.3944455  79.7954004  93.9168434
  79.3106359  72.1189262 100.7986408  79.5908113  71.4512451 101.4246835
  80.0956966  72.3118358 100.2861072  77.1139828  91.2948256  92.3611434
  76.5413795  91.9138443  91.9081906  77.6872621  91.8447617  92.8951356
  83.1815217  80.5406896 104.5457983  84.1332640  80.6404994 104.5670207
  83.0118668  79.7485164 105.0556068  81.2029597  77.6262479 104.7317384
  80.6079529  77.9067492 104.0363873  80.9179294  78.1156380 105.5034125
  80.3337087  91.5785406  93.4920017  81.2667761  91.5130968  93.6952892
  80.2460300  92.4141673  93.0334549  82.9625104  90.8951276  90.4523964
  82.8838736  90.5611140  91.3459722  83.7834771  91.3873044  90.4515437
  85.6603295  83.7613016 103.6600283  85.6279615  82.8229016 103.8459967
  86.2703919  83.8397052 102.9266108  77.4986626  82.6309069  89.7027487
  78.4445731  82.5015277  89.7715905  77.1200871  81.8923730  90.1796915
  85.8097784  80.5524059 103.7058566  85.2936832  79.7682516 103.5188495
  86.6937732  80.2242776 103.8705086  83.4708511  74.2965075  99.6654379
  83.2733332  73.9880163 100.5497711  84.0808216  75.0226713  99.7952309
  91.4779845  84.8229022 102.8006320  92.2083234  84.5614311 103.3614023
  90.8686791  84.0857744 102.8408388  89.5595142  82.9636885 103.3980771
  88.8328306  82.8292850 102.7897263  89.1442429  83.2713714 104.2037489
  77.3825319  86.6826815 111.1628144  78.3028328  86.8605414 111.3568190
  77.3474902  85.7382860 111.0107843  75.6829543  80.5559045  89.6382372
  74.7760999  80.2592158  89.7145086  75.9605524  80.2588863  88.7716658
  66.6007484  81.8765408 100.0881419  66.2810268  81.0230717  99.7955793
  66.0540912  82.0913987 100.8439386  70.3787391  84.5927849 103.8050925
  70.5973401  85.5244957 103.8238959  70.7913165  84.2335824 104.5905729
  77.2991609  75.0995935  95.7926614  76.4892337  74.7543020  96.1681860
  77.9876026  74.7903478  96.3814225  79.2282157  74.1773981  97.4150910
  79.7813196  74.5969435  98.0740933  79.4652244  73.2509730  97.4573866
  75.2515257  80.1661055 113.1953674  75.1511983  81.1155412 113.1265765
  75.0336799  79.8379294 112.3229744  74.4528328  77.4145980  89.7794351
  75.3147492  77.7400878  90.0390169  74.6378672  76.6277476  89.2667417
  66.4695744  85.4968320 102.0574540  65.7759215  85.0822273 101.5444495
  67.2168735  85.5388856 101.4607959  82.6060964  76.2874507  96.9229574
  82.0259633  76.9459311  96.5407627  82.3396897  75.4651851  96.5116992
  81.0564531  75.6879564  99.1250895  81.5564309  75.7996099  98.3165214
  81.7000139  75.3840617  99.7651703  75.1146527  83.5958194 112.0118736
  74.6313608  84.3958554 112.2182625  75.2007466  83.6066139 111.0586180
  68.3832486  85.4286574  99.9340555  68.3603174  85.5274261  98.9822438
  68.6933123  86.2751724 100.2557721  71.0419864  87.4862729 104.0487169
  71.9963118  87.4546671 103.9817101  70.8432388  87.0253352 104.8637395
  71.6319246  86.0563845 106.6157967  72.4512135  86.5507923 106.6392804
  71.9056054  85.1395813 106.5875535  81.3885842  78.4474597  95.9785923
  80.5011697  78.7324248  95.7606117  81.8039831  78.2868360  95.1313200
  84.7400379  78.4721118  99.6940262  85.5160769  78.9617570  99.9664879
  84.0148513  78.8979172 100.1512131  87.1772937  79.1848737 100.7514203
  87.7717428  78.9444473 100.0407511  87.2499521  78.4655868 101.3787739
  69.3970093  93.0282348 101.0657367  69.2624561  92.2682749 100.4995365
  68.9802155  93.7523248 100.5986156  80.5329056  88.2119272  90.0733943
  81.2364906  88.4169274  90.6891598  79.8091705  88.7796034  90.3383026
  81.3626866  83.9629133  96.1936213  81.3062068  84.4197684  95.3543845
  81.9155209  83.2019818  96.0159056  85.1731672  79.7518865  97.0186332
  84.9168606  79.3515500  97.8494540  84.5484540  80.4662659  96.8936471
  89.4844010  82.4914938  99.5257624  88.9243568  82.5608127 100.2989186
  88.8787513  82.3155923  98.8057120  72.5539219  93.9251665 101.2775810
  72.4371603  94.8697098 101.1754500  71.7331665  93.6225227 101.6661609
  82.4415753  88.6501801  92.1232403  83.2761357  88.2182999  91.9409878
  82.2800096  88.4783815  93.0509297  82.0961645  85.1533914  93.4888742
  82.0410449  84.9878186  92.5477186  81.4707701  85.8609947  93.6450932
  66.8854160  80.3901979 107.3150164  67.5313024  79.8800933 107.8037389
  66.6771312  81.1270660 107.8893589  75.4057771  74.6542023  93.0674060
  75.3936441  75.5983863  93.2242331  76.2981193  74.4712169  92.7733522
  73.5793733  94.5779927 104.4931738  74.4820980  94.6103537 104.8098233
  73.3531103  93.6480378 104.5078074  75.3347335  93.3310914 101.1541817
  74.3842966  93.3312775 101.0406189  75.6379821  92.5843648 100.6377852
  79.2209890  71.2484800  97.3219997  78.4542286  70.6943287  97.4676680
  79.6320595  71.3206669  98.1834149  71.2251651  77.5369596 111.4125178
  72.0883113  77.1806400 111.6228503  70.6517062  77.1983490 112.1000583
  83.7376550 100.9734357  98.1445995  83.1741415 100.8824293  97.3762283
  83.6228945 100.1534261  98.6248488  81.2840982 102.4685548 100.9830216
  82.0762274 102.1276373 100.5676515  81.5237632 102.5780523 101.9032369
  89.3176109 104.6405324  93.4560460  88.6664089 105.2259405  93.0694474
  90.1120472 105.1711519  93.5155497  83.2431736 101.7294461  93.8547594
  84.0162612 101.1823448  93.7160470  83.5957135 102.5938711  94.0662056
  85.5798014  97.8887127  91.4866044  85.8323535  97.3668649  90.7249507
  84.6422573  97.7253273  91.5892728  90.6241297  96.8922906  99.2940787
  91.4104386  96.4742329  98.9431205  90.8880001  97.7968998  99.4622436
  90.7951374 102.3295756  93.9929444  90.1597207 102.4030383  94.7050349
  90.4648781 102.9189355  93.3148524  85.2994303  99.7915233  93.6890419
  85.1830561  99.1160137  94.3571504  85.4096563  99.3047607  92.8722572
  87.6425844  99.2525381  97.3937108  87.2784051  98.7256002  98.1050030
  88.4992960  98.8623850  97.2203594  87.2831331  94.2815280  92.3898457
  87.4505733  95.1495517  92.7568928  87.0928500  94.4442562  91.4659746
  83.4919145  99.1946056 100.0900992  82.5669642  99.0622270 100.2978684
  83.7403559  99.9740275 100.5870934  87.2620552  96.7372938  93.3745124
  87.1420177  97.1829989  94.2130604  86.5673140  97.0858255  92.8158662
  80.8527956  98.8379330 100.9244781  80.9820338  99.0913808 101.8384193
  80.1725408  99.4307038 100.6049436  92.9605618  97.2094411  94.2025458
  93.8723474  97.4421798  94.0273155  92.4515265  97.7931455  93.6400536
  90.3041592  93.3852447 102.4515319  89.4426072  93.6833700 102.7432056
  90.3304027  93.6022846 101.5196351  87.1203162 101.9294637  98.8589124
  87.5841507 102.2082340  98.0693747  86.8559960 101.0278082  98.6762215
  86.0572048  98.0517790  95.6678690  86.7596091  98.5038833  96.1352616
  85.7252676  97.4101609  96.2958583  79.7997382  96.3101342 100.9695823
  79.0096436  96.5658871 100.4935934  80.2908629  97.1249680 101.0747864
  81.7512127  96.6745922  97.9279300  80.9543291  96.7864616  98.4462795
  81.5237720  97.0132574  97.0620190  78.0835085  96.5631833 103.4010814
  78.3343123  97.4478843 103.6668390  78.6194633  96.3836434 102.6285906
  87.2965813 104.8658732  95.7440795  87.1611487 105.7110268  96.1725643
  87.8375625 105.0678010  94.9806729  80.7495210 102.3834170  96.3168720
  81.2619731 103.1777421  96.4674285  81.4017923 101.6860461  96.2502321
  82.5590095 105.4999927  98.3991473  82.7356723 106.4217891  98.2112457
  83.3546928 105.1858346  98.8285853  90.6458276  88.3889294 104.2739688
  90.3022546  89.2790936 104.1978799  91.0137239  88.1990952 103.4109273
  78.7144127 100.7122825  97.0928290  79.5519349 101.1219833  96.8761998
  78.8922394  99.7722267  97.0628484  90.6108559  98.3797905  92.7812123
  90.0955182  99.1502510  93.0200511  90.3385867  97.7063042  93.4045185
  88.1955670  93.2247606  97.8397362  87.3397266  92.8354457  97.6603000
  88.6082622  93.3039567  96.9797147  89.7254817  90.7593949 102.2388921
  89.2219612  90.7224085 101.4256727  90.0185423  91.6686692 102.2985578
  85.9697702  90.8432679 101.2455103  86.8350699  90.6475488 100.8860993
  86.0375211  90.6143031 102.1724460  95.5842833 101.1330260  94.7165297
  94.8072276 100.7941420  94.2720459  96.2634314 101.1382883  94.0420262
  90.3994862  96.2524998  94.6071905  90.0944998  96.5671147  95.4582048
  91.3525304  96.3306417  94.6499238  88.8441294 102.4115221  96.2564858
  88.3162655 101.6767980  95.9438096  88.3428797 103.1889897  96.0104827
  83.5760022  93.0734887  98.6171470  84.1503773  92.8510069  97.8844663
  84.1631004  93.1423582  99.3700071  83.9029609  95.1039348  92.6367355
  83.0666921  95.4414035  92.9576630  83.7634378  94.9688328  91.6994492
  85.8782689  89.9476136  97.3446539  85.2247102  89.6325153  96.7203154
  85.8363163  89.3251876  98.0706362  86.9893894 100.2295431  89.2599832
  86.0820956  99.9984685  89.4590981  87.4864926  99.4333050  89.4473813
  89.8961973 108.9392938  92.1796518  89.2223672 109.2424635  92.7881476
  90.2827795 109.7422019  91.8301975  89.1120430  96.4358070 101.6694187
  88.1942991  96.6573017 101.5115875  89.5280573  96.5104380 100.8105894
  89.8955477  97.8349485  96.7996867  90.6427296  98.3470882  96.4903989
  90.1647067  97.5133538  97.6601261  88.1682128 100.3308026  93.7823822
  87.2593347 100.0467059  93.8796291  88.1977211 100.7507105  92.9227128
  92.3434314  94.8706602  98.7815657  91.6057071  94.3583988  99.1125899
  92.5961088  94.4306983  97.9698934  92.4445942  87.6482854  99.3757426
  92.7504819  86.7880217  99.0883341  93.1698547  88.2400474  99.1756420
  78.7370298  98.0513540  97.7639024  78.5394698  97.4582901  97.0390090
  78.1816962  97.7465750  98.4814963  86.7167022  97.9436647  99.8833617
  86.7715631  96.9910483  99.8076094  85.9058224  98.0996086 100.3674915
  87.8658215 101.8716770  91.1211900  87.4277645 101.1552629  90.6617538
  88.6068656 102.0992884  90.5596992  84.6559381  96.5613706  97.6423996
  83.8427247  96.8607877  98.0489188  85.1518376  96.1669395  98.3598478
  95.9831330 100.1473967  97.1788219  95.8449229 100.3375563  96.2509408
  95.6267549 100.9093350  97.6356270  84.1473456  94.1332062 103.2585231
  84.7872836  93.9920821 102.5608194  83.3150987  93.8466575 102.8823833
  84.9233760 103.4334492  99.3720223  85.7174359 102.9384812  99.1702798
  84.2125453 102.9052355  99.0087929  81.2316524  97.5777574  95.4479976
  80.3014112  97.5162029  95.6649938  81.3273996  97.0553527  94.6516617
  81.1502073  94.1032387  98.0358218  81.4108890  95.0177720  97.9267378
  81.9719245  93.6356829  98.1854830  82.6226998  95.5170144 105.2057042
  83.2950051  95.3087506 104.5569691  81.7956785  95.3192230 104.7662274
  88.0953188 109.1072611  94.3943597  88.2704944 108.6360654  95.2089220
  87.4085976 109.7338377  94.6224858  91.9869443 100.7301151  90.7143958
  91.3698614 100.0047979  90.6177010  91.5185931 101.4910512  90.3711032
  83.7767989  94.9486576  89.8365262  82.8997455  94.8275376  89.4727509
  84.2525742  94.1572654  89.5844151  75.2970129  99.7363735  99.9306769
  75.9841169  99.4225465  99.3427785  75.1418258 100.6405100  99.6574021
  80.1004851  94.6253932 104.3591793  80.0163040  94.0179601 103.6242203
  79.2787558  95.1162950 104.3601289  90.2728565  93.1107495  99.7261988
  90.7697265  92.3577458  99.4063058  89.5015546  93.1471812  99.1605197
  91.3558346 101.8679183  97.3000411  90.4214624 101.9880645  97.1305116
  91.5335014 100.9651649  97.0360421  86.8563534  95.2524878  99.4533673
  86.4861321  94.6995919 100.1414578  87.3522626  94.6483012  98.9008673
  94.7430897  97.7096502  97.8350446  95.2091349  98.5424494  97.7610748
  95.1938398  97.2441483  98.5395704  92.8107128 104.0540323  94.8336598
  93.0866972 103.9396918  95.7430472  91.9411627 103.6557808  94.7948771
  92.7147560  90.0777089 101.8741347  91.8010640  90.3081316 102.0423554
  93.1440661  90.1615533 102.7255379  89.7803358 107.2294859  95.7384460
  90.3091124 106.7187314  95.1254622  90.0431577 106.9137389  96.6029993
  74.8738105  97.8164329 102.2024236  74.9122205  97.2827919 102.9961354
  74.3678398  97.2899534 101.5835214  82.2528867  92.6628869 105.6986779
  82.3170194  93.5243700 105.2864176  82.1895988  92.0502871 104.9659137
  78.5046683  96.5428431  95.2778168  78.8000124  95.6339109  95.2245221
  77.6034718  96.5216170  94.9559170  82.0340930  94.6184427 101.2605716
  81.3127515  95.2320395 101.1213190  82.8234185  95.1542192 101.1822362
  80.2334524  94.2242528  95.4017493  79.9047230  93.3439907  95.2192599
  80.5873895  94.1690197  96.2893882  83.3476347  94.5115498  95.7692971
  83.6872420  95.0401420  95.0471579  83.7948468  94.8495904  96.5451537
  86.0419788  92.8952549 105.2196039  85.7016609  92.0960362 105.6216718
  85.3358795  93.1954260 104.6472872  86.6936260  89.9801861 103.6723362
  87.5162329  89.5062340 103.5502252  86.9374324  90.7592345 104.1722048
  85.3344495  93.0090120  93.9686263  86.0552857  93.3871373  93.4649980
  84.7109799  93.7278997  94.0721241  89.4775617  93.7135269  94.9044596
  89.6939232  94.5959907  94.6033424  88.9969685  93.3221482  94.1750238
  84.2174839  96.6720982 101.4815340  84.0719420  96.9861285 102.3739622
  83.7400042  97.2905882 100.9286239  86.0771222  93.6623530 101.5296230
  86.0632790  92.7664623 101.1928528  86.7943650  93.6694194 102.1634516
  87.9297352  94.0960870 103.5749357  87.6715130  95.0177941 103.5733688
  87.3982393  93.6991305 104.2649821  78.6920501  99.2126326 104.4203001
  78.1473969  99.9886134 104.5523276  79.5699851  99.5597131 104.2622123
  85.4808118  92.5437910  96.7983800  85.6024029  91.6154557  96.9974687
  85.1910160  92.5576596  95.8862115  88.3499308  90.2292821  99.9350520
  88.3721005  90.2932154  98.9802499  88.7667367  89.3897329 100.1291026
  93.8618714 106.5178422  93.4536341  94.5569618 107.1385114  93.6723656
  94.2041864 105.6673773  93.7288719  95.7610137 103.9678127  94.9823672
  96.2861461 104.3065400  94.2572992  95.6732489 103.0325143  94.7986806
  79.9243137 106.2261651  99.3443553  80.7501156 105.9265423  98.9642196
  79.5737189 105.4569274  99.7933342  78.1251742 104.1447978 100.3032487
  77.2883650 103.7170152 100.1216488  78.0975387 104.3380421 101.2403278
  84.4538177 104.1292043  94.8899687  84.6026297 104.8127507  94.2366360
  85.2604620 104.1097133  95.4049143  82.2090810 100.1557221  95.8960756
  81.9636852  99.2519551  96.0940966  82.3786724 100.1574371  94.9540234
  81.4786457  95.8885578  93.3946917  80.7855702  95.9629933  92.7386953
  81.2338209  95.1245922  93.9168434  90.1500114  87.4481180 100.7986408
  90.4301867  86.7804369 101.4246835  90.9350721  87.6410275 100.2861072
  87.9533582 106.6240173  92.3611434  87.3807549 107.2430361  91.9081906
  88.5266376 107.1739535  92.8951356  91.1730842 106.9077324  93.4920017
  92.1061515 106.8422885  93.6952892  91.0854055 107.7433590  93.0334549
  93.8018859 106.2243194  90.4523964  93.7232490 105.8903058  91.3459722
  94.6228525 106.7164962  90.4515437  88.3380381  97.9600986  89.7027487
  89.2839485  97.8307194  89.7715905  87.9594626  97.2215648  90.1796915
  94.3102265  89.6256992  99.6654379  94.1127086  89.3172080 100.5497711
  94.9201971  90.3518631  99.7952309  86.5223298  95.8850963  89.6382372
  85.6154753  95.5884075  89.7145086  86.7999279  95.5880781  88.7716658
  77.4401238  97.2057326 100.0881419  77.1204023  96.3522634  99.7955793
  76.8934666  97.4205904 100.8439386  88.1385364  90.4287852  95.7926614
  87.3286092  90.0834937  96.1681860  88.8269780  90.1195396  96.3814225
  90.0675912  89.5065899  97.4150910  90.6206950  89.9261353  98.0740933
  90.3045998  88.5801647  97.4573866  85.2922082  92.7437898  89.7794351
  86.1541246  93.0692796  90.0390169  85.4772427  91.9569394  89.2667417
  77.3089498 100.8260238 102.0574540  76.6152970 100.4114190 101.5444495
  78.0562489 100.8680774 101.4607959  93.4454719  91.6166424  96.9229574
  92.8653388  92.2751228  96.5407627  93.1790652  90.7943769  96.5116992
  91.8958285  91.0171482  99.1250895  92.3958064  91.1288017  98.3165214
  92.5393893  90.7132535  99.7651703  79.2226241 100.7578491  99.9340555
  79.1996929 100.8566179  98.9822438  79.5326877 101.6043642 100.2557721
  92.2279597  93.7766515  95.9785923  91.3405452  94.0616165  95.7606117
  92.6433586  93.6160278  95.1313200  95.5794133  93.8013036  99.6940262
  96.3554523  94.2909488  99.9664879  94.8542267  94.2271090 100.1512131
  91.3722810 103.5411189  90.0733943  92.0758660 103.7461192  90.6891598
  90.6485459 104.1087951  90.3383026  92.2020621  99.2921051  96.1936213
  92.1455822  99.7489602  95.3543845  92.7548963  98.5311735  96.0159056
  96.0125427  95.0810782  97.0186332  95.7562361  94.6807418  97.8494540
  95.3878295  95.7954576  96.8936471  93.2809508 103.9793719  92.1232403
  94.1155112 103.5474917  91.9409878  93.1193851 103.8075732  93.0509297
  92.9355400 100.4825832  93.4888742  92.8804204 100.3170103  92.5477186
  92.3101455 101.1901865  93.6450932  77.7247915  95.7193896 107.3150164
  78.3706779  95.2092850 107.8037389  77.5165066  96.4562578 107.8893589
  86.2451525  89.9833941  93.0674060  86.2330195  90.9275781  93.2242331
  87.1374947  89.8004086  92.7733522  90.0603645  86.5776718  97.3219997
  89.2936041  86.0235204  97.4676680  90.4714350  86.6498586  98.1834149
  94.7423363 110.4331266  92.6367355  93.9060675 110.7705952  92.9576630
  94.6028133 110.2980246  91.6994492  94.6161743 110.2778493  89.8365262
  93.7391210 110.1567294  89.4727509  95.0919496 109.4864572  89.5844151
  92.3180212 111.2177496  93.3946917  91.6249457 111.2921851  92.7386953
  92.0731964 110.4537840  93.9168434  97.3617052 111.2142880  89.6382372
  96.4548508 110.9175993  89.7145086  97.6393033 110.9172698  88.7716658
  96.1315837 108.0729816  89.7794351  96.9935001 108.3984714  90.0390169
  96.3166181 107.2861311  89.2667417  97.0845280 105.3125859  93.0674060
  97.0723950 106.2567698  93.2242331  97.9768702 105.1296004  92.7733522
  36.8731257  -0.4726014  88.9432886  37.5109667  -0.5919266  88.2396226
  36.7552100   0.4754830  89.0020838  29.5407779   1.3336891  84.8691302
  28.9772644   1.2426828  84.1007589  29.4260174   0.5136795  85.3493794
  35.1207338   5.0007858  80.1805767  34.4695318   5.5861939  79.7939780
  35.9151701   5.5314053  80.2400804  29.0462965   2.0896996  80.5792901
  29.8193841   1.5425983  80.4405777  29.3988364   2.9541245  80.7907362
  31.3829243  -1.7510338  78.2111351  31.6354764  -2.2728817  77.4494814
  30.4453802  -1.9144193  78.3138035  36.4272526  -2.7474560  86.0186094
  37.2135615  -3.1655137  85.6676511  36.6911230  -1.8428468  86.1867743
  36.5982603   2.6898290  80.7174751  35.9628436   2.7632917  81.4295656
  36.2680009   3.2791889  80.0393830  41.8280953  -2.8099327  86.9219073
  42.5606125  -3.3800110  87.1556902  41.0720309  -3.1977726  87.3625578
  31.1025532   0.1517768  80.4135726  30.9861790  -0.5237329  81.0816810
  31.2127791  -0.3349858  79.5967879  33.4457073  -0.3872085  84.1182415
  33.0815280  -0.9141464  84.8295337  34.3024188  -0.7773616  83.9448901
  33.0651780  -2.9024528  80.0990430  32.9451406  -2.4567477  80.9375911
  32.3704369  -2.5539210  79.5403969  30.8258672   9.8679114  83.7480562
  30.7482702  10.8186939  83.8269042  30.2220316   9.5224986  84.4055488
  38.7636847  -2.4303055  80.9270764  39.6754703  -2.1975668  80.7518462
  38.2546494  -1.8466011  80.3645843  37.3706429   2.5522764  88.3184346
  36.7415291   2.7168478  87.6160414  36.9832091   2.9664373  89.0895310
  41.2495661   3.4877201  85.6728710  40.5646699   3.8676103  85.1225743
  41.3339510   4.0972528  86.4060657  32.9234391   2.2897172  85.5834431
  33.3872736   2.5684875  84.7939054  32.6591189   1.3880616  85.4007522
  31.8603277  -1.5879676  82.3923996  32.5627320  -1.1358632  82.8597923
  31.5283905  -2.2295857  83.0203889  39.6192420   4.0109116  90.4446411
  40.4409864   3.6089303  90.1629092  39.6154823   3.9077350  91.3962526
  47.7098413   0.3547864  86.7931382  46.9562122  -0.2144738  86.6375386
  47.8445955   0.3210529  87.7402017  33.0997041   5.2261267  82.4686101
  32.9642716   6.0712802  82.8970949  33.6406854   5.4280544  81.7052035
  26.5526439   2.7436705  83.0414026  27.0650959   3.5379955  83.1919591
  27.2049152   2.0462995  82.9747628  28.3621323   5.8602461  85.1236780
  28.5387952   6.7820426  84.9357764  29.1578157   5.5460880  85.5531159
  29.4852639   7.3780635  91.1247122  30.0360064   7.2497698  90.3524116
  28.6464115   7.6775524  90.7742015  36.4139788  -1.2599560  79.5057430
  35.8986411  -0.4894956  79.7445817  36.1417096  -1.9334424  80.1290491
  41.3874062   1.4932794  81.4410603  40.6103505   1.1543954  80.9965766
  42.0665543   1.4985417  80.7665569  36.2026091  -3.3872468  81.3317211
  35.8976226  -3.0726319  82.1827354  37.1556533  -3.3091048  81.3744544
  34.6472523   2.7717755  82.9810165  34.1193884   2.0370515  82.6683403
  34.1460025   3.5492431  82.7350133  39.6265369   0.9666776  88.0977211
  38.9689043   1.6566037  88.1857340  40.4305768   1.3563207  88.4411198
  38.4370828  -0.6788852  86.1481153  38.9502709  -0.0458860  86.6502863
  39.0872051  -1.2787656  85.7824513  32.7925123   0.5897965  75.9845138
  31.8852185   0.3587219  76.1836287  33.2896155  -0.2064415  76.1719120
  35.6993202   9.2995473  78.9041824  35.0254901   9.6027169  79.5126782
  36.0859024  10.1024553  78.5547281  35.6986706  -1.8047981  83.5242174
  36.4458525  -1.2926583  83.2149296  35.9678296  -2.1263928  84.3846568
  33.9713356   0.6910560  80.5069128  33.0624576   0.4069593  80.6041598
  34.0008440   1.1109639  79.6472435  39.2032624   4.3017150  84.2760296
  38.7494951   3.4608060  84.3325486  38.5726590   4.9378548  84.6135076
  38.1465543  -4.7690864  85.5060963  37.4088300  -5.2813478  85.8371206
  38.3992317  -5.2090483  84.6944240  37.6465563   6.1393646  85.2110114
  37.9388537   6.6998703  84.4922480  38.1564184   6.4322207  85.9663273
  32.5198250  -1.6960819  86.6078924  32.5746860  -2.6486983  86.5321400
  31.7089452  -1.5401380  87.0920222  33.6689444   2.2319304  77.8457207
  33.2308874   1.5155163  77.3862844  34.4099885   2.4595419  77.2842298
  32.6099188   6.9173997  86.3003567  32.5675367   7.1434844  85.3712099
  33.5261887   6.6837372  86.4489368  41.7862559   0.5076501  83.9033525
  41.6480457   0.6978097  82.9754715  41.4298778   1.2695884  84.3601577
  41.8131939   2.5753028  88.9144797  42.2468445   2.4828317  89.7627851
  42.5263519   2.5510528  88.2764813  30.7264989   3.7937026  86.0965530
  31.5205587   3.2987347  85.8948105  30.0156681   3.2654890  85.7333235
  35.5459833   6.1755122  90.4477898  35.5996856   6.7446058  91.2155613
  34.6774615   6.3457007  90.0831935  42.6747488   2.6176729  91.4477682
  42.8683378   3.5222539  91.6936957  42.5748106   2.1584148  92.2816267
  33.3036265   4.3666048  89.7763367  33.1647351   3.9984833  90.6489305
  32.5150861   4.8813688  89.6047325  33.8984417   9.4675145  81.1188904
  34.0736173   8.9963188  81.9334526  33.2117205  10.0940911  81.3470164
  34.8541480   3.7447651  87.1652205  34.5191313   3.7048421  88.0609855
  34.3545426   3.0792367  86.6922615  37.7900672   1.0903686  77.4389264
  37.1729842   0.3650514  77.3422317  37.3217160   1.8513046  77.0956339
  28.4645502  12.6164508  87.8928764  28.7042100  13.2483032  88.5707782
  27.6214699  12.2652548  88.1794123  32.9773364   8.4243630  90.2970268
  32.9043536   9.2298602  90.8089572  32.5350757   8.6235596  89.4718289
  32.7663144   7.6615400  83.8073089  31.9830666   8.2037080  83.9011314
  33.4655889   8.1789380  84.2067330  43.9289551  -0.8249605  88.0925586
  43.9179427   0.0575111  87.7219519  43.0606931  -1.1778054  87.8980123
  35.4372048   8.3230464  92.4528426  36.1500020   8.9577929  92.3804328
  34.9462076   8.4194330  91.6368428  37.1589574   2.2281717  84.0245718
  36.2245853   2.3483179  83.8550422  37.3366243   1.3254184  83.7605728
  40.5462126  -1.9300964  84.5595752  41.0122578  -1.0972972  84.4856055
  40.9969626  -2.3955982  85.2641011  38.6138357   4.4142857  81.5581904
  38.8898201   4.2999452  82.4675778  37.7442856   4.0160342  81.5194077
  35.2492421   8.6629208  85.2014718  35.4314815   7.8450864  85.6642470
  36.0725407   8.8796901  84.7639608  35.5834586   7.5897393  82.4629766
  36.1122353   7.0789848  81.8499928  35.8462806   7.2739924  83.3275299
  28.9390334   8.6412510  85.2227542  28.2700710   9.1258638  84.7391582
  28.8003204   8.8881731  86.1370921  33.0795603  10.6756254  91.8210201
  33.6313911  10.8387875  92.5859286  33.4201796  11.2660691  91.1490225
  36.2163990   8.6238229  88.8073883  36.0915130   7.8227969  88.2984828
  36.8743081   9.1184422  88.3187853  38.2798899   6.4247249  90.4353433
  37.3329234   6.3052600  90.3631760  38.6281672   5.5369747  90.5179694
  35.2845332   6.2199965  86.6357785  35.1370294   5.2916673  86.8165355
  36.1098825   6.2420056  86.1514860  38.8879454   7.0428524  87.7222658
  39.8126001   6.8371385  87.5847109  38.7194757   6.7944925  88.6311999
  38.6774770   7.5614192  83.0784749  38.8511648   6.9960614  82.3258602
  39.1703661   8.3615086  82.8964239  44.5314161   0.3250615  84.6975049
  44.9745307  -0.4242060  84.2994172  43.6540671   0.3160751  84.3148781
  39.6649942   6.8780956  80.1781648  40.3600847   7.4987649  80.3968962
  40.0073093   6.0276307  80.4534025  41.5641366   4.3280662  81.7068978
  42.0892690   4.6667934  80.9818298  41.4763718   3.3927677  81.5232113
  33.2482026  10.3952645  86.0664231  32.8087017   9.9029024  86.7597088
  33.9990143   9.8525612  85.8256307  25.7274365   6.5864186  86.0688860
  26.5532385   6.2867958  85.6887503  25.3768417   5.8171808  86.5178648
  30.6955899   5.9390654  88.1386533  30.0735908   5.2761359  87.8388761
  31.3660765   5.9651786  87.4560181  30.2569405   4.4894577  81.6144994
  30.4057526   5.1730042  80.9611666  31.0635849   4.4699667  82.1294449
  44.0747026   1.7955853  87.0897497  44.9093917   2.2345657  87.2535057
  44.2106155   1.3194506  86.2705742  28.0122038   0.5159755  82.6206063
  27.7668080  -0.3877915  82.8186273  28.1817953   0.5176905  81.6785541
  33.7564811   6.9842708  79.0856741  33.1838778   7.6032895  78.6327213
  34.3297605   7.5342069  79.6196663  36.9762071   7.2679858  80.2165323
  37.9092744   7.2025420  80.4198199  36.8885284   8.1036125  79.7579856
  39.6050087   6.5845728  77.1769271  39.5263719   6.2505592  78.0705029
  40.4259754   7.0767496  77.1760743  42.3028279  -0.5492533  90.3845590
  42.2704599  -1.4876532  90.5705273  42.9128902  -0.4708496  89.6511414
  34.1411609  -1.6796480  76.4272794  35.0870714  -1.8090271  76.4961212
  33.7625854  -2.4181818  76.9042222  48.1204828   0.5123474  89.5251626
  48.8508217   0.2508762  90.0859330  47.5111774  -0.2247804  89.5653694
  46.2020126  -1.3468663  90.1226078  45.4753289  -1.4812698  89.5142569
  45.7867412  -1.0391834  90.9282796  39.2485948  -8.0231041  83.6474881
  38.6684617  -7.3646237  83.2652933  38.9821880  -8.8453697  83.2362299
  38.0310826  -5.8630951  82.7031229  37.1436681  -5.5781300  82.4851424
  38.4464815  -6.0237188  81.8558506  41.3825362  -5.8384430  86.4185569
  42.1585752  -5.3487978  86.6910185  40.6573496  -5.4126376  86.8757438
  43.8197920  -5.1256811  87.4759509  44.4142411  -5.3661075  86.7652817
  43.8924504  -5.8449680  88.1033045  26.0395076   8.7176800  87.7902674
  25.9049544   7.9577201  87.2240672  25.6227138   9.4417700  87.3231463
  37.1754039   3.9013724  76.7979249  37.8789889   4.1063726  77.4136905
  36.4516688   4.4690485  77.0628333  38.0051849  -0.3476415  82.9181519
  37.9487051   0.1092136  82.0789152  38.5580192  -1.1085731  82.7404362
  41.8156655  -4.5586683  83.7431639  41.5593590  -4.9590048  84.5739847
  41.1909523  -3.8442889  83.6181778  46.1268993  -1.8190610  86.2502930
  45.5668551  -1.7497421  87.0234492  45.5212497  -1.9949625  85.5302427
  29.1964202   9.6146117  88.0021117  29.0796586  10.5591550  87.8999807
  28.3756648   9.3119679  88.3906916  39.0840737   4.3396253  78.8477709
  39.9186341   3.9077451  78.6655184  38.9225079   4.1678266  79.7754604
  38.7386629   0.8428366  80.2134049  38.6835433   0.6772638  79.2722493
  38.1132684   1.5504399  80.3696238  30.2218716  10.2674379  91.2177045
  31.1245963  10.2997989  91.5343540  29.9956086   9.3374830  91.2323381
  31.9772318   9.0205365  87.8787124  31.0267949   9.0207227  87.7651496
  32.2804804   8.2738100  87.3623158  47.7125012  14.8565904  88.9432886
  48.3503422  14.7372651  88.2396226  47.5945855  15.8046748  89.0020838
  44.5214718  14.8093332  88.8794411  44.1833229  14.6934397  87.9914946
  45.3904486  14.4084497  88.8595417  40.3801534  16.6628808  84.8691302
  39.8166399  16.5718745  84.1007589  40.2653929  15.8428713  85.3493794
  45.0034501  15.9628184  94.8380616  44.9923142  15.5680982  93.9661120
  45.1655140  15.2294256  95.4314388  37.9265966  18.1580000  87.7075522
  38.7187258  17.8170825  87.2921821  38.1662616  18.2674975  88.6277676
  45.9601092  20.3299776  80.1805767  45.3089072  20.9153857  79.7939780
  46.7545455  20.8605971  80.2400804  39.8856720  17.4188913  80.5792901
  40.6587596  16.8717900  80.4405777  40.2382118  18.2833163  80.7907362
  41.7241762  18.7465296  93.7859800  41.4331628  19.6510926  93.6706467
  42.3598746  18.7881823  94.5003870  42.6497969  16.1242144  90.3761160
  43.2461541  15.8998166  89.6618123  42.7072940  15.3826890  90.9786608
  42.2222997  13.5781579  78.2111351  42.4748518  13.0563101  77.4494814
  41.2847556  13.4147725  78.3138035  47.2666280  12.5817358  86.0186094
  48.0529369  12.1636781  85.6676511  47.5304984  13.4863450  86.1867743
  47.4376358  18.0190208  80.7174751  46.8022190  18.0924835  81.4295656
  47.1073764  18.6083807  80.0393830  52.6674707  12.5192591  86.9219073
  53.3999879  11.9491808  87.1556902  51.9114063  12.1314191  87.3625578
  41.9419286  15.4809685  80.4135726  41.8255544  14.8054589  81.0816810
  42.0521546  14.9942059  79.5967879  44.2850827  14.9419832  84.1182415
  43.9209034  14.4150453  84.8295337  45.1417943  14.5518301  83.9448901
  50.1900128   6.2314165  91.3813681  49.8583452   7.1009576  91.1574896
  49.5945741   5.9150449  92.0607712  43.9256314   9.9709732  79.1143764
  44.0930716  10.8389969  79.4814235  43.7353483  10.1337014  78.1905053
  46.6831647  18.4326711  90.7809594  46.3832370  19.3351750  90.6725401
  46.3382707  18.1658894  91.6330747  40.1344129  14.8840508  86.8146298
  39.2094625  14.7516722  87.0223990  40.3828542  15.6634727  87.3116241
  50.0828791  10.9509251  88.4607031  49.1745668  10.8824660  88.1665792
  50.0316387  11.4281196  89.2888857  43.9045535  12.4267390  80.0990430
  43.7845160  12.8724440  80.9375911  43.2098123  12.7752707  79.5403969
  37.4952940  14.5273781  87.6490087  37.6245321  14.7808260  88.5629499
  36.8150391  15.1201489  87.3294743  41.6652427  25.1971031  83.7480562
  41.5876457  26.1478856  83.8269042  41.0614071  24.8516904  84.4055488
  44.1569657  12.3698897  96.4041929  43.3802991  12.9292817  96.3944793
  44.7960220  12.8555680  96.9256799  51.9490437   9.1525690  90.2384905
  51.3064818   9.4458223  89.5924700  51.4445366   9.0378610  91.0438102
  49.6030601  12.8988863  80.9270764  50.5148457  13.1316250  80.7518462
  49.0940248  13.4825907  80.3645843  42.4116029  15.1784350  95.9659896
  43.1530713  15.7169394  95.6894719  41.7053015  15.8050639  96.1231447
  47.8871369  17.3213491  94.5632057  48.2954725  16.8795901  93.8186689
  47.1648630  16.7466118  94.8166250  44.2402439  12.2586097  91.9365614
  45.0863634  12.6825511  92.0800263  44.1801076  11.6019722  92.6304177
  48.2100183  17.8814681  88.3184346  47.5809046  18.0460395  87.6160414
  47.8225845  18.2956291  89.0895310  52.0889415  18.8169119  85.6728710
  51.4040453  19.1968020  85.1225743  52.1733265  19.4264446  86.4060657
  47.3901884   9.9190466  93.5946788  47.1462816  10.6732526  93.0581063
  47.6661815  10.2975813  94.4294035  49.3440347  16.4629078  92.2724053
  49.5557242  17.1060838  91.5958434  49.2970095  15.6291395  91.8045983
  46.9466576   9.0746899  89.1760625  46.0851055   9.3728152  89.4677363
  46.9729010   9.2917298  88.2441658  43.7628145  17.6189089  85.5834431
  44.2266491  17.8976792  84.7939054  43.4984943  16.7172534  85.4007522
  40.6552226  17.1660571  88.5214194  41.2253583  17.5947839  87.8831679
  41.2460338  16.8843156  89.2198380  42.6997031  13.7412242  82.3923996
  43.4021075  14.1933285  82.8597923  42.3677660  13.0996061  83.0203889
  41.1477393  12.3323998  96.7675206  40.5176053  13.0140279  97.0010602
  41.0413481  12.2207080  95.8228344  36.4422365  11.9995794  87.6941130
  35.6521419  12.2553323  87.2181240  36.9333613  12.8144132  87.7993170
  50.4586175  19.3401034  90.4446411  51.2803619  18.9381221  90.1629092
  50.4548578  19.2369268  91.3962526  38.3937111  12.3640374  84.6524606
  37.5968274  12.4759068  85.1708102  38.1662703  12.7027026  83.7865497
  44.2242778  18.8885077  92.6007121  44.2887211  19.3505484  93.4365293
  43.5153702  18.2582442  92.7289431  34.7260068  12.2526285  90.1256121
  34.9768107  13.1373295  90.3913696  35.2619617  12.0730886  89.3531212
  58.5492168  15.6839782  86.7931382  57.7955876  15.1147180  86.6375386
  58.6839709  15.6502447  87.7402017  43.9390796  20.5553184  82.4686101
  43.8036471  21.4004720  82.8970949  44.4800608  20.7572462  81.7052035
  37.3920193  18.0728622  83.0414026  37.9044714  18.8671873  83.1919591
  38.0442906  17.3754913  82.9747628  39.2015078  21.1894379  85.1236780
  39.3781706  22.1112343  84.9357764  39.9971912  20.8752798  85.5531159
  43.3426097   8.0502643  96.7220713  44.0835810   8.6509796  96.6425176
  43.5744019   7.3080281  96.1638756  38.4867435  13.2359011  94.9998943
  38.3720950  12.3344268  95.3006042  37.6311952  13.4822707  94.6483759
  45.5659272  21.1776751  96.5986443  45.1223126  20.3913129  96.2807348
  46.2276486  21.3655901  95.9330334  40.3246393  22.7072552  91.1247122
  40.8753819  22.5789616  90.3524116  39.4857869  23.0067441  90.7742015
  47.6640510  21.4579551  94.6267845  47.6458986  22.2788432  94.1348114
  48.5860430  21.3333626  94.8517986  44.1213564  18.9723680  95.4691353
  44.6541901  18.2111968  95.2390661  43.5927646  18.6797332  96.2115508
  47.2883259   4.0783746  90.9984995  46.9447529   4.9685388  90.9224105
  47.6562222   3.8885404  90.1354580  35.3569110  16.4017277  83.8173597
  36.1944332  16.8114285  83.6007305  35.5347378  15.4616719  83.7873791
  47.2533542  14.0692357  79.5057430  46.7380166  14.8396962  79.7445817
  46.9810851  13.3957493  80.1290491  44.8380653   8.9142058  84.5642668
  43.9822250   8.5248908  84.3848307  45.2507605   8.9934019  83.7042454
  46.3679800   6.4488401  88.9634228  45.8644595   6.4118537  88.1502033
  46.6610407   7.3581144  89.0230885  42.6122686   6.5327131  87.9700410
  43.4775683   6.3369940  87.6106299  42.6800195   6.3037483  88.8969767
  52.2267816  16.8224712  81.4410603  51.4497259  16.4835871  80.9965766
  52.9059297  16.8277335  80.7665569  47.0419845  11.9419449  81.3317211
  46.7369981  12.2565599  82.1827354  47.9950287  12.0200869  81.3744544
  45.4866277  18.1009673  82.9810165  44.9587639  17.3662432  82.6683403
  44.9853780  18.8784349  82.7350133  50.4659123  16.2958693  88.0977211
  49.8082798  16.9857955  88.1857340  51.2699522  16.6855125  88.4411198
  40.2185005   8.7629339  85.3416777  40.7928757   8.5404521  84.6089970
  40.8055987   8.8318034  86.0945378  49.2764582  14.6503066  86.1481153
  49.7896464  15.2833058  86.6502863  49.9265806  14.0504261  85.7824513
  40.5454592  10.7933800  79.3612662  39.7091904  11.1308487  79.6821937
  40.4059362  10.6582780  78.4239799  42.5207673   5.6370588  84.0691846
  41.8672085   5.3219605  83.4448461  42.4788147   5.0146328  84.7951669
  43.6318877  15.9189883  75.9845138  42.7245939  15.6879136  76.1836287
  44.1289909  15.1227502  76.1719120  46.5386956  24.6287390  78.9041824
  45.8648655  24.9319087  79.5126782  46.9252778  25.4316471  78.5547281
  45.7545413  12.1252521  88.3939494  44.8367974  12.3467468  88.2361182
  46.1705557  12.1998832  87.5351201  46.5380461  13.5243937  83.5242174
  47.2852280  14.0365334  83.2149296  46.8072050  13.2027990  84.3846568
  44.8107111  16.0202478  80.5069128  43.9018330  15.7361511  80.6041598
  44.8402195  16.4401556  79.6472435  50.0426378  19.6309067  84.2760296
  49.5888705  18.7899977  84.3325486  49.4120345  20.2670466  84.6135076
  48.9859298  10.5601053  85.5060963  48.2482055  10.0478440  85.8371206
  49.2386071  10.1201435  84.6944240  48.4859317  21.4685564  85.2110114
  48.7782292  22.0290621  84.4922480  48.9957938  21.7614125  85.9663273
  49.0870925   3.3377305  86.1002733  49.3929802   2.4774669  85.8128648
  49.8123530   3.9294926  85.9001726  35.3795281  13.7407992  84.4884330
  35.1819681  13.1477353  83.7635397  34.8241945  13.4360202  85.2060269
  43.3592005  13.6331098  86.6078924  43.4140615  12.6804935  86.5321400
  42.5483207  13.7890538  87.0920222  44.5083199  17.5611222  77.8457207
  44.0702629  16.8447080  77.3862844  45.2493639  17.7887336  77.2842298
  41.2984365  12.2508158  84.3669302  40.4852230  12.5502329  84.7734495
  41.7943359  11.8563847  85.0843785  43.4492943  22.2465915  86.3003567
  43.4069121  22.4726761  85.3712099  44.3655642  22.0129290  86.4489368
  46.8958576  12.7149983  93.1984196  47.2507964  12.9421456  94.0578662
  47.5430708  13.0468359  92.5761452  52.6256313  15.8368419  83.9033525
  52.4874212  16.0270015  82.9754715  52.2692532  16.5987801  84.3601577
  40.7898440   9.8226514  89.9830537  41.4297819   9.6815273  89.2853501
  39.9575970   9.5361027  89.6069139  52.6525693  17.9044946  88.9144797
  53.0862200  17.8120235  89.7627851  53.3657274  17.8802446  88.2764813
  41.5658743  19.1228944  86.0965530  42.3599342  18.6279264  85.8948105
  40.8550436  18.5946807  85.7333235  46.3853588  21.5047040  90.4477898
  46.4390610  22.0737976  91.2155613  45.5168369  21.6748925  90.0831935
  37.8741507  13.2672026  82.1725283  36.9439095  13.2056481  82.3895245
  37.9698979  12.7447979  81.3761924  37.7927056   9.7926839  84.7603524
  38.0533873  10.7072172  84.6512685  38.6144228   9.3251281  84.9100137
  39.2651981  11.2064596  91.9302349  39.9375035  10.9981958  91.2814998
  38.4381768  11.0086682  91.4907581  53.5141243  17.9468646  91.4477682
  53.7077133  18.8514457  91.6936957  53.4141861  17.4876065  92.2816267
  45.1677553   7.8326537  93.9468010  44.5205468   8.5316486  93.8532486
  45.9378569   8.2662681  94.3144258  48.5756351  18.0975389  97.0218563
  48.4241858  17.8685941  96.1048647  48.5661031  19.0545990  97.0349908
  45.3441688  15.6707302  92.0064829  46.2733748  15.8218461  91.8333797
  44.9232718  15.7591323  91.1513476  44.1430019  19.6957966  89.7763367
  44.0041105  19.3276751  90.6489305  43.3544616  20.2105606  89.6047325
  44.7378171  24.7967063  81.1188904  44.9129927  24.3255106  81.9334526
  44.0510959  25.4232829  81.3470164  45.6935235  19.0739569  87.1652205
  45.3585067  19.0340339  88.0609855  45.1939180  18.4084285  86.6922615
  39.6679479  14.4807199  92.6904786  39.5299276  13.7487438  93.2916325
  40.5784402  14.3916099  92.4088974  48.6294426  16.4195603  77.4389264
  48.0123597  15.6942431  77.3422317  48.1610915  17.1804963  77.0956339
  42.2961779  14.1927158  92.1788466  43.0061398  13.5520350  92.1375084
  42.2531087  14.4440053  93.1014646  50.2848558  21.1294512  95.0995045
  50.2261104  20.4453732  94.4325628  50.6868076  21.8713502  94.6475671
  41.0090713  11.1792376  93.9984105  40.4728070  10.7283115  94.6505701
  40.4207422  11.3138285  93.2554569  39.3039257  27.9456425  87.8928764
  39.5435855  28.5774950  88.5707782  38.4608453  27.5944465  88.1794123
  40.4192972  10.6381027  76.5610569  39.5422438  10.5169828  76.1972815
  40.8950725   9.8467106  76.3089457  50.2865965  19.0934095  93.3309024
  49.3992744  18.7560017  93.4535423  50.8564516  18.3617127  93.5677790
  31.9395112  15.4258187  86.6552076  32.6266152  15.1119917  86.0673091
  31.7843241  16.3299552  86.3819327  36.7429834  10.3148384  91.0837100
  36.6588023   9.7074053  90.3487509  35.9212541  10.8057402  91.0846596
  43.8167119  23.7535548  90.2970268  43.7437290  24.5590519  90.8089572
  43.3744512  23.9527514  89.4718289  43.6056898  22.9907318  83.8073089
  42.8224420  23.5328998  83.9011314  44.3049643  23.5081297  84.2067330
  46.9153548   8.8001947  86.4507295  47.4122248   8.0471910  86.1308365
  46.1440530   8.8366264  85.8850504  54.7683306  14.5042313  88.0925586
  54.7573182  15.3867028  87.7219519  53.9000685  14.1513864  87.8980123
  46.2765802  23.6522382  92.4528426  46.9893774  24.2869847  92.3804328
  45.7855831  23.7486248  91.6368428  47.9983329  17.5573635  84.0245718
  47.0639608  17.6775097  83.8550422  48.1759997  16.6546101  83.7605728
  43.4988517  10.9419330  86.1778979  43.1286305  10.3890371  86.8659885
  43.9947609  10.3377464  85.6253979  51.3855880  13.3990954  84.5595752
  51.8516333  14.2318945  84.4856055  51.8363381  12.9335935  85.2641011
  41.3277716  21.4016825  93.2733997  42.0287175  22.0353308  93.4263391
  40.8572831  21.7431557  92.5129636  49.4532111  19.7434775  81.5581904
  49.7291955  19.6291370  82.4675778  48.5836610  19.3452260  81.5194077
  49.3572543   5.7671541  88.5986653  48.4435623   5.9975768  88.7668860
  49.7865645   5.8509985  89.4500686  49.1279002  13.9561433  91.0986547
  48.4750452  14.2037340  90.4439000  49.5059381  13.1425571  90.7649025
  46.0886175  23.9921126  85.2014718  46.2708570  23.1742782  85.6642470
  46.9119161  24.2088818  84.7639608  46.4228341  22.9189311  82.4629766
  46.9516107  22.4081766  81.8499928  46.6856561  22.6031841  83.3275299
  45.1766575  14.6981244  97.5852585  44.5007212  14.5975373  98.2554960
  45.9994208  14.5420458  98.0488582  36.9245434  20.9353180  90.2065100
  37.5098870  20.1896868  90.3393004  36.7270272  21.2457137  91.0901764
  39.7784089  23.9704428  85.2227542  39.1094464  24.4550555  84.7391582
  39.6396959  24.2173648  86.1370921  31.5163088  13.5058781  88.9269543
  31.5547188  12.9722371  89.7206661  31.0103381  12.9793986  88.3080520
  43.9189357  26.0048171  91.8210201  44.4707666  26.1679793  92.5859286
  44.2595551  26.5952609  91.1490225  38.8953851   8.3523321  92.4232085
  38.9595177   9.2138152  92.0109483  38.8320971   7.7397323  91.6904444
  48.7700232  20.8309429  97.6758855  49.3140136  21.4439387  97.1813810
  48.1887077  21.3889007  98.1925868  35.1471666  12.2322883  82.0023474
  35.4425107  11.3233561  81.9490528  34.2459702  12.2110622  81.6804477
  47.0557745  23.9530147  88.8073883  46.9308884  23.1519887  88.2984828
  47.7136836  24.4476340  88.3187853  38.6765913  10.3078879  87.9851023
  37.9552499  10.9214847  87.8458496  39.4659169  10.8436644  87.9067669
  49.1192653  21.7539167  90.4353433  48.1722989  21.6344518  90.3631760
  49.4675426  20.8661665  90.5179694  41.4792227   7.6433306  94.2591675
  42.0026628   7.8895602  95.0217984  41.2604560   8.4753341  93.8394812
  36.8759508   9.9136980  82.1262800  36.5472214   9.0334359  81.9437905
  37.2298878   9.8584649  83.0139189  46.1239086  21.5491883  86.6357785
  45.9764049  20.6208591  86.8165355  46.9492580  21.5711974  86.1514860
  39.9901331  10.2009950  82.4938277  40.3297403  10.7295871  81.7716886
  40.4373451  10.5390356  83.2696844  49.7273208  22.3720442  87.7222658
  50.6519756  22.1663303  87.5847109  49.5588512  22.1236843  88.6311999
  42.6844772   8.5847001  91.9441345  42.3441592   7.7854814  92.3462025
  41.9783778   8.8848712  91.3718178  43.3361243   5.6696313  90.3968668
  44.1587313   5.1956792  90.2747559  43.5799307   6.4486797  90.8967355
  41.9769478   8.6984572  80.6931570  42.6977840   9.0765825  80.1895287
  41.3534782   9.4173449  80.7966548  46.1200601   9.4029721  81.6289902
  46.3364215  10.2854359  81.3278730  45.6394668   9.0115934  80.8995544
  40.8599822  12.3615434  88.2060647  40.7144403  12.6755737  89.0984928
  40.3825026  12.9800334  87.6531546  42.7196205   9.3517982  88.2541536
  42.7057774   8.4559075  87.9173834  43.4368633   9.3588646  88.8879822
  44.5722336   9.7855322  90.2994664  44.3140114  10.7072393  90.2978994
  44.0407376   9.3885757  90.9895128  49.5168524  22.8906109  83.0784749
  49.6905402  22.3252532  82.3258602  50.0097416  23.6907004  82.8964239
  35.3345484  14.9020778  91.1448308  34.7898952  15.6780586  91.2768582
  36.2124834  15.2491583  90.9867429  42.1233101   8.2332362  83.5229107
  42.2449012   7.3049008  83.7219994  41.8335143   8.2471048  82.6107422
  44.9924291   5.9187273  86.6595826  45.0145988   5.9826606  85.7047806
  45.4092350   5.0791781  86.8536333  55.3707916  15.6542532  84.6975049
  55.8139062  14.9049857  84.2994172  54.4934426  15.6452669  84.3148781
  50.5043697  22.2072874  80.1781648  51.1994602  22.8279566  80.3968962
  50.8466847  21.3568225  80.4534025  36.1211506  14.0290675  94.0378465
  35.3793242  14.1773310  94.6243095  35.8004250  14.2898940  93.1745214
  52.4035120  19.6572579  81.7068978  52.9286444  19.9959852  80.9818298
  52.3157473  18.7219595  81.5232113  44.0655169  23.5706653  93.8358855
  44.3742295  23.3255800  94.7081555  44.8630651  23.7753291  93.3477725
  44.0875781  25.7244562  86.0664231  43.6480771  25.2320941  86.7597088
  44.8383898  25.1817530  85.8256307  36.5668120  21.9156103  86.0688860
  37.3926140  21.6159875  85.6887503  36.2162172  21.1463726  86.5178648
  41.5349653  21.2682572  88.1386533  40.9129662  20.6053277  87.8388761
  42.2054520  21.2943703  87.4560181  34.7676725  19.8342430  87.0277793
  33.9308633  19.4064604  86.8461794  34.7400370  20.0274873  87.9648584
  52.0929026  20.2905483  97.0120176  51.3024570  20.2729622  96.4724676
  51.8562381  20.8293777  97.7669213  52.2126901  17.1397949  94.3252905
  52.2624906  16.9747957  95.2668428  52.1040825  16.2725208  93.9350786
  41.0963160  19.8186495  81.6144994  41.2451280  20.5021959  80.9611666
  41.9029603  19.7991585  82.1294449  49.5030664  13.1228877  95.6412212
  50.4040526  12.9835342  95.3496209  49.5778638  13.2883332  96.5810389
  43.8373469  10.4995732  94.4865398  42.9676778  10.7929298  94.2147986
  44.0732949  11.0836177  95.2072661  53.7145098  19.5594891  94.5694926
  53.4229906  19.9224871  95.4058387  53.1017229  18.8461899  94.3908258
  54.9140780  17.1247771  87.0897497  55.7487672  17.5637575  87.2535057
  55.0499909  16.6486424  86.2705742  51.9632286  14.6827505  93.0374984
  52.4386408  14.8755152  92.2293836  51.0397852  14.7386691  92.7918368
  38.8515793  15.8451673  82.6206063  38.6061835  14.9414003  82.8186273
  39.0211707  15.8468823  81.6785541  46.5412503   6.7175349  92.0030818
  47.0594447   7.4536376  91.6777307  46.1867636   7.0239342  92.8377577
  38.1211440  11.5780030  80.1192224  37.4280685  11.6524385  79.4632260
  37.8763192  10.8140374  80.6413741  46.7925097   3.1375631  87.5231715
  47.0726851   2.4698821  88.1492141  47.5775704   3.3304727  87.0106379
  44.5958565  22.3134625  79.0856741  44.0232533  22.9324813  78.6327213
  45.1691359  22.8633987  79.6196663  50.6633955  11.5593265  91.2703290
  51.6151378  11.6591363  91.2915514  50.4937406  10.7671534  91.7801374
  48.6848335   8.6448849  91.4562691  48.0898267   8.9253861  90.7609179
  48.3998031   9.1342750  92.2279432  47.8155825  22.5971776  80.2165323
  48.7486498  22.5317337  80.4198199  47.7279038  23.4328042  79.7579856
  50.4443842  21.9137646  77.1769271  50.3657473  21.5797509  78.0705029
  51.2653509  22.4059414  77.1760743  53.1422033  14.7799385  90.3845590
  53.1098353  13.8415386  90.5705273  53.7522657  14.8583422  89.6511414
  44.9805364  13.6495438  76.4272794  45.9264469  13.5201646  76.4961212
  44.6019609  12.9110100  76.9042222  53.2916522  11.5710429  90.4303873
  52.7755570  10.7868885  90.2433802  54.1756470  11.2429145  90.5950392
  50.9527248   5.3151444  86.3899685  50.7552070   5.0066532  87.2743017
  51.5626954   6.0413083  86.5197615  58.9598583  15.8415392  89.5251626
  59.6901971  15.5800680  90.0859330  58.3505528  15.1044114  89.5653694
  57.0413880  13.9823255  90.1226078  56.3147044  13.8479220  89.5142569
  56.6261167  14.2900083  90.9282796  44.8644056  17.7013184  97.8873451
  45.7847066  17.8791783  98.0813497  44.8293640  16.7569230  97.7353150
  43.1648281  11.5745415  76.3627679  42.2579736  11.2778527  76.4390392
  43.4424262  11.2775233  75.4961965  34.0826221  12.8951778  86.8126725
  33.7629006  12.0417086  86.5201099  33.5359650  13.1100356  87.5684693
  37.8606129  15.6114219  90.5296232  38.0792139  16.5431327  90.5484266
  38.2731903  15.2522193  91.3151036  44.7810347   6.1182304  82.5171920
  43.9711075   5.7729389  82.8927166  45.4694764   5.8089848  83.1059532
  46.7100895   5.1960351  84.1396217  47.2631934   5.6155804  84.7986240
  46.9470981   4.2696099  84.1819173  41.9347066   8.4332350  76.5039658
  42.7966230   8.7587248  76.7635475  42.1197410   7.6463846  75.9912724
  33.9514481  16.5154689  88.7819847  33.2577953  16.1008642  88.2689801
  34.6987472  16.5575226  88.1853266  50.0879702   7.3060876  83.6474881
  49.5078371   7.9645680  83.2652933  49.8215635   6.4838221  83.2362299
  48.5383269   6.7065934  85.8496201  49.0383047   6.8182468  85.0410520
  49.1818876   6.4026987  86.4897010  42.5965264  14.6144564  98.7364042
  42.1132346  15.4144924  98.9427931  42.6826203  14.6252508  97.7831486
  35.8651224  16.4472943  86.6585862  35.8421912  16.5460630  85.7067745
  36.1751860  17.2938094  86.9803028  38.5238602  18.5049098  90.7732476
  39.4781855  18.4733041  90.7062408  38.3251125  18.0439722  91.5882702
  39.1137984  17.0750214  93.3403274  39.9330873  17.5694293  93.3638111
  39.3874792  16.1582182  93.3120841  48.8704580   9.4660967  82.7031229
  47.9830435   9.7510617  82.4851424  49.2858569   9.3054730  81.8558506
  52.2219116   9.4907488  86.4185569  52.9979506   9.9803940  86.6910185
  51.4967251   9.9165542  86.8757438  54.6591675  10.2035107  87.4759509
  55.2536166   9.9630843  86.7652817  54.7318259   9.4842237  88.1033045
  36.8788831  24.0468718  87.7902674  36.7443299  23.2869119  87.2240672
  36.4620893  24.7709618  87.3231463  48.0147794  19.2305641  76.7979249
  48.7183644  19.4355644  77.4136905  47.2910442  19.7982403  77.0628333
  48.8445604  14.9815503  82.9181519  48.7880805  15.4384054  82.0789152
  49.3973946  14.2206187  82.7404362  52.6550410  10.7705234  83.7431639
  52.3987344  10.3701870  84.5739847  52.0303278  11.4849028  83.6181778
  56.9662748  13.5101308  86.2502930  56.4062306  13.5794497  87.0234492
  56.3606251  13.3342292  85.5302427  40.0357957  24.9438035  88.0021117
  39.9190341  25.8883467  87.8999807  39.2150403  24.6411596  88.3906916
  49.9234491  19.6688170  78.8477709  50.7580095  19.2369369  78.6655184
  49.7618834  19.4970184  79.7754604  49.5780383  16.1720284  80.2134049
  49.5229187  16.0064555  79.2722493  48.9526439  16.8796317  80.3696238
  34.3672898  11.4088348  94.0395471  35.0131762  10.8987302  94.5282696
  34.1590049  12.1457030  94.6138896  46.8926290  18.4769196  99.5387611
  47.7617450  18.6509848  99.1774246  46.4133042  19.2963612  99.4163341
  42.8876509   5.6728393  79.7919367  42.8755179   6.6170233  79.9487638
  43.7799931   5.4898538  79.4978828  41.0612471  25.5966297  91.2177045
  41.9639717  25.6289907  91.5343540  40.8349841  24.6666748  91.2323381
  42.8166073  24.3497283  87.8787124  41.8661704  24.3499145  87.7651496
  43.1198559  23.6030018  87.3623158  46.7028628   2.2671169  84.0465304
  45.9361024   1.7129656  84.1921986  47.1139333   2.3393038  84.9079455
  58.5518766  30.1857822  88.9432886  59.1897176  30.0664569  88.2396226
  58.4339609  31.1338666  89.0020838  55.3608472  30.1385250  88.8794411
  55.0226984  30.0226314  87.9914946  56.2298241  29.7376415  88.8595417
  51.2195288  31.9920726  84.8691302  50.6560153  31.9010663  84.1007589
  51.1047683  31.1720631  85.3493794  55.8428255  31.2920101  94.8380616
  55.8316896  30.8972900  93.9661120  56.0048895  30.5586174  95.4314388
  48.7659720  33.4871918  87.7075522  49.5581012  33.1462742  87.2921821
  49.0056370  33.5966893  88.6277676  56.7994847  35.6591694  80.1805767
  56.1482827  36.2445774  79.7939780  57.5939210  36.1897889  80.2400804
  50.7250474  32.7480831  80.5792901  51.4981350  32.2009818  80.4405777
  51.0775873  33.6125080  80.7907362  52.5635517  34.0757213  93.7859800
  52.2725383  34.9802844  93.6706467  53.1992501  34.1173741  94.5003870
  53.4891723  31.4534062  90.3761160  54.0855296  31.2290084  89.6618123
  53.5466695  30.7118807  90.9786608  53.0616752  28.9073497  78.2111351
  53.3142273  28.3855018  77.4494814  52.1241311  28.7439642  78.3138035
  58.1060035  27.9109275  86.0186094  58.8923124  27.4928699  85.6676511
  58.3698739  28.8155368  86.1867743  58.2770112  33.3482126  80.7174751
  57.6415945  33.4216752  81.4295656  57.9467518  33.9375725  80.0393830
  63.5068462  27.8484509  86.9219073  64.2393634  27.2783725  87.1556902
  62.7507817  27.4606109  87.3625578  52.7813041  30.8101603  80.4135726
  52.6649299  30.1346506  81.0816810  52.8915300  30.3233977  79.5967879
  55.1244582  30.2711750  84.1182415  54.7602789  29.7442371  84.8295337
  55.9811697  29.8810219  83.9448901  61.0293882  21.5606083  91.3813681
  60.6977207  22.4301494  91.1574896  60.4339496  21.2442367  92.0607712
  54.7650068  25.3001650  79.1143764  54.9324471  26.1681886  79.4814235
  54.5747238  25.4628932  78.1905053  57.5225402  33.7618629  90.7809594
  57.2226125  34.6643668  90.6725401  57.1776461  33.4950812  91.6330747
  50.9737883  30.2132426  86.8146298  50.0488380  30.0808640  87.0223990
  51.2222296  30.9926645  87.3116241  60.9222545  26.2801169  88.4607031
  60.0139423  26.2116577  88.1665792  60.8710141  26.7573114  89.2888857
  54.7439289  27.7559307  80.0990430  54.6238915  28.2016358  80.9375911
  54.0491878  28.1044625  79.5403969  48.3346694  29.8565699  87.6490087
  48.4639075  30.1100178  88.5629499  47.6544145  30.4493407  87.3294743
  52.5046181  40.5262949  83.7480562  52.4270211  41.4770774  83.8269042
  51.9007825  40.1808822  84.4055488  54.9963411  27.6990814  96.4041929
  54.2196745  28.2584735  96.3944793  55.6353974  28.1847597  96.9256799
  62.7884192  24.4817607  90.2384905  62.1458572  24.7750140  89.5924700
  62.2839120  24.3670528  91.0438102  60.4424356  28.2280780  80.9270764
  61.3542212  28.4608167  80.7518462  59.9334003  28.8117825  80.3645843
  53.2509784  30.5076268  95.9659896  53.9924468  31.0461312  95.6894719
  52.5446769  31.1342557  96.1231447  58.7265123  32.6505408  94.5632057
  59.1348479  32.2087819  93.8186689  58.0042385  32.0758036  94.8166250
  55.0796193  27.5878015  91.9365614  55.9257388  28.0117429  92.0800263
  55.0194831  26.9311639  92.6304177  59.0493938  33.2106599  88.3184346
  58.4202800  33.3752313  87.6160414  58.6619600  33.6248208  89.0895310
  62.9283170  34.1461037  85.6728710  62.2434208  34.5259938  85.1225743
  63.0127019  34.7556363  86.4060657  58.2295639  25.2482383  93.5946788
  57.9856570  26.0024444  93.0581063  58.5055569  25.6267731  94.4294035
  60.1834101  31.7920996  92.2724053  60.3950997  32.4352756  91.5958434
  60.1363850  30.9583312  91.8045983  57.7860330  24.4038816  89.1760625
  56.9244809  24.7020070  89.4677363  57.8122765  24.6209215  88.2441658
  54.6021900  32.9481007  85.5834431  55.0660245  33.2268710  84.7939054
  54.3378698  32.0464452  85.4007522  51.4945981  32.4952489  88.5214194
  52.0647338  32.9239757  87.8831679  52.0854093  32.2135073  89.2198380
  53.5390786  29.0704159  82.3923996  54.2414829  29.5225203  82.8597923
  53.2071414  28.4287978  83.0203889  51.9871147  27.6615916  96.7675206
  51.3569808  28.3432197  97.0010602  51.8807235  27.5498998  95.8228344
  47.2816120  27.3287712  87.6941130  46.4915174  27.5845241  87.2181240
  47.7727367  28.1436050  87.7993170  61.2979929  34.6692951  90.4446411
  62.1197373  34.2673139  90.1629092  61.2942332  34.5661185  91.3962526
  49.2330865  27.6932291  84.6524606  48.4362028  27.8050986  85.1708102
  49.0056457  28.0318944  83.7865497  55.0636533  34.2176995  92.6007121
  55.1280965  34.6797402  93.4365293  54.3547457  33.5874359  92.7289431
  45.5653823  27.5818202  90.1256121  45.8161861  28.4665212  90.3913696
  46.1013371  27.4022804  89.3531212  69.3885922  31.0131700  86.7931382
  68.6349631  30.4439098  86.6375386  69.5233464  30.9794364  87.7402017
  54.7784550  35.8845102  82.4686101  54.6430225  36.7296638  82.8970949
  55.3194363  36.0864380  81.7052035  51.2651890  21.9636682  99.1300457
  50.8718836  21.4102880  99.8048101  52.0818030  22.2747260  99.5206974
  48.2313948  33.4020540  83.0414026  48.7438468  34.1963790  83.1919591
  48.8836661  32.7046830  82.9747628  50.0408832  36.5186296  85.1236780
  50.2175461  37.4404261  84.9357764  50.8365666  36.2044716  85.5531159
  54.1819851  23.3794561  96.7220713  54.9229564  23.9801714  96.6425176
  54.4137774  22.6372199  96.1638756  49.3261189  28.5650928  94.9998943
  49.2114704  27.6636185  95.3006042  48.4705707  28.8114625  94.6483759
  56.4053027  36.5068669  96.5986443  55.9616881  35.7205047  96.2807348
  57.0670240  36.6947819  95.9330334  51.1640148  38.0364470  91.1247122
  51.7147573  37.9081533  90.3524116  50.3251624  38.3359359  90.7742015
  58.5034265  36.7871468  94.6267845  58.4852740  37.6080349  94.1348114
  59.4254185  36.6625544  94.8517986  54.9607319  34.3015598  95.4691353
  55.4935656  33.5403886  95.2390661  54.4321400  34.0089250  96.2115508
  58.1277014  19.4075664  90.9984995  57.7841283  20.2977306  90.9224105
  58.4955977  19.2177322  90.1354580  46.1962865  31.7309194  83.8173597
  47.0338087  32.1406203  83.6007305  46.3741132  30.7908637  83.7873791
  58.0927297  29.3984275  79.5057430  57.5773920  30.1688880  79.7445817
  57.8204605  28.7249411  80.1290491  55.6774408  24.2433976  84.5642668
  54.8216004  23.8540826  84.3848307  56.0901359  24.3225937  83.7042454
  57.2073554  21.7780319  88.9634228  56.7038350  21.7410454  88.1502033
  57.5004161  22.6873062  89.0230885  53.4516440  21.8619049  87.9700410
  54.3169437  21.6661857  87.6106299  53.5193949  21.6329401  88.8969767
  63.0661571  32.1516630  81.4410603  62.2891014  31.8127789  80.9965766
  63.7453052  32.1569253  80.7665569  57.8813600  27.2711367  81.3317211
  57.5763735  27.5857516  82.1827354  58.8344042  27.3492787  81.3744544
  56.3260032  33.4301590  82.9810165  55.7981393  32.6954350  82.6683403
  55.8247534  34.2076267  82.7350133  61.3052878  31.6250611  88.0977211
  60.6476552  32.3149872  88.1857340  62.1093277  32.0147043  88.4411198
  51.0578759  24.0921257  85.3416777  51.6322511  23.8696438  84.6089970
  51.6449742  24.1609951  86.0945378  60.1158337  29.9794984  86.1481153
  60.6290218  30.6124975  86.6502863  60.7659560  29.3796179  85.7824513
  51.3848346  26.1225718  79.3612662  50.5485659  26.4600404  79.6821937
  51.2453116  25.9874698  78.4239799  53.3601427  20.9662506  84.0691846
  52.7065839  20.6511523  83.4448461  53.3181901  20.3438246  84.7951669
  54.4712632  31.2481801  75.9845138  53.5639694  31.0171054  76.1836287
  54.9683664  30.4519420  76.1719120  57.3780711  39.9579308  78.9041824
  56.7042410  40.2611005  79.5126782  57.7646533  40.7608388  78.5547281
  56.5939167  27.4544439  88.3939494  55.6761729  27.6759386  88.2361182
  57.0099311  27.5290750  87.5351201  57.3774215  28.8535855  83.5242174
  58.1246034  29.3657252  83.2149296  57.6465805  28.5319908  84.3846568
  55.6500865  31.3494396  80.5069128  54.7412085  31.0653428  80.6041598
  55.6795949  31.7693474  79.6472435  60.8820133  34.9600985  84.2760296
  60.4282460  34.1191895  84.3325486  60.2514099  35.5962383  84.6135076
  59.8253052  25.8892971  85.5060963  59.0875809  25.3770357  85.8371206
  60.0779826  25.4493353  84.6944240  59.3253072  36.7977482  85.2110114
  59.6176046  37.3582539  84.4922480  59.8351693  37.0906043  85.9663273
  59.9264680  18.6669223  86.1002733  60.2323556  17.8066587  85.8128648
  60.6517284  19.2586843  85.9001726  46.2189036  29.0699910  84.4884330
  46.0213436  28.4769270  83.7635397  45.6635700  28.7652120  85.2060269
  54.1985759  28.9623016  86.6078924  54.2534369  28.0096853  86.5321400
  53.3876961  29.1182455  87.0920222  55.3476953  32.8903139  77.8457207
  54.9096383  32.1738998  77.3862844  56.0887394  33.1179254  77.2842298
  52.1378119  27.5800076  84.3669302  51.3245985  27.8794246  84.7734495
  52.6337113  27.1855765  85.0843785  54.2886697  37.5757833  86.3003567
  54.2462876  37.8018679  85.3712099  55.2049396  37.3421207  86.4489368
  57.7352331  28.0441900  93.1984196  58.0901719  28.2713373  94.0578662
  58.3824462  28.3760277  92.5761452  63.4650068  31.1660336  83.9033525
  63.3267966  31.3561932  82.9754715  63.1086287  31.9279719  84.3601577
  51.6292194  25.1518431  89.9830537  52.2691573  25.0107191  89.2853501
  50.7969725  24.8652945  89.6069139  63.4919447  33.2336863  88.9144797
  63.9255954  33.1412152  89.7627851  64.2051028  33.2094364  88.2764813
  52.4052498  34.4520862  86.0965530  53.1993096  33.9571182  85.8948105
  51.6944190  33.9238725  85.7333235  57.2247342  36.8338957  90.4477898
  57.2784365  37.4029894  91.2155613  56.3562124  37.0040842  90.0831935
  48.7135261  28.5963944  82.1725283  47.7832849  28.5348399  82.3895245
  48.8092733  28.0739896  81.3761924  48.6320810  25.1218756  84.7603524
  48.8927628  26.0364090  84.6512685  49.4537983  24.6543199  84.9100137
  50.1045736  26.5356514  91.9302349  50.7768789  26.3273876  91.2814998
  49.2775522  26.3378600  91.4907581  64.3534997  33.2760564  91.4477682
  64.5470887  34.1806374  91.6936957  64.2535615  32.8167983  92.2816267
  56.0071308  23.1618454  93.9468010  55.3599223  23.8608404  93.8532486
  56.7772323  23.5954598  94.3144258  59.4150106  33.4267307  97.0218563
  59.2635612  33.1977858  96.1048647  59.4054785  34.3837908  97.0349908
  56.1835442  30.9999219  92.0064829  57.1127502  31.1510379  91.8333797
  55.7626472  31.0883240  91.1513476  54.9823774  35.0249884  89.7763367
  54.8434860  34.6568668  90.6489305  54.1938370  35.5397523  89.6047325
  55.5771926  40.1258980  81.1188904  55.7523682  39.6547023  81.9334526
  54.8904714  40.7524746  81.3470164  56.5328989  34.4031487  87.1652205
  56.1978822  34.3632256  88.0609855  56.0332935  33.7376202  86.6922615
  50.5073233  29.8099117  92.6904786  50.3693031  29.0779355  93.2916325
  51.4178157  29.7208017  92.4088974  59.4688181  31.7487521  77.4389264
  58.8517351  31.0234349  77.3422317  59.0004669  32.5096881  77.0956339
  53.1355534  29.5219076  92.1788466  53.8455152  28.8812268  92.1375084
  53.0924842  29.7731971  93.1014646  61.1242312  36.4586429  95.0995045
  61.0654859  35.7745649  94.4325628  61.5261831  37.2005419  94.6475671
  51.8484468  26.5084294  93.9984105  51.3121825  26.0575032  94.6505701
  51.2601176  26.6430203  93.2554569  50.1433011  43.2748343  87.8928764
  50.3829609  43.9066867  88.5707782  49.3002208  42.9236383  88.1794123
  51.2586727  25.9672945  76.5610569  50.3816193  25.8461746  76.1972815
  51.7344480  25.1759023  76.3089457  61.1259720  34.4226013  93.3309024
  60.2386498  34.0851935  93.4535423  61.6958271  33.6909044  93.5677790
  42.7788867  30.7550105  86.6552076  43.4659907  30.4411835  86.0673091
  42.6236995  31.6591470  86.3819327  47.5823589  25.6440301  91.0837100
  47.4981778  25.0365971  90.3487509  46.7606295  26.1349320  91.0846596
  54.6560873  39.0827465  90.2970268  54.5831045  39.8882437  90.8089572
  54.2138266  39.2819431  89.4718289  54.4450653  38.3199236  83.8073089
  53.6618175  38.8620916  83.9011314  55.1443398  38.8373215  84.2067330
  57.7547303  24.1293865  86.4507295  58.2516002  23.3763827  86.1308365
  56.9834284  24.1658182  85.8850504  65.6077060  29.8334231  88.0925586
  65.5966936  30.7158946  87.7219519  64.7394440  29.4805781  87.8980123
  57.1159557  38.9814300  92.4528426  57.8287529  39.6161764  92.3804328
  56.6249585  39.0778166  91.6368428  58.8377083  32.8865552  84.0245718
  57.9033362  33.0067015  83.8550422  59.0153752  31.9838019  83.7605728
  54.3382272  26.2711248  86.1778979  53.9680059  25.7182288  86.8659885
  54.8341364  25.6669381  85.6253979  62.2249635  28.7282871  84.5595752
  62.6910087  29.5610863  84.4856055  62.6757135  28.2627853  85.2641011
  52.1671470  36.7308743  93.2733997  52.8680930  37.3645226  93.4263391
  51.6966585  37.0723475  92.5129636  60.2925866  35.0726693  81.5581904
  60.5685710  34.9583287  82.4675778  59.4230365  34.6744178  81.5194077
  60.1966298  21.0963458  88.5986653  59.2829377  21.3267685  88.7668860
  60.6259399  21.1801903  89.4500686  59.9672756  29.2853350  91.0986547
  59.3144206  29.5329258  90.4439000  60.3453136  28.4717489  90.7649025
  56.9279930  39.3213044  85.2014718  57.1102324  38.5034700  85.6642470
  57.7512916  39.5380736  84.7639608  57.2622095  38.2481229  82.4629766
  57.7909862  37.7373683  81.8499928  57.5250315  37.9323759  83.3275299
  56.0160329  30.0273161  97.5852585  55.3400966  29.9267291  98.2554960
  56.8387963  29.8712375  98.0488582  47.7639188  36.2645098  90.2065100
  48.3492625  35.5188786  90.3393004  47.5664027  36.5749055  91.0901764
  50.6177843  39.2996345  85.2227542  49.9488219  39.7842473  84.7391582
  50.4790713  39.5465566  86.1370921  42.3556843  28.8350698  88.9269543
  42.3940942  28.3014289  89.7206661  41.8497136  28.3085904  88.3080520
  54.7583112  41.3340089  91.8210201  55.3101420  41.4971710  92.5859286
  55.0989305  41.9244527  91.1490225  49.7347605  23.6815239  92.4232085
  49.7988932  24.5430070  92.0109483  49.6714725  23.0689240  91.6904444
  49.2099878  25.7538371  96.0705120  49.8371917  25.3715449  96.6842644
  48.3527797  25.5352573  96.4360812  59.6093986  36.1601346  97.6758855
  60.1533890  36.7731305  97.1813810  59.0280831  36.7180925  98.1925868
  45.9865420  27.5614800  82.0023474  46.2818862  26.6525479  81.9490528
  45.0853456  27.5402540  81.6804477  57.8951499  39.2822064  88.8073883
  57.7702639  38.4811804  88.2984828  58.5530590  39.7768258  88.3187853
  49.5159667  25.6370797  87.9851023  48.7946253  26.2506765  87.8458496
  50.3052923  26.1728562  87.9067669  59.9586408  37.0831085  90.4353433
  59.0116743  36.9636436  90.3631760  60.3069181  36.1953583  90.5179694
  52.3185981  22.9725223  94.2591675  52.8420383  23.2187520  95.0217984
  52.0998314  23.8045258  93.8394812  47.7153262  25.2428898  82.1262800
  47.3865968  24.3626277  81.9437905  48.0692633  25.1876567  83.0139189
  56.9632841  36.8783801  86.6357785  56.8157803  35.9500508  86.8165355
  57.7886334  36.9003891  86.1514860  50.8295085  25.5301868  82.4938277
  51.1691158  26.0587789  81.7716886  51.2767206  25.8682274  83.2696844
  60.5666963  37.7012359  87.7222658  61.4913510  37.4955221  87.5847109
  60.3982266  37.4528761  88.6311999  53.5238526  23.9138919  91.9441345
  53.1835346  23.1146732  92.3462025  52.8177532  24.2140629  91.3718178
  54.1754998  20.9988231  90.3968668  54.9981067  20.5248709  90.2747559
  54.4193061  21.7778715  90.8967355  52.8163232  24.0276489  80.6931570
  53.5371595  24.4057742  80.1895287  52.1928536  24.7465366  80.7966548
  56.9594355  24.7321638  81.6289902  57.1757970  25.6146276  81.3278730
  56.4788422  24.3407852  80.8995544  51.6993577  27.6907352  88.2060647
  51.5538157  28.0047655  89.0984928  51.2218780  28.3092252  87.6531546
  53.5589960  24.6809900  88.2541536  53.5451528  23.7850993  87.9173834
  54.2762388  24.6880563  88.8879822  55.4116090  25.1147240  90.2994664
  55.1533868  26.0364310  90.2978994  54.8801131  24.7177674  90.9895128
  60.3562279  38.2198027  83.0784749  60.5299157  37.6544449  82.3258602
  60.8491170  39.0198922  82.8964239  46.1739239  30.2312696  91.1448308
  45.6292707  31.0072504  91.2768582  47.0518589  30.5783501  90.9867429
  52.9626855  23.5624280  83.5229107  53.0842767  22.6340926  83.7219994
  52.6728898  23.5762966  82.6107422  55.8318046  21.2479190  86.6595826
  55.8539743  21.3118523  85.7047806  56.2486105  20.4083699  86.8536333
  66.2101670  30.9834450  84.6975049  66.6532816  30.2341775  84.2994172
  65.3328180  30.9744586  84.3148781  61.3437451  37.5364791  80.1781648
  62.0388356  38.1571484  80.3968962  61.6860602  36.6860143  80.4534025
  46.9605261  29.3582592  94.0378465  46.2186997  29.5065228  94.6243095
  46.6398005  29.6190858  93.1745214  63.2428875  34.9864497  81.7068978
  63.7680199  35.3251770  80.9818298  63.1551227  34.0511512  81.5232113
  54.9048923  38.8998571  93.8358855  55.2136050  38.6547717  94.7081555
  55.7024405  39.1045209  93.3477725  54.9269535  41.0536480  86.0664231
  54.4874526  40.5612859  86.7597088  55.6777652  40.5109448  85.8256307
  47.4061874  37.2448021  86.0688860  48.2319894  36.9451793  85.6887503
  47.0555926  36.4755643  86.5178648  52.3743407  36.5974489  88.1386533
  51.7523417  35.9345194  87.8388761  53.0448274  36.6235621  87.4560181
  45.6070479  35.1634347  87.0277793  44.7702388  34.7356522  86.8461794
  45.5794125  35.3566791  87.9648584  52.4467935  25.0756277  97.7319039
  52.4956090  25.9518400  97.3496809  52.9890449  24.5333670  97.1590682
  62.9322781  35.6197401  97.0120176  62.1418324  35.6021539  96.4724676
  62.6956135  36.1585694  97.7669213  63.0520656  32.4689867  94.3252905
  63.1018661  32.3039874  95.2668428  62.9434579  31.6017126  93.9350786
  51.9356914  35.1478413  81.6144994  52.0845035  35.8313877  80.9611666
  52.7423358  35.1283503  82.1294449  60.3424418  28.4520795  95.6412212
  61.2434281  28.3127260  95.3496209  60.4172393  28.6175250  96.5810389
  54.6767223  25.8287650  94.4865398  53.8070533  26.1221216  94.2147986
  54.9126704  26.4128095  95.2072661  64.5538853  34.8886808  94.5694926
  64.2623661  35.2516789  95.4058387  63.9410984  34.1753817  94.3908258
  65.7534535  32.4539688  87.0897497  66.5881426  32.8929492  87.2535057
  65.8893664  31.9778341  86.2705742  62.8026041  30.0119423  93.0374984
  63.2780162  30.2047069  92.2293836  61.8791606  30.0678609  92.7918368
  49.6909547  31.1743590  82.6206063  49.4455589  30.2705920  82.8186273
  49.8605462  31.1760741  81.6785541  57.3806257  22.0467267  92.0030818
  57.8988201  22.7828294  91.6777307  57.0261390  22.3531260  92.8377577
  48.9605195  26.9071948  80.1192224  48.2674440  26.9816303  79.4632260
  48.7156947  26.1432291  80.6413741  57.6318851  18.4667549  87.5231715
  57.9120605  17.7990738  88.1492141  58.4169458  18.6596645  87.0106379
  55.4352320  37.6426543  79.0856741  54.8626287  38.2616730  78.6327213
  56.0085114  38.1925905  79.6196663  61.5027710  26.8885183  91.2703290
  62.4545133  26.9883281  91.2915514  61.3331160  26.0963452  91.7801374
  59.5242089  23.9740766  91.4562691  58.9292021  24.2545779  90.7609179
  59.2391786  24.4634667  92.2279432  58.6549580  37.9263693  80.2165323
  59.5880253  37.8609255  80.4198199  58.5672793  38.7619960  79.7579856
  61.2837596  37.2429564  77.1769271  61.2051228  36.9089427  78.0705029
  62.1047263  37.7351331  77.1760743  63.9815788  30.1091303  90.3845590
  63.9492108  29.1707304  90.5705273  64.5916411  30.1875340  89.6511414
  55.8199118  28.9787356  76.4272794  56.7658223  28.8493564  76.4961212
  55.4413363  28.2402018  76.9042222  64.1310276  26.9002346  90.4303873
  63.6149325  26.1160803  90.2433802  65.0150225  26.5721063  90.5950392
  61.7921003  20.6443362  86.3899685  61.5945824  20.3358450  87.2743017
  62.4020709  21.3705001  86.5197615  69.7992337  31.1707310  89.5251626
  70.5295726  30.9092598  90.0859330  69.1899283  30.4336032  89.5653694
  67.8807635  29.3115172  90.1226078  67.1540798  29.1771137  89.5142569
  67.4654921  29.6192001  90.9282796  55.7037811  33.0305102  97.8873451
  56.6240820  33.2083701  98.0813497  55.6687394  32.0861147  97.7353150
  54.0042036  26.9037332  76.3627679  53.0973491  26.6070445  76.4390392
  54.2818017  26.6067150  75.4961965  44.9219976  28.2243696  86.8126725
  44.6022760  27.3709004  86.5201099  44.3753404  28.4392274  87.5684693
  48.6999884  30.9406137  90.5296232  48.9185893  31.8723244  90.5484266
  49.1125657  30.5814111  91.3151036  55.6204101  21.4474222  82.5171920
  54.8104830  21.1021307  82.8927166  56.3088518  21.1381766  83.1059532
  57.5494650  20.5252269  84.1396217  58.1025688  20.9447722  84.7986240
  57.7864736  19.5988017  84.1819173  53.5727749  26.5139342  99.9198981
  53.4724476  27.4633699  99.8511072  53.3549291  26.1857581  99.0475051
  52.7740820  23.7624267  76.5039658  53.6359984  24.0879166  76.7635475
  52.9591164  22.9755763  75.9912724  44.7908236  31.8446607  88.7819847
  44.0971707  31.4300560  88.2689801  45.5381227  31.8867144  88.1853266
  60.9273457  22.6352794  83.6474881  60.3472126  23.2937598  83.2652933
  60.6609389  21.8130138  83.2362299  59.3777023  22.0357852  85.8496201
  59.8776801  22.1474386  85.0410520  60.0212631  21.7318904  86.4897010
  53.4359019  29.9436481  98.7364042  52.9526101  30.7436841  98.9427931
  53.5219958  29.9544426  97.7831486  46.7044978  31.7764861  86.6585862
  46.6815667  31.8752548  85.7067745  47.0145615  32.6230012  86.9803028
  49.3632356  33.8341016  90.7732476  50.3175610  33.8024958  90.7062408
  49.1644880  33.3731640  91.5882702  49.9531738  32.4042132  93.3403274
  50.7724627  32.8986211  93.3638111  50.2268546  31.4874100  93.3120841
  59.7098335  24.7952884  82.7031229  58.8224190  25.0802535  82.4851424
  60.1252324  24.6346648  81.8558506  63.0612871  24.8199405  86.4185569
  63.8373261  25.3095858  86.6910185  62.3361005  25.2457459  86.8757438
  65.4985429  25.5327024  87.4759509  66.0929920  25.2922760  86.7652817
  65.5712013  24.8134155  88.1033045  47.7182585  39.3760635  87.7902674
  47.5837053  38.6161036  87.2240672  47.3014647  40.1001535  87.3231463
  58.8541548  34.5597559  76.7979249  59.5577398  34.7647561  77.4136905
  58.1304197  35.1274321  77.0628333  59.6839358  30.3107420  82.9181519
  59.6274560  30.7675972  82.0789152  60.2367701  29.5498105  82.7404362
  63.4944164  26.0997152  83.7431639  63.2381099  25.6993788  84.5739847
  62.8697032  26.8140946  83.6181778  67.8056502  28.8393225  86.2502930
  67.2456060  28.9086415  87.0234492  67.2000006  28.6634210  85.5302427
  50.8751711  40.2729952  88.0021117  50.7584095  41.2175385  87.8999807
  50.0544157  39.9703514  88.3906916  60.7628246  34.9980088  78.8477709
  61.5973849  34.5661287  78.6655184  60.6012588  34.8262102  79.7754604
  60.4174138  31.5012201  80.2134049  60.3622942  31.3356473  79.2722493
  59.7920193  32.2088234  80.3696238  45.2066653  26.7380266  94.0395471
  45.8525516  26.2279220  94.5282696  44.9983804  27.4748947  94.6138896
  57.7320045  33.8061113  99.5387611  58.6011205  33.9801766  99.1774246
  57.2526796  34.6255530  99.4163341  53.7270263  21.0020310  79.7919367
  53.7148933  21.9462150  79.9487638  54.6193685  20.8190456  79.4978828
  51.9006225  40.9258214  91.2177045  52.8033472  40.9581825  91.5343540
  51.6743595  39.9958665  91.2323381  53.6559827  39.6789201  87.8787124
  52.7055458  39.6791062  87.7651496  53.9592313  38.9321935  87.3623158
  57.5422383  17.5963087  84.0465304  56.7754778  17.0421574  84.1921986
  57.9533088  17.6684956  84.9079455  49.5464144  23.8847883  98.1370485
  50.4095605  23.5284688  98.3473810  48.9729554  23.5461778  98.8245889
  69.3912521  45.5149739  88.9432886  70.0290931  45.3956487  88.2396226
  69.2733364  46.4630583  89.0020838  66.2002227  45.4677167  88.8794411
  65.8620738  45.3518232  87.9914946  67.0691995  45.0668332  88.8595417
  62.0589043  47.3212644  84.8691302  61.4953908  47.2302581  84.1007589
  61.9441438  46.5012548  85.3493794  66.6822010  46.6212019  94.8380616
  66.6710651  46.2264817  93.9661120  66.8442649  45.8878092  95.4314388
  59.6053475  48.8163835  87.7075522  60.3974766  48.4754660  87.2921821
  59.8450125  48.9258810  88.6277676  67.6388601  50.9883611  80.1805767
  66.9876581  51.5737692  79.7939780  68.4332964  51.5189806  80.2400804
  61.5644228  48.0772749  80.5792901  62.3375104  47.5301736  80.4405777
  61.9169627  48.9416998  80.7907362  63.4029271  49.4049131  93.7859800
  63.1119137  50.3094762  93.6706467  64.0386255  49.4465658  94.5003870
  64.3285478  46.7825979  90.3761160  64.9249050  46.5582002  89.6618123
  64.3860449  46.0410725  90.9786608  63.9010506  44.2365415  78.2111351
  64.1536027  43.7146936  77.4494814  62.9635065  44.0731560  78.3138035
  68.9453789  43.2401193  86.0186094  69.7316878  42.8220616  85.6676511
  69.2092493  44.1447285  86.1867743  69.1163866  48.6774043  80.7174751
  68.4809699  48.7508670  81.4295656  68.7861273  49.2667642  80.0393830
  74.3462216  43.1776426  86.9219073  75.0787388  42.6075643  87.1556902
  73.5901572  42.7898027  87.3625578  63.6206795  46.1393521  80.4135726
  63.5043053  45.4638424  81.0816810  63.7309055  45.6525895  79.5967879
  65.9638336  45.6003668  84.1182415  65.5996543  45.0734289  84.8295337
  66.8205452  45.2102137  83.9448901  71.8687637  36.8898000  91.3813681
  71.5370961  37.7593411  91.1574896  71.2733250  36.5734284  92.0607712
  65.6043823  40.6293567  79.1143764  65.7718225  41.4973804  79.4814235
  65.4140992  40.7920849  78.1905053  68.3619156  49.0910546  90.7809594
  68.0619879  49.9935585  90.6725401  68.0170216  48.8242730  91.6330747
  61.8131638  45.5424343  86.8146298  60.8882134  45.4100557  87.0223990
  62.0616051  46.3218562  87.3116241  71.7616300  41.6093087  88.4607031
  70.8533177  41.5408495  88.1665792  71.7103896  42.0865031  89.2888857
  65.5833044  43.0851225  80.0990430  65.4632669  43.5308276  80.9375911
  64.8885632  43.4336543  79.5403969  59.1740449  45.1857617  87.6490087
  59.3032830  45.4392096  88.5629499  58.4937900  45.7785325  87.3294743
  63.3439936  55.8554867  83.7480562  63.2663966  56.8062692  83.8269042
  62.7401580  55.5100739  84.4055488  65.8357166  43.0282732  96.4041929
  65.0590500  43.5876652  96.3944793  66.4747729  43.5139515  96.9256799
  73.6277946  39.8109525  90.2384905  72.9852327  40.1042058  89.5924700
  73.1232875  39.6962445  91.0438102  71.2818110  43.5572698  80.9270764
  72.1935966  43.7900085  80.7518462  70.7727757  44.1409742  80.3645843
  64.0903538  45.8368186  95.9659896  64.8318222  46.3753229  95.6894719
  63.3840523  46.4634474  96.1231447  69.5658878  47.9797326  94.5632057
  69.9742234  47.5379737  93.8186689  68.8436139  47.4049953  94.8166250
  65.9189948  42.9169933  91.9365614  66.7651143  43.3409346  92.0800263
  65.8588585  42.2603557  92.6304177  69.8887692  48.5398517  88.3184346
  69.2596555  48.7044231  87.6160414  69.5013354  48.9540126  89.0895310
  73.7676924  49.4752954  85.6728710  73.0827962  49.8551856  85.1225743
  73.8520774  50.0848281  86.4060657  69.0689393  40.5774301  93.5946788
  68.8250325  41.3316362  93.0581063  69.3449324  40.9559649  94.4294035
  71.0227856  47.1212913  92.2724053  71.2344751  47.7644673  91.5958434
  70.9757604  46.2875230  91.8045983  68.6254085  39.7330734  89.1760625
  67.7638564  40.0311988  89.4677363  68.6516519  39.9501133  88.2441658
  65.4415654  48.2772925  85.5834431  65.9054000  48.5560628  84.7939054
  65.1772452  47.3756369  85.4007522  62.3339735  47.8244406  88.5214194
  62.9041092  48.2531675  87.8831679  62.9247847  47.5426991  89.2198380
  64.3784540  44.3996077  82.3923996  65.0808584  44.8517121  82.8597923
  64.0465169  43.7579896  83.0203889  62.8264902  42.9907834  96.7675206
  62.1963562  43.6724115  97.0010602  62.7200990  42.8790915  95.8228344
  58.1209874  42.6579630  87.6941130  57.3308928  42.9137158  87.2181240
  58.6121122  43.4727968  87.7993170  72.1373684  49.9984869  90.4446411
  72.9591127  49.5965056  90.1629092  72.1336087  49.8953103  91.3962526
  60.0724620  43.0224209  84.6524606  59.2755783  43.1342903  85.1708102
  59.8450212  43.3610861  83.7865497  65.9030287  49.5468912  92.6007121
  65.9674720  50.0089319  93.4365293  65.1941211  48.9166277  92.7289431
  56.4047577  42.9110120  90.1256121  56.6555616  43.7957130  90.3913696
  56.9407126  42.7314722  89.3531212  80.2279677  46.3423617  86.7931382
  79.4743385  45.7731015  86.6375386  80.3627218  46.3086282  87.7402017
  65.6178305  51.2137020  82.4686101  65.4823980  52.0588555  82.8970949
  66.1588117  51.4156297  81.7052035  62.1045645  37.2928600  99.1300457
  61.7112590  36.7394798  99.8048101  62.9211785  37.6039178  99.5206974
  59.0707702  48.7312458  83.0414026  59.5832223  49.5255708  83.1919591
  59.7230415  48.0338748  82.9747628  60.8802587  51.8478214  85.1236780
  61.0569215  52.7696179  84.9357764  61.6759420  51.5336633  85.5531159
  65.0213605  38.7086479  96.7220713  65.7623319  39.3093632  96.6425176
  65.2531528  37.9664116  96.1638756  60.1654944  43.8942846  94.9998943
  60.0508459  42.9928103  95.3006042  59.3099461  44.1406543  94.6483759
  67.2446781  51.8360586  96.5986443  66.8010635  51.0496965  96.2807348
  67.9063995  52.0239737  95.9330334  62.0033902  53.3656388  91.1247122
  62.5541328  53.2373451  90.3524116  61.1645378  53.6651277  90.7742015
  69.3428019  52.1163386  94.6267845  69.3246495  52.9372267  94.1348114
  70.2647939  51.9917461  94.8517986  65.8001073  49.6307516  95.4691353
  66.3329410  48.8695804  95.2390661  65.2715155  49.3381167  96.2115508
  68.9670768  34.7367582  90.9984995  68.6235038  35.6269223  90.9224105
  69.3349731  34.5469239  90.1354580  57.0356619  47.0601112  83.8173597
  57.8731841  47.4698120  83.6007305  57.2134887  46.1200554  83.7873791
  68.9321051  44.7276193  79.5057430  68.4167675  45.4980797  79.7445817
  68.6598360  44.0541329  80.1290491  66.5168162  39.5725893  84.5642668
  65.6609759  39.1832744  84.3848307  66.9295114  39.6517854  83.7042454
  68.0467309  37.1072237  88.9634228  67.5432104  37.0702372  88.1502033
  68.3397916  38.0164979  89.0230885  64.2910195  37.1910966  87.9700410
  65.1563191  36.9953775  87.6106299  64.3587704  36.9621318  88.8969767
  73.9055325  47.4808547  81.4410603  73.1284768  47.1419707  80.9965766
  74.5846806  47.4861170  80.7665569  68.7207354  42.6003285  81.3317211
  68.4157490  42.9149434  82.1827354  69.6737796  42.6784705  81.3744544
  67.1653786  48.7593508  82.9810165  66.6375148  48.0246268  82.6683403
  66.6641289  49.5368184  82.7350133  72.1446632  46.9542529  88.0977211
  71.4870307  47.6441790  88.1857340  72.9487031  47.3438961  88.4411198
  61.8972514  39.4213174  85.3416777  62.4716266  39.1988356  84.6089970
  62.4843496  39.4901869  86.0945378  70.9552091  45.3086901  86.1481153
  71.4683973  45.9416893  86.6502863  71.6053315  44.7088097  85.7824513
  62.2242101  41.4517635  79.3612662  61.3879413  41.7892322  79.6821937
  62.0846871  41.3166615  78.4239799  64.1995181  36.2954423  84.0691846
  63.5459594  35.9803440  83.4448461  64.1575656  35.6730164  84.7951669
  65.3106386  46.5773718  75.9845138  64.4033448  46.3462972  76.1836287
  65.8077418  45.7811338  76.1719120  68.2174465  55.2871226  78.9041824
  67.5436164  55.5902922  79.5126782  68.6040287  56.0900306  78.5547281
  67.4332922  42.7836357  88.3939494  66.5155483  43.0051304  88.2361182
  67.8493065  42.8582667  87.5351201  68.2167970  44.1827772  83.5242174
  68.9639789  44.6949170  83.2149296  68.4859559  43.8611825  84.3846568
  66.4894620  46.6786313  80.5069128  65.5805839  46.3945346  80.6041598
  66.5189704  47.0985392  79.6472435  71.7213887  50.2892903  84.2760296
  71.2676214  49.4483813  84.3325486  71.0907854  50.9254301  84.6135076
  70.6646807  41.2184889  85.5060963  69.9269564  40.7062275  85.8371206
  70.9173580  40.7785270  84.6944240  70.1646826  52.1269399  85.2110114
  70.4569801  52.6874457  84.4922480  70.6745447  52.4197960  85.9663273
  70.7658434  33.9961141  86.1002733  71.0717311  33.1358504  85.8128648
  71.4911039  34.5878761  85.9001726  57.0582790  44.3991827  84.4884330
  56.8607190  43.8061188  83.7635397  56.5029454  44.0944038  85.2060269
  65.0379514  44.2914934  86.6078924  65.0928124  43.3388770  86.5321400
  64.2270716  44.4474373  87.0920222  66.1870708  48.2195057  77.8457207
  65.7490138  47.5030916  77.3862844  66.9281148  48.4471172  77.2842298
  62.9771874  42.9091994  84.3669302  62.1639739  43.2086164  84.7734495
  63.4730868  42.5147682  85.0843785  65.1280452  52.9049750  86.3003567
  65.0856630  53.1310597  85.3712099  66.0443151  52.6713125  86.4489368
  68.5746085  43.3733818  93.1984196  68.9295473  43.6005291  94.0578662
  69.2218217  43.7052195  92.5761452  74.3043822  46.4952254  83.9033525
  74.1661721  46.6853850  82.9754715  73.9480041  47.2571637  84.3601577
  62.4685949  40.4810349  89.9830537  63.1085328  40.3399108  89.2853501
  61.6363479  40.1944862  89.6069139  74.3313202  48.5628781  88.9144797
  74.7649709  48.4704070  89.7627851  75.0444783  48.5386281  88.2764813
  63.2446252  49.7812780  86.0965530  64.0386851  49.2863100  85.8948105
  62.5337945  49.2530643  85.7333235  68.0641097  52.1630875  90.4477898
  68.1178119  52.7321811  91.2155613  67.1955878  52.3332760  90.0831935
  59.5529016  43.9255861  82.1725283  58.6226604  43.8640317  82.3895245
  59.6486488  43.4031814  81.3761924  59.4714565  40.4510674  84.7603524
  59.7321382  41.3656007  84.6512685  60.2931737  39.9835117  84.9100137
  60.9439490  41.8648431  91.9302349  61.6162544  41.6565793  91.2814998
  60.1169277  41.6670517  91.4907581  75.1928752  48.6052482  91.4477682
  75.3864642  49.5098292  91.6936957  75.0929370  48.1459901  92.2816267
  66.8465062  38.4910372  93.9468010  66.1992977  39.1900322  93.8532486
  67.6166078  38.9246516  94.3144258  70.2543860  48.7559224  97.0218563
  70.1029367  48.5269776  96.1048647  70.2448540  49.7129826  97.0349908
  67.0229197  46.3291137  92.0064829  67.9521257  46.4802297  91.8333797
  66.6020227  46.4175158  91.1513476  65.8217528  50.3541801  89.7763367
  65.6828614  49.9860586  90.6489305  65.0332125  50.8689441  89.6047325
  66.4165680  55.4550898  81.1188904  66.5917436  54.9838941  81.9334526
  65.7298468  56.0816664  81.3470164  67.3722744  49.7323404  87.1652205
  67.0372576  49.6924174  88.0609855  66.8726689  49.0668120  86.6922615
  61.3466988  45.1391034  92.6904786  61.2086785  44.4071273  93.2916325
  62.2571911  45.0499934  92.4088974  70.3081935  47.0779439  77.4389264
  69.6911106  46.3526267  77.3422317  69.8398424  47.8388799  77.0956339
  63.9749288  44.8510994  92.1788466  64.6848907  44.2104186  92.1375084
  63.9318596  45.1023888  93.1014646  71.9636067  51.7878347  95.0995045
  71.9048613  51.1037567  94.4325628  72.3655585  52.5297337  94.6475671
  62.6878222  41.8376211  93.9984105  62.1515579  41.3866950  94.6505701
  62.0994931  41.9722120  93.2554569  60.9826766  58.6040261  87.8928764
  61.2223364  59.2358785  88.5707782  60.1395962  58.2528301  88.1794123
  62.0980481  41.2964863  76.5610569  61.2209947  41.1753664  76.1972815
  62.5738234  40.5050941  76.3089457  71.9653474  49.7517931  93.3309024
  71.0780253  49.4143853  93.4535423  72.5352025  49.0200962  93.5677790
  53.6182621  46.0842023  86.6552076  54.3053661  45.7703753  86.0673091
  53.4630750  46.9883387  86.3819327  58.4217343  40.9732219  91.0837100
  58.3375532  40.3657889  90.3487509  57.6000050  41.4641237  91.0846596
  65.4954628  54.4119383  90.2970268  65.4224799  55.2174355  90.8089572
  65.0532021  54.6111349  89.4718289  65.2844407  53.6491153  83.8073089
  64.5011929  54.1912833  83.9011314  65.9837152  54.1665133  84.2067330
  68.5941057  39.4585783  86.4507295  69.0909757  38.7055745  86.1308365
  67.8228039  39.4950099  85.8850504  76.4470815  45.1626148  88.0925586
  76.4360691  46.0450864  87.7219519  75.5788194  44.8097699  87.8980123
  67.9553311  54.3106217  92.4528426  68.6681283  54.9453682  92.3804328
  67.4643340  54.4070083  91.6368428  69.6770838  48.2157470  84.0245718
  68.7427117  48.3358932  83.8550422  69.8547506  47.3129937  83.7605728
  65.1776026  41.6003166  86.1778979  64.8073814  41.0474206  86.8659885
  65.6735118  40.9961299  85.6253979  73.0643389  44.0574789  84.5595752
  73.5303842  44.8902781  84.4856055  73.5150890  43.5919771  85.2641011
  63.0065225  52.0600661  93.2733997  63.7074684  52.6937144  93.4263391
  62.5360340  52.4015392  92.5129636  71.1319620  50.4018610  81.5581904
  71.4079464  50.2875205  82.4675778  70.2624119  50.0036095  81.5194077
  71.0360052  36.4255376  88.5986653  70.1223132  36.6559603  88.7668860
  71.4653154  36.5093820  89.4500686  70.8066511  44.6145268  91.0986547
  70.1537961  44.8621176  90.4439000  71.1846890  43.8009406  90.7649025
  67.7673684  54.6504961  85.2014718  67.9496079  53.8326617  85.6642470
  68.5906670  54.8672654  84.7639608  68.1015850  53.5773146  82.4629766
  68.6303616  53.0665601  81.8499928  68.3644070  53.2615677  83.3275299
  66.8554084  45.3565079  97.5852585  66.1794721  45.2559209  98.2554960
  67.6781717  45.2004293  98.0488582  58.6032943  51.5937016  90.2065100
  59.1886379  50.8480704  90.3393004  58.4057781  51.9040972  91.0901764
  61.4571598  54.6288263  85.2227542  60.7881973  55.1134391  84.7391582
  61.3184468  54.8757484  86.1370921  53.1950597  44.1642616  88.9269543
  53.2334697  43.6306207  89.7206661  52.6890890  43.6377821  88.3080520
  65.5976866  56.6632007  91.8210201  66.1495174  56.8263628  92.5859286
  65.9383060  57.2536444  91.1490225  60.5741360  39.0107156  92.4232085
  60.6382686  39.8721987  92.0109483  60.5108480  38.3981158  91.6904444
  60.0493632  41.0830289  96.0705120  60.6765671  40.7007366  96.6842644
  59.1921551  40.8644491  96.4360812  70.4487741  51.4893264  97.6758855
  70.9927645  52.1023222  97.1813810  69.8674586  52.0472843  98.1925868
  56.8259175  42.8906718  82.0023474  57.1212616  41.9817396  81.9490528
  55.9247211  42.8694458  81.6804477  68.7345254  54.6113982  88.8073883
  68.6096393  53.8103722  88.2984828  69.3924345  55.1060176  88.3187853
  60.3553422  40.9662715  87.9851023  59.6340008  41.5798682  87.8458496
  61.1446678  41.5020479  87.9067669  70.7980162  52.4123002  90.4353433
  69.8510498  52.2928353  90.3631760  71.1462935  51.5245500  90.5179694
  63.1579735  38.3017141  94.2591675  63.6814137  38.5479438  95.0217984
  62.9392069  39.1337176  93.8394812  58.5547017  40.5720816  82.1262800
  58.2259723  39.6918195  81.9437905  58.9086387  40.5168484  83.0139189
  67.8026595  52.2075718  86.6357785  67.6551558  51.2792426  86.8165355
  68.6280089  52.2295809  86.1514860  61.6688840  40.8593786  82.4938277
  62.0084912  41.3879707  81.7716886  62.1160960  41.1974192  83.2696844
  71.4060717  53.0304277  87.7222658  72.3307265  52.8247139  87.5847109
  71.2376021  52.7820678  88.6311999  64.3632281  39.2430836  91.9441345
  64.0229101  38.4438649  92.3462025  63.6571287  39.5432547  91.3718178
  65.0148752  36.3280149  90.3968668  65.8374822  35.8540627  90.2747559
  65.2586816  37.1070632  90.8967355  63.6556987  39.3568407  80.6931570
  64.3765349  39.7349660  80.1895287  63.0322291  40.0757284  80.7966548
  67.7988110  40.0613556  81.6289902  68.0151724  40.9438194  81.3278730
  67.3182177  39.6699770  80.8995544  62.5387331  43.0199269  88.2060647
  62.3931912  43.3339572  89.0984928  62.0612535  43.6384170  87.6531546
  64.3983714  40.0101817  88.2541536  64.3845283  39.1142911  87.9173834
  65.1156142  40.0172481  88.8879822  66.2509845  40.4439158  90.2994664
  65.9927623  41.3656228  90.2978994  65.7194885  40.0469592  90.9895128
  57.0132993  45.5604614  91.1448308  56.4686461  46.3364422  91.2768582
  57.8912343  45.9075418  90.9867429  63.8020610  38.8916198  83.5229107
  63.9236521  37.9632844  83.7219994  63.5122652  38.9054884  82.6107422
  66.6711800  36.5771108  86.6595826  66.6933497  36.6410441  85.7047806
  67.0879859  35.7375617  86.8536333  77.0495425  46.3126368  84.6975049
  77.4926571  45.5633693  84.2994172  76.1721935  46.3036504  84.3148781
  72.1831206  52.8656709  80.1781648  72.8782111  53.4863402  80.3968962
  72.5254356  52.0152060  80.4534025  57.7999015  44.6874510  94.0378465
  57.0580751  44.8357145  94.6243095  57.4791759  44.9482776  93.1745214
  74.0822629  50.3156415  81.7068978  74.6073953  50.6543687  80.9818298
  73.9944982  49.3803430  81.5232113  65.7442678  54.2290488  93.8358855
  66.0529804  53.9839635  94.7081555  66.5418160  54.4337127  93.3477725
  65.7663290  56.3828398  86.0664231  65.3268280  55.8904777  86.7597088
  66.5171407  55.8401366  85.8256307  58.2455629  52.5739939  86.0688860
  59.0713649  52.2743711  85.6887503  57.8949681  51.8047561  86.5178648
  63.2137162  51.9266407  88.1386533  62.5917171  51.2637112  87.8388761
  63.8842029  51.9527539  87.4560181  56.4464234  50.4926265  87.0277793
  55.6096142  50.0648440  86.8461794  56.4187879  50.6858709  87.9648584
  63.2861689  40.4048195  97.7319039  63.3349845  41.2810318  97.3496809
  63.8284204  39.8625588  97.1590682  73.7716535  50.9489318  97.0120176
  72.9812079  50.9313457  96.4724676  73.5349890  51.4877612  97.7669213
  73.8914410  47.7981785  94.3252905  73.9412415  47.6331792  95.2668428
  73.7828334  46.9309044  93.9350786  62.7750669  50.4770330  81.6144994
  62.9238789  51.1605795  80.9611666  63.5817112  50.4575420  82.1294449
  71.1818173  43.7812713  95.6412212  72.0828035  43.6419177  95.3496209
  71.2566147  43.9467167  96.5810389  65.5160978  41.1579567  94.4865398
  64.6464287  41.4513133  94.2147986  65.7520458  41.7420012  95.2072661
  75.3932607  50.2178726  94.5694926  75.1017415  50.5808707  95.4058387
  74.7804738  49.5045734  94.3908258  76.5928289  47.7831606  87.0897497
  77.4275181  48.2221410  87.2535057  76.7287418  47.3070259  86.2705742
  73.6419795  45.3411341  93.0374984  74.1173917  45.5338987  92.2293836
  72.7185361  45.3970527  92.7918368  60.5303302  46.5035508  82.6206063
  60.2849344  45.5997838  82.8186273  60.6999216  46.5052658  81.6785541
  68.2200012  37.3759184  92.0030818  68.7381956  38.1120211  91.6777307
  67.8655145  37.6823178  92.8377577  59.7998949  42.2363865  80.1192224
  59.1068194  42.3108220  79.4632260  59.5550701  41.4724209  80.6413741
  68.4712606  33.7959467  87.5231715  68.7514360  33.1282656  88.1492141
  69.2563213  33.9888562  87.0106379  66.2746074  52.9718461  79.0856741
  65.7020041  53.5908648  78.6327213  66.8478868  53.5217822  79.6196663
  72.3421464  42.2177101  91.2703290  73.2938887  42.3175198  91.2915514
  72.1724915  41.4255369  91.7801374  70.3635844  39.3032684  91.4562691
  69.7685776  39.5837697  90.7609179  70.0785540  39.7926585  92.2279432
  69.4943334  53.2555611  80.2165323  70.4274007  53.1901173  80.4198199
  69.4066547  54.0911878  79.7579856  72.1231351  52.5721481  77.1769271
  72.0444982  52.2381345  78.0705029  72.9441018  53.0643249  77.1760743
  74.8209542  45.4383221  90.3845590  74.7885862  44.4999221  90.5705273
  75.4310166  45.5167257  89.6511414  66.6592873  44.3079273  76.4272794
  67.6051978  44.1785482  76.4961212  66.2807118  43.5693935  76.9042222
  74.9704031  42.2294264  90.4303873  74.4543079  41.4452721  90.2433802
  75.8543979  41.9012981  90.5950392  72.6314757  35.9735280  86.3899685
  72.4339579  35.6650368  87.2743017  73.2414463  36.6996918  86.5197615
  80.6386092  46.4999227  89.5251626  81.3689480  46.2384515  90.0859330
  80.0293037  45.7627949  89.5653694  78.7201389  44.6407090  90.1226078
  77.9934553  44.5063055  89.5142569  78.3048676  44.9483919  90.9282796
  66.5431565  48.3597020  97.8873451  67.4634575  48.5375619  98.0813497
  66.5081148  47.4153065  97.7353150  64.8435790  42.2329250  76.3627679
  63.9367245  41.9362363  76.4390392  65.1211771  41.9359068  75.4961965
  55.7613730  43.5535613  86.8126725  55.4416515  42.7000921  86.5201099
  55.2147159  43.7684191  87.5684693  59.5393638  46.2698054  90.5296232
  59.7579648  47.2015162  90.5484266  59.9519412  45.9106029  91.3151036
  66.4597856  36.7766140  82.5171920  65.6498584  36.4313225  82.8927166
  67.1482273  36.4673683  83.1059532  68.3888404  35.8544186  84.1396217
  68.9419443  36.2739640  84.7986240  68.6258490  34.9279934  84.1819173
  64.4121503  41.8431260  99.9198981  64.3118230  42.7925617  99.8511072
  64.1943045  41.5149499  99.0475051  63.6134575  39.0916185  76.5039658
  64.4753739  39.4171083  76.7635475  63.7984919  38.3047681  75.9912724
  55.6301990  47.1738525  88.7819847  54.9365462  46.7592478  88.2689801
  56.3774981  47.2159061  88.1853266  71.7667211  37.9644712  83.6474881
  71.1865880  38.6229516  83.2652933  71.5003144  37.1422056  83.2362299
  70.2170778  37.3649769  85.8496201  70.7170556  37.4766304  85.0410520
  70.8606385  37.0610822  86.4897010  64.2752773  45.2728399  98.7364042
  63.7919855  46.0728759  98.9427931  64.3613712  45.2836344  97.7831486
  57.5438733  47.1056779  86.6585862  57.5209421  47.2044466  85.7067745
  57.8539369  47.9521929  86.9803028  60.2026111  49.1632934  90.7732476
  61.1569364  49.1316876  90.7062408  60.0038634  48.7023557  91.5882702
  60.7925493  47.7334050  93.3403274  61.6118382  48.2278128  93.3638111
  61.0662301  46.8166018  93.3120841  70.5492089  40.1244802  82.7031229
  69.6617944  40.4094453  82.4851424  70.9646078  39.9638565  81.8558506
  73.9006625  40.1491323  86.4185569  74.6767015  40.6387775  86.6910185
  73.1754759  40.5749377  86.8757438  76.3379184  40.8618942  87.4759509
  76.9323675  40.6214678  86.7652817  76.4105768  40.1426073  88.1033045
  58.5576340  54.7052553  87.7902674  58.4230808  53.9452954  87.2240672
  58.1408402  55.4293453  87.3231463  69.6935303  49.8889477  76.7979249
  70.3971153  50.0939479  77.4136905  68.9697951  50.4566238  77.0628333
  70.5233113  45.6399338  82.9181519  70.4668314  46.0967889  82.0789152
  71.0761455  44.8790022  82.7404362  74.3337919  41.4289070  83.7431639
  74.0774853  41.0285705  84.5739847  73.7090787  42.1432864  83.6181778
  78.6450257  44.1685143  86.2502930  78.0849815  44.2378332  87.0234492
  78.0393760  43.9926128  85.5302427  61.7145466  55.6021870  88.0021117
  61.5977850  56.5467303  87.8999807  60.8937912  55.2995432  88.3906916
  71.6022000  50.3272006  78.8477709  72.4367604  49.8953204  78.6655184
  71.4406343  50.1554019  79.7754604  71.2567892  46.8304119  80.2134049
  71.2016696  46.6648391  79.2722493  70.6313948  47.5380152  80.3696238
  56.0460407  42.0672183  94.0395471  56.6919271  41.5571137  94.5282696
  55.8377558  42.8040865  94.6138896  68.5713799  49.1353031  99.5387611
  69.4404959  49.3093683  99.1774246  68.0920551  49.9547448  99.4163341
  64.5664018  36.3312228  79.7919367  64.5542688  37.2754068  79.9487638
  65.4587440  36.1482374  79.4978828  62.7399980  56.2550132  91.2177045
  63.6427226  56.2873742  91.5343540  62.5137350  55.3250583  91.2323381
  64.4953582  55.0081119  87.8787124  63.5449213  55.0082980  87.7651496
  64.7986068  54.2613853  87.3623158  68.3816137  32.9255005  84.0465304
  67.6148533  32.3713491  84.1921986  68.7926842  32.9976874  84.9079455
  60.3857898  39.2139801  98.1370485  61.2489360  38.8576605  98.3473810
  59.8123309  38.8753695  98.8245889  80.2306275  60.8441657  88.9432886
  80.8684685  60.7248404  88.2396226  80.1127118  61.7922501  89.0020838
  77.0395981  60.7969085  88.8794411  76.7014493  60.6810150  87.9914946
  77.9085750  60.3960250  88.8595417  72.8982797  62.6504561  84.8691302
  72.3347662  62.5594498  84.1007589  72.7835192  61.8304466  85.3493794
  77.5215764  61.9503937  94.8380616  77.5104405  61.5556735  93.9661120
  77.6836404  61.2170009  95.4314388  70.4447229  64.1455753  87.7075522
  71.2368521  63.8046578  87.2921821  70.6843879  64.2550728  88.6277676
  74.2423026  64.7341049  93.7859800  73.9512892  65.6386679  93.6706467
  74.8780010  64.7757576  94.5003870  75.1679232  62.1117897  90.3761160
  75.7642805  61.8873919  89.6618123  75.2254204  61.3702643  90.9786608
  79.7847544  58.5693111  86.0186094  80.5710633  58.1512534  85.6676511
  80.0486248  59.4739203  86.1867743  79.9557621  64.0065961  80.7174751
  79.3203454  64.0800588  81.4295656  79.6255027  64.5959560  80.0393830
  85.1855971  58.5068344  86.9219073  85.9181143  57.9367561  87.1556902
  84.4295326  58.1189944  87.3625578  76.8032090  60.9295585  84.1182415
  76.4390298  60.4026206  84.8295337  77.6599206  60.5394055  83.9448901
  76.4437577  55.9585485  79.1143764  76.6111980  56.8265722  79.4814235
  76.2534747  56.1212767  78.1905053  79.2012911  64.4202464  90.7809594
  78.9013634  65.3227503  90.6725401  78.8563970  64.1534647  91.6330747
  72.6525392  60.8716261  86.8146298  71.7275889  60.7392475  87.0223990
  72.9009805  61.6510480  87.3116241  82.6010054  56.9385004  88.4607031
  81.6926932  56.8700413  88.1665792  82.5497650  57.4156949  89.2888857
  70.0134203  60.5149534  87.6490087  70.1426584  60.7684013  88.5629499
  69.3331654  61.1077242  87.3294743  74.1833690  71.1846784  83.7480562
  74.1057720  72.1354609  83.8269042  73.5795334  70.8392657  84.4055488
  76.6750920  58.3574650  96.4041929  75.8984254  58.9168570  96.3944793
  77.3141483  58.8431433  96.9256799  82.1211864  58.8864616  80.9270764
  83.0329721  59.1192003  80.7518462  81.6121512  59.4701660  80.3645843
  74.9297293  61.1660103  95.9659896  75.6711977  61.7045147  95.6894719
  74.2234278  61.7926392  96.1231447  80.4052632  63.3089244  94.5632057
  80.8135988  62.8671654  93.8186689  79.6829894  62.7341871  94.8166250
  76.7583702  58.2461850  91.9365614  77.6044897  58.6701264  92.0800263
  76.6982340  57.5895475  92.6304177  80.7281447  63.8690434  88.3184346
  80.0990309  64.0336148  87.6160414  80.3407109  64.2832044  89.0895310
  84.6070679  64.8044872  85.6728710  83.9221717  65.1843773  85.1225743
  84.6914528  65.4140199  86.4060657  79.9083148  55.9066219  93.5946788
  79.6644079  56.6608279  93.0581063  80.1843078  56.2851566  94.4294035
  81.8621610  62.4504831  92.2724053  82.0738506  63.0936591  91.5958434
  81.8151359  61.6167148  91.8045983  79.4647839  55.0622652  89.1760625
  78.6032318  55.3603905  89.4677363  79.4910274  55.2793051  88.2441658
  76.2809409  63.6064842  85.5834431  76.7447754  63.8852545  84.7939054
  76.0166207  62.7048287  85.4007522  73.1733490  63.1536324  88.5214194
  73.7434847  63.5823592  87.8831679  73.7641602  62.8718909  89.2198380
  75.2178295  59.7287995  82.3923996  75.9202338  60.1809038  82.8597923
  74.8858923  59.0871814  83.0203889  73.6658656  58.3199751  96.7675206
  73.0357317  59.0016032  97.0010602  73.5594744  58.2082833  95.8228344
  68.9603629  57.9871547  87.6941130  68.1702683  58.2429076  87.2181240
  69.4514876  58.8019885  87.7993170  82.9767438  65.3276787  90.4446411
  83.7984882  64.9256974  90.1629092  82.9729841  65.2245021  91.3962526
  76.7424042  64.8760830  92.6007121  76.8068474  65.3381237  93.4365293
  76.0334966  64.2458195  92.7289431  67.2441332  58.2402038  90.1256121
  67.4949370  59.1249048  90.3913696  67.7800880  58.0606639  89.3531212
  91.0673431  61.6715535  86.7931382  90.3137140  61.1022933  86.6375386
  91.2020973  61.6378200  87.7402017  72.9439399  52.6220517  99.1300457
  72.5506345  52.0686716  99.8048101  73.7605539  52.9331096  99.5206974
  71.7196341  67.1770132  85.1236780  71.8962970  68.0988096  84.9357764
  72.5153175  66.8628551  85.5531159  75.8607360  54.0378396  96.7220713
  76.6017073  54.6385549  96.6425176  76.0925283  53.2956034  96.1638756
  71.0048698  59.2234764  94.9998943  70.8902213  58.3220021  95.3006042
  70.1493216  59.4698460  94.6483759  78.0840536  67.1652504  96.5986443
  77.6404390  66.3788882  96.2807348  78.7457749  67.3531654  95.9330334
  72.8427657  68.6948305  91.1247122  73.3935082  68.5665369  90.3524116
  72.0039133  68.9943194  90.7742015  80.1821774  67.4455304  94.6267845
  80.1640249  68.2664185  94.1348114  81.1041694  67.3209379  94.8517986
  76.6394828  64.9599433  95.4691353  77.1723165  64.1987721  95.2390661
  76.1108909  64.6673085  96.2115508  79.8064523  50.0659499  90.9984995
  79.4628792  50.9561141  90.9224105  80.1743486  49.8761157  90.1354580
  67.8750374  62.3893030  83.8173597  68.7125596  62.7990038  83.6007305
  68.0528641  61.4492472  83.7873791  79.7714806  60.0568110  79.5057430
  79.2561429  60.8272715  79.7445817  79.4992114  59.3833247  80.1290491
  77.3561917  54.9017811  84.5642668  76.5003513  54.5124662  84.3848307
  77.7688868  54.9809772  83.7042454  78.8861063  52.4364154  88.9634228
  78.3825859  52.3994290  88.1502033  79.1791670  53.3456897  89.0230885
  75.1303949  52.5202884  87.9700410  75.9956946  52.3245693  87.6106299
  75.1981458  52.2913236  88.8969767  84.7449080  62.8100465  81.4410603
  83.9678523  62.4711624  80.9965766  85.4240561  62.8153088  80.7665569
  79.5601109  57.9295202  81.3317211  79.2551244  58.2441352  82.1827354
  80.5131551  58.0076622  81.3744544  78.0047541  64.0885426  82.9810165
  77.4768902  63.3538185  82.6683403  77.5035043  64.8660102  82.7350133
  82.9840387  62.2834446  88.0977211  82.3264061  62.9733708  88.1857340
  83.7880786  62.6730878  88.4411198  81.7945845  60.6378819  86.1481153
  82.3077727  61.2708811  86.6502863  82.4447069  60.0380014  85.7824513
  75.0388936  51.6246341  84.0691846  74.3853348  51.3095358  83.4448461
  74.9969410  51.0022081  84.7951669  79.0568220  70.6163143  78.9041824
  78.3829918  70.9194840  79.5126782  79.4434042  71.4192224  78.5547281
  78.2726676  58.1128274  88.3939494  77.3549238  58.3343221  88.2361182
  78.6886820  58.1874585  87.5351201  79.0561724  59.5119690  83.5242174
  79.8033543  60.0241087  83.2149296  79.3253314  59.1903743  84.3846568
  77.3288374  62.0078231  80.5069128  76.4199594  61.7237264  80.6041598
  77.3583458  62.4277309  79.6472435  82.5607642  65.6184820  84.2760296
  82.1069969  64.7775730  84.3325486  81.9301608  66.2546219  84.6135076
  81.5040561  56.5476806  85.5060963  80.7663318  56.0354193  85.8371206
  81.7567335  56.1077188  84.6944240  81.0040581  67.4561317  85.2110114
  81.2963555  68.0166374  84.4922480  81.5139202  67.7489878  85.9663273
  81.6052189  49.3253058  86.1002733  81.9111065  48.4650422  85.8128648
  82.3304793  49.9170679  85.9001726  67.8976545  59.7283745  84.4884330
  67.7000944  59.1353106  83.7635397  67.3423209  59.4235955  85.2060269
  75.8773268  59.6206851  86.6078924  75.9321878  58.6680688  86.5321400
  75.0664470  59.7766291  87.0920222  75.9674206  68.2341668  86.3003567
  75.9250385  68.4602514  85.3712099  76.8836905  68.0005043  86.4489368
  79.4139840  58.7025736  93.1984196  79.7689228  58.9297209  94.0578662
  80.0611971  59.0344113  92.5761452  85.1437577  61.8244172  83.9033525
  85.0055475  62.0145768  82.9754715  84.7873796  62.5863554  84.3601577
  73.3079703  55.8102267  89.9830537  73.9479082  55.6691026  89.2853501
  72.4757234  55.5236780  89.6069139  85.1706956  63.8920699  88.9144797
  85.6043463  63.7995988  89.7627851  85.8838537  63.8678199  88.2764813
  74.0840007  65.1104697  86.0965530  74.8780605  64.6155017  85.8948105
  73.3731699  64.5822560  85.7333235  78.9034851  67.4922793  90.4477898
  78.9571874  68.0613729  91.2155613  78.0349633  67.6624678  90.0831935
  71.7833245  57.1940349  91.9302349  72.4556298  56.9857711  91.2814998
  70.9563031  56.9962435  91.4907581  86.0322506  63.9344399  91.4477682
  86.2258396  64.8390210  91.6936957  85.9323124  63.4751818  92.2816267
  77.6858817  53.8202290  93.9468010  77.0386732  54.5192240  93.8532486
  78.4559832  54.2538434  94.3144258  81.0937615  64.0851142  97.0218563
  80.9423121  63.8561694  96.1048647  81.0842294  65.0421743  97.0349908
  77.8622951  61.6583055  92.0064829  78.7915011  61.8094214  91.8333797
  77.4413981  61.7467076  91.1513476  76.6611283  65.6833719  89.7763367
  76.5222369  65.3152504  90.6489305  75.8725879  66.1981359  89.6047325
  77.2559435  70.7842816  81.1188904  77.4311191  70.3130859  81.9334526
  76.5692223  71.4108582  81.3470164  78.2116498  65.0615322  87.1652205
  77.8766331  65.0216092  88.0609855  77.7120444  64.3960038  86.6922615
  72.1860742  60.4682952  92.6904786  72.0480540  59.7363191  93.2916325
  73.0965665  60.3791852  92.4088974  81.1475690  62.4071356  77.4389264
  80.5304860  61.6818184  77.3422317  80.6792178  63.1680716  77.0956339
  74.8143043  60.1802911  92.1788466  75.5242661  59.5396103  92.1375084
  74.7712351  60.4315806  93.1014646  82.8029821  67.1170265  95.0995045
  82.7442368  66.4329485  94.4325628  83.2049340  67.8589255  94.6475671
  73.5271977  57.1668129  93.9984105  72.9909334  56.7158868  94.6505701
  72.9388685  57.3014038  93.2554569  82.8047229  65.0809849  93.3309024
  81.9174007  64.7435770  93.4535423  83.3745780  64.3492880  93.5677790
  64.4576376  61.4133940  86.6552076  65.1447416  61.0995670  86.0673091
  64.3024504  62.3175305  86.3819327  69.2611098  56.3024137  91.0837100
  69.1769287  55.6949806  90.3487509  68.4393804  56.7933155  91.0846596
  76.3348382  69.7411301  90.2970268  76.2618554  70.5466272  90.8089572
  75.8925775  69.9403267  89.4718289  79.4334812  54.7877700  86.4507295
  79.9303511  54.0347663  86.1308365  78.6621793  54.8242017  85.8850504
  87.2864569  60.4918066  88.0925586  87.2754445  61.3742781  87.7219519
  86.4181949  60.1389617  87.8980123  78.7947066  69.6398135  92.4528426
  79.5075038  70.2745600  92.3804328  78.3037094  69.7362001  91.6368428
  80.5164592  63.5449388  84.0245718  79.5820871  63.6650850  83.8550422
  80.6941261  62.6421854  83.7605728  76.0169781  56.9295083  86.1778979
  75.6467568  56.3766124  86.8659885  76.5128873  56.3253217  85.6253979
  83.9037144  59.3866707  84.5595752  84.3697596  60.2194698  84.4856055
  84.3544644  58.9211688  85.2641011  73.8458979  67.3892578  93.2733997
  74.5468439  68.0229061  93.4263391  73.3754094  67.7307310  92.5129636
  81.9713375  65.7310528  81.5581904  82.2473219  65.6167123  82.4675778
  81.1017874  65.3328013  81.5194077  81.8753807  51.7547294  88.5986653
  80.9616886  51.9851521  88.7668860  82.3046908  51.8385738  89.4500686
  81.6460265  59.9437186  91.0986547  80.9931715  60.1913093  90.4439000
  82.0240645  59.1301324  90.7649025  78.6067439  69.9796879  85.2014718
  78.7889833  69.1618535  85.6642470  79.4300425  70.1964571  84.7639608
  78.9409604  68.9065064  82.4629766  79.4697371  68.3957519  81.8499928
  79.2037824  68.5907594  83.3275299  77.6947838  60.6856997  97.5852585
  77.0188475  60.5851126  98.2554960  78.5175472  60.5296211  98.0488582
  69.4426697  66.9228933  90.2065100  70.0280134  66.1772621  90.3393004
  69.2451536  67.2332890  91.0901764  72.2965352  69.9580181  85.2227542
  71.6275728  70.4426308  84.7391582  72.1578222  70.2049401  86.1370921
  64.0344352  59.4934534  88.9269543  64.0728451  58.9598124  89.7206661
  63.5284645  58.9669739  88.3080520  76.4370621  71.9923924  91.8210201
  76.9888929  72.1555546  92.5859286  76.7776814  72.5828362  91.1490225
  71.4135114  54.3399074  92.4232085  71.4776441  55.2013905  92.0109483
  71.3502234  53.7273076  91.6904444  70.8887387  56.4122207  96.0705120
  71.5159426  56.0299284  96.6842644  70.0315306  56.1936409  96.4360812
  81.2881495  66.8185182  97.6758855  81.8321399  67.4315140  97.1813810
  80.7068340  67.3764760  98.1925868  79.5739008  69.9405900  88.8073883
  79.4490148  69.1395640  88.2984828  80.2318099  70.4352093  88.3187853
  71.1947176  56.2954632  87.9851023  70.4733762  56.9090600  87.8458496
  71.9840432  56.8312397  87.9067669  81.6373917  67.7414920  90.4353433
  80.6904252  67.6220271  90.3631760  81.9856690  66.8537418  90.5179694
  73.9973490  53.6309059  94.2591675  74.5207892  53.8771355  95.0217984
  73.7785823  54.4629094  93.8394812  78.6420350  67.5367636  86.6357785
  78.4945312  66.6084344  86.8165355  79.4673843  67.5587727  86.1514860
  82.2454472  68.3596195  87.7222658  83.1701019  68.1539056  87.5847109
  82.0769775  68.1112596  88.6311999  75.2026035  54.5722754  91.9441345
  74.8622855  53.7730567  92.3462025  74.4965041  54.8724465  91.3718178
  75.8542507  51.6572066  90.3968668  76.6768576  51.1832545  90.2747559
  76.0980570  52.4362550  90.8967355  78.6381864  55.3905474  81.6289902
  78.8545479  56.2730112  81.3278730  78.1575931  54.9991687  80.8995544
  73.3781086  58.3491187  88.2060647  73.2325666  58.6631490  89.0984928
  72.9006289  58.9676087  87.6531546  75.2377468  55.3393735  88.2541536
  75.2239037  54.4434828  87.9173834  75.9549897  55.3464399  88.8879822
  77.0903599  55.7731075  90.2994664  76.8321377  56.6948146  90.2978994
  76.5588640  55.3761510  90.9895128  82.0349788  68.8781862  83.0784749
  82.2086665  68.3128285  82.3258602  82.5278679  69.6782757  82.8964239
  67.8526748  60.8896531  91.1448308  67.3080216  61.6656339  91.2768582
  68.7306098  61.2367336  90.9867429  74.6414364  54.2208115  83.5229107
  74.7630276  53.2924761  83.7219994  74.3516407  54.2346801  82.6107422
  77.5105555  51.9063026  86.6595826  77.5327252  51.9702359  85.7047806
  77.9273614  51.0667534  86.8536333  87.8889179  61.6418285  84.6975049
  88.3320325  60.8925610  84.2994172  87.0115689  61.6328422  84.3148781
  83.0224960  68.1948627  80.1781648  83.7175865  68.8155319  80.3968962
  83.3648111  67.3443978  80.4534025  68.6392770  60.0166428  94.0378465
  67.8974506  60.1649063  94.6243095  68.3185514  60.2774693  93.1745214
  84.9216384  65.6448332  81.7068978  85.4467708  65.9835605  80.9818298
  84.8338736  64.7095348  81.5232113  76.5836432  69.5582406  93.8358855
  76.8923559  69.3131553  94.7081555  77.3811914  69.7629044  93.3477725
  76.6057044  71.7120316  86.0664231  76.1662035  71.2196694  86.7597088
  77.3565161  71.1693283  85.8256307  69.0849383  67.9031856  86.0688860
  69.9107403  67.6035628  85.6887503  68.7343435  67.1339479  86.5178648
  74.0530916  67.2558325  88.1386533  73.4310926  66.5929030  87.8388761
  74.7235783  67.2819457  87.4560181  67.2857988  65.8218183  87.0277793
  66.4489897  65.3940357  86.8461794  67.2581634  66.0150626  87.9648584
  74.1255444  55.7340113  97.7319039  74.1743599  56.6102235  97.3496809
  74.6677958  55.1917506  97.1590682  84.6110290  66.2781236  97.0120176
  83.8205833  66.2605375  96.4724676  84.3743644  66.8169530  97.7669213
  84.7308165  63.1273702  94.3252905  84.7806170  62.9623710  95.2668428
  84.6222088  62.2600961  93.9350786  82.0211927  59.1104630  95.6412212
  82.9221790  58.9711095  95.3496209  82.0959902  59.2759085  96.5810389
  76.3554732  56.4871485  94.4865398  75.4858042  56.7805051  94.2147986
  76.5914213  57.0711930  95.2072661  86.2326362  65.5470644  94.5694926
  85.9411170  65.9100624  95.4058387  85.6198493  64.8337652  94.3908258
  87.4322044  63.1123524  87.0897497  88.2668935  63.5513328  87.2535057
  87.5681173  62.6362177  86.2705742  84.4813550  60.6703258  93.0374984
  84.9567671  60.8630905  92.2293836  83.5579115  60.7262444  92.7918368
  79.0593766  52.7051102  92.0030818  79.5775710  53.4412129  91.6777307
  78.7048899  53.0115095  92.8377577  79.3106360  49.1251385  87.5231715
  79.5908114  48.4574574  88.1492141  80.0956967  49.3180480  87.0106379
  83.1815219  57.5469018  91.2703290  84.1332642  57.6467116  91.2915514
  83.0118669  56.7547287  91.7801374  81.2029598  54.6324602  91.4562691
  80.6079530  54.9129614  90.7609179  80.9179295  55.1218503  92.2279432
  80.3337089  68.5847529  80.2165323  81.2667762  68.5193090  80.4198199
  80.2460302  69.4203795  79.7579856  82.9625105  67.9013399  77.1769271
  82.8838737  67.5673262  78.0705029  83.7834772  68.3935167  77.1760743
  85.6603297  60.7675138  90.3845590  85.6279617  59.8291139  90.5705273
  86.2703920  60.8459175  89.6511414  77.4986627  59.6371191  76.4272794
  78.4445732  59.5077399  76.4961212  77.1200872  58.8985853  76.9042222
  85.8097785  57.5586182  90.4303873  85.2936834  56.7744638  90.2433802
  86.6937734  57.2304898  90.5950392  83.4708512  51.3027197  86.3899685
  83.2733333  50.9942285  87.2743017  84.0808218  52.0288836  86.5197615
  91.4779846  61.8291145  89.5251626  92.2083235  61.5676433  90.0859330
  90.8686792  61.0919867  89.5653694  89.5595144  59.9699008  90.1226078
  88.8328307  59.8354973  89.5142569  89.1442430  60.2775836  90.9282796
  77.3825320  63.6888937  97.8873451  78.3028329  63.8667536  98.0813497
  77.3474903  62.7444983  97.7353150  66.6007485  58.8827531  86.8126725
  66.2810269  58.0292839  86.5201099  66.0540913  59.0976109  87.5684693
  70.3787392  61.5989972  90.5296232  70.5973402  62.5307080  90.5484266
  70.7913166  61.2397946  91.3151036  77.2991610  52.1058057  82.5171920
  76.4892339  51.7605142  82.8927166  77.9876027  51.7965601  83.1059532
  79.2282159  51.1836104  84.1396217  79.7813197  51.6031557  84.7986240
  79.4652245  50.2571852  84.1819173  75.2515258  57.1723178  99.9198981
  75.1511985  58.1217535  99.8511072  75.0336800  56.8441417  99.0475051
  74.4528329  54.4208103  76.5039658  75.3147493  54.7463001  76.7635475
  74.6378673  53.6339599  75.9912724  66.4695745  62.5030442  88.7819847
  65.7759216  62.0884395  88.2689801  67.2168736  62.5450979  88.1853266
  82.6060966  53.2936629  83.6474881  82.0259635  53.9521433  83.2652933
  82.3396898  52.4713974  83.2362299  81.0564532  52.6941687  85.8496201
  81.5564310  52.8058221  85.0410520  81.7000140  52.3902740  86.4897010
  75.1146528  60.6020317  98.7364042  74.6313610  61.4020677  98.9427931
  75.2007467  60.6128261  97.7831486  68.3832487  62.4348696  86.6585862
  68.3603176  62.5336383  85.7067745  68.6933124  63.2813847  86.9803028
  71.0419865  64.4924851  90.7732476  71.9963119  64.4608794  90.7062408
  70.8432389  64.0315475  91.5882702  71.6319247  63.0625967  93.3403274
  72.4512136  63.5570046  93.3638111  71.9056055  62.1457935  93.3120841
  81.3885844  55.4536720  82.7031229  80.5011699  55.7386370  82.4851424
  81.8039833  55.2930483  81.8558506  84.7400380  55.4783241  86.4185569
  85.5160770  55.9679693  86.6910185  84.0148514  55.9041295  86.8757438
  69.3970094  70.0344471  87.7902674  69.2624562  69.2744872  87.2240672
  68.9802156  70.7585371  87.3231463  80.5329057  65.2181394  76.7979249
  81.2364907  65.4231397  77.4136905  79.8091706  65.7858156  77.0628333
  81.3626867  60.9691256  82.9181519  81.3062069  61.4259807  82.0789152
  81.9155210  60.2081940  82.7404362  85.1731673  56.7580987  83.7431639
  84.9168608  56.3577623  84.5739847  84.5484541  57.4724781  83.6181778
  72.5539220  70.9313788  88.0021117  72.4371604  71.8759220  87.8999807
  71.7331666  70.6287349  88.3906916  82.4415755  65.6563923  78.8477709
  83.2761358  65.2245122  78.6655184  82.2800097  65.4845937  79.7754604
  82.0961647  62.1596037  80.2134049  82.0410451  61.9940308  79.2722493
  81.4707702  62.8672070  80.3696238  66.8854162  57.3964101  94.0395471
  67.5313025  56.8863055  94.5282696  66.6771313  58.1332783  94.6138896
  79.4107554  64.4644949  99.5387611  80.2798714  64.6385601  99.1774246
  78.9314305  65.2839365  99.4163341  75.4057772  51.6604146  79.7919367
  75.3936442  52.6045986  79.9487638  76.2981194  51.4774291  79.4978828
  73.5793734  71.5842050  91.2177045  74.4820981  71.6165660  91.5343540
  73.3531104  70.6542501  91.2323381  75.3347336  70.3373036  87.8787124
  74.3842967  70.3374898  87.7651496  75.6379822  69.5905771  87.3623158
  79.2209892  48.2546922  84.0465304  78.4542287  47.7005409  84.1921986
  79.6320597  48.3268791  84.9079455  71.2251653  54.5431718  98.1370485
  72.0883114  54.1868523  98.3473810  70.6517063  54.2045613  98.8245889
  91.0700030  76.1733575  88.9432886  91.7078440  76.0540322  88.2396226
  90.9520873  77.1214419  89.0020838  87.8789736  76.1261003  88.8794411
  87.5408247  76.0102067  87.9914946  88.7479504  75.7252168  88.8595417
  83.7376552  77.9796479  84.8691302  83.1741417  77.8886416  84.1007589
  83.6228947  77.1596384  85.3493794  88.3609519  77.2795854  94.8380616
  88.3498160  76.8848653  93.9661120  88.5230158  76.5461927  95.4314388
  81.2840984  79.4747671  87.7075522  82.0762275  79.1338495  87.2921821
  81.5237634  79.5842646  88.6277676  89.3176110  81.6467447  80.1805767
  88.6664090  82.2321527  79.7939780  90.1120473  82.1773642  80.2400804
  83.2431737  78.7356584  80.5792901  84.0162613  78.1885571  80.4405777
  83.5957136  79.6000833  80.7907362  85.0816780  80.0632966  93.7859800
  84.7906646  80.9678597  93.6706467  85.7173764  80.1049494  94.5003870
  86.0072987  77.4409815  90.3761160  86.6036559  77.2165837  89.6618123
  86.0647958  76.6994560  90.9786608  85.5798015  74.8949250  78.2111351
  85.8323536  74.3730771  77.4494814  84.6422574  74.7315396  78.3138035
  90.6241298  73.8985028  86.0186094  91.4104387  73.4804452  85.6676511
  90.8880002  74.8031121  86.1867743  90.7951375  79.3357879  80.7174751
  90.1597208  79.4092505  81.4295656  90.4648782  79.9251478  80.0393830
  96.0249725  73.8360262  86.9219073  96.7574897  73.2659478  87.1556902
  95.2689081  73.4481862  87.3625578  85.2994304  76.7977356  80.4135726
  85.1830562  76.1222259  81.0816810  85.4096564  76.3109730  79.5967879
  87.6425845  76.2587503  84.1182415  87.2784052  75.7318124  84.8295337
  88.4992961  75.8685972  83.9448901  93.5475146  67.5481836  91.3813681
  93.2158470  68.4177247  91.1574896  92.9520759  67.2318120  92.0607712
  87.2831332  71.2877403  79.1143764  87.4505734  72.1557639  79.4814235
  87.0928501  71.4504685  78.1905053  90.0406665  79.7494382  90.7809594
  89.7407388  80.6519421  90.6725401  89.6957725  79.4826565  91.6330747
  83.4919147  76.2008179  86.8146298  82.5669643  76.0684393  87.0223990
  83.7403560  76.9802398  87.3116241  93.4403809  72.2676922  88.4607031
  92.5320686  72.1992330  88.1665792  93.3891405  72.7448867  89.2888857
  87.2620553  73.7435060  80.0990430  87.1420178  74.1892111  80.9375911
  86.5673141  74.0920378  79.5403969  80.8527958  75.8441452  87.6490087
  80.9820339  76.0975931  88.5629499  80.1725409  76.4369160  87.3294743
  85.0227445  86.5138702  83.7480562  84.9451475  87.4646527  83.8269042
  84.4189089  86.1684575  84.4055488  87.5144675  73.6866568  96.4041929
  86.7378009  74.2460488  96.3944793  88.1535238  74.1723350  96.9256799
  95.3065455  70.4693360  90.2384905  94.6639836  70.7625893  89.5924700
  94.8020384  70.3546281  91.0438102  92.9605619  74.2156534  80.9270764
  93.8723475  74.4483920  80.7518462  92.4515266  74.7993578  80.3645843
  85.7691047  76.4952021  95.9659896  86.5105731  77.0337065  95.6894719
  85.0628032  77.1218310  96.1231447  91.2446387  78.6381161  94.5632057
  91.6529743  78.1963572  93.8186689  90.5223648  78.0633789  94.8166250
  87.5977457  73.5753768  91.9365614  88.4438652  73.9993182  92.0800263
  87.5376094  72.9187392  92.6304177  91.5675201  79.1982352  88.3184346
  90.9384064  79.3628066  87.6160414  91.1800863  79.6123962  89.0895310
  95.4464433  80.1336790  85.6728710  94.7615471  80.5135691  85.1225743
  95.5308283  80.7432116  86.4060657  90.7476902  71.2358136  93.5946788
  90.5037834  71.9900197  93.0581063  91.0236833  71.6143484  94.4294035
  92.7015365  77.7796749  92.2724053  92.9132260  78.4228509  91.5958434
  92.6545113  76.9459065  91.8045983  90.3041594  70.3914569  89.1760625
  89.4426073  70.6895823  89.4677363  90.3304028  70.6084968  88.2441658
  87.1203163  78.9356760  85.5834431  87.5841509  79.2144463  84.7939054
  86.8559961  78.0340205  85.4007522  84.0127244  78.4828242  88.5214194
  84.5828601  78.9115510  87.8831679  84.6035356  78.2010826  89.2198380
  86.0572049  75.0579912  82.3923996  86.7596093  75.5100956  82.8597923
  85.7252678  74.4163731  83.0203889  84.5052411  73.6491669  96.7675206
  83.8751071  74.3307950  97.0010602  84.3988499  73.5374751  95.8228344
  79.7997383  73.3163465  87.6941130  79.0096437  73.5720994  87.2181240
  80.2908631  74.1311803  87.7993170  93.8161193  80.6568704  90.4446411
  94.6378636  80.2548892  90.1629092  93.8123596  80.5536938  91.3962526
  81.7512129  73.6808044  84.6524606  80.9543292  73.7926739  85.1708102
  81.5237721  74.0194697  83.7865497  87.5817796  80.2052748  92.6007121
  87.6462229  80.6673155  93.4365293  86.8728720  79.5750112  92.7289431
  78.0835086  73.5693956  90.1256121  78.3343125  74.4540965  90.3913696
  78.6194635  73.3898557  89.3531212 101.9067186  77.0007453  86.7931382
 101.1530894  76.4314851  86.6375386 102.0414727  76.9670117  87.7402017
  87.2965814  81.8720855  82.4686101  87.1611489  82.7172391  82.8970949
  87.8375626  82.0740133  81.7052035  83.7833153  67.9512435  99.1300457
  83.3900099  67.3978633  99.8048101  84.5999294  68.2623013  99.5206974
  80.7495211  79.3896293  83.0414026  81.2619732  80.1839543  83.1919591
  81.4017924  78.6922584  82.9747628  82.5590096  82.5062049  85.1236780
  82.7356724  83.4280014  84.9357764  83.3546929  82.1920469  85.5531159
  86.7001114  69.3670314  96.7220713  87.4410828  69.9677467  96.6425176
  86.9319037  68.6247952  96.1638756  81.8442452  74.5526681  94.9998943
  81.7295968  73.6511938  95.3006042  80.9886970  74.7990378  94.6483759
  88.9234290  82.4944422  96.5986443  88.4798144  81.7080800  96.2807348
  89.5851504  82.6823572  95.9330334  83.6821411  84.0240223  91.1247122
  84.2328837  83.8957287  90.3524116  82.8432887  84.3235112  90.7742015
  91.0215528  82.7747221  94.6267845  91.0034004  83.5956103  94.1348114
  91.9435448  82.6501297  94.8517986  87.4788582  80.2891351  95.4691353
  88.0116919  79.5279639  95.2390661  86.9502664  79.9965003  96.2115508
  90.6458277  65.3951417  90.9984995  90.3022547  66.2853059  90.9224105
  91.0137240  65.2053075  90.1354580  78.7144128  77.7184947  83.8173597
  79.5519350  78.1281956  83.6007305  78.8922396  76.7784390  83.7873791
  90.6108560  75.3860028  79.5057430  90.0955184  76.1564633  79.7445817
  90.3385869  74.7125164  80.1290491  88.1955671  70.2309729  84.5642668
  87.3397268  69.8416579  84.3848307  88.6082623  70.3101690  83.7042454
  89.7254818  67.7656072  88.9634228  89.2219613  67.7286207  88.1502033
  90.0185425  68.6748815  89.0230885  85.9697704  67.8494802  87.9700410
  86.8350700  67.6537610  87.6106299  86.0375213  67.6205154  88.8969767
  95.5842834  78.1392383  81.4410603  94.8072277  77.8003542  80.9965766
  96.2634315  78.1445006  80.7665569  90.3994863  73.2587120  81.3317211
  90.0944999  73.5733269  82.1827354  91.3525305  73.3368540  81.3744544
  88.8441295  79.4177343  82.9810165  88.3162657  78.6830103  82.6683403
  88.3428798  80.1952020  82.7350133  93.8234141  77.6126364  88.0977211
  93.1657816  78.3025625  88.1857340  94.6274540  78.0022796  88.4411198
  83.5760023  70.0797010  85.3416777  84.1503775  69.8572191  84.6089970
  84.1631005  70.1485704  86.0945378  92.6339600  75.9670737  86.1481153
  93.1471482  76.6000728  86.6502863  93.2840824  75.3671932  85.7824513
  83.9029610  72.1101471  79.3612662  83.0666922  72.4476157  79.6821937
  83.7634380  71.9750451  78.4239799  85.8782690  66.9538259  84.0691846
  85.2247103  66.6387276  83.4448461  85.8363165  66.3313999  84.7951669
  86.9893895  77.2357554  75.9845138  86.0820957  77.0046807  76.1836287
  87.4864927  76.4395173  76.1719120  89.8961974  85.9455061  78.9041824
  89.2223673  86.2486758  79.5126782  90.2827796  86.7484141  78.5547281
  89.1120431  73.4420192  88.3939494  88.1942992  73.6635139  88.2361182
  89.5280574  73.5166503  87.5351201  89.8955479  74.8411608  83.5242174
  90.6427298  75.3533005  83.2149296  90.1647068  74.5195661  84.3846568
  88.1682129  77.3370149  80.5069128  87.2593348  77.0529181  80.6041598
  88.1977213  77.7569227  79.6472435  93.4001396  80.9476738  84.2760296
  92.9463723  80.1067648  84.3325486  92.7695363  81.5838136  84.6135076
  92.3434316  71.8768724  85.5060963  91.6057073  71.3646110  85.8371206
  92.5961089  71.4369106  84.6944240  91.8434335  82.7853235  85.2110114
  92.1357310  83.3458292  84.4922480  92.3532956  83.0781796  85.9663273
  92.4445943  64.6544976  86.1002733  92.7504820  63.7942340  85.8128648
  93.1698548  65.2462596  85.9001726  78.7370299  75.0575663  84.4884330
  78.5394699  74.4645023  83.7635397  78.1816963  74.7527873  85.2060269
  86.7167023  74.9498769  86.6078924  86.7715633  73.9972606  86.5321400
  85.9058225  75.1058208  87.0920222  87.8658217  78.8778892  77.8457207
  87.4277647  78.1614751  77.3862844  88.6068657  79.1055007  77.2842298
  84.6559383  73.5675829  84.3669302  83.8427248  73.8669999  84.7734495
  85.1518377  73.1731518  85.0843785  86.8067961  83.5633586  86.3003567
  86.7644139  83.7894432  85.3712099  87.7230659  83.3296960  86.4489368
  90.2533594  74.0317653  93.1984196  90.6082982  74.2589127  94.0578662
  90.9005726  74.3636030  92.5761452  95.9831331  77.1536089  83.9033525
  95.8449230  77.3437685  82.9754715  95.6267550  77.9155472  84.3601577
  84.1473457  71.1394184  89.9830537  84.7872837  70.9982944  89.2853501
  83.3150988  70.8528698  89.6069139  96.0100711  79.2212616  88.9144797
  96.4437218  79.1287905  89.7627851  96.7232292  79.1970117  88.2764813
  84.9233761  80.4396615  86.0965530  85.7174360  79.9446935  85.8948105
  84.2125454  79.9114478  85.7333235  89.7428606  82.8214710  90.4477898
  89.7965628  83.3905647  91.2155613  88.8743387  82.9916595  90.0831935
  81.2316525  74.5839697  82.1725283  80.3014113  74.5224152  82.3895245
  81.3273997  74.0615649  81.3761924  81.1502074  71.1094509  84.7603524
  81.4108891  72.0239843  84.6512685  81.9719246  70.6418952  84.9100137
  82.6226999  72.5232267  91.9302349  83.2950053  72.3149629  91.2814998
  81.7956786  72.3254353  91.4907581  96.8716261  79.2636317  91.4477682
  97.0652151  80.1682127  91.6936957  96.7716879  78.8043736  92.2816267
  88.5252571  69.1494208  93.9468010  87.8780486  69.8484157  93.8532486
  89.2953587  69.5830351  94.3144258  91.9331369  79.4143060  97.0218563
  91.7816876  79.1853611  96.1048647  91.9236049  80.3713661  97.0349908
  88.7016706  76.9874972  92.0064829  89.6308766  77.1386132  91.8333797
  88.2807736  77.0758993  91.1513476  87.5005037  81.0125637  89.7763367
  87.3616123  80.6444421  90.6489305  86.7119634  81.5273276  89.6047325
  88.0953189  86.1134733  81.1188904  88.2704945  85.6422777  81.9334526
  87.4085977  86.7400500  81.3470164  89.0510253  80.3907240  87.1652205
  88.7160085  80.3508010  88.0609855  88.5514198  79.7251955  86.6922615
  83.0254497  75.7974870  92.6904786  82.8874294  75.0655108  93.2916325
  83.9359420  75.7083770  92.4088974  91.9869444  77.7363274  77.4389264
  91.3698615  77.0110102  77.3422317  91.5185933  78.4972634  77.0956339
  85.6536797  75.5094829  92.1788466  86.3636416  74.8688021  92.1375084
  85.6106105  75.7607724  93.1014646  93.6423576  82.4462182  95.0995045
  93.5836122  81.7621402  94.4325628  94.0443094  83.1881172  94.6475671
  84.3665731  72.4960047  93.9984105  83.8303088  72.0450785  94.6505701
  83.7782440  72.6305956  93.2554569  82.6614275  89.2624096  87.8928764
  82.9010873  89.8942620  88.5707782  81.8183471  88.9112136  88.1794123
  83.7767990  71.9548698  76.5610569  82.8997456  71.8337499  76.1972815
  84.2525743  71.1634776  76.3089457  93.6440983  80.4101766  93.3309024
  92.7567762  80.0727688  93.4535423  94.2139534  79.6784797  93.5677790
  75.2970130  76.7425858  86.6552076  75.9841170  76.4287588  86.0673091
  75.1418259  77.6467223  86.3819327  80.1004852  71.6316054  91.0837100
  80.0163041  71.0241724  90.3487509  79.2787559  72.1225073  91.0846596
  87.1742137  85.0703219  90.2970268  87.1012308  85.8758190  90.8089572
  86.7319530  85.2695184  89.4718289  86.9631916  84.3074989  83.8073089
  86.1799438  84.8496669  83.9011314  87.6624661  84.8248968  84.2067330
  90.2728566  70.1169618  86.4507295  90.7697266  69.3639580  86.1308365
  89.5015548  70.1533935  85.8850504  98.1258324  75.8209984  88.0925586
  98.1148200  76.7034699  87.7219519  97.2575703  75.4681534  87.8980123
  89.6340820  84.9690053  92.4528426  90.3468792  85.6037517  92.3804328
  89.1430849  85.0653919  91.6368428  91.3558347  78.8741305  84.0245718
  90.4214626  78.9942768  83.8550422  91.5335015  77.9713772  83.7605728
  86.8563535  72.2587001  86.1778979  86.4861323  71.7058041  86.8659885
  87.3522627  71.6545134  85.6253979  94.7430898  74.7158625  84.5595752
  95.2091350  75.5486616  84.4856055  95.1938399  74.2503606  85.2641011
  84.6852734  82.7184496  93.2733997  85.3862193  83.3520979  93.4263391
  84.2147849  83.0599228  92.5129636  92.8107129  81.0602446  81.5581904
  93.0866973  80.9459040  82.4675778  91.9411628  80.6619931  81.5194077
  92.7147561  67.0839212  88.5986653  91.8010641  67.3143438  88.7668860
  93.1440663  67.1677656  89.4500686  92.4854020  75.2729103  91.0986547
  91.8325470  75.5205011  90.4439000  92.8634399  74.4593242  90.7649025
  89.4461193  85.3088797  85.2014718  89.6283588  84.4910453  85.6642470
  90.2694179  85.5256489  84.7639608  89.7803359  84.2356982  82.4629766
  90.3091125  83.7249436  81.8499928  90.0431578  83.9199512  83.3275299
  88.5341593  76.0148915  97.5852585  87.8582230  75.9143044  98.2554960
  89.3569226  75.8588128  98.0488582  80.2820452  82.2520851  90.2065100
  80.8673888  81.5064539  90.3393004  80.0845290  82.5624808  91.0901764
  83.1359107  85.2872098  85.2227542  82.4669482  85.7718226  84.7391582
  82.9971977  85.5341319  86.1370921  74.8738106  74.8226451  88.9269543
  74.9122206  74.2890042  89.7206661  74.3678399  74.2961657  88.3080520
  87.2764375  87.3215842  91.8210201  87.8282683  87.4847463  92.5859286
  87.6170569  87.9120280  91.1490225  82.2528869  69.6690992  92.4232085
  82.3170195  70.5305823  92.0109483  82.1895989  69.0564993  91.6904444
  81.7281141  71.7414124  96.0705120  82.3553180  71.3591202  96.6842644
  80.8709060  71.5228326  96.4360812  92.1275250  82.1477099  97.6758855
  92.6715154  82.7607058  97.1813810  91.5462095  82.7056678  98.1925868
  78.5046684  73.5490553  82.0023474  78.8000125  72.6401232  81.9490528
  77.6034720  73.5278293  81.6804477  90.4132763  85.2697818  88.8073883
  90.2883902  84.4687557  88.2984828  91.0711854  85.7644011  88.3187853
  82.0340931  71.6246550  87.9851023  81.3127517  72.2382518  87.8458496
  82.8234187  72.1604315  87.9067669  92.4767671  83.0706838  90.4353433
  91.5298007  82.9512189  90.3631760  92.8250444  82.1829336  90.5179694
  84.8367244  68.9600977  94.2591675  85.3601646  69.2063273  95.0217984
  84.6179578  69.7921011  93.8394812  80.2334526  71.2304651  82.1262800
  79.9047232  70.3502030  81.9437905  80.5873896  71.1752320  83.0139189
  89.4814104  82.8659554  86.6357785  89.3339067  81.9376261  86.8165355
  90.3067598  82.8879645  86.1514860  83.3476349  71.5177621  82.4938277
  83.6872421  72.0463542  81.7716886  83.7948469  71.8558027  83.2696844
  93.0848226  83.6888113  87.7222658  94.0094774  83.4830974  87.5847109
  92.9163530  83.4404514  88.6311999  86.0419790  69.9014672  91.9441345
  85.7016610  69.1022485  92.3462025  85.3358796  70.2016382  91.3718178
  86.6936261  66.9863984  90.3968668  87.5162331  66.5124462  90.2747559
  86.9374325  67.7654468  90.8967355  85.3344496  70.0152242  80.6931570
  86.0552858  70.3933495  80.1895287  84.7109800  70.7341119  80.7966548
  89.4775619  70.7197391  81.6289902  89.6939233  71.6022029  81.3278730
  88.9969686  70.3283605  80.8995544  84.2174840  73.6783105  88.2060647
  84.0719421  73.9923408  89.0984928  83.7400044  74.2968005  87.6531546
  86.0771223  70.6685653  88.2541536  86.0632792  69.7726746  87.9173834
  86.7943651  70.6756316  88.8879822  87.9297354  71.1022993  90.2994664
  87.6715132  72.0240064  90.2978994  87.3982394  70.7053427  90.9895128
  92.8743542  84.2073780  83.0784749  93.0480420  83.6420202  82.3258602
  93.3672434  85.0074675  82.8964239  78.6920502  76.2188449  91.1448308
  78.1473970  76.9948257  91.2768582  79.5699852  76.5659254  90.9867429
  85.4808119  69.5500033  83.5229107  85.6024030  68.6216679  83.7219994
  85.1910161  69.5638719  82.6107422  88.3499309  67.2354943  86.6595826
  88.3721006  67.2994276  85.7047806  88.7667368  66.3959452  86.8536333
  98.7282934  76.9710203  84.6975049  99.1714080  76.2217528  84.2994172
  97.8509444  76.9620339  84.3148781  93.8618715  83.5240544  80.1781648
  94.5569620  84.1447237  80.3968962  94.2041865  82.6735896  80.4534025
  79.4786524  75.3458345  94.0378465  78.7368260  75.4940981  94.6243095
  79.1579268  75.6066611  93.1745214  95.7610138  80.9740250  81.7068978
  96.2861462  81.3127523  80.9818298  95.6732491  80.0387265  81.5232113
  87.4230187  84.8874324  93.8358855  87.7317313  84.6423470  94.7081555
  88.2205669  85.0920962  93.3477725  87.4450799  87.0412233  86.0664231
  87.0055789  86.5488612  86.7597088  88.1958916  86.4985201  85.8256307
  79.9243138  83.2323774  86.0688860  80.7501158  82.9327546  85.6887503
  79.5737190  82.4631396  86.5178648  84.8924671  82.5850242  88.1386533
  84.2704680  81.9220947  87.8388761  85.5629538  82.6111374  87.4560181
  78.1251743  81.1510101  87.0277793  77.2883651  80.7232275  86.8461794
  78.0975388  81.3442544  87.9648584  84.9649198  71.0632030  97.7319039
  85.0137354  71.9394153  97.3496809  85.5071713  70.5209423  97.1590682
  95.4504044  81.6073154  97.0120176  94.6599588  81.5897292  96.4724676
  95.2137399  82.1461447  97.7669213  95.5701919  78.4565620  94.3252905
  95.6199924  78.2915627  95.2668428  95.4615843  77.5892879  93.9350786
  84.4538178  81.1354166  81.6144994  84.6026298  81.8189630  80.9611666
  85.2604621  81.1159256  82.1294449  92.8605682  74.4396548  95.6412212
  93.7615544  74.3003013  95.3496209  92.9353656  74.6051003  96.5810389
  87.1948487  71.8163403  94.4865398  86.3251796  72.1096969  94.2147986
  87.4307967  72.4003848  95.2072661  97.0720116  80.8762561  94.5694926
  96.7804924  81.2392542  95.4058387  96.4592247  80.1629570  94.3908258
  98.2715798  78.4415441  87.0897497  99.1062690  78.8805245  87.2535057
  98.4074927  77.9654094  86.2705742  95.3207304  75.9995176  93.0374984
  95.7961426  76.1922822  92.2293836  94.3972870  76.0554362  92.7918368
  82.2090811  77.1619343  82.6206063  81.9636853  76.2581673  82.8186273
  82.3786725  77.1636494  81.6785541  89.8987521  68.0343020  92.0030818
  90.4169465  68.7704047  91.6777307  89.5442654  68.3407013  92.8377577
  81.4786458  72.8947701  80.1192224  80.7855703  72.9692056  79.4632260
  81.2338210  72.1308044  80.6413741  90.1500115  64.4543302  87.5231715
  90.4301869  63.7866491  88.1492141  90.9350722  64.6472398  87.0106379
  87.9533583  83.6302296  79.0856741  87.3807550  84.2492483  78.6327213
  88.5266377  84.1801658  79.6196663  94.0208973  72.8760936  91.2703290
  94.9726396  72.9759034  91.2915514  93.8512424  72.0839205  91.7801374
  92.0423353  69.9616519  91.4562691  91.4473285  70.2421532  90.7609179
  91.7573049  70.4510420  92.2279432  91.1730843  83.9139446  80.2165323
  92.1061516  83.8485008  80.4198199  91.0854056  84.7495713  79.7579856
  93.8018860  83.2305317  77.1769271  93.7232491  82.8965180  78.0705029
  94.6228527  83.7227084  77.1760743  96.4997051  76.0967056  90.3845590
  96.4673371  75.1583057  90.5705273  97.1097675  76.1751093  89.6511414
  88.3380382  74.9663109  76.4272794  89.2839487  74.8369317  76.4961212
  87.9594627  74.2277771  76.9042222  96.6491540  72.8878099  90.4303873
  96.1330588  72.1036556  90.2433802  97.5331488  72.5596816  90.5950392
  94.3102266  66.6319115  86.3899685  94.1127088  66.3234203  87.2743017
  94.9201972  67.3580754  86.5197615 102.3173601  77.1583063  89.5251626
 103.0476989  76.8968351  90.0859330 101.7080546  76.4211785  89.5653694
 100.3988898  75.2990925  90.1226078  99.6722062  75.1646890  89.5142569
  99.9836185  75.6067754  90.9282796  88.2219074  79.0180855  97.8873451
  89.1422084  79.1959454  98.0813497  88.1868657  78.0736900  97.7353150
  86.5223299  72.8913085  76.3627679  85.6154754  72.5946198  76.4390392
  86.7999280  72.5942903  75.4961965  77.4401239  74.2119449  86.8126725
  77.1204024  73.3584757  86.5201099  76.8934668  74.4268027  87.5684693
  81.2181147  76.9281890  90.5296232  81.4367157  77.8598997  90.5484266
  81.6306921  76.5689864  91.3151036  88.1385365  67.4349975  82.5171920
  87.3286093  67.0897060  82.8927166  88.8269782  67.1257519  83.1059532
  90.0675913  66.5128022  84.1396217  90.6206952  66.9323475  84.7986240
  90.3045999  65.5863770  84.1819173  86.0909012  72.5015095  99.9198981
  85.9905739  73.4509452  99.8511072  85.8730554  72.1733334  99.0475051
  85.2922084  69.7500020  76.5039658  86.1541248  70.0754919  76.7635475
  85.4772428  68.9631516  75.9912724  77.3089499  77.8322360  88.7819847
  76.6152971  77.4176313  88.2689801  78.0562490  77.8742897  88.1853266
  93.4454720  68.6228547  83.6474881  92.8653389  69.2813351  83.2652933
  93.1790653  67.8005891  83.2362299  91.8958287  68.0233605  85.8496201
  92.3958065  68.1350139  85.0410520  92.5393894  67.7194657  86.4897010
  85.9540282  75.9312234  98.7364042  85.4707364  76.7312594  98.9427931
  86.0401221  75.9420179  97.7831486  79.2226242  77.7640614  86.6585862
  79.1996930  77.8628301  85.7067745  79.5326878  78.6105765  86.9803028
  81.8813620  79.8216769  90.7732476  82.8356873  79.7900711  90.7062408
  81.6826143  79.3607393  91.5882702  82.4713002  78.3917885  93.3403274
  83.2905891  78.8861964  93.3638111  82.7449810  77.4749853  93.3120841
  92.2279598  70.7828637  82.7031229  91.3405453  71.0678288  82.4851424
  92.6433587  70.6222401  81.8558506  95.5794134  70.8075158  86.4185569
  96.3554524  71.2971611  86.6910185  94.8542268  71.2333212  86.8757438
  98.0166693  71.5202777  87.4759509  98.6111184  71.2798513  86.7652817
  98.0893277  70.8009908  88.1033045  80.2363849  85.3636388  87.7902674
  80.1018317  84.6036789  87.2240672  79.8195911  86.0877288  87.3231463
  91.3722812  80.5473312  76.7979249  92.0758662  80.7523314  77.4136905
  90.6485460  81.1150074  77.0628333  92.2020622  76.2983173  82.9181519
  92.1455823  76.7551725  82.0789152  92.7548964  75.5373858  82.7404362
  96.0125428  72.0872905  83.7431639  95.7562362  71.6869541  84.5739847
  95.3878296  72.8016699  83.6181778 100.3237766  74.8268978  86.2502930
  99.7637324  74.8962168  87.0234492  99.7181269  74.6509963  85.5302427
  83.3932974  86.2605705  88.0021117  83.2765359  87.2051138  87.8999807
  82.5725421  85.9579267  88.3906916  93.2809509  80.9855841  78.8477709
  94.1155113  80.5537040  78.6655184  93.1193852  80.8137855  79.7754604
  92.9355401  77.4887954  80.2134049  92.8804205  77.3232226  79.2722493
  92.3101456  78.1963987  80.3696238  77.7247916  72.7256019  94.0395471
  78.3706780  72.2154973  94.5282696  77.5165067  73.4624700  94.6138896
  90.2501308  79.7936866  99.5387611  91.1192468  79.9677519  99.1774246
  89.7708060  80.6131283  99.4163341  86.2451527  66.9896063  79.7919367
  86.2330197  67.9337903  79.9487638  87.1374949  66.8066209  79.4978828
  84.4187489  86.9133967  91.2177045  85.3214735  86.9457578  91.5343540
  84.1924859  85.9834418  91.2323381  86.1741091  85.6664954  87.8787124
  85.2236722  85.6666815  87.7651496  86.4773577  84.9197688  87.3623158
  90.0603646  63.5838840  84.0465304  89.2936042  63.0297327  84.1921986
  90.4714351  63.6560709  84.9079455  82.0645407  69.8723636  98.1370485
  82.9276869  69.5160441  98.3473810  81.4910818  69.5337531  98.8245889
 101.9093784  91.5025492  88.9432886 102.5472194  91.3832240  88.2396226
 101.7914627  92.4506336  89.0020838  98.7183490  91.4552920  88.8794411
  98.3802002  91.3393985  87.9914946  99.5873259  91.0544085  88.8595417
  94.5770306  93.3088397  84.8691302  94.0135171  93.2178334  84.1007589
  94.4622701  92.4888301  85.3493794  99.2003273  92.6087772  94.8380616
  99.1891914  92.2140570  93.9661120  99.3623913  91.8753845  95.4314388
  92.1234738  94.8039588  87.7075522  92.9156030  94.4630413  87.2921821
  92.3631388  94.9134563  88.6277676 100.1569865  96.9759364  80.1805767
  99.5057845  97.5613445  79.7939780 100.9514228  97.5065559  80.2400804
  94.0825492  94.0648502  80.5792901  94.8556368  93.5177489  80.4405777
  94.4350891  94.9292751  80.7907362  95.9210535  95.3924884  93.7859800
  95.6300401  96.2970515  93.6706467  96.5567519  95.4341412  94.5003870
  96.8466741  92.7701732  90.3761160  97.4430314  92.5457755  89.6618123
  96.9041713  92.0286478  90.9786608  96.4191770  90.2241168  78.2111351
  96.6717290  89.7022689  77.4494814  95.4816329  90.0607313  78.3138035
 101.4635053  89.2276946  86.0186094 102.2498142  88.8096369  85.6676511
 101.7273757  90.1323038  86.1867743 101.6345130  94.6649796  80.7174751
 100.9990963  94.7384423  81.4295656 101.3042536  95.2543395  80.0393830
 106.8643480  89.1652179  86.9219073 107.5968652  88.5951396  87.1556902
 106.1082835  88.7773780  87.3625578  96.1388059  92.1269274  80.4135726
  96.0224317  91.4514177  81.0816810  96.2490318  91.6401648  79.5967879
  98.4819599  91.5879421  84.1182415  98.1177807  91.0610042  84.8295337
  99.3386715  91.1977890  83.9448901 104.3868900  82.8773753  91.3813681
 104.0552225  83.7469164  91.1574896 103.7914513  82.5610037  92.0607712
  98.1225086  86.6169321  79.1143764  98.2899489  87.4849557  79.4814235
  97.9322256  86.7796602  78.1905053 100.8800420  95.0786299  90.7809594
 100.5801143  95.9811338  90.6725401 100.5351479  94.8118483  91.6330747
  94.3312901  91.5300096  86.8146298  93.4063398  91.3976310  87.0223990
  94.5797314  92.3094315  87.3116241 104.2797563  87.5968840  88.4607031
 103.3714441  87.5284248  88.1665792 104.2285159  88.0740785  89.2888857
  98.1014307  89.0726978  80.0990430  97.9813933  89.5184029  80.9375911
  97.4066896  89.4212296  79.5403969  91.6921712  91.1733370  87.6490087
  91.8214093  91.4267849  88.5629499  91.0119163  91.7661078  87.3294743
  95.8621199 101.8430620  83.7480562  95.7845229 102.7938445  83.8269042
  95.2582843 101.4976492  84.4055488  98.3538429  89.0158485  96.4041929
  97.5771763  89.5752405  96.3944793  98.9928992  89.5015268  96.9256799
 106.1459210  85.7985278  90.2384905 105.5033590  86.0917811  89.5924700
 105.6414138  85.6838198  91.0438102 103.7999373  89.5448451  80.9270764
 104.7117230  89.7775838  80.7518462 103.2909021  90.1285495  80.3645843
  96.6084801  91.8243939  95.9659896  97.3499486  92.3628983  95.6894719
  95.9021787  92.4510227  96.1231447 102.0840141  93.9673079  94.5632057
 102.4923497  93.5255490  93.8186689 101.3617403  93.3925707  94.8166250
  98.4371211  88.9045686  91.9365614  99.2832406  89.3285099  92.0800263
  98.3769849  88.2479310  92.6304177 102.4068956  94.5274270  88.3184346
 101.7777818  94.6919984  87.6160414 102.0194618  94.9415879  89.0895310
 106.2858188  95.4628707  85.6728710 105.6009226  95.8427609  85.1225743
 106.3702037  96.0724034  86.4060657 101.5870657  86.5650054  93.5946788
 101.3431588  87.3192115  93.0581063 101.8630587  86.9435402  94.4294035
 103.5409119  93.1088667  92.2724053 103.7526015  93.7520426  91.5958434
 103.4938868  92.2750983  91.8045983 101.1435348  85.7206487  89.1760625
 100.2819827  86.0187741  89.4677363 101.1697783  85.9376886  88.2441658
  97.9596918  94.2648678  85.5834431  98.4235263  94.5436381  84.7939054
  97.6953716  93.3632122  85.4007522  94.8520999  93.8120159  88.5214194
  95.4222356  94.2407428  87.8831679  95.4429111  93.5302744  89.2198380
  96.8965804  90.3871830  82.3923996  97.5989847  90.8392874  82.8597923
  96.5646432  89.7455649  83.0203889  95.3446165  88.9783587  96.7675206
  94.7144826  89.6599868  97.0010602  95.2382253  88.8666668  95.8228344
  90.6391138  88.6455383  87.6941130  89.8490192  88.9012911  87.2181240
  91.1302385  89.4603721  87.7993170 104.6554947  95.9860622  90.4446411
 105.4772391  95.5840809  90.1629092 104.6517350  95.8828856  91.3962526
  92.5905883  89.0099962  84.6524606  91.7937046  89.1218656  85.1708102
  92.3631475  89.3486614  83.7865497  98.4211551  95.5344665  92.6007121
  98.4855983  95.9965072  93.4365293  97.7122475  94.9042030  92.7289431
  88.9228841  88.8985873  90.1256121  89.1736879  89.7832883  90.3913696
  89.4588389  88.7190475  89.3531212 112.7460940  92.3299370  86.7931382
 111.9924649  91.7606768  86.6375386 112.8808481  92.2962035  87.7402017
  98.1359568  97.2012773  82.4686101  98.0005243  98.0464308  82.8970949
  98.6769381  97.4032050  81.7052035  94.6226908  83.2804353  99.1300457
  94.2293854  82.7270551  99.8048101  95.4393048  83.5914931  99.5206974
  91.5888966  94.7188211  83.0414026  92.1013486  95.5131461  83.1919591
  92.2411679  94.0214501  82.9747628  93.3983850  97.8353967  85.1236780
  93.5750479  98.7571932  84.9357764  94.1940684  97.5212386  85.5531159
  97.5394869  84.6962232  96.7220713  98.2804582  85.2969385  96.6425176
  97.7712792  83.9539869  96.1638756  92.6836207  89.8818599  94.9998943
  92.5689722  88.9803856  95.3006042  91.8280725  90.1282296  94.6483759
  99.7628045  97.8236339  96.5986443  99.3191899  97.0372718  96.2807348
 100.4245258  98.0115490  95.9330334  94.5215166  99.3532141  91.1247122
  95.0722591  99.2249204  90.3524116  93.6826642  99.6527030  90.7742015
 101.8609283  98.1039139  94.6267845 101.8427758  98.9248020  94.1348114
 102.7829203  97.9793214  94.8517986  98.3182337  95.6183269  95.4691353
  98.8510674  94.8571557  95.2390661  97.7896418  95.3256920  96.2115508
 101.4852032  80.7243335  90.9984995 101.1416301  81.6144976  90.9224105
 101.8530995  80.5344992  90.1354580  89.5537883  93.0476865  83.8173597
  90.3913105  93.4573873  83.6007305  89.7316150  92.1076307  83.7873791
 101.4502315  90.7151946  79.5057430 100.9348938  91.4856550  79.7445817
 101.1779623  90.0417082  80.1290491  99.0349426  85.5601646  84.5642668
  98.1791022  85.1708497  84.3848307  99.4476377  85.6393607  83.7042454
 100.5648572  83.0947990  88.9634228 100.0613368  83.0578125  88.1502033
 100.8579179  84.0040732  89.0230885  96.8091458  83.1786719  87.9700410
  97.6744455  82.9829528  87.6106299  96.8768967  82.9497071  88.8969767
 106.4236589  93.4684300  81.4410603 105.6466032  93.1295460  80.9965766
 107.1028070  93.4736924  80.7665569 101.2388618  88.5879038  81.3317211
 100.9338753  88.9025187  82.1827354 102.1919060  88.6660458  81.3744544
  99.6835050  94.7469261  82.9810165  99.1556411  94.0122021  82.6683403
  99.1822552  95.5243937  82.7350133 104.6627896  92.9418282  88.0977211
 104.0051570  93.6317543  88.1857340 105.4668295  93.3314714  88.4411198
  94.4153777  85.4088927  85.3416777  94.9897529  85.1864109  84.6089970
  95.0024760  85.4777622  86.0945378 103.4733354  91.2962654  86.1481153
 103.9865236  91.9292646  86.6502863 104.1234578  90.6963850  85.7824513
  94.7423364  87.4393388  79.3612662  93.9060677  87.7768075  79.6821937
  94.6028134  87.3042368  78.4239799  96.7176445  82.2830176  84.0691846
  96.0640857  81.9679193  83.4448461  96.6756919  81.6605917  84.7951669
  97.8287650  92.5649471  75.9845138  96.9214712  92.3338725  76.1836287
  98.3258682  91.7687091  76.1719120 100.7355729 101.2746979  78.9041824
 100.0617427 101.5778675  79.5126782 101.1221551 102.0776059  78.5547281
  99.9514185  88.7712110  88.3939494  99.0336747  88.9927057  88.2361182
 100.3674329  88.8458420  87.5351201 100.7349233  90.1703526  83.5242174
 101.4821052  90.6824923  83.2149296 101.0040823  89.8487578  84.3846568
  99.0075883  92.6662066  80.5069128  98.0987103  92.3821099  80.6041598
  99.0370967  93.0861145  79.6472435 104.2395151  96.2768656  84.2760296
 103.7857478  95.4359566  84.3325486 103.6089117  96.9130054  84.6135076
 103.1828070  87.2060642  85.5060963 102.4450827  86.6938028  85.8371206
 103.4354844  86.7661023  84.6944240 102.6828090  98.1145152  85.2110114
 102.9751064  98.6750210  84.4922480 103.1926710  98.4073713  85.9663273
 103.2839698  79.9836894  86.1002733 103.5898574  79.1234257  85.8128648
 104.0092302  80.5754514  85.9001726  89.5764054  90.3867580  84.4884330
  89.3788453  89.7936941  83.7635397  89.0210718  90.0819791  85.2060269
  97.5560777  90.2790687  86.6078924  97.6109387  89.3264523  86.5321400
  96.7451979  90.4350126  87.0920222  98.7051971  94.2070810  77.8457207
  98.2671401  93.4906669  77.3862844  99.4462412  94.4346925  77.2842298
  95.4953137  88.8967747  84.3669302  94.6821003  89.1961917  84.7734495
  95.9912131  88.5023435  85.0843785  97.6461715  98.8925504  86.3003567
  97.6037894  99.1186350  85.3712099  98.5624414  98.6588878  86.4489368
 101.0927349  89.3609571  93.1984196 101.4476737  89.5881044  94.0578662
 101.7399480  89.6927948  92.5761452 106.8225086  92.4828007  83.9033525
 106.6842984  92.6729603  82.9754715 106.4661305  93.2447390  84.3601577
  94.9867212  86.4686102  89.9830537  95.6266591  86.3274861  89.2853501
  94.1544743  86.1820616  89.6069139 106.8494465  94.5504534  88.9144797
 107.2830972  94.4579823  89.7627851 107.5626046  94.5262034  88.2764813
  95.7627516  95.7688533  86.0965530  96.5568114  95.2738853  85.8948105
  95.0519208  95.2406396  85.7333235 100.5822360  98.1506628  90.4477898
 100.6359383  98.7197564  91.2155613  99.7137142  98.3208513  90.0831935
  92.0710279  89.9131614  82.1725283  91.1407867  89.8516070  82.3895245
  92.1667751  89.3907567  81.3761924  91.9895828  86.4386427  84.7603524
  92.2502646  87.3531760  84.6512685  92.8113001  85.9710870  84.9100137
  93.4620754  87.8524184  91.9302349  94.1343807  87.6441546  91.2814998
  92.6350540  87.6546270  91.4907581 107.7110015  94.5928235  91.4477682
 107.9045905  95.4974045  91.6936957 107.6110633  94.1335654  92.2816267
  99.3646326  84.4786125  93.9468010  98.7174241  85.1776075  93.8532486
 100.1347341  84.9122269  94.3144258 102.7725124  94.7434977  97.0218563
 102.6210630  94.5145529  96.1048647 102.7629803  95.7005579  97.0349908
  99.5410460  92.3166890  92.0064829 100.4702520  92.4678050  91.8333797
  99.1201490  92.4050911  91.1513476  98.3398792  96.3417555  89.7763367
  98.2009878  95.9736339  90.6489305  97.5513388  96.8565194  89.6047325
  98.9346944 101.4426651  81.1188904  99.1098700 100.9714694  81.9334526
  98.2479732 102.0692417  81.3470164  99.8904007  95.7199157  87.1652205
  99.5553840  95.6799927  88.0609855  99.3907953  95.0543873  86.6922615
  93.8648251  91.1266787  92.6904786  93.7268049  90.3947026  93.2916325
  94.7753174  91.0375687  92.4088974 102.8263199  93.0655192  77.4389264
 102.2092369  92.3402020  77.3422317 102.3579687  93.8264552  77.0956339
  96.4930552  90.8386747  92.1788466  97.2030170  90.1979939  92.1375084
  96.4499860  91.0899641  93.1014646 104.4817330  97.7754100  95.0995045
 104.4229876  97.0913320  94.4325628 104.8836849  98.5173090  94.6475671
  95.2059486  87.8251964  93.9984105  94.6696843  87.3742703  94.6505701
  94.6176194  87.9597873  93.2554569  93.5008029 104.5916014  87.8928764
  93.7404627 105.2234538  88.5707782  92.6577226 104.2404054  88.1794123
  94.6161745  87.2840616  76.5610569  93.7391211  87.1629417  76.1972815
  95.0919498  86.4926694  76.3089457 104.4834738  95.7393684  93.3309024
 103.5961516  95.4019606  93.4535423 105.0533289  95.0076715  93.5677790
  86.1363885  92.0717776  86.6552076  86.8234925  91.7579506  86.0673091
  85.9812013  92.9759140  86.3819327  90.9398607  86.9607972  91.0837100
  90.8556796  86.3533642  90.3487509  90.1181313  87.4516990  91.0846596
  98.0135891 100.3995136  90.2970268  97.9406062 101.2050108  90.8089572
  97.5713284 100.5987102  89.4718289  97.8025671  99.6366906  83.8073089
  97.0193193 100.1788586  83.9011314  98.5018416 100.1540886  84.2067330
 101.1122321  85.4461536  86.4507295 101.6091020  84.6931498  86.1308365
 100.3409302  85.4825852  85.8850504 108.9652078  91.1501901  88.0925586
 108.9541954  92.0326617  87.7219519 108.0969458  90.7973452  87.8980123
 100.4734575 100.2981970  92.4528426 101.1862547 100.9329435  92.3804328
  99.9824603 100.3945836  91.6368428 102.1952101  94.2033223  84.0245718
 101.2608380  94.3234685  83.8550422 102.3728770  93.3005690  83.7605728
  97.6957289  87.5878919  86.1778979  97.3255077  87.0349959  86.8659885
  98.1916382  86.9837052  85.6253979 105.5824653  90.0450542  84.5595752
 106.0485105  90.8778534  84.4856055 106.0332153  89.5795524  85.2641011
  95.5246488  98.0476414  93.2733997  96.2255948  98.6812897  93.4263391
  95.0541603  98.3891145  92.5129636 103.6500884  96.3894363  81.5581904
 103.9260728  96.2750958  82.4675778 102.7805383  95.9911848  81.5194077
 103.5541316  82.4131129  88.5986653 102.6404395  82.6435356  88.7668860
 103.9834417  82.4969573  89.4500686 103.3247774  90.6021021  91.0986547
 102.6719224  90.8496929  90.4439000 103.7028154  89.7885159  90.7649025
 100.2854948 100.6380714  85.2014718 100.4677342  99.8202370  85.6642470
 101.1087934 100.8548407  84.7639608 100.6197113  99.5648899  82.4629766
 101.1484880  99.0541354  81.8499928 100.8825333  99.2491430  83.3275299
  99.3735347  91.3440832  97.5852585  98.6975984  91.2434962  98.2554960
 100.1962981  91.1880046  98.0488582  91.1214206  97.5812769  90.2065100
  91.7067643  96.8356457  90.3393004  90.9239045  97.8916725  91.0901764
  93.9752861 100.6164016  85.2227542  93.3063237 101.1010144  84.7391582
  93.8365731 100.8633237  86.1370921  85.7131861  90.1518369  88.9269543
  85.7515960  89.6181960  89.7206661  85.2072154  89.6253574  88.3080520
  98.1158130 102.6507760  91.8210201  98.6676438 102.8139381  92.5859286
  98.4564323 103.2412197  91.1490225  93.0922623  84.9982909  92.4232085
  93.1563950  85.8597740  92.0109483  93.0289743  84.3856911  91.6904444
  92.5674896  87.0706042  96.0705120  93.1946934  86.6883119  96.6842644
  91.7102815  86.8520244  96.4360812  89.3440438  88.8782471  82.0023474
  89.6393880  87.9693150  81.9490528  88.4428474  88.8570211  81.6804477
 101.2526517 100.5989735  88.8073883 101.1277657  99.7979475  88.2984828
 101.9105608 101.0935929  88.3187853  92.8734685  86.9538468  87.9851023
  92.1521271  87.5674435  87.8458496  93.6627941  87.4896233  87.9067669
 103.3161426  98.3998755  90.4353433 102.3691761  98.2804106  90.3631760
 103.6644199  97.5121253  90.5179694  95.6760999  84.2892894  94.2591675
  96.1995401  84.5355191  95.0217984  95.4573332  85.1212929  93.8394812
  91.0728280  86.5596569  82.1262800  90.7440986  85.6793948  81.9437905
  91.4267651  86.5044237  83.0139189 100.3207859  98.1951471  86.6357785
 100.1732821  97.2668179  86.8165355 101.1461352  98.2171562  86.1514860
  94.1870103  86.8469539  82.4938277  94.5266176  87.3755460  81.7716886
  94.6342224  87.1849945  83.2696844 103.9241981  99.0180030  87.7222658
 104.8488528  98.8122892  87.5847109 103.7557284  98.7696431  88.6311999
  96.8813544  85.2306589  91.9441345  96.5410364  84.4314402  92.3462025
  96.1752550  85.5308300  91.3718178  97.5330016  82.3155902  90.3968668
  98.3556085  81.8416380  90.2747559  97.7768079  83.0946385  90.8967355
  96.1738250  85.3444160  80.6931570  96.8946613  85.7225413  80.1895287
  95.5503554  86.0633037  80.7966548 100.3169373  86.0489309  81.6289902
 100.5332988  86.9313947  81.3278730  99.8363440  85.6575523  80.8995544
  95.0568595  89.0075022  88.2060647  94.9113175  89.3215325  89.0984928
  94.5793798  89.6259923  87.6531546  96.9164977  85.9977570  88.2541536
  96.9026546  85.1018664  87.9173834  97.6337406  86.0048234  88.8879822
  98.7691108  86.4314911  90.2994664  98.5108886  87.3531981  90.2978994
  98.2376149  86.0345345  90.9895128 103.7137297  99.5365698  83.0784749
 103.8874174  98.9712120  82.3258602 104.2066188 100.3366593  82.8964239
  89.5314257  91.5480367  91.1448308  88.9867725  92.3240175  91.2768582
  90.4093607  91.8951171  90.9867429  96.3201873  84.8791951  83.5229107
  96.4417785  83.9508597  83.7219994  96.0303916  84.8930637  82.6107422
  99.1893064  82.5646861  86.6595826  99.2114761  82.6286194  85.7047806
  99.6061123  81.7251370  86.8536333 109.5676688  92.3002121  84.6975049
 110.0107834  91.5509446  84.2994172 108.6903198  92.2912257  84.3148781
 104.7012469  98.8532462  80.1781648 105.3963374  99.4739155  80.3968962
 105.0435620  98.0027813  80.4534025  90.3180279  90.6750263  94.0378465
  89.5762015  90.8232898  94.6243095  89.9973023  90.9358529  93.1745214
 106.6003893  96.3032168  81.7068978 107.1255217  96.6419440  80.9818298
 106.5126245  95.3679183  81.5232113  98.2623941 100.2166241  93.8358855
  98.5711068  99.9715388  94.7081555  99.0599423 100.4212880  93.3477725
  98.2844553 102.3704151  86.0664231  97.8449544 101.8780530  86.7597088
  99.0352670 101.8277119  85.8256307  90.7636892  98.5615692  86.0688860
  91.5894912  98.2619464  85.6887503  90.4130944  97.7923314  86.5178648
  95.7318425  97.9142160  88.1386533  95.1098435  97.2512865  87.8388761
  96.4023292  97.9403292  87.4560181  88.9645497  96.4802018  87.0277793
  88.1277406  96.0524193  86.8461794  88.9369143  96.6734462  87.9648584
  95.8042953  86.3923948  97.7319039  95.8531108  87.2686071  97.3496809
  96.3465467  85.8501341  97.1590682 106.4095674  93.7857538  94.3252905
 106.4593679  93.6207545  95.2668428 106.3009597  92.9184797  93.9350786
  95.2931932  96.4646083  81.6144994  95.4420053  97.1481548  80.9611666
  96.0998376  96.4451173  82.1294449 103.6999436  89.7688466  95.6412212
 104.6009299  89.6294930  95.3496209 103.7747411  89.9342920  96.5810389
  98.0342241  87.1455320  94.4865398  97.1645551  87.4388886  94.2147986
  98.2701722  87.7295765  95.2072661 107.9113870  96.2054479  94.5694926
 107.6198679  96.5684460  95.4058387 107.2986002  95.4921487  94.3908258
 109.1109553  93.7707359  87.0897497 109.9456444  94.2097163  87.2535057
 109.2468682  93.2946012  86.2705742 106.1601059  91.3287094  93.0374984
 106.6355180  91.5214740  92.2293836 105.2366624  91.3846280  92.7918368
  93.0484565  92.4911261  82.6206063  92.8030607  91.5873591  82.8186273
  93.2180480  92.4928411  81.6785541 100.7381275  83.3634937  92.0030818
 101.2563219  84.0995964  91.6777307 100.3836408  83.6698931  92.8377577
  92.3180213  88.2239619  80.1192224  91.6249458  88.2983974  79.4632260
  92.0731965  87.4599962  80.6413741 100.9893869  79.7835220  87.5231715
 101.2695623  79.1158409  88.1492141 101.7744476  79.9764315  87.0106379
  98.7927338  98.9594214  79.0856741  98.2201305  99.5784401  78.6327213
  99.3660132  99.5093575  79.6196663 104.8602728  88.2052854  91.2703290
 105.8120151  88.3050952  91.2915514 104.6906178  87.4131122  91.7801374
 102.8817107  85.2908437  91.4562691 102.2867039  85.5713450  90.7609179
 102.5966804  85.7802338  92.2279432 102.0124598  99.2431364  80.2165323
 102.9455271  99.1776926  80.4198199 101.9247810 100.0787631  79.7579856
 104.6412614  98.5597234  77.1769271 104.5626246  98.2257098  78.0705029
 105.4622281  99.0519002  77.1760743 107.3390806  91.4258974  90.3845590
 107.3067126  90.4874974  90.5705273 107.9491429  91.5043010  89.6511414
  99.1774136  90.2955027  76.4272794 100.1233241  90.1661235  76.4961212
  98.7988381  89.5569688  76.9042222 107.4885294  88.2170017  90.4303873
 106.9724343  87.4328474  90.2433802 108.3725243  87.8888734  90.5950392
 105.1496021  81.9611033  86.3899685 104.9520842  81.6526121  87.2743017
 105.7595727  82.6872671  86.5197615 113.1567355  92.4874980  89.5251626
 113.8870744  92.2260269  90.0859330 112.5474301  91.7503702  89.5653694
 111.2382652  90.6282843  90.1226078 110.5115816  90.4938808  89.5142569
 110.8229939  90.9359672  90.9282796  99.0612829  94.3472773  97.8873451
  99.9815838  94.5251372  98.0813497  99.0262412  93.4028818  97.7353150
  97.3617054  88.2205003  76.3627679  96.4548509  87.9238116  76.4390392
  97.6393035  87.9234821  75.4961965  88.2794994  89.5411366  86.8126725
  87.9597778  88.6876674  86.5201099  87.7328422  89.7559944  87.5684693
  92.0574901  92.2573807  90.5296232  92.2760911  93.1890915  90.5484266
  92.4700675  91.8981782  91.3151036  98.9779119  82.7641893  82.5171920
  98.1679848  82.4188978  82.8927166  99.6663536  82.4549436  83.1059532
 100.9069668  81.8419939  84.1396217 101.4600706  82.2615393  84.7986240
 101.1439754  80.9155688  84.1819173  96.9302767  87.8307013  99.9198981
  96.8299494  88.7801370  99.8511072  96.7124309  87.5025252  99.0475051
  96.1315838  85.0791938  76.5039658  96.9935002  85.4046836  76.7635475
  96.3166182  84.2923434  75.9912724  88.1483254  93.1614278  88.7819847
  87.4546725  92.7468231  88.2689801  88.8956245  93.2034814  88.1853266
 104.2848475  83.9520465  83.6474881 103.7047144  84.6105269  83.2652933
 104.0184407  83.1297809  83.2362299 102.7352041  83.3525522  85.8496201
 103.2351819  83.4642057  85.0410520 103.3787649  83.0486575  86.4897010
  96.7934037  91.2604152  98.7364042  96.3101119  92.0604512  98.9427931
  96.8794976  91.2712097  97.7831486  90.0619996  93.0932532  86.6585862
  90.0390685  93.1920219  85.7067745  90.3720633  93.9397682  86.9803028
  92.7207374  95.1508687  90.7732476  93.6750628  95.1192629  90.7062408
  92.5219898  94.6899310  91.5882702  93.3106756  93.7209803  93.3403274
  94.1299645  94.2153881  93.3638111  93.5843564  92.8041771  93.3120841
 103.0673353  86.1120555  82.7031229 102.1799208  86.3970206  82.4851424
 103.4827342  85.9514318  81.8558506 106.4187889  86.1367076  86.4185569
 107.1948279  86.6263528  86.6910185 105.6936023  86.5625130  86.8757438
 108.8560447  86.8494695  87.4759509 109.4504938  86.6090431  86.7652817
 108.9287031  86.1301826  88.1033045  91.0757603 100.6928306  87.7902674
  90.9412071  99.9328707  87.2240672  90.6589665 101.4169206  87.3231463
 102.2116566  95.8765230  76.7979249 102.9152416  96.0815232  77.4136905
 101.4879215  96.4441992  77.0628333 103.0414376  91.6275091  82.9181519
 102.9849578  92.0843642  82.0789152 103.5942719  90.8665775  82.7404362
 106.8519182  87.4164823  83.7431639 106.5956117  87.0161458  84.5739847
 106.2272050  88.1308617  83.6181778 111.1631520  90.1560896  86.2502930
 110.6031078  90.2254085  87.0234492 110.5575024  89.9801881  85.5302427
  94.2326729 101.5897623  88.0021117  94.1159113 102.5343056  87.8999807
  93.4119175 101.2871185  88.3906916 104.1203264  96.3147759  78.8477709
 104.9548867  95.8828957  78.6655184 103.9587606  96.1429773  79.7754604
 103.7749156  92.8179872  80.2134049 103.7197959  92.6524144  79.2722493
 103.1495211  93.5255905  80.3696238  88.5641671  88.0547937  94.0395471
  89.2100534  87.5446890  94.5282696  88.3558822  88.7916618  94.6138896
  97.0845281  82.3187981  79.7919367  97.0723951  83.2629821  79.9487638
  97.9768703  82.1358127  79.4978828  95.2581243 102.2425885  91.2177045
  96.1608490 102.2749495  91.5343540  95.0318613 101.3126336  91.2323381
  97.0134845 100.9956872  87.8787124  96.0630476 100.9958733  87.7651496
  97.3167331 100.2489606  87.3623158 100.8997401  78.9130758  84.0465304
 100.1329796  78.3589244  84.1921986 101.3108106  78.9852627  84.9079455
  92.9039162  85.2015554  98.1370485  93.7670623  84.8452358  98.3473810
  92.3304572  84.8629448  98.8245889 105.4164061 108.6380314  84.8691302
 104.8528926 108.5470251  84.1007589 105.3016456 107.8180219  85.3493794
 102.9628493 110.1331506  87.7075522 103.7549784 109.7922331  87.2921821
 103.2025143 110.2426481  88.6277676 104.9219246 109.3940419  80.5792901
 105.6950122 108.8469406  80.4405777 105.2744645 110.2584669  80.7907362
 107.2585524 105.5533085  78.2111351 107.5111045 105.0314607  77.4494814
 106.3210083 105.3899231  78.3138035 112.3028807 104.5568864  86.0186094
 113.0891896 104.1388287  85.6676511 112.5667511 105.4614956  86.1867743
 106.9781813 107.4561191  80.4135726 106.8618071 106.7806095  81.0816810
 107.0884073 106.9693565  79.5967879 109.3213354 106.9171338  84.1182415
 108.9571561 106.3901959  84.8295337 110.1780470 106.5269808  83.9448901
 108.9618841 101.9461238  79.1143764 109.1293243 102.8141475  79.4814235
 108.7716010 102.1088520  78.1905053 105.1706656 106.8592014  86.8146298
 104.2457152 106.7268228  87.0223990 105.4191069 107.6386233  87.3116241
 108.9408062 104.4018896  80.0990430 108.8207687 104.8475946  80.9375911
 108.2460650 104.7504213  79.5403969 102.5315467 106.5025287  87.6490087
 102.6607848 106.7559766  88.5629499 101.8512918 107.0952995  87.3294743
 114.6393128 104.8740369  80.9270764 115.5510984 105.1067756  80.7518462
 114.1302775 105.4577413  80.3645843 111.9829103 101.0498405  89.1760625
 111.1213582 101.3479658  89.4677363 112.0091537 101.2668804  88.2441658
 108.7990672 109.5940595  85.5834431 109.2629018 109.8728298  84.7939054
 108.5347470 108.6924040  85.4007522 107.7359558 105.7163748  82.3923996
 108.4383602 106.1684791  82.8597923 107.4040187 105.0747567  83.0203889
 101.4784892 103.9747300  87.6941130 100.6883946 104.2304829  87.2181240
 101.9696140 104.7895638  87.7993170 103.4299638 104.3391880  84.6524606
 102.6330801 104.4510574  85.1708102 103.2025230 104.6778532  83.7865497
  99.7622595 104.2277791  90.1256121 100.0130634 105.1124801  90.3913696
 100.2982144 104.0482392  89.3531212 102.4282720 110.0480128  83.0414026
 102.9407241 110.8423379  83.1919591 103.0805433 109.3506419  82.9747628
 104.2377605 113.1645885  85.1236780 104.4144233 114.0863849  84.9357764
 105.0334438 112.8504304  85.5531159 112.3245786  96.0535252  90.9984995
 111.9810056  96.9436894  90.9224105 112.6924749  95.8636910  90.1354580
 100.3931637 108.3768783  83.8173597 101.2306859 108.7865791  83.6007305
 100.5709905 107.4368225  83.7873791 112.2896069 106.0443863  79.5057430
 111.7742693 106.8148468  79.7445817 112.0173378 105.3709000  80.1290491
 109.8743180 100.8893564  84.5642668 109.0184776 100.5000415  84.3848307
 110.2870132 100.9685525  83.7042454 111.4042327  98.4239907  88.9634228
 110.9007122  98.3870043  88.1502033 111.6972934  99.3332650  89.0230885
 107.6485213  98.5078637  87.9700410 108.5138209  98.3121446  87.6106299
 107.7162722  98.2788989  88.8969767 112.0782372 103.9170955  81.3317211
 111.7732508 104.2317105  82.1827354 113.0312814 103.9952375  81.3744544
 110.5228804 110.0761179  82.9810165 109.9950166 109.3413938  82.6683403
 110.0216307 110.8535855  82.7350133 105.2547532 100.7380845  85.3416777
 105.8291284 100.5156027  84.6089970 105.8418514 100.8069540  86.0945378
 105.5817119 102.7685306  79.3612662 104.7454431 103.1059993  79.6821937
 105.4421889 102.6334286  78.4239799 107.5570199  97.6122094  84.0691846
 106.9034612  97.2971111  83.4448461 107.5150674  96.9897834  84.7951669
 108.6681404 107.8941389  75.9845138 107.7608466 107.6630643  76.1836287
 109.1652436 107.0979008  76.1719120 110.7907940 104.1004028  88.3939494
 109.8730501 104.3218975  88.2361182 111.2068083 104.1750338  87.5351201
 111.5742988 105.4995443  83.5242174 112.3214807 106.0116840  83.2149296
 111.8434577 105.1779496  84.3846568 109.8469638 107.9953984  80.5069128
 108.9380857 107.7113017  80.6041598 109.8764722 108.4153062  79.6472435
 114.0221825 102.5352559  85.5060963 113.2844582 102.0229946  85.8371206
 114.2748598 102.0952941  84.6944240 114.1233452  95.3128811  86.1002733
 114.4292329  94.4526175  85.8128648 114.8486057  95.9046432  85.9001726
 100.4157808 105.7159498  84.4884330 100.2182208 105.1228859  83.7635397
  99.8604472 105.4111708  85.2060269 108.3954532 105.6082605  86.6078924
 108.4503142 104.6556441  86.5321400 107.5845734 105.7642044  87.0920222
 109.5445726 109.5362728  77.8457207 109.1065155 108.8198587  77.3862844
 110.2856166 109.7638842  77.2842298 106.3346892 104.2259664  84.3669302
 105.5214757 104.5253835  84.7734495 106.8305886 103.8315353  85.0843785
 105.8260966 101.7978020  89.9830537 106.4660346 101.6566779  89.2853501
 104.9938497 101.5112533  89.6069139 106.6021270 111.0980450  86.0965530
 107.3961869 110.6030770  85.8948105 105.8912963 110.5698313  85.7333235
 102.9104034 105.2423532  82.1725283 101.9801622 105.1807987  82.3895245
 103.0061506 104.7199485  81.3761924 102.8289583 101.7678345  84.7603524
 103.0896400 102.6823678  84.6512685 103.6506755 101.3002787  84.9100137
 104.3014508 103.1816102  91.9302349 104.9737562 102.9733464  91.2814998
 103.4744295 102.9838188  91.4907581 113.6656953 108.3947109  77.4389264
 113.0486124 107.6693937  77.3422317 113.1973442 109.1556470  77.0956339
 105.4555499 102.6132534  76.5610569 104.5784965 102.4921334  76.1972815
 105.9313252 101.8218612  76.3089457  96.9757639 107.4009693  86.6552076
  97.6628679 107.0871423  86.0673091  96.8205768 108.3051058  86.3819327
 101.7792361 102.2899890  91.0837100 101.6950550 101.6825559  90.3487509
 100.9575068 102.7808908  91.0846596 111.9516075 100.7753453  86.4507295
 112.4484775 100.0223416  86.1308365 111.1803057 100.8117770  85.8850504
 113.0345856 109.5325141  84.0245718 112.1002135 109.6526603  83.8550422
 113.2122524 108.6297607  83.7605728 108.5351044 102.9170836  86.1778979
 108.1648832 102.3641877  86.8659885 109.0310136 102.3128970  85.6253979
 116.4218407 105.3742460  84.5595752 116.8878859 106.2070451  84.4856055
 116.8725908 104.9087441  85.2641011 114.3935070  97.7423047  88.5986653
 113.4798150  97.9727274  88.7668860 114.8228171  97.8261491  89.4500686
  96.5525615 105.4810287  88.9269543  96.5909715 104.9473877  89.7206661
  96.0465908 104.9545492  88.3080520 103.9316378 100.3274827  92.4232085
 103.9957704 101.1889658  92.0109483 103.8683498  99.7148829  91.6904444
 100.1834193 104.2074389  82.0023474 100.4787634 103.2985067  81.9490528
  99.2822229 104.1862128  81.6804477 103.7128440 102.2830385  87.9851023
 102.9915026 102.8966353  87.8458496 104.5021696 102.8188150  87.9067669
 101.9122035 101.8888486  82.1262800 101.5834741 101.0085865  81.9437905
 102.2661405 101.8336155  83.0139189 105.0263858 102.1761456  82.4938277
 105.3659930 102.7047377  81.7716886 105.4735978 102.5141862  83.2696844
 107.7207298 100.5598507  91.9441345 107.3804119  99.7606320  92.3462025
 107.0146305 100.8600218  91.3718178 108.3723770  97.6447819  90.3968668
 109.1949840  97.1708298  90.2747559 108.6161834  98.4238303  90.8967355
 107.0132005 100.6736078  80.6931570 107.7340367 101.0517331  80.1895287
 106.3897309 101.3924955  80.7966548 111.1563128 101.3781227  81.6289902
 111.3726742 102.2605865  81.3278730 110.6757195 100.9867440  80.8995544
 105.8962349 104.3366940  88.2060647 105.7506930 104.6507243  89.0984928
 105.4187553 104.9551840  87.6531546 107.7558732 101.3269488  88.2541536
 107.7420301 100.4310581  87.9173834 108.4731160 101.3340152  88.8879822
 109.6084863 101.7606828  90.2994664 109.3502640 102.6823899  90.2978994
 109.0769903 101.3637263  90.9895128 100.3708011 106.8772284  91.1448308
  99.8261479 107.6532092  91.2768582 101.2487361 107.2243089  90.9867429
 107.1595628 100.2083868  83.5229107 107.2811539  99.2800514  83.7219994
 106.8697670 100.2222554  82.6107422 110.0286818  97.8938779  86.6595826
 110.0508515  97.9578112  85.7047806 110.4454877  97.0543287  86.8536333
 101.6030647 113.8907609  86.0688860 102.4288667 113.5911381  85.6887503
 101.2524699 113.1215232  86.5178648  99.8039252 111.8093936  87.0277793
  98.9671160 111.3816110  86.8461794  99.7762897 112.0026379  87.9648584
 106.1325687 111.7938001  81.6144994 106.2813807 112.4773465  80.9611666
 106.9392130 111.7743091  82.1294449 103.8878320 107.8203179  82.6206063
 103.6424362 106.9165509  82.8186273 104.0574234 107.8220329  81.6785541
 103.1573967 103.5531536  80.1192224 102.4643212 103.6275891  79.4632260
 102.9125719 102.7891880  80.6413741 111.8287624  95.1127138  87.5231715
 112.1089378  94.4450327  88.1492141 112.6138231  95.3056233  87.0106379
 110.0167891 105.6246944  76.4272794 110.9626996 105.4953152  76.4961212
 109.6382136 104.8861606  76.9042222 115.9889775  97.2902950  86.3899685
 115.7914597  96.9818038  87.2743017 116.5989481  98.0164589  86.5197615
 108.2010808 103.5496921  76.3627679 107.2942263 103.2530033  76.4390392
 108.4786789 103.2526739  75.4961965  99.1188748 104.8703284  86.8126725
  98.7991533 104.0168592  86.5201099  98.5722177 105.0851862  87.5684693
 109.8172874  98.0933810  82.5171920 109.0073602  97.7480895  82.8927166
 110.5057291  97.7841354  83.1059532 111.7463422  97.1711857  84.1396217
 112.2994461  97.5907311  84.7986240 111.9833508  96.2447605  84.1819173
 106.9709593 100.4083856  76.5039658 107.8328757 100.7338754  76.7635475
 107.1559937  99.6215352  75.9912724  98.9877008 108.4906195  88.7819847
  98.2940480 108.0760148  88.2689801  99.7349999 108.5326732  88.1853266
 115.1242229  99.2812382  83.6474881 114.5440898  99.9397186  83.2652933
 114.8578162  98.4589727  83.2362299 113.5745795  98.6817440  85.8496201
 114.0745574  98.7933974  85.0410520 114.2181403  98.3778493  86.4897010
 100.9013751 108.4224449  86.6585862 100.8784439 108.5212137  85.7067745
 101.2114387 109.2689600  86.9803028 113.9067107 101.4412473  82.7031229
 113.0192962 101.7262123  82.4851424 114.3221096 101.2806236  81.8558506
 117.2581643 101.4658994  86.4185569 118.0342033 101.9555446  86.6910185
 116.5329777 101.8917048  86.8757438 113.8808131 106.9567009  82.9181519
 113.8243332 107.4135560  82.0789152 114.4336473 106.1957693  82.7404362
 117.6912937 102.7456740  83.7431639 117.4349871 102.3453376  84.5739847
 117.0665805 103.4600534  83.6181778 114.6142910 108.1471790  80.2134049
 114.5591714 107.9816061  79.2722493 113.9888965 108.8547823  80.3696238
  99.4035425 103.3839854  94.0395471 100.0494289 102.8738808  94.5282696
  99.1952576 104.1208536  94.6138896 107.9239036  97.6479899  79.7919367
 107.9117705  98.5921739  79.9487638 108.8162458  97.4650044  79.4978828
 111.7391155  94.2422675  84.0465304 110.9723551  93.6881162  84.1921986
 112.1501860  94.3144544  84.9079455  44.5214719  -8.1844545  75.6039717
  44.1833231  -8.3003481  74.7160252  45.3904487  -8.5853380  75.5840724
  40.3801535  -6.3309069  71.5936608  39.8166400  -6.4219132  70.8252896
  40.2653930  -7.1509165  72.0739101  45.0034502  -7.0309694  81.5625923
  44.9923143  -7.4256895  80.6906427  45.1655142  -7.7643621  82.1559694
  37.9265967  -4.8357877  74.4320829  38.7187259  -5.1767053  74.0167128
  38.1662617  -4.7262902  75.3522982  45.9601094  -2.6638101  66.9051073
  45.3089073  -2.0784021  66.5185087  46.7545456  -2.1331906  66.9646111
  39.8856721  -5.5748964  67.3038208  40.6587597  -6.1219977  67.1651083
  40.2382120  -4.7104715  67.5152669  41.7241763  -4.2472582  80.5105107
  41.4331629  -3.3426951  80.3951773  42.3598748  -4.2056054  81.2249176
  42.6497970  -6.8695733  77.1006467  43.2461542  -7.0939711  76.3863430
  42.7072942  -7.6110988  77.7031914  47.4376359  -4.9747669  67.4420058
  46.8022192  -4.9013043  68.1540962  47.1073765  -4.3854071  66.7639137
  41.9419287  -7.5128192  67.1381032  41.8255545  -8.1883289  67.8062117
  42.0521547  -7.9995818  66.3213186  44.2850828  -8.0518045  70.8427722
  43.9209035  -8.5787424  71.5540643  45.1417944  -8.4419576  70.6694207
  46.6831648  -4.5611166  77.5054901  46.3832372  -3.6586128  77.3970708
  46.3382708  -4.8278983  78.3576053  40.1344130  -8.1097370  73.5391605
  39.2094626  -8.2421155  73.7469297  40.3828543  -7.3303150  74.0361547
  41.6652428   2.2033154  70.4725868  41.5876458   3.1540979  70.5514349
  41.0614072   1.8579026  71.1300795  42.4116030  -7.8153527  82.6905202
  43.1530715  -7.2768483  82.4140026  41.7053016  -7.1887238  82.8476754
  47.8871370  -5.6724387  81.2877364  48.2954726  -6.1141976  80.5431996
  47.1648631  -6.2471759  81.5411557  48.2100185  -5.1123196  75.0429653
  47.5809047  -4.9477482  74.3405720  47.8225847  -4.6981587  75.8140617
  52.0889416  -4.1768758  72.3974016  51.4040455  -3.7969857  71.8471050
  52.1733266  -3.5673432  73.1305964  49.3440348  -6.5308799  78.9969360
  49.5557243  -5.8877039  78.3203741  49.2970096  -7.3646483  78.5291290
  43.7628146  -5.3748788  72.3079738  44.2266492  -5.0961085  71.5184360
  43.4984945  -6.2765343  72.1252828  40.6552228  -5.8277307  75.2459501
  41.2253585  -5.3990038  74.6076985  41.2460339  -6.1094722  75.9443687
  50.4586176  -3.6536844  77.1691717  51.2803620  -4.0556657  76.8874399
  50.4548579  -3.7568610  78.1207833  44.2242779  -4.1052801  79.3252428
  44.2887212  -3.6432393  80.1610600  43.5153703  -4.7355436  79.4534738
  43.9390797  -2.4384693  69.1931408  43.8036472  -1.5933157  69.6216256
  44.4800610  -2.2365415  68.4297342  37.3920195  -4.9209255  69.7659333
  37.9044715  -4.1266005  69.9164898  38.0442907  -5.6182965  69.6992935
  39.2015079  -1.8043499  71.8482086  39.3781708  -0.8825534  71.6603070
  39.9971913  -2.1185080  72.2776466  45.5659274  -1.8161127  83.3231750
  45.1223128  -2.6024748  83.0052655  46.2276487  -1.6281976  82.6575641
  40.3246395  -0.2865325  77.8492429  40.8753820  -0.4148262  77.0769423
  39.4857871   0.0129564  77.4987321  47.6640512  -1.5358327  81.3513151
  47.6458987  -0.7149446  80.8593421  48.5860432  -1.6604251  81.5763293
  44.1213566  -4.0214197  82.1936660  44.6541903  -4.7825909  81.9635968
  43.5927647  -4.3140545  82.9360814  45.4866278  -4.8928205  69.7055472
  44.9587640  -5.6275445  69.3928709  44.9853781  -4.1153528  69.4595440
  50.4659124  -6.6979184  74.8222518  49.8082799  -6.0079923  74.9102647
  51.2699524  -6.3082752  75.1656504  43.6318879  -7.0747994  62.7090445
  42.7245940  -7.3058741  62.9081594  44.1289911  -7.8710375  62.8964426
  46.5386958   1.6349513  65.6287131  45.8648656   1.9381210  66.2372089
  46.9252779   2.4378593  65.2792588  44.8107112  -6.9735400  67.2314435
  43.9018331  -7.2576367  67.3286905  44.8402196  -6.5536321  66.3717742
  50.0426379  -3.3628810  71.0005602  49.5888707  -4.2037900  71.0570793
  49.4120346  -2.7267412  71.3380383  48.4859319  -1.5252313  71.9355421
  48.7782293  -0.9647256  71.2167786  48.9957939  -1.2323752  72.6908580
  44.5083200  -5.4326656  64.5702513  44.0702630  -6.1490797  64.1108151
  45.2493641  -5.2050541  64.0087605  43.4492944  -0.7471962  73.0248874
  43.4069123  -0.5211116  72.0957406  44.3655643  -0.9808588  73.1734675
  52.6525694  -5.0892932  75.6390104  53.0862201  -5.1817643  76.4873158
  53.3657275  -5.1135431  75.0010120  41.5658745  -3.8708933  72.8210837
  42.3599343  -4.3658613  72.6193411  40.8550437  -4.3991070  72.4578542
  46.3853589  -1.4890838  77.1723204  46.4390611  -0.9199901  77.9400920
  45.5168371  -1.3188953  76.8077241  53.5141244  -5.0469231  78.1722989
  53.7077134  -4.1423421  78.4182264  53.4141862  -5.5061812  79.0061574
  48.5756352  -4.8962488  83.7463870  48.4241859  -5.1251937  82.8293953
  48.5661032  -3.9391887  83.7595215  45.3441689  -7.3230576  78.7310136
  46.2733749  -7.1719416  78.5579103  44.9232719  -7.2346555  77.8758783
  44.1430021  -3.2979911  76.5008674  44.0041106  -3.6661127  77.3734612
  43.3544617  -2.7832272  76.3292631  44.7378173   1.8029185  67.8434210
  44.9129928   1.3317228  68.6579833  44.0510961   2.4294951  68.0715471
  45.6935236  -3.9198309  73.8897511  45.3585068  -3.9597539  74.7855161
  45.1939182  -4.5853593  73.4167922  39.6679480  -8.5130679  79.4150093
  39.5299278  -9.2450440  80.0161632  40.5784403  -8.6021778  79.1334280
  48.6294427  -6.5742274  64.1634571  48.0123598  -7.2995446  64.0667624
  48.1610916  -5.8132914  63.8201645  42.2961780  -8.8010719  78.9033772
  43.0061399  -9.4417527  78.8620391  42.2531089  -8.5497824  79.8259953
  50.2848559  -1.8643366  81.8240351  50.2261105  -2.5484146  81.1570934
  50.6868078  -1.1224376  81.3720977  39.3039258   4.9518548  74.6174070
  39.5435856   5.5837072  75.2953089  38.4608454   4.6006588  74.9039430
  50.2865966  -3.9003782  80.0554331  49.3992745  -4.2377860  80.1780730
  50.8564517  -4.6320751  80.2923096  43.8167120   0.7597670  77.0215574
  43.7437291   1.5652642  77.5334879  43.3744513   0.9589636  76.1963596
  43.6056899  -0.0030560  70.5318396  42.8224421   0.5391121  70.6256620
  44.3049645   0.5143420  70.9312637  46.2765803   0.6584504  79.1773733
  46.9893776   1.2931969  79.1049634  45.7855832   0.7548370  78.3613735
  47.9983330  -5.4364243  70.7491025  47.0639609  -5.3162780  70.5795729
  48.1759999  -6.3391776  70.4851034  41.3277717  -1.5921052  79.9979304
  42.0287176  -0.9584569  80.1508698  40.8572832  -1.2506321  79.2374943
  49.4532113  -3.2503102  68.2827211  49.7291957  -3.3646508  69.1921085
  48.5836611  -3.6485617  68.2439384  46.0886177   0.9983249  71.9260024
  46.2708571   0.1804904  72.3887777  46.9119163   1.2150941  71.4884914
  46.4228342  -0.0748566  69.1875073  46.9516109  -0.5856112  68.5745235
  46.6856562  -0.3906036  70.0520606  45.1766576  -8.2956634  84.3097891
  44.5007213  -8.3962504  84.9800266  45.9994210  -8.4517420  84.7733888
  36.9245435  -2.0584697  76.9310406  37.5098872  -2.8041009  77.0638311
  36.7270273  -1.7480740  77.8147070  39.7784090   0.9766550  71.9472849
  39.1094465   1.4612678  71.4636889  39.6396960   1.2235771  72.8616227
  43.9189359   3.0110294  78.5455507  44.4707667   3.1741915  79.3104592
  44.2595552   3.6014732  77.8735532  48.7700233  -2.1628449  84.4004162
  49.3140137  -1.5498490  83.9059116  48.1887078  -1.6048870  84.9171175
  47.0557746   0.9592269  75.5319189  46.9308885   0.1582009  75.0230135
  47.7136837   1.4538463  75.0433159  49.1192654  -1.2398711  77.1598739
  48.1722990  -1.3593359  77.0877066  49.4675428  -2.1276212  77.2425001
  46.1239088  -1.4445994  73.3603092  45.9764050  -2.3729287  73.5410662
  46.9492581  -1.4225904  72.8760167  49.7273210  -0.6217436  74.4467964
  50.6519757  -0.8274574  74.3092416  49.5588513  -0.8701034  75.3557306
  49.5168526  -0.1031768  69.8030056  49.6905403  -0.6685346  69.0503908
  50.0097417   0.6969127  69.6209546  50.5043698  -0.7865004  66.9026954
  51.1994603  -0.1658311  67.1214269  50.8466848  -1.6369652  67.1779332
  52.4035121  -3.3365298  68.4314285  52.9286445  -2.9978025  67.7063605
  52.3157474  -4.2718283  68.2477420  44.0655170   0.5768775  80.5604162
  44.3742296   0.3317922  81.4326861  44.8630652   0.7815414  80.0723032
  44.0875782   2.7306685  72.7909538  43.6480772   2.2383064  73.4842395
  44.8383899   2.1879653  72.5501613  36.5668121  -1.0781774  72.7934166
  37.3926141  -1.3778002  72.4132810  36.2162173  -1.8474152  73.2423955
  41.5349654  -1.7255306  74.8631840  40.9129664  -2.3884601  74.5634068
  42.2054521  -1.6994174  74.1805488  34.7676726  -3.1595448  73.7523100
  33.9308634  -3.5873273  73.5707101  34.7400372  -2.9663004  74.6893891
  52.0929027  -2.7032395  83.7365483  51.3024571  -2.7208256  83.1969982
  51.8562382  -2.1644101  84.4914519  41.0963161  -3.1751382  68.3390300
  41.2451282  -2.4915918  67.6856973  41.9029605  -3.1946292  68.8539756
  53.7145099  -3.4342987  81.2940233  53.4229908  -3.0713006  82.1303694
  53.1017231  -4.1475978  81.1153565  38.8515794  -7.1486205  69.3451369
  38.6061836  -8.0523875  69.5431579  39.0211709  -7.1469054  68.4030847
  44.5958567  -0.6803252  65.8102048  44.0232534  -0.0613065  65.3572520
  45.1691360  -0.1303890  66.3441970  47.8155826  -0.3966102  66.9410630
  48.7486500  -0.4620540  67.1443506  47.7279039   0.4390165  66.4825163
  50.4443843  -1.0800232  63.9014578  50.3657475  -1.4140368  64.7950336
  51.2653510  -0.5878464  63.9006050  44.8644058  -5.2924693  84.6118757
  45.7847067  -5.1146094  84.8058804  44.8293641  -6.2368648  84.4598456
  37.8606130  -7.3823658  77.2541538  38.0792140  -6.4506551  77.2729572
  38.2731904  -7.7415684  78.0396342  42.5965266  -8.3793314  85.4609349
  42.1132347  -7.5792954  85.6673238  42.6826205  -8.3685369  84.5076793
  35.8651225  -6.5464934  73.3831168  35.8421913  -6.4477247  72.4313051
  36.1751862  -5.6999783  73.7048334  38.5238603  -4.4888779  77.4977783
  39.4781857  -4.5204837  77.4307714  38.3251127  -4.9498155  78.3128009
  39.1137985  -5.9187663  80.0648580  39.9330874  -5.4243584  80.0883418
  39.3874793  -6.8355695  80.0366148  36.8788832   1.0530840  74.5147981
  36.7443300   0.2931241  73.9485979  36.4620894   1.7771740  74.0476770
  48.0147795  -3.7632236  63.5224556  48.7183645  -3.5582234  64.1382212
  47.2910444  -3.1955474  63.7873639  40.0357958   1.9500157  74.7266423
  39.9190342   2.8945590  74.6245114  39.2150404   1.6473719  75.1152222
  49.9234492  -3.3249707  65.5723016  50.7580096  -3.7568508  65.3900491
  49.7618835  -3.4967693  66.4999910  49.5780385  -6.8217594  66.9379355
  49.5229188  -6.9873322  65.9967799  48.9526440  -6.1141561  67.0941545
  46.8926292  -4.5168682  86.2632918  47.7617451  -4.3428029  85.9019553
  46.4133043  -3.6974265  86.1408647  41.0612472   2.6028419  77.9422352
  41.9639719   2.6352029  78.2588847  40.8349842   1.6728870  77.9568687
  42.8166074   1.3559406  74.6032430  41.8661705   1.3561267  74.4896803
  43.1198560   0.6092140  74.0868465  58.5518767   7.1919944  75.6678193
  59.1897177   7.0726692  74.9641533  58.4339610   8.1400788  75.7266145
  55.3608474   7.1447372  75.6039717  55.0226985   7.0288437  74.7160252
  56.2298242   6.7438537  75.5840724  51.2195289   8.9982849  71.5936608
  50.6560155   8.9072786  70.8252896  51.1047684   8.1782753  72.0739101
  55.8428257   8.2982224  81.5625923  55.8316897   7.9035022  80.6906427
  56.0048896   7.5648297  82.1559694  48.7659721  10.4934040  74.4320829
  49.5581013  10.1524865  74.0167128  49.0056371  10.6029015  75.3522982
  56.7994848  12.6653816  66.9051073  56.1482828  13.2507897  66.5185087
  57.5939211  13.1960011  66.9646111  50.7250475   9.7542954  67.3038208
  51.4981351   9.2071941  67.1651083  51.0775874  10.6187203  67.5152669
  52.5635518  11.0819336  80.5105107  52.2725384  11.9864967  80.3951773
  53.1992502  11.1235863  81.2249176  53.4891725   8.4596184  77.1006467
  54.0855297   8.2352207  76.3863430  53.5466696   7.7180930  77.7031914
  53.0616753   5.9135620  64.9356658  53.3142274   5.3917141  64.1740121
  52.1241312   5.7501765  65.0383341  58.1060036   4.9171398  72.7431401
  58.8923125   4.4990821  72.3921818  58.3698740   5.8217490  72.9113049
  58.2770113  10.3544248  67.4420058  57.6415946  10.4278875  68.1540962
  57.9467520  10.9437847  66.7639137  63.5068463   4.8546631  73.6464379
  64.2393635   4.2845848  73.8802209  62.7507819   4.4668232  74.0870885
  52.7813042   7.8163726  67.1381032  52.6649300   7.1408629  67.8062117
  52.8915302   7.3296100  66.3213186  55.1244583   7.2773873  70.8427722
  54.7602790   6.7504494  71.5540643  55.9811699   6.8872342  70.6694207
  61.0293883  -1.4331795  78.1058988  60.6977208  -0.5636384  77.8820203
  60.4339497  -1.7495511  78.7853018  54.7650070   2.3063772  65.8389070
  54.9324472   3.1744009  66.2059541  54.5747239   2.4691054  64.9150359
  57.5225403  10.7680751  77.5054901  57.2226126  11.6705790  77.3970708
  57.1776462  10.5012935  78.3576053  50.9737884   7.2194548  73.5391605
  50.0488381   7.0870762  73.7469297  51.2222298   7.9988767  74.0361547
  60.9222547   3.2863291  75.1852338  60.0139424   3.2178700  74.8911099
  60.8710142   3.7635236  76.0134163  54.7439291   4.7621430  66.8235737
  54.6238916   5.2078481  67.6621217  54.0491879   5.1106748  66.2649275
  48.3346695   6.8627822  74.3735394  48.4639077   7.1162301  75.2874806
  47.6544147   7.4555530  74.0540049  52.5046183  17.5325072  70.4725868
  52.4270212  18.4832897  70.5514349  51.9007826  17.1870944  71.1300795
  54.9963412   4.7052937  83.1287235  54.2196747   5.2646857  83.1190100
  55.6353976   5.1909720  83.6502105  62.7884193   1.4879730  76.9630212
  62.1458573   1.7812263  76.3170006  62.2839122   1.3732650  77.7683409
  60.4424357   5.2342903  67.6516071  61.3542213   5.4670290  67.4763769
  59.9334004   5.8179947  67.0891150  53.2509785   7.5138390  82.6905202
  53.9924469   8.0523434  82.4140026  52.5446770   8.1404679  82.8476754
  58.7265124   9.6567531  81.2877364  59.1348480   9.2149941  80.5431996
  58.0042386   9.0820158  81.5411557  55.0796194   4.5940138  78.6610921
  55.9257390   5.0179551  78.8045570  55.0194832   3.9373762  79.3549484
  59.0493939  10.2168722  75.0429653  58.4202802  10.3814436  74.3405720
  58.6619601  10.6310331  75.8140617  62.9283171  11.1523159  72.3974016
  62.2434209  11.5322061  71.8471050  63.0127020  11.7618486  73.1305964
  58.2295640   2.2544506  80.3192094  57.9856572   3.0086567  79.7826370
  58.5055570   2.6329854  81.1539341  60.1834103   8.7983118  78.9969360
  60.3950998   9.4414878  78.3203741  60.1363851   7.9645435  78.5291290
  57.7860332   1.4100939  75.9005932  56.9244811   1.7082193  76.1922670
  57.8122766   1.6271338  74.9686965  54.6021901   9.9543130  72.3079738
  55.0660246  10.2330833  71.5184360  54.3378699   9.0526574  72.1252828
  51.4945982   9.5014611  75.2459501  52.0647339   9.9301880  74.6076985
  52.0854094   9.2197196  75.9443687  53.5390787   6.0766282  69.1169303
  54.2414830   6.5287326  69.5843229  53.2071416   5.4350101  69.7449196
  51.9871149   4.6678039  83.4920512  51.3569809   5.3494319  83.7255909
  51.8807236   4.5561120  82.5473650  47.2816121   4.3349835  74.4186436
  46.4915175   4.5907363  73.9426547  47.7727368   5.1498173  74.5238477
  61.2979931  11.6755074  77.1691717  62.1197374  11.2735261  76.8874399
  61.2942333  11.5723308  78.1207833  49.2330866   4.6994414  71.3769913
  48.4362030   4.8113108  71.8953409  49.0056459   5.0381066  70.5110804
  55.0636534  11.2239117  79.3252428  55.1280966  11.6859524  80.1610600
  54.3547458  10.5936482  79.4534738  45.5653824   4.5880325  76.8501427
  45.8161862   5.4727335  77.1159003  46.1013372   4.4084927  76.0776519
  69.3885924   8.0193822  73.5176689  68.6349632   7.4501220  73.3620693
  69.5233465   7.9856487  74.4647323  54.7784552  12.8907225  69.1931408
  54.6430226  13.7358760  69.6216256  55.3194364  13.0926502  68.4297342
  51.2651891  -1.0301196  85.8545763  50.8718837  -1.5834997  86.5293407
  52.0818032  -0.7190617  86.2452281  48.2313949  10.4082663  69.7659333
  48.7438470  11.2025913  69.9164898  48.8836662   9.7108953  69.6992935
  50.0408834  13.5248419  71.8482086  50.2175462  14.4466384  71.6603070
  50.8365667  13.2106838  72.2776466  54.1819852   0.3856684  83.4466020
  54.9229566   0.9863837  83.3670482  54.4137775  -0.3565679  82.8884062
  49.3261190   5.5713051  81.7244250  49.2114705   4.6698308  82.0251348
  48.4705708   5.8176748  81.3729066  56.4053028  13.5130791  83.3231750
  55.9616882  12.7267170  83.0052655  57.0670242  13.7009942  82.6575641
  51.1640149  15.0426593  77.8492429  51.7147574  14.9143656  77.0769423
  50.3251625  15.3421482  77.4987321  58.5034266  13.7933591  81.3513151
  58.4852741  14.6142472  80.8593421  59.4254186  13.6687666  81.5763293
  54.9607320  11.3077721  82.1936660  55.4935657  10.5466009  81.9635968
  54.4321401  11.0151372  82.9360814  58.1277015  -3.5862214  77.7230302
  57.7841285  -2.6960572  77.6469412  58.4955978  -3.7760556  76.8599887
  46.1962866   8.7371317  70.5418904  47.0338088   9.1468325  70.3252611
  46.3741134   7.7970759  70.5119098  58.0927298   6.4046398  66.2302737
  57.5773921   7.1751002  66.4691124  57.8204606   5.7311534  66.8535798
  55.6774409   1.2496098  71.2887975  54.8216005   0.8602949  71.1093614
  56.0901361   1.3288059  70.4287761  57.2073556  -1.2157558  75.6879535
  56.7038351  -1.2527423  74.8747340  57.5004162  -0.3064816  75.7476191
  53.4516441  -1.1318829  74.6945716  54.3169438  -1.3276020  74.3351606
  53.5193950  -1.3608477  75.6215073  63.0661572   9.1578752  68.1655910
  62.2891015   8.8189912  67.7211072  63.7453053   9.1631375  67.4910875
  57.8813601   4.2773490  68.0562518  57.5763737   4.5919639  68.9072661
  58.8344043   4.3554910  68.0989851  56.3260033  10.4363713  69.7055472
  55.7981395   9.7016473  69.3928709  55.8247536  11.2138389  69.4595440
  61.3052879   8.6312733  74.8222518  60.6476553   9.3211995  74.9102647
  62.1093278   9.0209165  75.1656504  51.0578761   1.0983379  72.0662083
  51.6322512   0.8758561  71.3335276  51.6449743   1.1672074  72.8190685
  60.1158338   6.9857106  72.8726460  60.6290220   7.6187098  73.3748170
  60.7659562   6.3858302  72.5069820  51.3848348   3.1287840  66.0857969
  50.5485660   3.4662527  66.4067243  51.2453117   2.9936820  65.1485106
  53.3601428  -2.0275372  70.7937153  52.7065841  -2.3426355  70.1693767
  53.3181902  -2.6499631  71.5196976  54.4712633   8.2543923  62.7090445
  53.5639695   8.0233177  62.9081594  54.9683665   7.4581543  62.8964426
  57.3780712  16.9641430  65.6287131  56.7042411  17.2673127  66.2372089
  57.7646534  17.7670511  65.2792588  56.5939169   4.4606562  75.1184800
  55.6761730   4.6821509  74.9606488  57.0099312   4.5352872  74.2596508
  57.3774216   5.8597977  70.2487481  58.1246035   6.3719375  69.9394603
  57.6465806   5.5382030  71.1091874  55.6500867   8.3556518  67.2314435
  54.7412086   8.0715551  67.3286905  55.6795950   8.7755597  66.3717742
  60.8820134  11.9663108  71.0005602  60.4282461  11.1254018  71.0570793
  60.2514101  12.6024506  71.3380383  59.8253054   2.8955094  72.2306270
  59.0875810   2.3832480  72.5616512  60.0779827   2.4555475  71.4189547
  59.3253073  13.8039604  71.9355421  59.6176048  14.3644661  71.2167786
  59.8351694  14.0968165  72.6908580  46.2189037   6.0762032  71.2129637
  46.0213437   5.4831393  70.4880704  45.6635701   5.7714242  71.9305576
  54.1985761   5.9685139  73.3324230  54.2534370   5.0158975  73.2566707
  53.3876963   6.1244578  73.8165529  55.3476954   9.8965262  64.5702513
  54.9096384   9.1801121  64.1108151  56.0887395  10.1241377  64.0087605
  52.1378121   4.5862198  71.0914609  51.3245986   4.8856369  71.4979801
  52.6337115   4.1917887  71.8089091  54.2886698  14.5819955  73.0248874
  54.2462877  14.8080802  72.0957406  55.2049397  14.3483330  73.1734675
  57.7352332   5.0504023  79.9229503  58.0901720   5.2775496  80.7823969
  58.3824463   5.3822400  79.3006758  63.4650069   8.1722459  70.6278832
  63.3267968   8.3624055  69.7000021  63.1086288   8.9341842  71.0846883
  51.6292195   2.1580554  76.7075844  52.2691575   2.0169313  76.0098807
  50.7969726   1.8715067  76.3314446  63.4919449  10.2398986  75.6390104
  63.9255955  10.1474275  76.4873158  64.2051029  10.2156486  75.0010120
  52.4052499  11.4582984  72.8210837  53.1993098  10.9633305  72.6193411
  51.6944192  10.9300848  72.4578542  57.2247344  13.8401080  77.1723204
  57.2784366  14.4092016  77.9400920  56.3562125  14.0102965  76.8077241
  48.7135263   5.6026066  68.8970589  47.7832851   5.5410522  69.1140551
  48.8092735   5.0802019  68.1007230  48.6320812   2.1280879  71.4848831
  48.8927629   3.0426212  71.3757991  49.4537984   1.6605322  71.6345444
  50.1045737   3.5418636  78.6547655  50.7768790   3.3335998  78.0060304
  49.2775524   3.3440722  78.2152888  64.3534998  10.2822687  78.1722989
  64.5470888  11.1868497  78.4182264  64.2535616   9.8230106  79.0061574
  56.0071309   0.1680577  80.6713316  55.3599224   0.8670527  80.5777793
  56.7772324   0.6016721  81.0389564  59.4150107  10.4329429  83.7463870
  59.2635613  10.2039981  82.8293953  59.4054786  11.3900031  83.7595215
  56.1835443   8.0061342  78.7310136  57.1127503   8.1572502  78.5579103
  55.7626473   8.0945363  77.8758783  54.9823775  12.0312006  76.5008674
  54.8434861  11.6630791  77.3734612  54.1938371  12.5459646  76.3292631
  55.5771927  17.1321103  67.8434210  55.7523683  16.6609146  68.6579833
  54.8904715  17.7586869  68.0715471  56.5328990  11.4093609  73.8897511
  56.1978823  11.3694379  74.7855161  56.0332936  10.7438325  73.4167922
  50.5073234   6.8161239  79.4150093  50.3693032   6.0841478  80.0161632
  51.4178158   6.7270139  79.1334280  59.4688182   8.7549643  64.1634571
  58.8517353   8.0296472  64.0667624  59.0004670   9.5159004  63.8201645
  53.1355535   6.5281198  78.9033772  53.8455153   5.8874391  78.8620391
  53.0924843   6.7794093  79.8259953  61.1242314  13.4648552  81.8240351
  61.0654860  12.7807772  81.1570934  61.5261832  14.2067542  81.3720977
  51.8484469   3.5146416  80.7229412  51.3121826   3.0637155  81.3751008
  51.2601177   3.6492325  79.9799876  50.1433012  20.2810466  74.6174070
  50.3829611  20.9128990  75.2953089  49.3002209  19.9298506  74.9039430
  51.2586728   2.9735068  63.2855875  50.3816194   2.8523869  62.9218122
  51.7344481   2.1821146  63.0334764  61.1259721  11.4288136  80.0554331
  60.2386500  11.0914058  80.1780730  61.6958272  10.6971167  80.2923096
  42.7788868   7.7612227  73.3797382  43.4659908   7.4473958  72.7918398
  42.6236997   8.6653592  73.1064634  47.5823590   2.6502424  77.8082406
  47.4981779   2.0428094  77.0732816  46.7606297   3.1411442  77.8091903
  54.6560874  16.0889588  77.0215574  54.5831046  16.8944560  77.5334879
  54.2138267  16.2881554  76.1963596  54.4450654  15.3261358  70.5318396
  53.6618176  15.8683038  70.6256620  55.1443399  15.8435338  70.9312637
  57.7547304   1.1355988  73.1752601  58.2516004   0.3825950  72.8553671
  56.9834286   1.1720304  72.6095811  65.6077061   6.8396353  74.8170893
  65.5966938   7.7221069  74.4464826  64.7394441   6.4867904  74.6225430
  57.1159558  15.9876422  79.1773733  57.8287530  16.6223887  79.1049634
  56.6249586  16.0840288  78.3613735  58.8377085   9.8927675  70.7491025
  57.9033363  10.0129137  70.5795729  59.0153753   8.9900142  70.4851034
  54.3382273   3.2773371  72.9024286  53.9680060   2.7244411  73.5905191
  54.8341365   2.6731504  72.3499286  62.2249636   5.7344994  71.2841059
  62.6910088   6.5672986  71.2101361  62.6757137   5.2689976  71.9886317
  52.1671471  13.7370866  79.9979304  52.8680931  14.3707349  80.1508698
  51.6966586  14.0785597  79.2374943  60.2925867  12.0788815  68.2827211
  60.5685711  11.9645410  69.1921085  59.4230366  11.6806300  68.2439384
  60.1966299  -1.8974419  75.3231960  59.2829379  -1.6670192  75.4914167
  60.6259400  -1.8135975  76.1745992  59.9672757   6.2915473  77.8231854
  59.3144208   6.5391380  77.1684307  60.3453137   5.4779611  77.4894331
  56.9279931  16.3275166  71.9260024  57.1102326  15.5096822  72.3887777
  57.7512917  16.5442858  71.4884914  57.2622097  15.2543351  69.1875073
  57.7909863  14.7435806  68.5745235  57.5250316  14.9385882  70.0520606
  56.0160330   7.0335284  84.3097891  55.3400967   6.9329413  84.9800266
  56.8387964   6.8774498  84.7733888  47.7639189  13.2707221  76.9310406
  48.3492626  12.5250909  77.0638311  47.5664028  13.5811177  77.8147070
  50.6177845  16.3058468  71.9472849  49.9488220  16.7904596  71.4636889
  50.4790714  16.5527688  72.8616227  42.3556844   5.8412821  75.6514850
  42.3940944   5.3076412  76.4451968  41.8497137   5.3148026  75.0325827
  54.7583113  18.3402212  78.5455507  55.3101421  18.5033833  79.3104592
  55.0989307  18.9306649  77.8735532  49.7347606   0.6877361  79.1477392
  49.7988933   1.5492192  78.7354790  49.6714727   0.0751363  78.4149750
  49.2099879   2.7600494  82.7950426  49.8371918   2.3777571  83.4087950
  48.3527798   2.5414696  83.1606119  59.6093988  13.1663469  84.4004162
  60.1533892  13.7793427  83.9059116  59.0280832  13.7243047  84.9171175
  45.9865422   4.5676923  68.7268781  46.2818863   3.6587601  68.6735835
  45.0853457   4.5464662  68.4049783  57.8951500  16.2884187  75.5319189
  57.7702640  15.4873927  75.0230135  58.5530592  16.7830380  75.0433159
  49.5159669   2.6432920  74.7096330  48.7946254   3.2568887  74.5703803
  50.3052924   3.1790684  74.6312976  59.9586409  14.0893207  77.1598739
  59.0116744  13.9698558  77.0877066  60.3069182  13.2015705  77.2425001
  52.3185982  -0.0212654  80.9836981  52.8420384   0.2249643  81.7463291
  52.0998316   0.8107381  80.5640119  47.7153263   2.2491021  68.8508106
  47.3865969   1.3688400  68.6683212  48.0692634   2.1938689  69.7384495
  56.9632842  13.8845923  73.3603092  56.8157805  12.9562631  73.5410662
  57.7886336  13.9066014  72.8760167  50.8295086   2.5363990  69.2183584
  51.1691159   3.0649912  68.4962192  51.2767207   2.8744397  69.9942150
  60.5666964  14.7074482  74.4467964  61.4913511  14.5017343  74.3092416
  60.3982267  14.4590883  75.3557306  53.5238527   0.9201041  78.6686652
  53.1835348   0.1208854  79.0707332  52.8177534   1.2202752  78.0963485
  54.1754999  -1.9949646  77.1213975  54.9981068  -2.4689168  76.9992865
  54.4193063  -1.2159163  77.6212661  52.8163234   1.0338612  67.4176877
  53.5371596   1.4119865  66.9140593  52.1928538   1.7527489  67.5211855
  56.9594356   1.7383761  68.3535209  57.1757971   2.6208399  68.0524037
  56.4788424   1.3469974  67.6240851  51.6993578   4.6969474  74.9305954
  51.5538159   5.0109777  75.8230235  51.2218782   5.3154375  74.3776852
  53.5589961   1.6872022  74.9786843  53.5451530   0.7913116  74.6419141
  54.2762389   1.6942686  75.6125129  55.4116091   2.1209362  77.0239971
  55.1533869   3.0426433  77.0224301  54.8801132   1.7239797  77.7140435
  60.3562280  15.2260150  69.8030056  60.5299158  14.6606572  69.0503908
  60.8491171  16.0261044  69.6209546  46.1739240   7.2374819  77.8693615
  45.6292708   8.0134627  78.0013889  47.0518590   7.5845623  77.7112736
  52.9626857   0.5686403  70.2474413  53.0842768  -0.3596951  70.4465301
  52.6728899   0.5825088  69.3352729  55.8318047  -1.7458687  73.3841133
  55.8539744  -1.6819354  72.4293113  56.2486106  -2.5854178  73.5781639
  66.2101671   7.9896572  71.4220356  66.6532817   7.2403898  71.0239479
  65.3328182   7.9806709  71.0394088  61.3437453  14.5426914  66.9026954
  62.0388357  15.1633607  67.1214269  61.6860603  13.6922265  67.1779332
  46.9605262   6.3644715  80.7623772  46.2186998   6.5127350  81.3488402
  46.6398006   6.6252981  79.8990521  63.2428876  11.9926619  68.4314285
  63.7680200  12.3313892  67.7063605  63.1551228  11.0573635  68.2477420
  54.9048925  15.9060693  80.5604162  55.2136051  15.6609840  81.4326861
  55.7024407  16.1107332  80.0723032  54.9269537  18.0598603  72.7909538
  54.4874527  17.5674981  73.4842395  55.6777654  17.5171570  72.5501613
  47.4061876  14.2510144  72.7934166  48.2319895  13.9513915  72.4132810
  47.0555928  13.4817766  73.2423955  52.3743409  13.6036612  74.8631840
  51.7523418  12.9407317  74.5634068  53.0448276  13.6297744  74.1805488
  45.6070481  12.1696470  73.7523100  44.7702389  11.7418644  73.5707101
  45.5794126  12.3628913  74.6893891  52.4467936   2.0818400  84.4564346
  52.4956092   2.9580523  84.0742115  52.9890450   1.5395793  83.8835989
  62.9322782  12.6259523  83.7365483  62.1418326  12.6083662  83.1969982
  62.6956136  13.1647817  84.4914519  63.0520657   9.4751990  81.0498211
  63.1018662   9.3101997  81.9913734  62.9434580   8.6079249  80.6596092
  51.9356916  12.1540535  68.3390300  52.0845036  12.8376000  67.6856973
  52.7423359  12.1345625  68.8539756  60.3424419   5.4582918  82.3657518
  61.2434282   5.3189382  82.0741516  60.4172394   5.6237372  83.3055696
  54.6767225   2.8349772  81.2110704  53.8070534   3.1283338  80.9393293
  54.9126705   3.4190217  81.9317968  64.5538854  11.8948931  81.2940233
  64.2623662  12.2578912  82.1303694  63.9410985  11.1815939  81.1153565
  65.7534536   9.4601811  73.8142803  66.5881427   9.8991615  73.9780364
  65.8893665   8.9840464  72.9951049  62.8026042   7.0181546  79.7620291
  63.2780164   7.2109192  78.9539142  61.8791607   7.0740731  79.5163675
  49.6909549   8.1805713  69.3451369  49.4455591   7.2768043  69.5431579
  49.8605463   8.1822863  68.4030847  57.3806259  -0.9470611  78.7276125
  57.8988202  -0.2109584  78.4022613  57.0261391  -0.6406617  79.5622884
  48.9605196   3.9134070  66.8437531  48.2674441   3.9878425  66.1877567
  48.7156948   3.1494414  67.3659048  55.4352321  14.6488666  65.8102048
  54.8626288  15.2678853  65.3572520  56.0085115  15.1988027  66.3441970
  61.5027711   3.8947306  77.9948597  62.4545134   3.9945403  78.0160821
  61.3331161   3.1025574  78.5046681  59.5242090   0.9802889  78.1807997
  58.9292023   1.2607902  77.4854486  59.2391787   1.4696790  78.9524739
  58.6549581  14.9325816  66.9410630  59.5880254  14.8671377  67.1443506
  58.5672794  15.7682083  66.4825163  61.2837598  14.2491686  63.9014578
  61.2051229  13.9151550  64.7950336  62.1047264  14.7413454  63.9006050
  63.9815789   7.1153425  77.1090896  63.9492109   6.1769426  77.2950580
  64.5916412   7.1937462  76.3756721  55.8199120   5.9849478  63.1518100
  56.7658224   5.8555687  63.2206518  55.4413365   5.2464140  63.6287528
  64.1310277   3.9064469  77.1549179  63.6149326   3.1222925  76.9679108
  65.0150226   3.5783185  77.3195699  61.7921004  -2.3494516  73.1144992
  61.5945825  -2.6579427  73.9988324  62.4020710  -1.6232877  73.2442922
  69.7992339   8.1769432  76.2496933  70.5295727   7.9154720  76.8104636
  69.1899284   7.4398154  76.2899001  67.8807636   6.3177295  76.8471384
  67.1540799   6.1833260  76.2387876  67.4654923   6.6254123  77.6528102
  55.7037812  10.0367225  84.6118757  56.6240822  10.2145824  84.8058804
  55.6687395   9.0923270  84.4598456  54.0042037   3.9099455  63.0872985
  53.0973492   3.6132567  63.1635699  54.2818018   3.6129273  62.2207272
  44.9219977   5.2305818  73.5372032  44.6022762   4.3771126  73.2446406
  44.3753405   5.4454396  74.2929999  48.6999885   7.9468259  77.2541538
  48.9185895   8.8785367  77.2729572  49.1125659   7.5876234  78.0396342
  55.6204103  -1.5463656  69.2417227  54.8104831  -1.8916571  69.6172473
  56.3088519  -1.8556112  69.8304838  57.5494651  -2.4685609  70.8641523
  58.1025689  -2.0490155  71.5231547  57.7864737  -3.3949861  70.9064479
  53.5727750   3.5201465  86.6444287  53.4724477   4.4695822  86.5756378
  53.3549292   3.1919704  85.7720357  52.7740821   0.7686390  63.2284965
  53.6359985   1.0941288  63.4880782  52.9591166  -0.0182114  62.7158030
  44.7908237   8.8508730  75.5065153  44.0971709   8.4362682  74.9935108
  45.5381228   8.8929266  74.9098572  60.9273458  -0.3585084  70.3720188
  60.3472127   0.2999720  69.9898240  60.6609391  -1.1807739  69.9607605
  59.3777024  -0.9580026  72.5741508  59.8776803  -0.8463491  71.7655827
  60.0212632  -1.2618973  73.2142316  53.4359020   6.9498604  85.4609349
  52.9526102   7.7498964  85.6673238  53.5219959   6.9606549  84.5076793
  46.7044980   8.7826983  73.3831168  46.6815668   8.8814671  72.4313051
  47.0145616   9.6292134  73.7048334  49.3632358  10.8403138  77.4977783
  50.3175611  10.8087081  77.4307714  49.1644881  10.3793762  78.3128009
  49.9531740   9.4104255  80.0648580  50.7724629   9.9048333  80.0883418
  50.2268547   8.4936223  80.0366148  59.7098336   1.8015007  69.4276536
  58.8224191   2.0864657  69.2096731  60.1252325   1.6408770  68.5803813
  63.0612872   1.8261528  73.1430875  63.8373262   2.3157980  73.4155492
  62.3361006   2.2519582  73.6002745  65.4985431   2.5389147  74.2004816
  66.0929922   2.2984883  73.4898124  65.5712014   1.8196278  74.8278352
  47.7182586  16.3822758  74.5147981  47.5837054  15.6223159  73.9485979
  47.3014649  17.1063658  74.0476770  58.8541549  11.5659682  63.5224556
  59.5577400  11.7709684  64.1382212  58.1304198  12.1336443  63.7873639
  59.6839360   7.3169543  69.6426826  59.6274561   7.7738094  68.8034459
  60.2367702   6.5560227  69.4649669  63.4944166   3.1059275  70.4676946
  63.2381100   2.7055910  71.2985153  62.8697034   3.8203069  70.3427085
  67.8056503   5.8455348  72.9748237  67.2456061   5.9148537  73.7479799
  67.2000007   5.6696333  72.2547733  50.8751712  17.2792075  74.7266423
  50.7584096  18.2237507  74.6245114  50.0544159  16.9765637  75.1152222
  60.7628247  12.0042211  65.5723016  61.5973851  11.5723409  65.3900491
  60.6012590  11.8324224  66.4999910  60.4174139   8.5074324  66.9379355
  60.3622943   8.3418595  65.9967799  59.7920194   9.2150357  67.0941545
  45.2066654   3.7442388  80.7640777  45.8525518   3.2341342  81.2528003
  44.9983805   4.4811070  81.3384203  57.7320046  10.8123236  86.2632918
  58.6011206  10.9863888  85.9019553  57.2526798  11.6317653  86.1408647
  53.7270264  -1.9917567  66.5164674  53.7148934  -1.0475727  66.6732945
  54.6193686  -2.1747422  66.2224135  51.9006226  17.9320337  77.9422352
  52.8033473  17.9643947  78.2588847  51.6743596  17.0020788  77.9568687
  53.6559828  16.6851323  74.6032430  52.7055459  16.6853185  74.4896803
  53.9592315  15.9384058  74.0868465  49.5464145   0.8910005  84.8615792
  50.4095607   0.5346810  85.0719116  48.9729556   0.5523900  85.5491196
  69.3912522  22.5211862  75.6678193  70.0290932  22.4018609  74.9641533
  69.2733365  23.4692706  75.7266145  66.2002228  22.4739290  75.6039717
  65.8620740  22.3580355  74.7160252  67.0691996  22.0730455  75.5840724
  62.0589044  24.3274766  71.5936608  61.4953909  24.2364703  70.8252896
  61.9441439  23.5074671  72.0739101  66.6822011  23.6274142  81.5625923
  66.6710652  23.2326940  80.6906427  66.8442651  22.8940214  82.1559694
  59.6053476  25.8225958  74.4320829  60.3974768  25.4816783  74.0167128
  59.8450126  25.9320933  75.3522982  67.6388603  27.9945734  66.9051073
  66.9876582  28.5799814  66.5185087  68.4332965  28.5251929  66.9646111
  61.5644230  25.0834871  67.3038208  62.3375106  24.5363858  67.1651083
  61.9169629  25.9479121  67.5152669  63.4029272  26.4111253  80.5105107
  63.1119138  27.3156884  80.3951773  64.0386257  26.4527781  81.2249176
  64.3285479  23.7888102  77.1006467  64.9249051  23.5644124  76.3863430
  64.3860451  23.0472847  77.7031914  63.9010508  21.2427537  64.9356658
  64.1536028  20.7209059  64.1740121  62.9635067  21.0793683  65.0383341
  68.9453790  20.2463316  72.7431401  69.7316880  19.8282739  72.3921818
  69.2092495  21.1509408  72.9113049  69.1163868  25.6836166  67.4420058
  68.4809701  25.7570793  68.1540962  68.7861274  26.2729765  66.7639137
  74.3462218  20.1838549  73.6464379  75.0787389  19.6137766  73.8802209
  73.5901573  19.7960149  74.0870885  63.6206796  23.1455643  67.1381032
  63.5043054  22.4700547  67.8062117  63.7309056  22.6588017  66.3213186
  65.9638337  22.6065790  70.8427722  65.5996544  22.0796411  71.5540643
  66.8205453  22.2164259  70.6694207  71.8687638  13.8960123  78.1058988
  71.5370963  14.7655534  77.8820203  71.2733251  13.5796407  78.7853018
  65.6043824  17.6355690  65.8389070  65.7718227  18.5035926  66.2059541
  65.4140993  17.7982972  64.9150359  68.3619157  26.0972669  77.5054901
  68.0619880  26.9997708  77.3970708  68.0170217  25.8304852  78.3576053
  61.8131639  22.5486466  73.5391605  60.8882135  22.4162680  73.7469297
  62.0616052  23.3280685  74.0361547  71.7616301  18.6155209  75.1852338
  70.8533179  18.5470618  74.8911099  71.7103897  19.0927154  76.0134163
  65.5833045  20.0913348  66.8235737  65.4632670  20.5370398  67.6621217
  64.8885633  20.4398665  66.2649275  59.1740450  22.1919739  74.3735394
  59.3032831  22.4454218  75.2874806  58.4937901  22.7847447  74.0540049
  63.3439937  32.8616989  70.4725868  63.2663967  33.8124814  70.5514349
  62.7401581  32.5162862  71.1300795  65.8357167  20.0344855  83.1287235
  65.0590501  20.5938775  83.1190100  66.4747730  20.5201638  83.6502105
  73.6277948  16.8171648  76.9630212  72.9852328  17.1104181  76.3170006
  73.1232876  16.7024568  77.7683409  71.2818111  20.5634821  67.6516071
  72.1935967  20.7962208  67.4763769  70.7727758  21.1471865  67.0891150
  64.0903539  22.8430308  82.6905202  64.8318224  23.3815352  82.4140026
  63.3840525  23.4696597  82.8476754  69.5658879  24.9859449  81.2877364
  69.9742235  24.5441859  80.5431996  68.8436140  24.4112076  81.5411557
  65.9189949  19.9232055  78.6610921  66.7651144  20.3471469  78.8045570
  65.8588587  19.2665680  79.3549484  69.8887694  25.5460639  75.0429653
  69.2596556  25.7106353  74.3405720  69.5013356  25.9602249  75.8140617
  73.7676925  26.4815077  72.3974016  73.0827964  26.8613978  71.8471050
  73.8520775  27.0910404  73.1305964  69.0689394  17.5836424  80.3192094
  68.8250326  18.3378484  79.7826370  69.3449325  17.9621771  81.1539341
  71.0227857  24.1275036  78.9969360  71.2344752  24.7706796  78.3203741
  70.9757605  23.2937353  78.5291290  68.6254086  16.7392857  75.9005932
  67.7638565  17.0374110  76.1922670  68.6516521  16.9563256  74.9686965
  65.4415655  25.2835047  72.3079738  65.9054001  25.5622750  71.5184360
  65.1772454  24.3818492  72.1252828  62.3339737  24.8306529  75.2459501
  62.9041094  25.2593797  74.6076985  62.9247848  24.5489114  75.9443687
  64.3784542  21.4058200  69.1169303  65.0808585  21.8579243  69.5843229
  64.0465170  20.7642019  69.7449196  62.8264903  19.9969956  83.4920512
  62.1963564  20.6786237  83.7255909  62.7200991  19.8853038  82.5473650
  58.1209875  19.6641752  74.4186436  57.3308929  19.9199281  73.9426547
  58.6121123  20.4790090  74.5238477  72.1373685  27.0046992  77.1691717
  72.9591129  26.6027179  76.8874399  72.1336088  26.9015226  78.1207833
  60.0724621  20.0286332  71.3769913  59.2755784  20.1405026  71.8953409
  59.8450213  20.3672984  70.5110804  65.9030288  26.5531035  79.3252428
  65.9674721  27.0151442  80.1610600  65.1941212  25.9228400  79.4534738
  56.4047578  19.9172243  76.8501427  56.6555617  20.8019253  77.1159003
  56.9407127  19.7376844  76.0776519  80.2279678  23.3485740  73.5176689
  79.4743386  22.7793138  73.3620693  80.3627219  23.3148404  74.4647323
  65.6178306  28.2199142  69.1931408  65.4823981  29.0650678  69.6216256
  66.1588119  28.4218420  68.4297342  62.1045646  14.2990722  85.8545763
  61.7112591  13.7456921  86.5293407  62.9211786  14.6101301  86.2452281
  59.0707704  25.7374580  69.7659333  59.5832224  26.5317831  69.9164898
  59.7230416  25.0400871  69.6992935  60.8802588  28.8540337  71.8482086
  61.0569217  29.7758301  71.6603070  61.6759422  28.5398756  72.2776466
  65.0213607  15.7148601  83.4466020  65.7623320  16.3155754  83.3670482
  65.2531530  14.9726239  82.8884062  60.1654945  20.9004968  81.7244250
  60.0508460  19.9990226  82.0251348  59.3099463  21.1468665  81.3729066
  67.2446783  28.8422709  83.3231750  66.8010637  28.0559087  83.0052655
  67.9063996  29.0301859  82.6575641  62.0033904  30.3718510  77.8492429
  62.5541329  30.2435574  77.0769423  61.1645380  30.6713399  77.4987321
  69.3428021  29.1225509  81.3513151  69.3246496  29.9434390  80.8593421
  70.2647941  28.9979584  81.5763293  65.8001075  26.6369638  82.1936660
  66.3329412  25.8757926  81.9635968  65.2715156  26.3443290  82.9360814
  68.9670770  11.7429704  77.7230302  68.6235039  12.6331346  77.6469412
  69.3349732  11.5531362  76.8599887  57.0356620  24.0663235  70.5418904
  57.8731842  24.4760243  70.3252611  57.2134888  23.1262677  70.5119098
  68.9321052  21.7338315  66.2302737  68.4167676  22.5042920  66.4691124
  68.6598361  21.0603451  66.8535798  66.5168163  16.5788016  71.2887975
  65.6609760  16.1894866  71.1093614  66.9295115  16.6579977  70.4287761
  68.0467310  14.1134359  75.6879535  67.5432106  14.0764494  74.8747340
  68.3397917  15.0227102  75.7476191  64.2910196  14.1973089  74.6945716
  65.1563193  14.0015898  74.3351606  64.3587705  13.9683441  75.6215073
  73.9055327  24.4870670  68.1655910  73.1284769  24.1481829  67.7211072
  74.5846808  24.4923293  67.4910875  68.7207356  19.6065407  68.0562518
  68.4157491  19.9211557  68.9072661  69.6737798  19.6846827  68.0989851
  67.1653787  25.7655631  69.7055472  66.6375149  25.0308390  69.3928709
  66.6641290  26.5430307  69.4595440  72.1446633  23.9604651  74.8222518
  71.4870308  24.6503913  74.9102647  72.9487033  24.3501083  75.1656504
  61.8972515  16.4275297  72.0662083  62.4716267  16.2050478  71.3335276
  62.4843497  16.4963991  72.8190685  70.9552092  22.3149024  72.8726460
  71.4683974  22.9479016  73.3748170  71.6053316  21.7150219  72.5069820
  62.2242102  18.4579758  66.0857969  61.3879414  18.7954445  66.4067243
  62.0846872  18.3228738  65.1485106  64.1995183  13.3016546  70.7937153
  63.5459595  12.9865563  70.1693767  64.1575657  12.6792286  71.5196976
  65.3106388  23.5835841  62.7090445  64.4033449  23.3525094  62.9081594
  65.8077420  22.7873460  62.8964426  68.2174466  32.2933348  65.6287131
  67.5436165  32.5965045  66.2372089  68.6040288  33.0962428  65.2792588
  67.4332923  19.7898479  75.1184800  66.5155484  20.0113426  74.9606488
  67.8493067  19.8644790  74.2596508  68.2167971  21.1889895  70.2487481
  68.9639790  21.7011292  69.9394603  68.4859560  20.8673948  71.1091874
  66.4894621  23.6848436  67.2314435  65.5805840  23.4007469  67.3286905
  66.5189705  24.1047514  66.3717742  71.7213888  27.2955025  71.0005602
  71.2676216  26.4545935  71.0570793  71.0907855  27.9316424  71.3380383
  70.6646808  18.2247011  72.2306270  69.9269565  17.7124398  72.5616512
  70.9173582  17.7847393  71.4189547  70.1646828  29.1331522  71.9355421
  70.4569802  29.6936579  71.2167786  70.6745448  29.4260083  72.6908580
  70.7658435  11.0023263  72.8248039  71.0717312  10.1420627  72.5373954
  71.4911040  11.5940884  72.6247033  57.0582791  21.4053950  71.2129637
  56.8607191  20.8123311  70.4880704  56.5029455  21.1006160  71.9305576
  65.0379515  21.2977056  73.3324230  65.0928125  20.3450893  73.2566707
  64.2270717  21.4536496  73.8165529  66.1870709  25.2257179  64.5702513
  65.7490139  24.5093038  64.1108151  66.9281150  25.4533294  64.0087605
  62.9771875  19.9154116  71.0914609  62.1639741  20.2148287  71.4979801
  63.4730869  19.5209805  71.8089091  65.1280453  29.9111873  73.0248874
  65.0856632  30.1372719  72.0957406  66.0443152  29.6775248  73.1734675
  68.5746087  20.3795941  79.9229503  68.9295474  20.6067414  80.7823969
  69.2218218  20.7114317  79.3006758  74.3043824  23.5014377  70.6278832
  74.1661722  23.6915972  69.7000021  73.9480042  24.2633759  71.0846883
  62.4685950  17.4872472  76.7075844  63.1085329  17.3461231  76.0098807
  61.6363480  17.2006985  76.3314446  74.3313203  25.5690904  75.6390104
  74.7649710  25.4766193  76.4873158  75.0444784  25.5448404  75.0010120
  63.2446254  26.7874902  72.8210837  64.0386852  26.2925222  72.6193411
  62.5337946  26.2592765  72.4578542  68.0641098  29.1692998  77.1723204
  68.1178120  29.7383934  77.9400920  67.1955880  29.3394883  76.8077241
  59.5529017  20.9317984  68.8970589  58.6226605  20.8702439  69.1140551
  59.6486489  20.4093937  68.1007230  59.4714566  17.4572797  71.4848831
  59.7321383  18.3718130  71.3757991  60.2931739  16.9897239  71.6345444
  60.9439492  18.8710554  78.6547655  61.6162545  18.6627916  78.0060304
  60.1169278  18.6732640  78.2152888  75.1928753  25.6114604  78.1722989
  75.3864643  26.5160415  78.4182264  75.0929371  25.1522023  79.0061574
  66.8465064  15.4972495  80.6713316  66.1992979  16.1962444  80.5777793
  67.6166079  15.9308639  81.0389564  70.2543861  25.7621347  83.7463870
  70.1029368  25.5331899  82.8293953  70.2448541  26.7191948  83.7595215
  67.0229198  23.3353260  78.7310136  67.9521258  23.4864419  78.5579103
  66.6020228  23.4237280  77.8758783  65.8217530  27.3603924  76.5008674
  65.6828615  26.9922708  77.3734612  65.0332126  27.8751564  76.3292631
  66.4165682  32.4613021  67.8434210  66.5917437  31.9901064  68.6579833
  65.7298470  33.0878787  68.0715471  67.3722745  26.7385527  73.8897511
  67.0372577  26.6986297  74.7855161  66.8726690  26.0730243  73.4167922
  61.3466989  22.1453157  79.4150093  61.2086787  21.4133396  80.0161632
  62.2571912  22.0562057  79.1334280  70.3081936  24.0841561  64.1634571
  69.6911107  23.3588389  64.0667624  69.8398425  24.8450921  63.8201645
  63.9749289  21.8573116  78.9033772  64.6848908  21.2166308  78.8620391
  63.9318598  22.1086011  79.8259953  71.9636068  28.7940469  81.8240351
  71.9048614  28.1099690  81.1570934  72.3655587  29.5359459  81.3720977
  62.6878223  18.8438334  80.7229412  62.1515580  18.3929072  81.3751008
  62.0994932  18.9784243  79.9799876  60.9826767  35.6102383  74.6174070
  61.2223365  36.2420907  75.2953089  60.1395963  35.2590423  74.9039430
  62.0980482  18.3026985  63.2855875  61.2209949  18.1815786  62.9218122
  62.5738235  17.5113064  63.0334764  71.9653475  26.7580053  80.0554331
  71.0780254  26.4205975  80.1780730  72.5352026  26.0263085  80.2923096
  53.6182623  23.0904145  73.3797382  54.3053662  22.7765875  72.7918398
  53.4630751  23.9945510  73.1064634  58.4217345  17.9794342  77.8082406
  58.3375533  17.3720011  77.0732816  57.6000051  18.4703360  77.8091903
  65.4954629  31.4181506  77.0215574  65.4224800  32.2236477  77.5334879
  65.0532022  31.6173472  76.1963596  65.2844408  30.6553276  70.5318396
  64.5011930  31.1974956  70.6256620  65.9837154  31.1727255  70.9312637
  68.5941059  16.4647905  73.1752601  69.0909758  15.7117868  72.8553671
  67.8228040  16.5012222  72.6095811  76.4470816  22.1688271  74.8170893
  76.4360692  23.0512986  74.4464826  75.5788195  21.8159822  74.6225430
  67.9553312  31.3168340  79.1773733  68.6681285  31.9515805  79.1049634
  67.4643341  31.4132206  78.3613735  69.6770839  25.2219592  70.7491025
  68.7427118  25.3421055  70.5795729  69.8547508  24.3192059  70.4851034
  65.1776027  18.6065288  72.9024286  64.8073815  18.0536329  73.5905191
  65.6735120  18.0023422  72.3499286  73.0643391  21.0636912  71.2841059
  73.5303843  21.8964903  71.2101361  73.5150891  20.5981893  71.9886317
  63.0065226  29.0662783  79.9979304  63.7074685  29.6999266  80.1508698
  62.5360341  29.4077515  79.2374943  71.1319622  27.4080733  68.2827211
  71.4079466  27.2937328  69.1921085  70.2624120  27.0098218  68.2439384
  71.0360053  13.4317499  75.3231960  70.1223133  13.6621726  75.4914167
  71.4653155  13.5155943  76.1745992  70.8066512  21.6207391  77.8231854
  70.1537962  21.8683298  77.1684307  71.1846892  20.8071529  77.4894331
  67.7673686  31.6567084  71.9260024  67.9496080  30.8388740  72.3887777
  68.5906672  31.8734776  71.4884914  68.1015851  30.5835269  69.1875073
  68.6303618  30.0727724  68.5745235  68.3644071  30.2677799  70.0520606
  66.8554085  22.3627202  84.3097891  66.1794722  22.2621331  84.9800266
  67.6781719  22.2066416  84.7733888  58.6032944  28.5999138  76.9310406
  59.1886381  27.8542826  77.0638311  58.4057782  28.9103095  77.8147070
  61.4571599  31.6350386  71.9472849  60.7881974  32.1196513  71.4636889
  61.3184469  31.8819606  72.8616227  53.1950599  21.1704739  75.6514850
  53.2334698  20.6368329  76.4451968  52.6890891  20.6439944  75.0325827
  65.5976868  33.6694129  78.5455507  66.1495176  33.8325751  79.3104592
  65.9383061  34.2598567  77.8735532  60.5741361  16.0169279  79.1477392
  60.6382687  16.8784110  78.7354790  60.5108481  15.4043281  78.4149750
  60.0493633  18.0892412  82.7950426  60.6765672  17.7069489  83.4087950
  59.1921552  17.8706614  83.1606119  70.4487742  28.4955387  84.4004162
  70.9927646  29.1085345  83.9059116  69.8674587  29.0534965  84.9171175
  56.8259176  19.8968841  68.7268781  57.1212617  18.9879519  68.6735835
  55.9247212  19.8756580  68.4049783  68.7345255  31.6176105  75.5319189
  68.6096394  30.8165845  75.0230135  69.3924346  32.1122298  75.0433159
  60.3553423  17.9724837  74.7096330  59.6340009  18.5860805  74.5703803
  61.1446679  18.5082602  74.6312976  70.7980163  29.4185125  77.1598739
  69.8510499  29.2990476  77.0877066  71.1462936  28.5307623  77.2425001
  63.1579737  15.3079264  80.9836981  63.6814139  15.5541560  81.7463291
  62.9392070  16.1399299  80.5640119  58.5547018  17.5782938  68.8508106
  58.2259724  16.6980317  68.6683212  58.9086388  17.5230607  69.7384495
  67.8026597  29.2137841  73.3603092  67.6551559  28.2854548  73.5410662
  68.6280090  29.2357932  72.8760167  61.6688841  17.8655908  69.2183584
  62.0084913  18.3941829  68.4962192  62.1160961  18.2036314  69.9942150
  71.4060719  30.0366400  74.4467964  72.3307266  29.8309261  74.3092416
  71.2376022  29.7882801  75.3557306  64.3632282  16.2492959  78.6686652
  64.0229102  15.4500772  79.0707332  63.6571288  16.5494670  78.0963485
  65.0148754  13.3342271  77.1213975  65.8374823  12.8602749  76.9992865
  65.2586817  14.1132755  77.6212661  63.6556988  16.3630530  67.4176877
  64.3765351  16.7411783  66.9140593  63.0322292  17.0819407  67.5211855
  67.7988111  17.0675679  68.3535209  68.0151725  17.9500317  68.0524037
  67.3182178  16.6761892  67.6240851  62.5387332  20.0261392  74.9305954
  62.3931913  20.3401695  75.8230235  62.0612536  20.6446292  74.3776852
  64.3983715  17.0163940  74.9786843  64.3845284  16.1205033  74.6419141
  65.1156143  17.0234604  75.6125129  66.2509846  17.4501280  77.0239971
  65.9927624  18.3718351  77.0224301  65.7194886  17.0531715  77.7140435
  71.1956035  30.5552067  69.8030056  71.3692912  29.9898490  69.0503908
  71.6884926  31.3552962  69.6209546  57.0132995  22.5666736  77.8693615
  56.4686463  23.3426544  78.0013889  57.8912344  22.9137541  77.7112736
  63.8020611  15.8978320  70.2474413  63.9236522  14.9694966  70.4465301
  63.5122654  15.9117006  69.3352729  66.6711802  13.5833231  73.3841133
  66.6933498  13.6472564  72.4293113  67.0879861  12.7437739  73.5781639
  77.0495426  23.3188490  71.4220356  77.4926572  22.5695815  71.0239479
  76.1721936  23.3098627  71.0394088  72.1831207  29.8718832  66.9026954
  72.8782112  30.4925524  67.1214269  72.5254357  29.0214183  67.1779332
  57.7999016  21.6936633  80.7623772  57.0580752  21.8419268  81.3488402
  57.4791761  21.9544898  79.8990521  74.0822630  27.3218537  68.4314285
  74.6073954  27.6605810  67.7063605  73.9944983  26.3865552  68.2477420
  65.7442679  31.2352611  80.5604162  66.0529805  30.9901758  81.4326861
  66.5418161  31.4399249  80.0723032  65.7663291  33.3890520  72.7909538
  65.3268281  32.8966899  73.4842395  66.5171408  32.8463488  72.5501613
  58.2455630  29.5802061  72.7934166  59.0713650  29.2805833  72.4132810
  57.8949682  28.8109684  73.2423955  63.2137163  28.9328530  74.8631840
  62.5917173  28.2699235  74.5634068  63.8842030  28.9589661  74.1805488
  56.4464235  27.4988388  73.7523100  55.6096143  27.0710562  73.5707101
  56.4187881  27.6920831  74.6893891  63.2861691  17.4110318  84.4564346
  63.3349846  18.2872440  84.0742115  63.8284205  16.8687711  83.8835989
  73.7716536  27.9551441  83.7365483  72.9812080  27.9375580  83.1969982
  73.5349891  28.4939734  84.4914519  73.8914411  24.8043907  81.0498211
  73.9412416  24.6393915  81.9913734  73.7828335  23.9371166  80.6596092
  62.7750670  27.4832453  68.3390300  62.9238791  28.1667917  67.6856973
  63.5817114  27.4637543  68.8539756  71.1818174  20.7874835  82.3657518
  72.0828037  20.6481300  82.0741516  71.2566148  20.9529290  83.3055696
  65.5160979  18.1641690  81.2110704  64.6464289  18.4575256  80.9393293
  65.7520460  18.7482135  81.9317968  75.3932608  27.2240849  81.2940233
  75.1017417  27.5870829  82.1303694  74.7804740  26.5107857  81.1153565
  76.5928291  24.7893728  73.8142803  77.4275182  25.2283533  73.9780364
  76.7287419  24.3132382  72.9951049  73.6419797  22.3473463  79.7620291
  74.1173918  22.5401110  78.9539142  72.7185362  22.4032649  79.5163675
  60.5303303  23.5097631  69.3451369  60.2849345  22.6059961  69.5431579
  60.6999218  23.5114781  68.4030847  68.2200013  14.3821307  78.7276125
  68.7381957  15.1182334  78.4022613  67.8655146  14.6885300  79.5622884
  59.7998951  19.2425988  66.8437531  59.1068196  19.3170343  66.1877567
  59.5550703  18.4786332  67.3659048  68.4712607  10.8021589  74.2477021
  68.7514361  10.1344778  74.8737448  69.2563214  10.9950685  73.7351685
  66.2746076  29.9780583  65.8102048  65.7020043  30.5970770  65.3572520
  66.8478869  30.5279945  66.3441970  72.3421466  19.2239223  77.9948597
  73.2938888  19.3237321  78.0160821  72.1724916  18.4317492  78.5046681
  70.3635845  16.3094807  78.1807997  69.7685777  16.5899819  77.4854486
  70.0785542  16.7988708  78.9524739  69.4943335  30.2617733  66.9410630
  70.4274009  30.1963295  67.1443506  69.4066548  31.0974000  66.4825163
  72.1231352  29.5783604  63.9014578  72.0444984  29.2443467  64.7950336
  72.9441019  30.0705372  63.9006050  74.8209543  22.4445343  77.1090896
  74.7885863  21.5061344  77.2950580  75.4310167  22.5229380  76.3756721
  66.6592874  21.3141396  63.1518100  67.6051979  21.1847604  63.2206518
  66.2807119  20.5756058  63.6287528  74.9704032  19.2356387  77.1549179
  74.4543080  18.4514843  76.9679108  75.8543980  18.9075103  77.3195699
  72.6314759  12.9797402  73.1144992  72.4339580  12.6712490  73.9988324
  73.2414464  13.7059041  73.2442922  80.6386093  23.5061350  76.2496933
  81.3689482  23.2446638  76.8104636  80.0293039  22.7690072  76.2899001
  78.7201390  21.6469213  76.8471384  77.9934554  21.5125177  76.2387876
  78.3048677  21.9546041  77.6528102  66.5431567  25.3659142  84.6118757
  67.4634576  25.5437741  84.8058804  66.5081150  24.4215188  84.4598456
  64.8435791  19.2391372  63.0872985  63.9367247  18.9424485  63.1635699
  65.1211772  18.9421191  62.2207272  55.7613732  20.5597736  73.5372032
  55.4416516  19.7063044  73.2446406  55.2147160  20.7746314  74.2929999
  59.5393639  23.2760177  77.2541538  59.7579649  24.2077285  77.2729572
  59.9519413  22.9168151  78.0396342  66.4597857  13.7828262  69.2417227
  65.6498585  13.4375347  69.6172473  67.1482274  13.4735806  69.8304838
  68.3888405  12.8606309  70.8641523  68.9419444  13.2801762  71.5231547
  68.6258492  11.9342057  70.9064479  64.4121505  18.8493383  86.6444287
  64.3118231  19.7987740  86.5756378  64.1943047  18.5211622  85.7720357
  63.6134576  16.0978308  63.2284965  64.4753740  16.4233206  63.4880782
  63.7984920  15.3109804  62.7158030  55.6301992  24.1800647  75.5065153
  54.9365463  23.7654600  74.9935108  56.3774983  24.2221184  74.9098572
  71.7667212  14.9706834  70.3720188  71.1865881  15.6291638  69.9898240
  71.5003145  14.1484179  69.9607605  70.2170779  14.3711892  72.5741508
  70.7170557  14.4828426  71.7655827  70.8606387  14.0672945  73.2142316
  64.2752775  22.2790521  85.4609349  63.7919856  23.0790882  85.6673238
  64.3613714  22.2898466  84.5076793  57.5438734  24.1118901  73.3831168
  57.5209422  24.2106588  72.4313051  57.8539371  24.9584052  73.7048334
  60.2026112  26.1695056  77.4977783  61.1569366  26.1378999  77.4307714
  60.0038636  25.7085680  78.3128009  60.7925494  24.7396172  80.0648580
  61.6118383  25.2340251  80.0883418  61.0662302  23.8228140  80.0366148
  70.5492090  17.1306925  69.4276536  69.6617945  17.4156575  69.2096731
  70.9646080  16.9700688  68.5803813  73.9006627  17.1553446  73.1430875
  74.6767017  17.6449898  73.4155492  73.1754761  17.5811500  73.6002745
  76.3379185  17.8681065  74.2004816  76.9323676  17.6276801  73.4898124
  76.4105769  17.1488195  74.8278352  58.5576341  31.7114676  74.5147981
  58.4230809  30.9515077  73.9485979  58.1408403  32.4355576  74.0476770
  69.6935304  26.8951599  63.5224556  70.3971154  27.1001602  64.1382212
  68.9697953  27.4628361  63.7873639  70.5233114  22.6461460  69.6426826
  70.4668316  23.1030012  68.8034459  71.0761457  21.8852145  69.4649669
  74.3337920  18.4351192  70.4676946  74.0774854  18.0347828  71.2985153
  73.7090788  19.1494986  70.3427085  78.6450258  21.1747266  72.9748237
  78.0849816  21.2440455  73.7479799  78.0393761  20.9988250  72.2547733
  61.7145467  32.6083993  74.7266423  61.5977851  33.5529425  74.6245114
  60.8937913  32.3057554  75.1152222  71.6022001  27.3334128  65.5723016
  72.4367605  26.9015327  65.3900491  71.4406344  27.1616142  66.4999910
  71.2567893  23.8366242  66.9379355  71.2016697  23.6710513  65.9967799
  70.6313949  24.5442275  67.0941545  56.0460408  19.0734306  80.7640777
  56.6919272  18.5633260  81.2528003  55.8377560  19.8102988  81.3384203
  68.5713801  26.1415154  86.2632918  69.4404960  26.3155806  85.9019553
  68.0920552  26.9609570  86.1408647  64.5664019  13.3374351  66.5164674
  64.5542689  14.2816191  66.6732945  65.4587441  13.1544496  66.2224135
  62.7399981  33.2612255  77.9422352  63.6427228  33.2935865  78.2588847
  62.5137351  32.3312706  77.9568687  64.4953583  32.0143241  74.6032430
  63.5449214  32.0145103  74.4896803  64.7986069  31.2675976  74.0868465
  68.3816138   9.9317127  70.7710610  67.6148534   9.3775614  70.9167293
  68.7926843  10.0038996  71.6324762  60.3857899  16.2201923  84.8615792
  61.2489361  15.8638728  85.0719116  59.8123310  15.8815818  85.5491196
  80.2306276  37.8503780  75.6678193  80.8684686  37.7310527  74.9641533
  80.1127119  38.7984623  75.7266145  77.0395983  37.8031208  75.6039717
  76.7014494  37.6872272  74.7160252  77.9085751  37.4022373  75.5840724
  72.8982798  39.6566684  71.5936608  72.3347664  39.5656621  70.8252896
  72.7835193  38.8366588  72.0739101  77.5215766  38.9566059  81.5625923
  77.5104406  38.5618858  80.6906427  77.6836405  38.2232132  82.1559694
  70.4447230  41.1517876  74.4320829  71.2368522  40.8108700  74.0167128
  70.6843880  41.2612851  75.3522982  78.4782357  43.3237652  66.9051073
  77.8270337  43.9091732  66.5185087  79.2726720  43.8543847  66.9646111
  72.4037984  40.4126789  67.3038208  73.1768860  39.8655776  67.1651083
  72.7563383  41.2771038  67.5152669  74.2423027  41.7403171  80.5105107
  73.9512893  42.6448802  80.3951773  74.8780011  41.7819699  81.2249176
  75.1679234  39.1180020  77.1006467  75.7642806  38.8936042  76.3863430
  75.2254205  38.3764765  77.7031914  74.7404262  36.5719455  64.9356658
  74.9929783  36.0500976  64.1740121  73.8028821  36.4085600  65.0383341
  79.7847545  35.5755233  72.7431401  80.5710634  35.1574657  72.3921818
  80.0486249  36.4801326  72.9113049  79.9557622  41.0128084  67.4420058
  79.3203455  41.0862710  68.1540962  79.6255029  41.6021682  66.7639137
  85.1855972  35.5130467  73.6464379  85.9181144  34.9429683  73.8802209
  84.4295328  35.1252067  74.0870885  74.4600551  38.4747561  67.1381032
  74.3436809  37.7992464  67.8062117  74.5702811  37.9879935  66.3213186
  76.8032092  37.9357708  70.8427722  76.4390299  37.4088329  71.5540643
  77.6599208  37.5456177  70.6694207  82.7081392  29.2252041  78.1058988
  82.3764717  30.0947452  77.8820203  82.1127006  28.9088325  78.7853018
  76.4437579  32.9647608  65.8389070  76.6111981  33.8327844  66.2059541
  76.2534748  33.1274889  64.9150359  79.2012912  41.4264587  77.5054901
  78.9013635  42.3289625  77.3970708  78.8563971  41.1596770  78.3576053
  72.6525393  37.8778383  73.5391605  71.7275890  37.7454598  73.7469297
  72.9009807  38.6572603  74.0361547  82.6010056  33.9447127  75.1852338
  81.6926933  33.8762535  74.8911099  82.5497651  34.4219072  76.0134163
  76.4226800  35.4205265  66.8235737  76.3026425  35.8662316  67.6621217
  75.7279388  35.7690583  66.2649275  70.0134204  37.5211657  74.3735394
  70.1426586  37.7746136  75.2874806  69.3331656  38.1139365  74.0540049
  76.6750921  35.3636772  83.1287235  75.8984256  35.9230693  83.1190100
  77.3141485  35.8493555  83.6502105  84.4671702  32.1463565  76.9630212
  83.8246082  32.4396098  76.3170006  83.9626631  32.0316486  77.7683409
  82.1211866  35.8926738  67.6516071  83.0329722  36.1254125  67.4763769
  81.6121513  36.4763783  67.0891150  74.9297294  38.1722226  82.6905202
  75.6711978  38.7107270  82.4140026  74.2234279  38.7988515  82.8476754
  80.4052633  40.3151366  81.2877364  80.8135989  39.8733777  80.5431996
  79.6829895  39.7403994  81.5411557  76.7583703  35.2523973  78.6610921
  77.6044899  35.6763387  78.8045570  76.6982341  34.5957597  79.3549484
  80.7281448  40.8752557  75.0429653  80.0990311  41.0398271  74.3405720
  80.3407110  41.2894166  75.8140617  84.6070680  41.8106995  72.3974016
  83.9221718  42.1905896  71.8471050  84.6914529  42.4202321  73.1305964
  79.9083149  32.9128341  80.3192094  79.6644081  33.6670402  79.7826370
  80.1843079  33.2913689  81.1539341  81.8621612  39.4566954  78.9969360
  82.0738507  40.0998714  78.3203741  81.8151360  38.6229270  78.5291290
  79.4647841  32.0684774  75.9005932  78.6032320  32.3666028  76.1922670
  79.4910275  32.2855173  74.9686965  76.2809410  40.6126965  72.3079738
  76.7447755  40.8914668  71.5184360  76.0166208  39.7110410  72.1252828
  73.1733491  40.1598447  75.2459501  73.7434848  40.5885715  74.6076985
  73.7641603  39.8781031  75.9443687  75.2178296  36.7350117  69.1169303
  75.9202339  37.1871161  69.5843229  74.8858924  36.0933936  69.7449196
  73.6658658  35.3261874  83.4920512  73.0357318  36.0078155  83.7255909
  73.5594745  35.2144956  82.5473650  68.9603630  34.9933670  74.4186436
  68.1702684  35.2491199  73.9426547  69.4514877  35.8082008  74.5238477
  82.9767440  42.3338909  77.1691717  83.7984883  41.9319096  76.8874399
  82.9729842  42.2307143  78.1207833  70.9118375  35.3578249  71.3769913
  70.1149539  35.4696943  71.8953409  70.6843968  35.6964901  70.5110804
  76.7424043  41.8822952  79.3252428  76.8068475  42.3443360  80.1610600
  76.0334967  41.2520317  79.4534738  67.2441333  35.2464160  76.8501427
  67.4949371  36.1311170  77.1159003  67.7800881  35.0668762  76.0776519
  91.0673433  38.6777658  73.5176689  90.3137141  38.1085056  73.3620693
  91.2020974  38.6440322  74.4647323  76.4572061  43.5491060  69.1931408
  76.3217735  44.3942596  69.6216256  76.9981873  43.7510338  68.4297342
  72.9439400  29.6282640  85.8545763  72.5506346  29.0748838  86.5293407
  73.7605541  29.9393218  86.2452281  69.9101458  41.0666498  69.7659333
  70.4225979  41.8609748  69.9164898  70.5624171  40.3692788  69.6992935
  71.7196343  44.1832254  71.8482086  71.8962971  45.1050219  71.6603070
  72.5153176  43.8690673  72.2776466  75.8607361  31.0440519  83.4466020
  76.6017075  31.6447672  83.3670482  76.0925284  30.3018157  82.8884062
  71.0048699  36.2296886  81.7244250  70.8902214  35.3282143  82.0251348
  70.1493217  36.4760583  81.3729066  78.0840537  44.1714626  83.3231750
  77.6404391  43.3851005  83.0052655  78.7457751  44.3593777  82.6575641
  72.8427658  45.7010428  77.8492429  73.3935083  45.5727491  77.0769423
  72.0039134  46.0005317  77.4987321  80.1821775  44.4517426  81.3513151
  80.1640250  45.2726307  80.8593421  81.1041695  44.3271502  81.5763293
  76.6394829  41.9661556  82.1936660  77.1723166  41.2049844  81.9635968
  76.1108910  41.6735208  82.9360814  79.8064524  27.0721622  77.7230302
  79.4628794  27.9623264  77.6469412  80.1743487  26.8823279  76.8599887
  67.8750375  39.3955152  70.5418904  68.7125597  39.8052161  70.3252611
  68.0528642  38.4554594  70.5119098  79.7714807  37.0630233  66.2302737
  79.2561430  37.8334838  66.4691124  79.4992115  36.3895369  66.8535798
  77.3561918  31.9079934  71.2887975  76.5003514  31.5186784  71.1093614
  77.7688870  31.9871895  70.4287761  78.8861065  29.4426277  75.6879535
  78.3825860  29.4056412  74.8747340  79.1791671  30.3519020  75.7476191
  75.1303950  29.5265007  74.6945716  75.9956947  29.3307815  74.3351606
  75.1981459  29.2975358  75.6215073  84.7449081  39.8162588  68.1655910
  83.9678524  39.4773747  67.7211072  85.4240562  39.8215211  67.4910875
  79.5601110  34.9357325  68.0562518  79.2551246  35.2503474  68.9072661
  80.5131552  35.0138745  68.0989851  78.0047542  41.0947548  69.7055472
  77.4768903  40.3600308  69.3928709  77.5035045  41.8722225  69.4595440
  82.9840388  39.2896569  74.8222518  82.3264062  39.9795830  74.9102647
  83.7880787  39.6793001  75.1656504  72.7366270  31.7567215  72.0662083
  73.3110021  31.5342396  71.3335276  73.3237252  31.8255909  72.8190685
  81.7945847  37.6440942  72.8726460  82.3077728  38.2770933  73.3748170
  82.4447071  37.0442137  72.5069820  73.0635857  33.7871676  66.0857969
  72.2273169  34.1246362  66.4067243  72.9240626  33.6520655  65.1485106
  75.0388937  28.6308464  70.7937153  74.3853350  28.3157481  70.1693767
  74.9969411  28.0084204  71.5196976  76.1500142  38.9127759  62.7090445
  75.2427204  38.6817012  62.9081594  76.6471174  38.1165378  62.8964426
  79.0568221  47.6225266  65.6287131  78.3829920  47.9256963  66.2372089
  79.4434043  48.4254346  65.2792588  78.2726678  35.1190397  75.1184800
  77.3549239  35.3405344  74.9606488  78.6886821  35.1936708  74.2596508
  79.0561725  36.5181813  70.2487481  79.8033544  37.0303210  69.9394603
  79.3253315  36.1965865  71.1091874  77.3288376  39.0140353  67.2314435
  76.4199595  38.7299386  67.3286905  77.3583459  39.4339432  66.3717742
  82.5607643  42.6246943  71.0005602  82.1069970  41.7837853  71.0570793
  81.9301610  43.2608341  71.3380383  81.5040563  33.5538929  72.2306270
  80.7663319  33.0416315  72.5616512  81.7567336  33.1139311  71.4189547
  81.0040582  44.4623440  71.9355421  81.2963557  45.0228497  71.2167786
  81.5139203  44.7552001  72.6908580  81.6052190  26.3315181  72.8248039
  81.9111067  25.4712544  72.5373954  82.3304795  26.9232801  72.6247033
  67.8976546  36.7345868  71.2129637  67.7000946  36.1415228  70.4880704
  67.3423210  36.4298078  71.9305576  75.8773270  36.6268974  73.3324230
  75.9321879  35.6742810  73.2566707  75.0664472  36.7828413  73.8165529
  77.0264463  40.5549097  64.5702513  76.5883893  39.8384956  64.1108151
  77.7674904  40.7825212  64.0087605  73.8165630  35.2446034  71.0914609
  73.0033495  35.5440204  71.4979801  74.3124624  34.8501723  71.8089091
  75.9674207  45.2403791  73.0248874  75.9250386  45.4664637  72.0957406
  76.8836906  45.0067165  73.1734675  79.4139841  35.7087858  79.9229503
  79.7689229  35.9359331  80.7823969  80.0611972  36.0406235  79.3006758
  85.1437578  38.8306294  70.6278832  85.0055477  39.0207890  69.7000021
  84.7873797  39.5925677  71.0846883  73.3079704  32.8164389  76.7075844
  73.9479084  32.6753148  76.0098807  72.4757235  32.5298903  76.3314446
  85.1706958  40.8982821  75.6390104  85.6043464  40.8058110  76.4873158
  85.8838538  40.8740322  75.0010120  74.0840008  42.1166820  72.8210837
  74.8780607  41.6217140  72.6193411  73.3731701  41.5884683  72.4578542
  78.9034853  44.4984915  77.1723204  78.9571875  45.0675852  77.9400920
  78.0349634  44.6686800  76.8077241  70.3922772  36.2609902  68.8970589
  69.4620360  36.1994357  69.1140551  70.4880244  35.7385854  68.1007230
  70.3108321  32.7864714  71.4848831  70.5715138  33.7010048  71.3757991
  71.1325493  32.3189157  71.6345444  71.7833246  34.2002472  78.6547655
  72.4556299  33.9919834  78.0060304  70.9563033  34.0024558  78.2152888
  86.0322507  40.9406522  78.1722989  86.2258397  41.8452332  78.4182264
  85.9323125  40.4813941  79.0061574  77.6858818  30.8264412  80.6713316
  77.0386733  31.5254362  80.5777793  78.4559833  31.2600556  81.0389564
  81.0937616  41.0913265  83.7463870  80.9423122  40.8623816  82.8293953
  81.0842295  42.0483866  83.7595215  77.8622952  38.6645177  78.7310136
  78.7915012  38.8156337  78.5579103  77.4413982  38.7529198  77.8758783
  76.6611284  42.6895842  76.5008674  76.5222370  42.3214626  77.3734612
  75.8725880  43.2043481  76.3292631  77.2559436  47.7904938  67.8434210
  77.4311192  47.3192981  68.6579833  76.5692224  48.4170704  68.0715471
  78.2116499  42.0677444  73.8897511  77.8766332  42.0278214  74.7855161
  77.7120445  41.4022160  73.4167922  72.1860743  37.4745074  79.4150093
  72.0480541  36.7425313  80.0161632  73.0965667  37.3853975  79.1334280
  81.1475691  39.4133479  64.1634571  80.5304862  38.6880307  64.0667624
  80.6792179  40.1742839  63.8201645  74.8143044  37.1865034  78.9033772
  75.5242662  36.5458226  78.8620391  74.7712352  37.4377929  79.8259953
  82.8029823  44.1232387  81.8240351  82.7442369  43.4391607  81.1570934
  83.2049341  44.8651377  81.3720977  73.5271978  34.1730252  80.7229412
  72.9909335  33.7220990  81.3751008  72.9388686  34.3076161  79.9799876
  71.8220521  50.9394301  74.6174070  72.0617120  51.5712825  75.2953089
  70.9789718  50.5882341  74.9039430  72.9374237  33.6318903  63.2855875
  72.0603703  33.5107704  62.9218122  73.4131990  32.8404981  63.0334764
  82.8047230  42.0871971  80.0554331  81.9174009  41.7497893  80.1780730
  83.3745781  41.3555002  80.2923096  64.4576377  38.4196063  73.3797382
  65.1447417  38.1057793  72.7918398  64.3024506  39.3237427  73.1064634
  69.2611099  33.3086259  77.8082406  69.1769288  32.7011929  77.0732816
  68.4393806  33.7995278  77.8091903  76.3348383  46.7473423  77.0215574
  76.2618555  47.5528395  77.5334879  75.8925776  46.9465389  76.1963596
  76.1238163  45.9845193  70.5318396  75.3405685  46.5266874  70.6256620
  76.8230908  46.5019173  70.9312637  79.4334813  31.7939823  73.1752601
  79.9303513  31.0409785  72.8553671  78.6621795  31.8304140  72.6095811
  87.2864570  37.4980188  74.8170893  87.2754447  38.3804904  74.4464826
  86.4181950  37.1451739  74.6225430  78.7947067  46.6460257  79.1773733
  79.5075039  47.2807722  79.1049634  78.3037095  46.7424123  78.3613735
  80.5164594  40.5511510  70.7491025  79.5820872  40.6712973  70.5795729
  80.6941262  39.6483977  70.4851034  76.0169782  33.9357206  72.9024286
  75.6467569  33.3828246  73.5905191  76.5128874  33.3315339  72.3499286
  83.9037145  36.3928829  71.2841059  84.3697597  37.2256821  71.2101361
  84.3544646  35.9273811  71.9886317  73.8458980  44.3954701  79.9979304
  74.5468440  45.0291184  80.1508698  73.3754095  44.7369432  79.2374943
  81.9713376  42.7372651  68.2827211  82.2473220  42.6229245  69.1921085
  81.1017875  42.3390136  68.2439384  81.8753808  28.7609416  75.3231960
  80.9616888  28.9913643  75.4914167  82.3046909  28.8447860  76.1745992
  81.6460266  36.9499308  77.8231854  80.9931717  37.1975216  77.1684307
  82.0240646  36.1363447  77.4894331  78.6067440  46.9859002  71.9260024
  78.7889835  46.1680657  72.3887777  79.4300426  47.2026694  71.4884914
  78.9409606  45.9127187  69.1875073  79.4697372  45.4019641  68.5745235
  79.2037825  45.5969717  70.0520606  77.6947839  37.6919119  84.3097891
  77.0188476  37.5913249  84.9800266  78.5175473  37.5358333  84.7733888
  69.4426698  43.9291056  76.9310406  70.0280135  43.1834744  77.0638311
  69.2451537  44.2395013  77.8147070  72.2965354  46.9642303  71.9472849
  71.6275729  47.4488431  71.4636889  72.1578223  47.2111524  72.8616227
  64.0344353  36.4996656  75.6514850  64.0728453  35.9660247  76.4451968
  63.5284646  35.9731862  75.0325827  76.4370622  48.9986047  78.5455507
  76.9888930  49.1617668  79.3104592  76.7776816  49.5890485  77.8735532
  71.4135115  31.3461197  79.1477392  71.4776442  32.2076028  78.7354790
  71.3502236  30.7335198  78.4149750  70.8887388  33.4184329  82.7950426
  71.5159427  33.0361407  83.4087950  70.0315307  33.1998531  83.1606119
  81.2881497  43.8247304  84.4004162  81.8321401  44.4377263  83.9059116
  80.7068341  44.3826883  84.9171175  67.6652931  35.2260758  68.7268781
  67.9606372  34.3171437  68.6735835  66.7640966  35.2048498  68.4049783
  79.5739009  46.9468022  75.5319189  79.4490149  46.1457762  75.0230135
  80.2318101  47.4414216  75.0433159  71.1947178  33.3016755  74.7096330
  70.4733763  33.9152723  74.5703803  71.9840433  33.8374520  74.6312976
  81.6373918  44.7477043  77.1598739  80.6904253  44.6282394  77.0877066
  81.9856691  43.8599541  77.2425001  73.9973491  30.6371181  80.9836981
  74.5207893  30.8833478  81.7463291  73.7785825  31.4691216  80.5640119
  69.3940772  32.9074856  68.8508106  69.0653478  32.0272235  68.6683212
  69.7480143  32.8522525  69.7384495  78.6420351  44.5429759  73.3603092
  78.4945314  43.6146466  73.5410662  79.4673845  44.5649849  72.8760167
  72.5082595  33.1947826  69.2183584  72.8478668  33.7233747  68.4962192
  72.9554716  33.5328232  69.9942150  82.2454473  45.3658317  74.4467964
  83.1701020  45.1601179  74.3092416  82.0769776  45.1174719  75.3557306
  75.2026036  31.5784877  78.6686652  74.8622857  30.7792690  79.0707332
  74.4965043  31.8786587  78.0963485  75.8542508  28.6634189  77.1213975
  76.6768577  28.1894667  76.9992865  76.0980572  29.4424673  77.6212661
  74.4950743  31.6922447  67.4176877  75.2159105  32.0703700  66.9140593
  73.8716047  32.4111324  67.5211855  78.6381865  32.3967596  68.3535209
  78.8545480  33.2792234  68.0524037  78.1575933  32.0053810  67.6240851
  73.3781087  35.3553310  74.9305954  73.2325668  35.6693613  75.8230235
  72.9006290  35.9738210  74.3776852  75.2377470  32.3455858  74.9786843
  75.2239038  31.4496951  74.6419141  75.9549898  32.3526521  75.6125129
  77.0903600  32.7793198  77.0239971  76.8321378  33.7010268  77.0224301
  76.5588641  32.3823632  77.7140435  82.0349789  45.8843985  69.8030056
  82.2086667  45.3190407  69.0503908  82.5278680  46.6844880  69.6209546
  67.8526749  37.8958654  77.8693615  67.3080217  38.6718462  78.0013889
  68.7306099  38.2429458  77.7112736  74.6414366  31.2270238  70.2474413
  74.7630277  30.2986884  70.4465301  74.3516408  31.2408924  69.3352729
  77.5105556  28.9125148  73.3841133  77.5327253  28.9764481  72.4293113
  77.9273615  28.0729657  73.5781639  87.8889180  38.6480408  71.4220356
  88.3320326  37.8987733  71.0239479  87.0115691  38.6390544  71.0394088
  83.0224962  45.2010749  66.9026954  83.7175866  45.8217442  67.1214269
  83.3648112  44.3506101  67.1779332  68.6392771  37.0228550  80.7623772
  67.8974507  37.1711186  81.3488402  68.3185515  37.2836816  79.8990521
  84.9216385  42.6510455  68.4314285  85.4467709  42.9897728  67.7063605
  84.8338737  41.7157470  68.2477420  76.5836434  46.5644528  80.5604162
  76.8923560  46.3193675  81.4326861  77.3811916  46.7691167  80.0723032
  76.6057046  48.7182438  72.7909538  76.1662036  48.2258817  73.4842395
  77.3565163  48.1755406  72.5501613  69.0849385  44.9093979  72.7934166
  69.9107404  44.6097751  72.4132810  68.7343437  44.1401601  73.2423955
  74.0530918  44.2620447  74.8631840  73.4310927  43.5991152  74.5634068
  74.7235785  44.2881579  74.1805488  67.2857990  42.8280305  73.7523100
  66.4489898  42.4002480  73.5707101  67.2581635  43.0212749  74.6893891
  74.1255445  32.7402235  84.4564346  74.1743601  33.6164358  84.0742115
  74.6677959  32.1979628  83.8835989  84.6110291  43.2843358  83.7365483
  83.8205835  43.2667497  83.1969982  84.3743645  43.8231652  84.4914519
  84.7308166  40.1335825  81.0498211  84.7806171  39.9685832  81.9913734
  84.6222089  39.2663084  80.6596092  73.6144425  42.8124371  68.3390300
  73.7632545  43.4959835  67.6856973  74.4210868  42.7929461  68.8539756
  82.0211928  36.1166753  82.3657518  82.9221791  35.9773218  82.0741516
  82.0959903  36.2821208  83.3055696  76.3554734  33.4933608  81.2110704
  75.4858043  33.7867174  80.9393293  76.5914214  34.0774053  81.9317968
  86.2326363  42.5532766  81.2940233  85.9411171  42.9162747  82.1303694
  85.6198494  41.8399775  81.1153565  87.4322045  40.1185646  73.8142803
  88.2668936  40.5575450  73.9780364  87.5681174  39.6424299  72.9951049
  84.4813551  37.6765381  79.7620291  84.9567673  37.8693027  78.9539142
  83.5579116  37.7324567  79.5163675  71.3697058  38.8389548  69.3451369
  71.1243100  37.9351878  69.5431579  71.5392972  38.8406699  68.4030847
  79.0593767  29.7113225  78.7276125  79.5775711  30.4474251  78.4022613
  78.7048900  30.0177218  79.5622884  70.6392705  34.5717906  66.8437531
  69.9461950  34.6462261  66.1877567  70.3944457  33.8078249  67.3659048
  79.3106362  26.1313507  74.2477021  79.5908115  25.4636696  74.8737448
  80.0956969  26.3242603  73.7351685  77.1139830  45.3072501  65.8102048
  76.5413797  45.9262688  65.3572520  77.6872624  45.8571863  66.3441970
  83.1815220  34.5531141  77.9948597  84.1332643  34.6529239  78.0160821
  83.0118670  33.7609410  78.5046681  81.2029599  31.6386724  78.1807997
  80.6079532  31.9191737  77.4854486  80.9179296  32.1280625  78.9524739
  80.3337090  45.5909651  66.9410630  81.2667763  45.5255213  67.1443506
  80.2460303  46.4265918  66.4825163  82.9625107  44.9075521  63.9014578
  82.8838738  44.5735385  64.7950336  83.7834773  45.3997289  63.9006050
  85.6603298  37.7737261  77.1090896  85.6279618  36.8353262  77.2950580
  86.2703921  37.8521297  76.3756721  77.4986629  36.6433314  63.1518100
  78.4445733  36.5139522  63.2206518  77.1200874  35.9047976  63.6287528
  85.8097786  34.5648304  77.1549179  85.2936835  33.7806761  76.9679108
  86.6937735  34.2367021  77.3195699  83.4708513  28.3089320  73.1144992
  83.2733334  28.0004408  73.9988324  84.0808219  29.0350959  73.2442922
  91.4779848  38.8353268  76.2496933  92.2083236  38.5738556  76.8104636
  90.8686793  38.0981990  76.2899001  89.5595145  36.9761130  76.8471384
  88.8328308  36.8417095  76.2387876  89.1442432  37.2837959  77.6528102
  77.3825321  40.6951060  84.6118757  78.3028331  40.8729659  84.8058804
  77.3474904  39.7507105  84.4598456  75.6829546  34.5683290  63.0872985
  74.7761001  34.2716403  63.1635699  75.9605527  34.2713108  62.2207272
  66.6007486  35.8889654  73.5372032  66.2810271  35.0354962  73.2446406
  66.0540914  36.1038232  74.2929999  70.3787394  38.6052095  77.2541538
  70.5973404  39.5369202  77.2729572  70.7913168  38.2460069  78.0396342
  77.2991612  29.1120180  69.2417227  76.4892340  28.7667265  69.6172473
  77.9876028  28.8027724  69.8304838  79.2282160  28.1898227  70.8641523
  79.7813198  28.6093680  71.5231547  79.4652246  27.2633975  70.9064479
  75.2515259  34.1785300  86.6444287  75.1511986  35.1279657  86.5756378
  75.0336801  33.8503539  85.7720357  74.4528330  31.4270225  63.2284965
  75.3147494  31.7525124  63.4880782  74.6378675  30.6401721  62.7158030
  66.4695746  39.5092565  75.5065153  65.7759218  39.0946518  74.9935108
  67.2168737  39.5513102  74.9098572  82.6060967  30.2998752  70.3720188
  82.0259636  30.9583556  69.9898240  82.3396900  29.4776096  69.9607605
  81.0564533  29.7003810  72.5741508  81.5564312  29.8120344  71.7655827
  81.7000141  29.3964862  73.2142316  75.1146529  37.6082439  85.4609349
  74.6313611  38.4082799  85.6673238  75.2007468  37.6190384  84.5076793
  68.3832489  39.4410819  73.3831168  68.3603177  39.5398506  72.4313051
  68.6933125  40.2875970  73.7048334  71.0419867  41.4986974  77.4977783
  71.9963120  41.4670916  77.4307714  70.8432390  41.0377598  78.3128009
  71.6319249  40.0688090  80.0648580  72.4512138  40.5632169  80.0883418
  71.9056056  39.1520058  80.0366148  81.3885845  32.4598842  69.4276536
  80.5011700  32.7448493  69.2096731  81.8039834  32.2992606  68.5803813
  84.7400381  32.4845363  73.1430875  85.5160771  32.9741816  73.4155492
  84.0148515  32.9103417  73.6002745  87.1772940  33.1972982  74.2004816
  87.7717430  32.9568718  73.4898124  87.2499523  32.4780113  74.8278352
  69.3970095  47.0406593  74.5147981  69.2624563  46.2806994  73.9485979
  68.9802158  47.7647493  74.0476770  80.5329058  42.2243517  63.5224556
  81.2364909  42.4293519  64.1382212  79.8091707  42.7920279  63.7873639
  81.3626869  37.9753378  69.6426826  81.3062070  38.4321930  68.8034459
  81.9155211  37.2144063  69.4649669  85.1731675  33.7643110  70.4676946
  84.9168609  33.3639746  71.2985153  84.5484543  34.4786904  70.3427085
  89.4844012  36.5039183  72.9748237  88.9243570  36.5732373  73.7479799
  88.8787516  36.3280168  72.2547733  72.5539221  47.9375910  74.7266423
  72.4371605  48.8821343  74.6245114  71.7331668  47.6349472  75.1152222
  82.4415756  42.6626046  65.5723016  83.2761360  42.2307245  65.3900491
  82.2800099  42.4908060  66.4999910  82.0961648  39.1658159  66.9379355
  82.0410452  39.0002431  65.9967799  81.4707703  39.8734192  67.0941545
  66.8854163  34.4026224  80.7640777  67.5313027  33.8925178  81.2528003
  66.6771314  35.1394905  81.3384203  79.4107555  41.4707071  86.2632918
  80.2798715  41.6447724  85.9019553  78.9314307  42.2901488  86.1408647
  75.4057773  28.6666268  66.5164674  75.3936443  29.6108108  66.6732945
  76.2981195  28.4836414  66.2224135  73.5793735  48.5904172  77.9422352
  74.4820982  48.6227783  78.2588847  73.3531105  47.6604623  77.9568687
  75.3347337  47.3435159  74.6032430  74.3842968  47.3437020  74.4896803
  75.6379824  46.5967893  74.0868465  79.2209893  25.2609045  70.7710610
  78.4542289  24.7067532  70.9167293  79.6320598  25.3330914  71.6324762
  71.2251654  31.5493841  84.8615792  72.0883116  31.1930646  85.0719116
  70.6517065  31.2107736  85.5491196  91.0700031  53.1795697  75.6678193
  91.7078441  53.0602445  74.9641533  90.9520874  54.1276541  75.7266145
  87.8789737  53.1323125  75.6039717  87.5408249  53.0164190  74.7160252
  88.7479505  52.7314290  75.5840724  83.7376553  54.9858602  71.5936608
  83.1741418  54.8948539  70.8252896  83.6228948  54.1658506  72.0739101
  88.3609520  54.2857977  81.5625923  88.3498161  53.8910775  80.6906427
  88.5230160  53.5524050  82.1559694  81.2840985  56.4809793  74.4320829
  82.0762277  56.1400618  74.0167128  81.5237635  56.5904768  75.3522982
  89.3176112  58.6529569  66.9051073  88.6664091  59.2383650  66.5185087
  90.1120474  59.1835764  66.9646111  83.2431739  55.7418707  67.3038208
  84.0162615  55.1947694  67.1651083  83.5957138  56.6062956  67.5152669
  85.0816781  57.0695089  80.5105107  84.7906647  57.9740720  80.3951773
  85.7173766  57.1111616  81.2249176  86.0072988  54.4471937  77.1006467
  86.6036560  54.2227960  76.3863430  86.0647960  53.7056683  77.7031914
  85.5798017  51.9011373  64.9356658  85.8323537  51.3792894  64.1740121
  84.6422576  51.7377518  65.0383341  90.6241299  50.9047151  72.7431401
  91.4104389  50.4866574  72.3921818  90.8880004  51.8093243  72.9113049
  90.7951377  56.3420001  67.4420058  90.1597210  56.4154628  68.1540962
  90.4648783  56.9313600  66.7639137  96.0249727  50.8422384  73.6464379
  96.7574898  50.2721601  73.8802209  95.2689082  50.4543985  74.0870885
  85.2994305  53.8039479  67.1381032  85.1830563  53.1284382  67.8062117
  85.4096565  53.3171853  66.3213186  87.6425846  53.2649626  70.8427722
  87.2784053  52.7380247  71.5540643  88.4992962  52.8748095  70.6694207
  93.5475147  44.5543958  78.1058988  93.2158472  45.4239369  77.8820203
  92.9520760  44.2380242  78.7853018  87.2831333  48.2939525  65.8389070
  87.4505736  49.1619762  66.2059541  87.0928502  48.4566807  64.9150359
  90.0406666  56.7556504  77.5054901  89.7407389  57.6581543  77.3970708
  89.6957726  56.4888688  78.3576053  83.4919148  53.2070301  73.5391605
  82.5669644  53.0746515  73.7469297  83.7403561  53.9864520  74.0361547
  87.2620554  50.7497183  66.8235737  87.1420179  51.1954234  67.6621217
  86.5673142  51.0982501  66.2649275  80.8527959  52.8503575  74.3735394
  80.9820340  53.1038054  75.2874806  80.1725410  53.4431283  74.0540049
  85.0227446  63.5200825  70.4725868  84.9451476  64.4708650  70.5514349
  84.4189090  63.1746697  71.1300795  87.5144676  50.6928690  83.1287235
  86.7378010  51.2522610  83.1190100  88.1535239  51.1785473  83.6502105
  95.3065457  47.4755483  76.9630212  94.6639837  47.7688016  76.3170006
  94.8020385  47.3608403  77.7683409  92.9605620  51.2218656  67.6516071
  93.8723476  51.4546043  67.4763769  92.4515267  51.8055700  67.0891150
  85.7691048  53.5014143  82.6905202  86.5105733  54.0399187  82.4140026
  85.0628034  54.1280432  82.8476754  91.2446388  55.6443284  81.2877364
  91.6529744  55.2025694  80.5431996  90.5223649  55.0695911  81.5411557
  87.5977458  50.5815891  78.6610921  88.4438653  51.0055304  78.8045570
  87.5376096  49.9249515  79.3549484  91.5675203  56.2044475  75.0429653
  90.9384065  56.3690189  74.3405720  91.1800865  56.6186084  75.8140617
  90.7476903  48.2420259  80.3192094  90.5037835  48.9962320  79.7826370
  91.0236834  48.6205607  81.1539341  92.7015366  54.7858871  78.9969360
  92.9132261  55.4290631  78.3203741  92.6545114  53.9521188  78.5291290
  90.3041595  47.3976692  75.9005932  89.4426074  47.6957946  76.1922670
  90.3304030  47.6147091  74.9686965  87.1203164  55.9418883  72.3079738
  87.5841510  56.2206586  71.5184360  86.8559963  55.0402327  72.1252828
  84.0127245  55.4890364  75.2459501  84.5828603  55.9177633  74.6076985
  84.6035357  55.2072949  75.9443687  86.0572050  52.0642035  69.1169303
  86.7596094  52.5163079  69.5843229  85.7252679  51.4225854  69.7449196
  84.5052412  50.6553792  83.4920512  83.8751073  51.3370072  83.7255909
  84.3988500  50.5436873  82.5473650  79.7997384  50.3225588  74.4186436
  79.0096438  50.5783116  73.9426547  80.2908632  51.1373926  74.5238477
  93.8161194  57.6630827  77.1691717  94.6378638  57.2611014  76.8874399
  93.8123597  57.5599061  78.1207833  81.7512130  50.6870167  71.3769913
  80.9543293  50.7988861  71.8953409  81.5237722  51.0256819  70.5110804
  87.5817797  57.2114870  79.3252428  87.6462230  57.6735277  80.1610600
  86.8728721  56.5812235  79.4534738  78.0835087  50.5756078  76.8501427
  78.3343126  51.4603088  77.1159003  78.6194636  50.3960680  76.0776519
 101.9067187  54.0069575  73.5176689 101.1530895  53.4376973  73.3620693
 102.0414728  53.9732240  74.4647323  87.2965815  58.8782978  69.1931408
  87.1611490  59.7234513  69.6216256  87.8375628  59.0802255  68.4297342
  83.7833155  44.9574557  85.8545763  83.3900100  44.4040756  86.5293407
  84.5999295  45.2685136  86.2452281  82.5590097  59.5124172  71.8482086
  82.7356726  60.4342137  71.6603070  83.3546931  59.1982591  72.2776466
  86.7001116  46.3732437  83.4466020  87.4410829  46.9739590  83.3670482
  86.9319039  45.6310074  82.8884062  81.8442454  51.5588804  81.7244250
  81.7295969  50.6574061  82.0251348  80.9886971  51.8052501  81.3729066
  88.9234291  59.5006544  83.3231750  88.4798146  58.7142923  83.0052655
  89.5851505  59.6885695  82.6575641  83.6821413  61.0302346  77.8492429
  84.2328838  60.9019409  77.0769423  82.8432889  61.3297235  77.4987321
  91.0215530  59.7809344  81.3513151  91.0034005  60.6018225  80.8593421
  91.9435450  59.6563419  81.5763293  87.4788584  57.2953474  82.1936660
  88.0116921  56.5341762  81.9635968  86.9502665  57.0027125  82.9360814
  90.6458279  42.4013540  77.7230302  90.3022548  43.2915181  77.6469412
  91.0137241  42.2115197  76.8599887  90.6108561  52.3922151  66.2302737
  90.0955185  53.1626755  66.4691124  90.3385870  51.7187287  66.8535798
  88.1955672  47.2371851  71.2887975  87.3397269  46.8478702  71.1093614
  88.6082624  47.3163812  70.4287761  89.7254819  44.7718195  75.6879535
  89.2219615  44.7348330  74.8747340  90.0185426  45.6810937  75.7476191
  85.9697705  44.8556924  74.6945716  86.8350702  44.6599733  74.3351606
  86.0375214  44.6267276  75.6215073  90.3994865  50.2649243  68.0562518
  90.0945000  50.5795392  68.9072661  91.3525307  50.3430663  68.0989851
  88.8441296  56.4239466  69.7055472  88.3162658  55.6892226  69.3928709
  88.3428799  57.2014142  69.4595440  83.5760024  47.0859132  72.0662083
  84.1503776  46.8634314  71.3335276  84.1631006  47.1547827  72.8190685
  92.6339601  52.9732859  72.8726460  93.1471483  53.6062851  73.3748170
  93.2840825  52.3734055  72.5069820  83.9029611  49.1163593  66.0857969
  83.0666923  49.4538280  66.4067243  83.7634381  48.9812573  65.1485106
  85.8782692  43.9600381  70.7937153  85.2247104  43.6449398  70.1693767
  85.8363166  43.3376122  71.5196976  86.9893897  54.2419676  62.7090445
  86.0820958  54.0108930  62.9081594  87.4864929  53.4457296  62.8964426
  89.8961975  62.9517183  65.6287131  89.2223674  63.2548880  66.2372089
  90.2827797  63.7546264  65.2792588  89.1120432  50.4482315  75.1184800
  88.1942993  50.6697262  74.9606488  89.5280576  50.5228625  74.2596508
  89.8955480  51.8473730  70.2487481  90.6427299  52.3595128  69.9394603
  90.1647069  51.5257783  71.1091874  88.1682130  54.3432271  67.2314435
  87.2593349  54.0591304  67.3286905  88.1977214  54.7631350  66.3717742
  93.4001397  57.9538861  71.0005602  92.9463725  57.1129771  71.0570793
  92.7695364  58.5900259  71.3380383  92.3434317  48.8830847  72.2306270
  91.6057074  48.3708233  72.5616512  92.5961091  48.4431228  71.4189547
  91.8434337  59.7915357  71.9355421  92.1357311  60.3520414  71.2167786
  92.3532957  60.0843918  72.6908580  92.4445944  41.6607099  72.8248039
  92.7504821  40.8004462  72.5373954  93.1698549  42.2524719  72.6247033
  78.7370300  52.0637785  71.2129637  78.5394700  51.4707146  70.4880704
  78.1816964  51.7589995  71.9305576  86.7167024  51.9560892  73.3324230
  86.7715634  51.0034728  73.2566707  85.9058226  52.1120331  73.8165529
  87.8658218  55.8841015  64.5702513  87.4277648  55.1676874  64.1108151
  88.6068659  56.1117130  64.0087605  84.6559384  50.5737952  71.0914609
  83.8427250  50.8732122  71.4979801  85.1518378  50.1793640  71.8089091
  86.8067962  60.5695708  73.0248874  86.7644141  60.7956555  72.0957406
  87.7230661  60.3359083  73.1734675  90.2533596  51.0379776  79.9229503
  90.6082983  51.2651249  80.7823969  90.9005727  51.3698153  79.3006758
  95.9831333  54.1598212  70.6278832  95.8449231  54.3499808  69.7000021
  95.6267551  54.9217595  71.0846883  84.1473459  48.1456307  76.7075844
  84.7872838  48.0045066  76.0098807  83.3150989  47.8590820  76.3314446
  96.0100712  56.2274739  75.6390104  96.4437219  56.1350028  76.4873158
  96.7232293  56.2032239  75.0010120  84.9233763  57.4458737  72.8210837
  85.7174361  56.9509058  72.6193411  84.2125455  56.9176601  72.4578542
  89.7428607  59.8276833  77.1723204  89.7965629  60.3967769  77.9400920
  88.8743388  59.9978718  76.8077241  81.2316526  51.5901819  68.8970589
  80.3014114  51.5286275  69.1140551  81.3273998  51.0677772  68.1007230
  81.1502075  48.1156632  71.4848831  81.4108892  49.0301965  71.3757991
  81.9719247  47.6481075  71.6345444  82.6227001  49.5294389  78.6547655
  83.2950054  49.3211751  78.0060304  81.7956787  49.3316475  78.2152888
  96.8716262  56.2698440  78.1722989  97.0652152  57.1744250  78.4182264
  96.7716880  55.8105859  79.0061574  88.5252573  46.1556330  80.6713316
  87.8780488  46.8546280  80.5777793  89.2953588  46.5892474  81.0389564
  91.9331370  56.4205182  83.7463870  91.7816877  56.1915734  82.8293953
  91.9236050  57.3775784  83.7595215  88.7016707  53.9937095  78.7310136
  89.6308767  54.1448255  78.5579103  88.2807737  54.0821116  77.8758783
  87.5005039  58.0187759  76.5008674  87.3616124  57.6506544  77.3734612
  86.7119635  58.5335399  76.3292631  88.0953191  63.1196856  67.8434210
  88.2704946  62.6484899  68.6579833  87.4085979  63.7462622  68.0715471
  89.0510254  57.3969362  73.8897511  88.7160086  57.3570132  74.7855161
  88.5514199  56.7314078  73.4167922  83.0254498  52.8036992  79.4150093
  82.8874296  52.0717231  80.0161632  83.9359421  52.7145892  79.1334280
  91.9869445  54.7425396  64.1634571  91.3698616  54.0172225  64.0667624
  91.5185934  55.5034757  63.8201645  85.6536798  52.5156951  78.9033772
  86.3636417  51.8750144  78.8620391  85.6106107  52.7669846  79.8259953
  93.6423577  59.4524305  81.8240351  93.5836123  58.7683525  81.1570934
  94.0443095  60.1943295  81.3720977  84.3665732  49.5022169  80.7229412
  83.8303089  49.0512908  81.3751008  83.7782441  49.6368078  79.9799876
  83.7767991  48.9610821  63.2855875  82.8997458  48.8399622  62.9218122
  84.2525744  48.1696899  63.0334764  93.6440984  57.4163889  80.0554331
  92.7567763  57.0789811  80.1780730  94.2139535  56.6846920  80.2923096
  80.1004854  48.6378177  77.8082406  80.0163042  48.0303847  77.0732816
  79.2787560  49.1287195  77.8091903  87.1742138  62.0765341  77.0215574
  87.1012309  62.8820313  77.5334879  86.7319531  62.2757307  76.1963596
  86.9631917  61.3137111  70.5318396  86.1799439  61.8558791  70.6256620
  87.6624663  61.8311091  70.9312637  90.2728568  47.1231741  73.1752601
  90.7697267  46.3701703  72.8553671  89.5015549  47.1596057  72.6095811
  98.1258325  52.8272106  74.8170893  98.1148201  53.7096822  74.4464826
  97.2575704  52.4743657  74.6225430  89.6340821  61.9752175  79.1773733
  90.3468793  62.6099640  79.1049634  89.1430850  62.0716041  78.3613735
  86.8563536  49.2649124  72.9024286  86.4861324  48.7120164  73.5905191
  87.3522629  48.6607257  72.3499286  84.6852735  59.7246619  79.9979304
  85.3862194  60.3583102  80.1508698  84.2147850  60.0661350  79.2374943
  92.8107131  58.0664568  68.2827211  93.0866975  57.9521163  69.1921085
  91.9411629  57.6682053  68.2439384  92.7147562  44.0901334  75.3231960
  91.8010642  44.3205561  75.4914167  93.1440664  44.1739778  76.1745992
  92.4854021  52.2791226  77.8231854  91.8325471  52.5267134  77.1684307
  92.8634401  51.4655364  77.4894331  89.4461195  62.3150919  71.9260024
  89.6283589  61.4972575  72.3887777  90.2694181  62.5318611  71.4884914
  89.7803360  61.2419104  69.1875073  90.3091127  60.7311559  68.5745235
  90.0431580  60.9261635  70.0520606  88.5341594  53.0211037  84.3097891
  87.8582231  52.9205166  84.9800266  89.3569228  52.8650251  84.7733888
  80.2820453  59.2582974  76.9310406  80.8673890  58.5126662  77.0638311
  80.0845291  59.5686930  77.8147070  83.1359108  62.2934221  71.9472849
  82.4669483  62.7780349  71.4636889  82.9971978  62.5403442  72.8616227
  74.8738108  51.8288574  75.6514850  74.9122207  51.2952165  76.4451968
  74.3678400  51.3023779  75.0325827  87.2764377  64.3277965  78.5455507
  87.8282685  64.4909586  79.3104592  87.6170570  64.9182402  77.8735532
  82.2528870  46.6753114  79.1477392  82.3170196  47.5367945  78.7354790
  82.1895990  46.0627116  78.4149750  81.7281142  48.7476247  82.7950426
  82.3553181  48.3653324  83.4087950  80.8709061  48.5290449  83.1606119
  92.1275251  59.1539222  84.4004162  92.6715155  59.7669180  83.9059116
  91.5462096  59.7118800  84.9171175  78.5046685  50.5552676  68.7268781
  78.8000126  49.6463354  68.6735835  77.6034721  50.5340415  68.4049783
  90.4132764  62.2759940  75.5319189  90.2883903  61.4749680  75.0230135
  91.0711855  62.7706133  75.0433159  82.0340932  48.6308673  74.7096330
  81.3127518  49.2444640  74.5703803  82.8234188  49.1666437  74.6312976
  92.4767672  60.0768960  77.1598739  91.5298008  59.9574311  77.0877066
  92.8250445  59.1891458  77.2425001  84.8367246  45.9663099  80.9836981
  85.3601648  46.2125396  81.7463291  84.6179579  46.7983134  80.5640119
  80.2334527  48.2366774  68.8508106  79.9047233  47.3564153  68.6683212
  80.5873897  48.1814442  69.7384495  89.4814106  59.8721676  73.3603092
  89.3339068  58.9438384  73.5410662  90.3067599  59.8941767  72.8760167
  83.3476350  48.5239743  69.2183584  83.6872422  49.0525665  68.4962192
  83.7948470  48.8620150  69.9942150  86.0419791  46.9076794  78.6686652
  85.7016611  46.1084607  79.0707332  85.3358797  47.2078505  78.0963485
  86.6936263  43.9926107  77.1213975  87.5162332  43.5186585  76.9992865
  86.9374326  44.7716590  77.6212661  85.3344497  47.0214365  67.4176877
  86.0552860  47.3995618  66.9140593  84.7109801  47.7403242  67.5211855
  84.2174841  50.6845227  74.9305954  84.0719422  50.9985530  75.8230235
  83.7400045  51.3030128  74.3776852  86.0771224  47.6747775  74.9786843
  86.0632793  46.7788869  74.6419141  86.7943652  47.6818439  75.6125129
  87.9297355  48.1085115  77.0239971  87.6715133  49.0302186  77.0224301
  87.3982395  47.7115550  77.7140435  92.8743544  61.2135903  69.8030056
  93.0480421  60.6482325  69.0503908  93.3672435  62.0136797  69.6209546
  78.6920504  53.2250572  77.8693615  78.1473972  54.0010380  78.0013889
  79.5699853  53.5721376  77.7112736  85.4808120  46.5562156  70.2474413
  85.6024031  45.6278802  70.4465301  85.1910163  46.5700842  69.3352729
  88.3499311  44.2417066  73.3841133  88.3721007  44.3056399  72.4293113
  88.7667370  43.4021575  73.5781639  98.7282935  53.9772326  71.4220356
  99.1714081  53.2279651  71.0239479  97.8509445  53.9682462  71.0394088
  93.8618716  60.5302667  66.9026954  94.5569621  61.1509360  67.1214269
  94.2041866  59.6798018  67.1779332  79.4786525  52.3520468  80.7623772
  78.7368261  52.5003103  81.3488402  79.1579270  52.6128734  79.8990521
  87.4230188  61.8936446  80.5604162  87.7317314  61.6485593  81.4326861
  88.2205670  62.0983085  80.0723032  87.4450800  64.0474356  72.7909538
  87.0055790  63.5550734  73.4842395  88.1958917  63.5047323  72.5501613
  79.9243139  60.2385897  72.7934166  80.7501159  59.9389669  72.4132810
  79.5737191  59.4693519  73.2423955  84.8924672  59.5912365  74.8631840
  84.2704681  58.9283070  74.5634068  85.5629539  59.6173497  74.1805488
  78.1251744  58.1572223  73.7523100  77.2883652  57.7294397  73.5707101
  78.0975390  58.3504666  74.6893891  84.9649200  48.0694153  84.4564346
  85.0137355  48.9456276  84.0742115  85.5071714  47.5271546  83.8835989
  95.4504045  58.6135276  83.7365483  94.6599589  58.5959415  83.1969982
  95.2137400  59.1523570  84.4914519  95.5701920  55.4627743  81.0498211
  95.6199925  55.2977750  81.9913734  95.4615844  54.5955002  80.6596092
  84.4538179  58.1416288  68.3390300  84.6026299  58.8251753  67.6856973
  85.2604623  58.1221378  68.8539756  92.8605683  51.4458671  82.3657518
  93.7615546  51.3065135  82.0741516  92.9353657  51.6113125  83.3055696
  87.1948488  48.8225525  81.2110704  86.3251798  49.1159091  80.9393293
  87.4307969  49.4065970  81.9317968  97.0720117  57.8824684  81.2940233
  96.7804926  58.2454665  82.1303694  96.4592249  57.1691692  81.1153565
  98.2715800  55.4477564  73.8142803  99.1062691  55.8867368  73.9780364
  98.4074928  54.9716217  72.9951049  95.3207306  53.0057299  79.7620291
  95.7961427  53.1984945  78.9539142  94.3972871  53.0616485  79.5163675
  82.2090812  54.1681466  69.3451369  81.9636854  53.2643796  69.5431579
  82.3786727  54.1698616  68.4030847  89.8987522  45.0405142  78.7276125
  90.4169466  45.7766169  78.4022613  89.5442655  45.3469136  79.5622884
  81.4786460  49.9009823  66.8437531  80.7855705  49.9754178  66.1877567
  81.2338212  49.1370167  67.3659048  90.1500116  41.4605425  74.2477021
  90.4301870  40.7928614  74.8737448  90.9350723  41.6534520  73.7351685
  87.9533585  60.6364419  65.8102048  87.3807552  61.2554606  65.3572520
  88.5266378  61.1863780  66.3441970  94.0208974  49.8823059  77.9948597
  94.9726397  49.9821156  78.0160821  93.8512425  49.0901327  78.5046681
  92.0423354  46.9678642  78.1807997  91.4473286  47.2483655  77.4854486
  91.7573051  47.4572543  78.9524739  91.1730844  60.9201569  66.9410630
  92.1061518  60.8547130  67.1443506  91.0854057  61.7557836  66.4825163
  93.8018861  60.2367439  63.9014578  93.7232493  59.9027303  64.7950336
  94.6228528  60.7289207  63.9006050  96.4997052  53.1029178  77.1090896
  96.4673372  52.1645179  77.2950580  97.1097676  53.1813215  76.3756721
  88.3380383  51.9725231  63.1518100  89.2839488  51.8431440  63.2206518
  87.9594628  51.2339893  63.6287528  96.6491541  49.8940222  77.1549179
  96.1330589  49.1098679  76.9679108  97.5331489  49.5658939  77.3195699
  94.3102268  43.6381237  73.1144992  94.1127089  43.3296326  73.9988324
  94.9201973  44.3642876  73.2442922 102.3173602  54.1645185  76.2496933
 103.0476991  53.9030473  76.8104636 101.7080548  53.4273907  76.2899001
 100.3988899  52.3053048  76.8471384  99.6722063  52.1709013  76.2387876
  99.9836186  52.6129876  77.6528102  88.2219076  56.0242978  84.6118757
  89.1422085  56.2021577  84.8058804  88.1868659  55.0799023  84.4598456
  86.5223300  49.8975208  63.0872985  85.6154756  49.6008321  63.1635699
  86.7999281  49.6005026  62.2207272  77.4401241  51.2181571  73.5372032
  77.1204025  50.3646879  73.2446406  76.8934669  51.4330149  74.2929999
  81.2181148  53.9344012  77.2541538  81.4367158  54.8661120  77.2729572
  81.6306922  53.5751987  78.0396342  88.1385366  44.4412098  69.2417227
  87.3286094  44.0959183  69.6172473  88.8269783  44.1319641  69.8304838
  90.0675914  43.5190144  70.8641523  90.6206953  43.9385598  71.5231547
  90.3046001  42.5925892  70.9064479  86.0909014  49.5077218  86.6444287
  85.9905740  50.4571575  86.5756378  85.8730556  49.1795457  85.7720357
  85.2922085  46.7562143  63.2284965  86.1541249  47.0817041  63.4880782
  85.4772429  45.9693639  62.7158030  77.3089501  54.8384483  75.5065153
  76.6152972  54.4238436  74.9935108  78.0562492  54.8805019  74.9098572
  93.4454721  45.6290669  70.3720188  92.8653390  46.2875474  69.9898240
  93.1790654  44.8068014  69.9607605  91.8958288  45.0295727  72.5741508
  92.3958066  45.1412262  71.7655827  92.5393896  44.7256780  73.2142316
  85.9540284  52.9374357  85.4609349  85.4707365  53.7374717  85.6673238
  86.0401223  52.9482302  84.5076793  79.2226243  54.7702736  73.3831168
  79.1996931  54.8690424  72.4313051  79.5326880  55.6167887  73.7048334
  81.8813621  56.8278892  77.4977783  82.8356875  56.7962834  77.4307714
  81.6826145  56.3669515  78.3128009  82.4713003  55.3980008  80.0648580
  83.2905892  55.8924086  80.0883418  82.7449811  54.4811976  80.0366148
  98.0166694  48.5264900  74.2004816  98.6111185  48.2860636  73.4898124
  98.0893278  47.8072031  74.8278352  80.2363850  62.3698511  74.5147981
  80.1018318  61.6098912  73.9485979  79.8195912  63.0939411  74.0476770
  91.3722813  57.5535435  63.5224556  92.0758663  57.7585437  64.1382212
  90.6485462  58.1212196  63.7873639  92.2020623  53.3045296  69.6426826
  92.1455825  53.7613847  68.8034459  92.7548966  52.5435980  69.4649669
  96.0125429  49.0935028  70.4676946  95.7562363  48.6931663  71.2985153
  95.3878297  49.8078822  70.3427085 100.3237767  51.8331101  72.9748237
  99.7637325  51.9024290  73.7479799  99.7181270  51.6572086  72.2547733
  83.3932976  63.2667828  74.7266423  83.2765360  64.2113261  74.6245114
  82.5725422  62.9641390  75.1152222  93.2809510  57.9917964  65.5723016
  94.1155114  57.5599162  65.3900491  93.1193853  57.8199977  66.4999910
  92.9355402  54.4950077  66.9379355  92.8804206  54.3294348  65.9967799
  92.3101458  55.2026110  67.0941545  77.7247917  49.7318141  80.7640777
  78.3706781  49.2217095  81.2528003  77.5165069  50.4686823  81.3384203
  90.2501310  56.7998989  86.2632918  91.1192469  56.9739641  85.9019553
  89.7708061  57.6193406  86.1408647  86.2451528  43.9958186  66.5164674
  86.2330198  44.9400026  66.6732945  87.1374950  43.8128331  66.2224135
  84.4187490  63.9196090  77.9422352  85.3214737  63.9519700  78.2588847
  84.1924860  62.9896541  77.9568687  86.1741092  62.6727076  74.6032430
  85.2236723  62.6728938  74.4896803  86.4773578  61.9259811  74.0868465
  90.0603647  40.5900963  70.7710610  89.2936043  40.0359449  70.9167293
  90.4714352  40.6622831  71.6324762  82.0645408  46.8785759  84.8615792
  82.9276870  46.5222563  85.0719116  81.4910819  46.5399653  85.5491196
 101.9093785  68.5087615  75.6678193 102.5472195  68.3894362  74.9641533
 101.7914628  69.4568459  75.7266145  98.7183492  68.4615043  75.6039717
  98.3802003  68.3456108  74.7160252  99.5873260  68.0606208  75.5840724
  94.5770307  70.3150519  71.5936608  94.0135172  70.2240456  70.8252896
  94.4622702  69.4950424  72.0739101  99.2003275  69.6149895  81.5625923
  99.1891915  69.2202693  80.6906427  99.3623914  68.8815967  82.1559694
  92.1234739  71.8101711  74.4320829  92.9156031  71.4692536  74.0167128
  92.3631389  71.9196686  75.3522982 100.1569866  73.9821487  66.9051073
  99.5057846  74.5675567  66.5185087 100.9514229  74.5127682  66.9646111
  94.0825493  71.0710624  67.3038208  94.8556369  70.5239611  67.1651083
  94.4350892  71.9354874  67.5152669  95.9210536  72.3987006  80.5105107
  95.6300402  73.3032637  80.3951773  96.5567520  72.4403534  81.2249176
  96.8466743  69.7763855  77.1006467  97.4430315  69.5519877  76.3863430
  96.9041714  69.0348600  77.7031914 101.4635054  66.2339069  72.7431401
 102.2498143  65.8158492  72.3921818 101.7273758  67.1385161  72.9113049
 101.6345131  71.6711919  67.4420058 100.9990964  71.7446546  68.1540962
 101.3042538  72.2605518  66.7639137 106.8643481  66.1714302  73.6464379
 107.5968653  65.6013519  73.8802209 106.1082837  65.7835902  74.0870885
  98.4819601  68.5941543  70.8427722  98.1177808  68.0672164  71.5540643
  99.3386717  68.2040012  70.6694207 104.3868901  59.8835876  78.1058988
 104.0552226  60.7531287  77.8820203 103.7914515  59.5672160  78.7853018
  98.1225088  63.6231443  65.8389070  98.2899490  64.4911680  66.2059541
  97.9322257  63.7858725  64.9150359 100.8800421  72.0848422  77.5054901
 100.5801144  72.9873461  77.3970708 100.5351480  71.8180605  78.3576053
  94.3312902  68.5362219  73.5391605  93.4063399  68.4038433  73.7469297
  94.5797316  69.3156438  74.0361547 104.2797565  64.6030962  75.1852338
 103.3714442  64.5346371  74.8911099 104.2285160  65.0802907  76.0134163
  91.6921713  68.1795492  74.3735394  91.8214095  68.4329971  75.2874806
  91.0119165  68.7723200  74.0540049  95.8621201  78.8492742  70.4725868
  95.7845230  79.8000567  70.5514349  95.2582844  78.5038615  71.1300795
  98.3538430  66.0220608  83.1287235  97.5771765  66.5814528  83.1190100
  98.9928994  66.5077391  83.6502105 106.1459211  62.8047401  76.9630212
 105.5033591  63.0979934  76.3170006 105.6414140  62.6900321  77.7683409
 103.7999375  66.5510574  67.6516071 104.7117231  66.7837961  67.4763769
 103.2909022  67.1347618  67.0891150  96.6084803  68.8306061  82.6905202
  97.3499487  69.3691105  82.4140026  95.9021788  69.4572350  82.8476754
 102.0840142  70.9735202  81.2877364 102.4923498  70.5317612  80.5431996
 101.3617404  70.3987829  81.5411557  98.4371212  65.9107808  78.6610921
  99.2832408  66.3347222  78.8045570  98.3769850  65.2541433  79.3549484
 102.4068957  71.5336392  75.0429653 101.7777819  71.6982106  74.3405720
 102.0194619  71.9478002  75.8140617 106.2858189  72.4690830  72.3974016
 105.6009227  72.8489731  71.8471050 106.3702038  73.0786157  73.1305964
 101.5870658  63.5712177  80.3192094 101.3431590  64.3254237  79.7826370
 101.8630588  63.9497524  81.1539341 103.5409121  70.1150789  78.9969360
 103.7526016  70.7582549  78.3203741 103.4938869  69.2813106  78.5291290
 101.1435350  62.7268610  75.9005932 100.2819829  63.0249863  76.1922670
 101.1697784  62.9439009  74.9686965  97.9596919  71.2710800  72.3079738
  98.4235264  71.5498503  71.5184360  97.6953717  70.3694245  72.1252828
  94.8521000  70.8182282  75.2459501  95.4222357  71.2469550  74.6076985
  95.4429112  70.5364867  75.9443687  96.8965805  67.3933953  69.1169303
  97.5989848  67.8454996  69.5843229  96.5646433  66.7517772  69.7449196
  95.3446167  65.9845709  83.4920512  94.7144827  66.6661990  83.7255909
  95.2382254  65.8728791  82.5473650  90.6391139  65.6517505  74.4186436
  89.8490193  65.9075034  73.9426547  91.1302386  66.4665843  74.5238477
 104.6554948  72.9922745  77.1691717 105.4772392  72.5902932  76.8874399
 104.6517351  72.8890979  78.1207833  92.5905884  66.0162085  71.3769913
  91.7937048  66.1280779  71.8953409  92.3631477  66.3548737  70.5110804
  98.4211552  72.5406788  79.3252428  98.4855984  73.0027195  80.1610600
  97.7122476  71.9104153  79.4534738  88.9228842  65.9047996  76.8501427
  89.1736880  66.7895006  77.1159003  89.4588390  65.7252597  76.0776519
 112.7460942  69.3361493  73.5176689 111.9924650  68.7668891  73.3620693
 112.8808483  69.3024158  74.4647323  98.1359570  74.2074895  69.1931408
  98.0005244  75.0526431  69.6216256  98.6769382  74.4094173  68.4297342
  94.6226909  60.2866475  85.8545763  94.2293855  59.7332674  86.5293407
  95.4393050  60.5977054  86.2452281  91.5888967  71.7250333  69.7659333
  92.1013488  72.5193584  69.9164898  92.2411680  71.0276624  69.6992935
  93.3983852  74.8416090  71.8482086  93.5750480  75.7634054  71.6603070
  94.1940685  74.5274509  72.2776466  97.5394870  61.7024354  83.4466020
  98.2804584  62.3031507  83.3670482  97.7712793  60.9601992  82.8884062
  92.6836208  66.8880722  81.7244250  92.5689723  65.9865979  82.0251348
  91.8280726  67.1344418  81.3729066  99.7628046  74.8298462  83.3231750
  99.3191900  74.0434840  83.0052655 100.4245260  75.0177612  82.6575641
  94.5215167  76.3594263  77.8492429  95.0722592  76.2311327  77.0769423
  93.6826643  76.6589152  77.4987321 101.8609284  75.1101262  81.3513151
 101.8427759  75.9310143  80.8593421 102.7829204  74.9855337  81.5763293
  98.3182338  72.6245391  82.1936660  98.8510675  71.8633679  81.9635968
  97.7896419  72.3319043  82.9360814 101.4852033  57.7305457  77.7230302
 101.1416303  58.6207099  77.6469412 101.8530996  57.5407115  76.8599887
  89.5537884  70.0538988  70.5418904  90.3913106  70.4635996  70.3252611
  89.7316151  69.1138430  70.5119098 101.4502316  67.7214068  66.2302737
 100.9348939  68.4918673  66.4691124 101.1779624  67.0479204  66.8535798
  99.0349427  62.5663769  71.2887975  98.1791023  62.1770619  71.1093614
  99.4476379  62.6455730  70.4287761 100.5648574  60.1010112  75.6879535
 100.0613369  60.0640248  74.8747340 100.8579180  61.0102855  75.7476191
  96.8091459  60.1848842  74.6945716  97.6744456  59.9891651  74.3351606
  96.8768968  59.9559194  75.6215073 106.4236590  70.4746423  68.1655910
 105.6466033  70.1357582  67.7211072 107.1028071  70.4799046  67.4910875
 101.2388619  65.5941160  68.0562518 100.9338755  65.9087310  68.9072661
 102.1919061  65.6722580  68.0989851  99.6835051  71.7531384  69.7055472
  99.1556412  71.0184143  69.3928709  99.1822554  72.5306060  69.4595440
 104.6627897  69.9480404  74.8222518 104.0051571  70.6379666  74.9102647
 105.4668296  70.3376836  75.1656504  94.4153779  62.4151050  72.0662083
  94.9897530  62.1926231  71.3335276  95.0024761  62.4839745  72.8190685
 103.4733356  68.3024777  72.8726460 103.9865237  68.9354769  73.3748170
 104.1234580  67.7025972  72.5069820  94.7423366  64.4455511  66.0857969
  93.9060678  64.7830198  66.4067243  94.6028135  64.3104491  65.1485106
  96.7176446  59.2892299  70.7937153  96.0640859  58.9741316  70.1693767
  96.6756920  58.6668039  71.5196976  97.8287651  69.5711594  62.7090445
  96.9214713  69.3400847  62.9081594  98.3258683  68.7749213  62.8964426
 100.7355730  78.2809101  65.6287131 100.0617429  78.5840798  66.2372089
 101.1221552  79.0838182  65.2792588  99.9514187  65.7774232  75.1184800
  99.0336748  65.9989179  74.9606488 100.3674330  65.8520543  74.2596508
 100.7349234  67.1765648  70.2487481 101.4821053  67.6887045  69.9394603
 101.0040824  66.8549701  71.1091874  99.0075885  69.6724189  67.2314435
  98.0987104  69.3883222  67.3286905  99.0370968  70.0923267  66.3717742
 104.2395152  73.2830778  71.0005602 103.7857479  72.4421688  71.0570793
 103.6089119  73.9192177  71.3380383 103.1828071  64.2122764  72.2306270
 102.4450828  63.7000151  72.5616512 103.4354845  63.7723146  71.4189547
 102.6828091  75.1207275  71.9355421 102.9751066  75.6812332  71.2167786
 103.1926712  75.4135836  72.6908580 103.2839699  56.9899016  72.8248039
 103.5898576  56.1296380  72.5373954 104.0092304  57.5816637  72.6247033
  89.5764055  67.3929703  71.2129637  89.3788455  66.7999064  70.4880704
  89.0210719  67.0881913  71.9305576  97.5560779  67.2852809  73.3324230
  97.6109388  66.3326646  73.2566707  96.7451981  67.4412249  73.8165529
  97.6461716  75.8987626  73.0248874  97.6037895  76.1248472  72.0957406
  98.5624415  75.6651001  73.1734675 101.0927350  66.3671694  79.9229503
 101.4476738  66.5943167  80.7823969 101.7399481  66.6990070  79.3006758
 106.8225087  69.4890130  70.6278832 106.6842986  69.6791726  69.7000021
 106.4661306  70.2509512  71.0846883 106.8494467  71.5566657  75.6390104
 107.2830973  71.4641946  76.4873158 107.5626047  71.5324157  75.0010120
  95.7627517  72.7750655  72.8210837  96.5568116  72.2800975  72.6193411
  95.0519210  72.2468518  72.4578542 100.5822362  75.1568751  77.1723204
 100.6359384  75.7259687  77.9400920  99.7137143  75.3270636  76.8077241
  92.0710281  66.9193737  68.8970589  91.1407869  66.8578192  69.1140551
  92.1667753  66.3969690  68.1007230  91.9895830  63.4448550  71.4848831
  92.2502647  64.3593883  71.3757991  92.8113002  62.9772992  71.6345444
  93.4620755  64.8586307  78.6547655  94.1343808  64.6503669  78.0060304
  92.6350542  64.6608393  78.2152888 107.7110016  71.5990357  78.1722989
 107.9045906  72.5036168  78.4182264 107.6110634  71.1397776  79.0061574
  99.3646327  61.4848248  80.6713316  98.7174242  62.1838197  80.5777793
 100.1347342  61.9184392  81.0389564 102.7725125  71.7497100  83.7463870
 102.6210631  71.5207652  82.8293953 102.7629804  72.7067701  83.7595215
  99.5410461  69.3229013  78.7310136 100.4702521  69.4740172  78.5579103
  99.1201491  69.4113033  77.8758783  98.3398793  73.3479677  76.5008674
  98.2009879  72.9798462  77.3734612  97.5513389  73.8627317  76.3292631
  98.9346945  78.4488774  67.8434210  99.1098701  77.9776817  68.6579833
  98.2479733  79.0754540  68.0715471  99.8904008  72.7261280  73.8897511
  99.5553841  72.6862050  74.7855161  99.3907954  72.0605996  73.4167922
  93.8648252  68.1328910  79.4150093  93.7268050  67.4009149  80.0161632
  94.7753176  68.0437810  79.1334280 102.8263200  70.0717314  64.1634571
 102.2092371  69.3464142  64.0667624 102.3579688  70.8326674  63.8201645
  96.4930553  67.8448869  78.9033772  97.2030171  67.2042061  78.8620391
  96.4499861  68.0961764  79.8259953 104.4817332  74.7816223  81.8240351
 104.4229878  74.0975443  81.1570934 104.8836850  75.5235213  81.3720977
  93.5008030  81.5978136  74.6174070  93.7404629  82.2296661  75.2953089
  92.6577227  81.2466176  74.9039430  94.6161746  64.2902738  63.2855875
  93.7391212  64.1691539  62.9218122  95.0919499  63.4988817  63.0334764
 104.4834739  72.7455806  80.0554331 103.5961518  72.4081728  80.1780730
 105.0533290  72.0138838  80.2923096  86.1363886  69.0779898  73.3797382
  86.8234926  68.7641628  72.7918398  85.9812015  69.9821263  73.1064634
  90.9398608  63.9670095  77.8082406  90.8556797  63.3595764  77.0732816
  90.1181315  64.4579113  77.8091903  98.0135892  77.4057259  77.0215574
  97.9406064  78.2112230  77.5334879  97.5713285  77.6049225  76.1963596
  97.8025672  76.6429029  70.5318396  97.0193194  77.1850709  70.6256620
  98.5018417  77.1603008  70.9312637 101.1122322  62.4523658  73.1752601
 101.6091022  61.6993621  72.8553671 100.3409304  62.4887975  72.6095811
 108.9652079  68.1564024  74.8170893 108.9541956  69.0388739  74.4464826
 108.0969459  67.8035575  74.6225430 100.4734576  77.3044093  79.1773733
 101.1862548  77.9391558  79.1049634  99.9824604  77.4007959  78.3613735
 102.1952103  71.2095346  70.7491025 101.2608381  71.3296808  70.5795729
 102.3728771  70.3067812  70.4851034 105.5824654  67.0512665  71.2841059
 106.0485106  67.8840656  71.2101361 106.0332155  66.5857646  71.9886317
  95.5246489  75.0538536  79.9979304  96.2255949  75.6875019  80.1508698
  95.0541604  75.3953268  79.2374943 103.6500885  73.3956486  68.2827211
 103.9260729  73.2813081  69.1921085 102.7805384  72.9973971  68.2439384
 103.5541317  59.4193252  75.3231960 102.6404397  59.6497479  75.4914167
 103.9834418  59.5031696  76.1745992 103.3247775  67.6083144  77.8231854
 102.6719226  67.8559051  77.1684307 103.7028155  66.7947282  77.4894331
 100.2854949  77.6442837  71.9260024 100.4677344  76.8264493  72.3887777
 101.1087935  77.8610529  71.4884914 100.6197115  76.5711022  69.1875073
 101.1484881  76.0603477  68.5745235 100.8825334  76.2553552  70.0520606
  99.3735348  68.3502955  84.3097891  98.6975985  68.2497084  84.9800266
 100.1962982  68.1942169  84.7733888  91.1214207  74.5874891  76.9310406
  91.7067644  73.8418579  77.0638311  90.9239046  74.8978848  77.8147070
  93.9752863  77.6226139  71.9472849  93.3063238  78.1072266  71.4636889
  93.8365732  77.8695359  72.8616227  85.7131862  67.1580492  75.6514850
  85.7515962  66.6244082  76.4451968  85.2072155  66.6315697  75.0325827
  98.1158131  79.6569882  78.5455507  98.6676439  79.8201504  79.3104592
  98.4564325  80.2474320  77.8735532  93.0922624  62.0045032  79.1477392
  93.1563951  62.8659863  78.7354790  93.0289745  61.3919034  78.4149750
  92.5674897  64.0768165  82.7950426  93.1946936  63.6945242  83.4087950
  91.7102816  63.8582367  83.1606119 102.9669006  74.4831140  84.4004162
 103.5108909  75.0961098  83.9059116 102.3855850  75.0410718  84.9171175
  89.3440440  65.8844594  68.7268781  89.6393881  64.9755272  68.6735835
  88.4428475  65.8632333  68.4049783 101.2526518  77.6051858  75.5319189
 101.1277658  76.8041598  75.0230135 101.9105610  78.0998051  75.0433159
  92.8734687  63.9600590  74.7096330  92.1521272  64.5736558  74.5703803
  93.6627942  64.4958355  74.6312976 103.3161427  75.4060878  77.1598739
 102.3691762  75.2866229  77.0877066 103.6644200  74.5183376  77.2425001
  95.6761000  61.2955017  80.9836981  96.1995402  61.5417313  81.7463291
  95.4573333  62.1275052  80.5640119  91.0728281  63.5658691  68.8508106
  90.7440987  62.6856070  68.6683212  91.4267652  63.5106360  69.7384495
 100.3207860  75.2013594  73.3603092 100.1732823  74.2730301  73.5410662
 101.1461354  75.2233685  72.8760167  94.1870104  63.8531661  69.2183584
  94.5266177  64.3817582  68.4962192  94.6342225  64.1912067  69.9942150
 103.9241982  76.0242153  74.4467964 104.8488529  75.8185014  74.3092416
 103.7557285  75.7758554  75.3557306  96.8813545  62.2368712  78.6686652
  96.5410366  61.4376525  79.0707332  96.1752552  62.5370423  78.0963485
  97.5330017  59.3218024  77.1213975  98.3556086  58.8478503  76.9992865
  97.7768081  60.1008508  77.6212661 100.3169374  63.0551432  68.3535209
 100.5332989  63.9376070  68.0524037  99.8363442  62.6637645  67.6240851
  95.0568596  66.0137145  74.9305954  94.9113177  66.3277448  75.8230235
  94.5793799  66.6322045  74.3776852  96.9164979  63.0039693  74.9786843
  96.9026547  62.1080786  74.6419141  97.6337407  63.0110357  75.6125129
  98.7691109  63.4377033  77.0239971  98.5108887  64.3594104  77.0224301
  98.2376150  63.0407468  77.7140435 103.7137298  76.5427820  69.8030056
 103.8874176  75.9774243  69.0503908 104.2066189  77.3428715  69.6209546
  89.5314258  68.5542489  77.8693615  88.9867726  69.3302297  78.0013889
  90.4093608  68.9013294  77.7112736  96.3201875  61.8854073  70.2474413
  96.4417786  60.9570719  70.4465301  96.0303917  61.8992759  69.3352729
  99.1893065  59.5708984  73.3841133  99.2114762  59.6348317  72.4293113
  99.6061124  58.7313492  73.5781639 109.5676689  69.3064243  71.4220356
 110.0107835  68.5571568  71.0239479 108.6903200  69.2974380  71.0394088
 104.7012471  75.8594585  66.9026954 105.3963375  76.4801277  67.1214269
 105.0435621  75.0089936  67.1779332  90.3180280  67.6812386  80.7623772
  89.5762016  67.8295021  81.3488402  89.9973024  67.9420651  79.8990521
 106.6003894  73.3094290  68.4314285 107.1255218  73.6481563  67.7063605
 106.5126246  72.3741306  68.2477420  98.2623943  77.2228364  80.5604162
  98.5711069  76.9777511  81.4326861  99.0599425  77.4275002  80.0723032
  98.2844555  79.3766273  72.7909538  97.8449545  78.8842652  73.4842395
  99.0352672  78.8339241  72.5501613  90.7636894  75.5677814  72.7934166
  91.5894913  75.2681586  72.4132810  90.4130946  74.7985437  73.2423955
  95.7318427  74.9204283  74.8631840  95.1098436  74.2574988  74.5634068
  96.4023294  74.9465414  74.1805488  88.9645499  73.4864141  73.7523100
  88.1277407  73.0586315  73.5707101  88.9369144  73.6796584  74.6893891
  95.8042954  63.3986071  84.4564346  95.8531110  64.2748193  84.0742115
  96.3465468  62.8563464  83.8835989 106.2897800  73.9427194  83.7365483
 105.4993344  73.9251333  83.1969982 106.0531154  74.4815488  84.4914519
 106.4095675  70.7919660  81.0498211 106.4593680  70.6269668  81.9913734
 106.3009598  69.9246919  80.6596092 103.6999437  66.7750588  82.3657518
 104.6009300  66.6357053  82.0741516 103.7747412  66.9405043  83.3055696
  98.0342243  64.1517443  81.2110704  97.1645552  64.4451009  80.9393293
  98.2701723  64.7357888  81.9317968 107.9113872  73.2116602  81.2940233
 107.6198680  73.5746582  82.1303694 107.2986003  72.4983610  81.1153565
 109.1109554  70.7769482  73.8142803 109.9456445  71.2159286  73.9780364
 109.2468683  70.3008135  72.9951049 106.1601060  68.3349216  79.7620291
 106.6355182  68.5276863  78.9539142 105.2366625  68.3908402  79.5163675
  93.0484567  69.4973384  69.3451369  92.8030609  68.5935714  69.5431579
  93.2180481  69.4990534  68.4030847 100.7381276  60.3697060  78.7276125
 101.2563220  61.1058087  78.4022613 100.3836409  60.6761053  79.5622884
  92.3180214  65.2301741  66.8437531  91.6249459  65.3046096  66.1877567
  92.0731966  64.4662085  67.3659048 100.9893871  56.7897342  74.2477021
 101.2695624  56.1220532  74.8737448 101.7744478  56.9826438  73.7351685
  98.7927339  75.9656336  65.8102048  98.2201306  76.5846523  65.3572520
  99.3660133  76.5155698  66.3441970 104.8602729  65.2114976  77.9948597
 105.8120152  65.3113074  78.0160821 104.6906179  64.4193245  78.5046681
 102.8817108  62.2970560  78.1807997 102.2867041  62.5775572  77.4854486
 102.5966805  62.7864461  78.9524739 102.0124599  76.2493486  66.9410630
 102.9455272  76.1839048  67.1443506 101.9247812  77.0849753  66.4825163
 104.6412616  75.5659357  63.9014578 104.5626247  75.2319220  64.7950336
 105.4622282  76.0581125  63.9006050 107.3390807  68.4321096  77.1090896
 107.3067127  67.4937097  77.2950580 107.9491430  68.5105133  76.3756721
  99.1774138  67.3017149  63.1518100 100.1233242  67.1723357  63.2206518
  98.7988383  66.5631811  63.6287528 107.4885295  65.2232140  77.1549179
 106.9724344  64.4390596  76.9679108 108.3725244  64.8950856  77.3195699
 105.1496022  58.9673155  73.1144992 104.9520843  58.6588243  73.9988324
 105.7595728  59.6934794  73.2442922 113.1567357  69.4937103  76.2496933
 113.8870745  69.2322391  76.8104636 112.5474302  68.7565825  76.2899001
 111.2382654  67.6344966  76.8471384 110.5115817  67.5000930  76.2387876
 110.8229941  67.9421794  77.6528102  99.0612830  71.3534895  84.6118757
  99.9815840  71.5313494  84.8058804  99.0262413  70.4090941  84.4598456
  97.3617055  65.2267125  63.0872985  96.4548510  64.9300238  63.1635699
  97.6393036  64.9296944  62.2207272  88.2794995  66.5473489  73.5372032
  87.9597780  65.6938797  73.2446406  87.7328423  66.7622067  74.2929999
  92.0574903  69.2635930  77.2541538  92.2760912  70.1953038  77.2729572
  92.4700677  68.9043904  78.0396342  98.9779121  59.7704015  69.2417227
  98.1679849  59.4251100  69.6172473  99.6663537  59.4611559  69.8304838
 100.9069669  58.8482062  70.8641523 101.4600707  59.2677515  71.5231547
 101.1439755  57.9217810  70.9064479  96.9302768  64.8369136  86.6444287
  96.8299495  65.7863493  86.5756378  96.7124310  64.5087375  85.7720357
  88.1483255  70.1676400  75.5065153  87.4546727  69.7530353  74.9935108
  88.8956246  70.2096937  74.9098572 104.2848476  60.9582587  70.3720188
 103.7047145  61.6167391  69.9898240 104.0184409  60.1359932  69.9607605
 102.7352042  60.3587645  72.5741508 103.2351821  60.4704179  71.7655827
 103.3787650  60.0548698  73.2142316  96.7934038  68.2666274  85.4609349
  96.3101120  69.0666635  85.6673238  96.8794977  68.2774219  84.5076793
  90.0619998  70.0994654  73.3831168  90.0390686  70.1982341  72.4313051
  90.3720634  70.9459805  73.7048334  92.7207376  72.1570809  77.4977783
  93.6750629  72.1254752  77.4307714  92.5219899  71.6961433  78.3128009
  93.3106758  70.7271925  80.0648580  94.1299647  71.2216004  80.0883418
  93.5843565  69.8103893  80.0366148 103.0673354  63.1182678  69.4276536
 102.1799209  63.4032328  69.2096731 103.4827343  62.9576441  68.5803813
 106.4187890  63.1429199  73.1430875 107.1948280  63.6325651  73.4155492
 105.6936024  63.5687253  73.6002745 108.8560449  63.8556818  74.2004816
 109.4504939  63.6152554  73.4898124 108.9287032  63.1363948  74.8278352
  91.0757604  77.6990429  74.5147981  90.9412072  76.9390830  73.9485979
  90.6589667  78.4231329  74.0476770 102.2116567  72.8827352  63.5224556
 102.9152417  73.0877355  64.1382212 101.4879216  73.4504114  63.7873639
 103.0414378  68.6337213  69.6426826 102.9849579  69.0905765  68.8034459
 103.5942720  67.8727898  69.4649669 106.8519184  64.4226945  70.4676946
 106.5956118  64.0223581  71.2985153 106.2272052  65.1370739  70.3427085
 111.1631521  67.1623019  72.9748237 110.6031079  67.2316208  73.7479799
 110.5575025  66.9864003  72.2547733  94.2326730  78.5959746  74.7266423
  94.1159114  79.5405178  74.6245114  93.4119177  78.2933307  75.1152222
 104.1203265  73.3209881  65.5723016 104.9548869  72.8891080  65.3900491
 103.9587608  73.1491895  66.4999910 103.7749157  69.8241995  66.9379355
 103.7197961  69.6586266  65.9967799 103.1495212  70.5318028  67.0941545
  88.5641672  65.0610059  80.7640777  89.2100536  64.5509013  81.2528003
  88.3558823  65.7978741  81.3384203 101.0895064  72.1290907  86.2632918
 101.9586224  72.3031559  85.9019553 100.6101816  72.9485323  86.1408647
  95.2581244  79.2488008  77.9422352  96.1608491  79.2811618  78.2588847
  95.0318614  78.3188459  77.9568687  97.0134846  78.0018994  74.6032430
  96.0630477  78.0020856  74.4896803  97.3167333  77.2551729  74.0868465
 100.8997402  55.9192880  70.7710610 100.1329798  55.3651367  70.9167293
 101.3108107  55.9914749  71.6324762 112.7487540  83.8379533  75.6678193
 113.3865950  83.7186280  74.9641533 112.6308383  84.7860376  75.7266145
 109.5577246  83.7906961  75.6039717 109.2195758  83.6748025  74.7160252
 110.4267014  83.3898126  75.5840724 105.4164062  85.6442437  71.5936608
 104.8528927  85.5532374  70.8252896 105.3016457  84.8242342  72.0739101
 110.0397029  84.9441812  81.5625923 110.0285670  84.5494611  80.6906427
 110.2017669  84.2107885  82.1559694 102.9628494  87.1393629  74.4320829
 103.7549786  86.7984453  74.0167128 103.2025144  87.2488604  75.3522982
 110.9963621  89.3113405  66.9051073 110.3451600  89.8967485  66.5185087
 111.7907983  89.8419600  66.9646111 104.9219248  86.4002542  67.3038208
 105.6950124  85.8531529  67.1651083 105.2744647  87.2646791  67.5152669
 106.7604290  87.7278924  80.5105107 106.4694156  88.6324555  80.3951773
 107.3961275  87.7695452  81.2249176 107.6860497  85.1055773  77.1006467
 108.2824069  84.8811795  76.3863430 107.7435469  84.3640518  77.7031914
 107.2585526  82.5595208  64.9356658 107.5111046  82.0376729  64.1740121
 106.3210085  82.3961353  65.0383341 112.3028808  81.5630986  72.7431401
 113.0891898  81.1450410  72.3921818 112.5667513  82.4677079  72.9113049
 112.4738886  87.0003837  67.4420058 111.8384719  87.0738463  68.1540962
 112.1436292  87.5897436  66.7639137 117.7037235  81.5006220  73.6464379
 118.4362407  80.9305436  73.8802209 116.9476591  81.1127820  74.0870885
 106.9781814  84.4623314  67.1381032 106.8618072  83.7868217  67.8062117
 107.0884074  83.9755688  66.3213186 109.3213355  83.9233461  70.8427722
 108.9571562  83.3964082  71.5540643 110.1780471  83.5331930  70.6694207
 115.2262656  75.2127794  78.1058988 114.8945981  76.0823205  77.8820203
 114.6308269  74.8964078  78.7853018 108.9618842  78.9523361  65.8389070
 109.1293245  79.8203597  66.2059541 108.7716011  79.1150642  64.9150359
 111.7194175  87.4140340  77.5054901 111.4194898  88.3165378  77.3970708
 111.3745235  87.1472523  78.3576053 105.1706657  83.8654137  73.5391605
 104.2457153  83.7330351  73.7469297 105.4191070  84.6448356  74.0361547
 115.1191319  79.9322880  75.1852338 114.2108196  79.8638288  74.8911099
 115.0678915  80.4094825  76.0134163 108.9408063  81.4081018  66.8235737
 108.8207688  81.8538069  67.6621217 108.2460651  81.7566336  66.2649275
 102.5315468  83.5087410  74.3735394 102.6607849  83.7621889  75.2874806
 101.8512919  84.1015118  74.0540049 106.7014955  94.1784660  70.4725868
 106.6238985  95.1292485  70.5514349 106.0976599  93.8330533  71.1300795
 109.1932185  81.3512525  83.1287235 108.4165519  81.9106446  83.1190100
 109.8322748  81.8369308  83.6502105 116.9852966  78.1339318  76.9630212
 116.3427346  78.4271851  76.3170006 116.4807894  78.0192239  77.7683409
 114.6393129  81.8802491  67.6516071 115.5510985  82.1129878  67.4763769
 114.1302776  82.4639536  67.0891150 107.4478557  84.1597979  82.6905202
 108.1893242  84.6983023  82.4140026 106.7415543  84.7864268  82.8476754
 112.9233897  86.3027119  81.2877364 113.3317253  85.8609530  80.5431996
 112.2011158  85.7279747  81.5411557 109.2764967  81.2399726  78.6610921
 110.1226162  81.6639140  78.8045570 109.2163605  80.5833350  79.3549484
 113.2462712  86.8628310  75.0429653 112.6171574  87.0274024  74.3405720
 112.8588374  87.2769919  75.8140617 117.1251943  87.7982748  72.3974016
 116.4402982  88.1781649  71.8471050 117.2095793  88.4078074  73.1305964
 112.4264412  78.9004094  80.3192094 112.1825344  79.6546155  79.7826370
 112.7024343  79.2789442  81.1539341 114.3802875  85.4442707  78.9969360
 114.5919770  86.0874467  78.3203741 114.3332623  84.6105023  78.5291290
 111.9829104  78.0560527  75.9005932 111.1213583  78.3541781  76.1922670
 112.0091539  78.2730926  74.9686965 108.7990673  86.6002718  72.3079738
 109.2629019  86.8790421  71.5184360 108.5347472  85.6986163  72.1252828
 105.6914754  86.1474200  75.2459501 106.2616112  86.5761468  74.6076985
 106.2822866  85.8656784  75.9443687 107.7359559  82.7225870  69.1169303
 108.4383603  83.1746914  69.5843229 107.4040188  82.0809689  69.7449196
 106.1839921  81.3137627  83.4920512 105.5538582  81.9953908  83.7255909
 106.0776009  81.2020709  82.5473650 101.4784893  80.9809423  74.4186436
 100.6883947  81.2366952  73.9426547 101.9696141  81.7957761  74.5238477
 115.4948703  88.3214662  77.1691717 116.3166147  87.9194849  76.8874399
 115.4911106  88.2182896  78.1207833 103.4299639  81.3454002  71.3769913
 102.6330802  81.4572697  71.8953409 103.2025231  81.6840654  70.5110804
 109.2605306  87.8698705  79.3252428 109.3249739  88.3319113  80.1610600
 108.5516230  87.2396070  79.4534738  99.7622596  81.2339913  76.8501427
 100.0130635  82.1186923  77.1159003 100.2982145  81.0544515  76.0776519
 108.9753324  89.5366813  69.1931408 108.8398999  90.3818349  69.6216256
 109.5163137  89.7386091  68.4297342 105.4620664  75.6158393  85.8545763
 105.0687609  75.0624591  86.5293407 106.2786804  75.9268971  86.2452281
 102.4282721  87.0542251  69.7659333 102.9407242  87.8485501  69.9164898
 103.0805434  86.3568541  69.6992935 104.2377606  90.1708007  71.8482086
 104.4144235  91.0925972  71.6603070 105.0334440  89.8566427  72.2776466
 108.3788625  77.0316272  83.4466020 109.1198338  77.6323425  83.3670482
 108.6106548  76.2893910  82.8884062 103.5229963  82.2172639  81.7244250
 103.4083478  81.3157896  82.0251348 102.6674480  82.4636336  81.3729066
 110.6021800  90.1590379  83.3231750 110.1585655  89.3726758  83.0052655
 111.2639014  90.3469530  82.6575641 105.3608922  91.6886181  77.8492429
 105.9116347  91.5603244  77.0769423 104.5220398  91.9881070  77.4987321
 112.7003039  90.4393179  81.3513151 112.6821514  91.2602060  80.8593421
 113.6222959  90.3147255  81.5763293 109.1576093  87.9537309  82.1936660
 109.6904429  87.1925597  81.9635968 108.6290174  87.6610961  82.9360814
 112.3245788  73.0597375  77.7230302 111.9810057  73.9499017  77.6469412
 112.6924750  72.8699033  76.8599887 100.3931638  85.3830905  70.5418904
 101.2306860  85.7927914  70.3252611 100.5709906  84.4430347  70.5119098
 112.2896070  83.0505986  66.2302737 111.7742694  83.8210591  66.4691124
 112.0173379  82.3771122  66.8535798 109.8743181  77.8955687  71.2887975
 109.0184778  77.5062537  71.1093614 110.2870133  77.9747648  70.4287761
 111.4042328  75.4302030  75.6879535 110.9007124  75.3932165  74.8747340
 111.6972935  76.3394773  75.7476191 107.6485214  75.5140760  74.6945716
 108.5138211  75.3183568  74.3351606 107.7162723  75.2851112  75.6215073
 117.2630345  85.8038341  68.1655910 116.4859787  85.4649500  67.7211072
 117.9421825  85.8090964  67.4910875 112.0782374  80.9233078  68.0562518
 111.7732509  81.2379227  68.9072661 113.0312816  81.0014498  68.0989851
 110.5228805  87.0823301  69.7055472 109.9950167  86.3476061  69.3928709
 110.0216308  87.8597978  69.4595440 115.5021651  85.2772322  74.8222518
 114.8445326  85.9671583  74.9102647 116.3062051  85.6668754  75.1656504
 105.2547533  77.7442968  72.0662083 105.8291285  77.5218149  71.3335276
 105.8418515  77.8131662  72.8190685 114.3127110  83.6316695  72.8726460
 114.8258992  84.2646686  73.3748170 114.9628334  83.0317890  72.5069820
 105.5817120  79.7747429  66.0857969 104.7454432  80.1122115  66.4067243
 105.4421890  79.6396408  65.1485106 107.5570201  74.6184217  70.7937153
 106.9034613  74.3033234  70.1693767 107.5150675  73.9959957  71.5196976
 108.6681406  84.9003512  62.7090445 107.7608467  84.6692765  62.9081594
 109.1652438  84.1041131  62.8964426 111.5749484  93.6101019  65.6287131
 110.9011183  93.9132716  66.2372089 111.9615306  94.4130099  65.2792588
 110.7907941  81.1066150  75.1184800 109.8730502  81.3281097  74.9606488
 111.2068085  81.1812461  74.2596508 111.5742989  82.5057566  70.2487481
 112.3214808  83.0178963  69.9394603 111.8434578  82.1841619  71.1091874
 109.8469639  85.0016107  67.2314435 108.9380858  84.7175139  67.3286905
 109.8764723  85.4215185  66.3717742 115.0788906  88.6122696  71.0005602
 114.6251234  87.7713606  71.0570793 114.4482873  89.2484094  71.3380383
 114.0221826  79.5414682  72.2306270 113.2844583  79.0292068  72.5616512
 114.2748600  79.1015064  71.4189547 113.5221846  90.4499193  71.9355421
 113.8144820  91.0104250  71.2167786 114.0320466  90.7427754  72.6908580
 114.1233453  72.3190934  72.8248039 114.4292330  71.4588297  72.5373954
 114.8486058  72.9108554  72.6247033 100.4157809  82.7221621  71.2129637
 100.2182209  82.1290981  70.4880704  99.8604473  82.4173831  71.9305576
 108.3954533  82.6144727  73.3324230 108.4503143  81.6618564  73.2566707
 107.5845735  82.7704166  73.8165529 109.5445727  86.5424850  64.5702513
 109.1065157  85.8260709  64.1108151 110.2856168  86.7700965  64.0087605
 106.3346893  81.2321787  71.0914609 105.5214759  81.5315957  71.4979801
 106.8305887  80.8377476  71.8089091 108.4855471  91.2279544  73.0248874
 108.4431650  91.4540390  72.0957406 109.4018170  90.9942918  73.1734675
 111.9321105  81.6963611  79.9229503 112.2870492  81.9235084  80.7823969
 112.5793236  82.0281988  79.3006758 117.6618842  84.8182047  70.6278832
 117.5236740  85.0083643  69.7000021 117.3055060  85.5801430  71.0846883
 105.8260968  78.8040142  76.7075844 106.4660347  78.6628901  76.0098807
 104.9938498  78.5174656  76.3314446 117.6888221  86.8858574  75.6390104
 118.1224728  86.7933863  76.4873158 118.4019802  86.8616075  75.0010120
 106.6021272  88.1042573  72.8210837 107.3961870  87.6092893  72.6193411
 105.8912964  87.5760436  72.4578542 111.4216116  90.4860668  77.1723204
 111.4753138  91.0551605  77.9400920 110.5530897  90.6562553  76.8077241
 102.9104035  82.2485655  68.8970589 101.9801623  82.1870110  69.1140551
 103.0061507  81.7261607  68.1007230 102.8289584  78.7740467  71.4848831
 103.0896401  79.6885801  71.3757991 103.6506756  78.3064910  71.6345444
 104.3014509  80.1878225  78.6547655 104.9737563  79.9795587  78.0060304
 103.4744296  79.9900311  78.2152888 118.5503771  86.9282275  78.1722989
 118.7439661  87.8328085  78.4182264 118.4504389  86.4689694  79.0061574
 110.2040081  76.8140165  80.6713316 109.5567997  77.5130115  80.5777793
 110.9741097  77.2476309  81.0389564 113.6118879  87.0789018  83.7463870
 113.4604386  86.8499569  82.8293953 113.6023559  88.0359619  83.7595215
 110.3804216  84.6520930  78.7310136 111.3096276  84.8032090  78.5579103
 109.9595246  84.7404951  77.8758783 109.1792548  88.6771595  76.5008674
 109.0403633  88.3090379  77.3734612 108.3907144  89.1919234  76.3292631
 109.7740700  93.7780691  67.8434210 109.9492455  93.3068734  68.6579833
 109.0873488  94.4046457  68.0715471 110.7297763  88.0553197  73.8897511
 110.3947595  88.0153967  74.7855161 110.2301708  87.3897913  73.4167922
 104.7042007  83.4620828  79.4150093 104.5661805  82.7301066  80.0161632
 105.6146930  83.3729728  79.1334280 113.6656954  85.4009232  64.1634571
 113.0486125  84.6756060  64.0667624 113.1973443  86.1618592  63.8201645
 107.3324307  83.1740787  78.9033772 108.0423926  82.5333979  78.8620391
 107.2893616  83.4253682  79.8259953 115.3211086  90.1108140  81.8240351
 115.2623632  89.4267360  81.1570934 115.7230604  90.8527130  81.3720977
 106.0453241  80.1606005  80.7229412 105.5090598  79.7096743  81.3751008
 105.4569950  80.2951914  79.9799876 104.3401785  96.9270054  74.6174070
 104.5798383  97.5588578  75.2953089 103.4970981  96.5758094  74.9039430
 105.4555500  79.6194656  63.2855875 104.5784967  79.4983457  62.9218122
 105.9313253  78.8280734  63.0334764 115.3228493  88.0747724  80.0554331
 114.4355272  87.7373646  80.1780730 115.8927044  87.3430755  80.2923096
  96.9757640  84.4071816  73.3797382  97.6628680  84.0933546  72.7918398
  96.8205769  85.3113181  73.1064634 101.7792363  79.2962012  77.8082406
 101.6950551  78.6887682  77.0732816 100.9575069  79.7871031  77.8091903
 108.8529647  92.7349176  77.0215574 108.7799818  93.5404148  77.5334879
 108.4107040  92.9341142  76.1963596 108.6419426  91.9720947  70.5318396
 107.8586948  92.5142627  70.6256620 109.3412172  92.4894926  70.9312637
 111.9516076  77.7815576  73.1752601 112.4484776  77.0285538  72.8553671
 111.1803058  77.8179893  72.6095811 119.8045834  83.4855941  74.8170893
 119.7935710  84.3680657  74.4464826 118.9363213  83.1327492  74.6225430
 111.3128330  92.6336011  79.1773733 112.0256302  93.2683475  79.1049634
 110.8218359  92.7299876  78.3613735 113.0345857  86.5387263  70.7491025
 112.1002136  86.6588726  70.5795729 113.2122526  85.6359730  70.4851034
 108.5351045  79.9232959  72.9024286 108.1648833  79.3703999  73.5905191
 109.0310138  79.3191092  72.3499286 116.4218409  82.3804582  71.2841059
 116.8878861  83.2132574  71.2101361 116.8725909  81.9149564  71.9886317
 106.3640244  90.3830454  79.9979304 107.0649703  91.0166937  80.1508698
 105.8935359  90.7245186  79.2374943 114.4894640  88.7248404  68.2827211
 114.7654484  88.6104998  69.1921085 113.6199138  88.3265889  68.2439384
 114.3935071  74.7485169  75.3231960 113.4798151  74.9789396  75.4914167
 114.8228173  74.8323614  76.1745992 114.1641530  82.9375061  77.8231854
 113.5112980  83.1850969  77.1684307 114.5421910  82.1239200  77.4894331
 111.1248704  92.9734755  71.9260024 111.3071098  92.1556411  72.3887777
 111.9481690  93.1902447  71.4884914 111.4590869  91.9002940  69.1875073
 111.9878636  91.3895394  68.5745235 111.7219089  91.5845470  70.0520606
 110.2129103  83.6794872  84.3097891 109.5369740  83.5789002  84.9800266
 111.0356737  83.5234086  84.7733888 101.9607962  89.9166809  76.9310406
 102.5461399  89.1710497  77.0638311 101.7632800  90.2270766  77.8147070
 104.8146617  92.9518056  71.9472849 104.1456992  93.4364184  71.4636889
 104.6759487  93.1987277  72.8616227  96.5525617  82.4872409  75.6514850
  96.5909716  81.9536000  76.4451968  96.0465909  81.9607615  75.0325827
 108.9551886  94.9861800  78.5455507 109.5070194  95.1493421  79.3104592
 109.2958079  95.5766238  77.8735532 103.9316379  77.3336950  79.1477392
 103.9957705  78.1951781  78.7354790 103.8683499  76.7210951  78.4149750
 103.4068651  79.4060082  82.7950426 104.0340690  79.0237160  83.4087950
 102.5496570  79.1874284  83.1606119 113.8062760  89.8123057  84.4004162
 114.3502664  90.4253016  83.9059116 113.2249605  90.3702636  84.9171175
 100.1834194  81.2136511  68.7268781 100.4787635  80.3047190  68.6735835
  99.2822230  81.1924251  68.4049783 112.0920273  92.9343775  75.5319189
 111.9671412  92.1333515  75.0230135 112.7499364  93.4289969  75.0433159
 103.7128441  79.2892508  74.7096330 102.9915027  79.9028476  74.5703803
 104.5021697  79.8250273  74.6312976 114.1555181  90.7352796  77.1598739
 113.2085517  90.6158147  77.0877066 114.5037954  89.8475294  77.2425001
 106.5154755  76.6246934  80.9836981 107.0389157  76.8709231  81.7463291
 106.2967088  77.4566969  80.5640119 101.9122036  78.8950609  68.8508106
 101.5834742  78.0147988  68.6683212 102.2661406  78.8398278  69.7384495
 111.1601615  90.5305512  73.3603092 111.0126577  89.6022219  73.5410662
 111.9855108  90.5525602  72.8760167 105.0263859  79.1823579  69.2183584
 105.3659931  79.7109500  68.4962192 105.4735979  79.5203985  69.9942150
 114.7635736  91.3534070  74.4467964 115.6882284  91.1476932  74.3092416
 114.5951040  91.1050472  75.3557306 107.7207300  77.5660630  78.6686652
 107.3804120  76.7668443  79.0707332 107.0146306  77.8662340  78.0963485
 108.3723772  74.6509942  77.1213975 109.1949841  74.1770420  76.9992865
 108.6161835  75.4300426  77.6212661 107.0132006  77.6798200  67.4176877
 107.7340369  78.0579453  66.9140593 106.3897310  78.3987077  67.5211855
 111.1563129  78.3843349  68.3535209 111.3726743  79.2667987  68.0524037
 110.6757196  77.9929563  67.6240851 105.8962350  81.3429063  74.9305954
 105.7506931  81.6569366  75.8230235 105.4187554  81.9613963  74.3776852
 107.7558733  78.3331611  74.9786843 107.7420302  77.4372704  74.6419141
 108.4731161  78.3402274  75.6125129 109.6084864  78.7668951  77.0239971
 109.3502642  79.6886021  77.0224301 109.0769904  78.3699385  77.7140435
 114.5531053  91.8719738  69.8030056 114.7267930  91.3066160  69.0503908
 115.0459944  92.6720633  69.6209546 100.3708012  83.8834407  77.8693615
  99.8261481  84.6594215  78.0013889 101.2487362  84.2305211  77.7112736
 107.1595629  77.2145991  70.2474413 107.2811540  76.2862637  70.4465301
 106.8697672  77.2284677  69.3352729 110.0286820  74.9000901  73.3841133
 110.0508516  74.9640234  72.4293113 110.4454879  74.0605410  73.5781639
 120.4070444  84.6356161  71.4220356 120.8501590  83.8863486  71.0239479
 119.5296954  84.6266297  71.0394088 115.5406225  91.1886502  66.9026954
 116.2357130  91.8093195  67.1214269 115.8829375  90.3381854  67.1779332
 101.1574034  83.0104303  80.7623772 100.4155770  83.1586939  81.3488402
 100.8366779  83.2712569  79.8990521 117.4397648  88.6386208  68.4314285
 117.9648972  88.9773481  67.7063605 117.3520001  87.7033223  68.2477420
 109.1017697  92.5520282  80.5604162 109.4104823  92.3069428  81.4326861
 109.8993179  92.7566920  80.0723032 109.1238309  94.7058191  72.7909538
 108.6843299  94.2134570  73.4842395 109.8746426  94.1631159  72.5501613
 101.6030648  90.8969732  72.7934166 102.4288668  90.5973504  72.4132810
 101.2524700  90.1277354  73.2423955 106.5712181  90.2496200  74.8631840
 105.9492190  89.5866905  74.5634068 107.2417048  90.2757332  74.1805488
  99.8039253  88.8156058  73.7523100  98.9671161  88.3878233  73.5707101
  99.7762898  89.0088502  74.6893891 106.6436709  78.7277988  84.4564346
 106.6924864  79.6040111  84.0742115 107.1859223  78.1855381  83.8835989
 117.1291554  89.2719112  83.7365483 116.3387098  89.2543250  83.1969982
 116.8924909  89.8107405  84.4914519 117.2489429  86.1211578  81.0498211
 117.2987434  85.9561585  81.9913734 117.1403353  85.2538837  80.6596092
 106.1325688  88.8000124  68.3390300 106.2813808  89.4835588  67.6856973
 106.9392132  88.7805214  68.8539756 114.5393192  82.1042506  82.3657518
 115.4403055  81.9648971  82.0741516 114.6141166  82.2696961  83.3055696
 108.8735997  79.4809361  81.2110704 108.0039307  79.7742927  80.9393293
 109.1095477  80.0649806  81.9317968 118.7507626  88.5408519  81.2940233
 118.4592435  88.9038500  82.1303694 118.1379758  87.8275528  81.1153565
 119.9503309  86.1061399  73.8142803 120.7850200  86.5451203  73.9780364
 120.0862437  85.6300052  72.9951049 116.9994814  83.6641134  79.7620291
 117.4748936  83.8568780  78.9539142 116.0760380  83.7200320  79.5163675
 103.8878321  84.8265301  69.3451369 103.6424363  83.9227631  69.5431579
 104.0574236  84.8282452  68.4030847 111.5775031  75.6988978  78.7276125
 112.0956975  76.4350005  78.4022613 111.2230164  76.0052971  79.5622884
 103.1573969  80.5593659  66.8437531 102.4643214  80.6338014  66.1877567
 102.9125721  79.7954002  67.3659048 111.8287625  72.1189260  74.2477021
 112.1089379  71.4512449  74.8737448 112.6138232  72.3118356  73.7351685
 109.6321094  91.2948254  65.8102048 109.0595061  91.9138441  65.3572520
 110.2053887  91.8447616  66.3441970 115.6996483  80.5406894  77.9948597
 116.6513906  80.6404992  78.0160821 115.5299934  79.7485163  78.5046681
 113.7210863  77.6262477  78.1807997 113.1260795  77.9067490  77.4854486
 113.4360560  78.1156378  78.9524739 112.8518353  91.5785404  66.9410630
 113.7849027  91.5130966  67.1443506 112.7641566  92.4141671  66.4825163
 115.4806370  90.8951275  63.9014578 115.4020002  90.5611138  64.7950336
 116.3016037  91.3873042  63.9006050 118.1784561  83.7613014  77.1090896
 118.1460881  82.8229015  77.2950580 118.7885185  83.8397051  76.3756721
 110.0167892  82.6309067  63.1518100 110.9626997  82.5015275  63.2206518
 109.6382137  81.8923729  63.6287528 118.3279050  80.5524057  77.1549179
 117.8118098  79.7682514  76.9679108 119.2118998  80.2242774  77.3195699
 115.9889777  74.2965073  73.1144992 115.7914598  73.9880161  73.9988324
 116.5989482  75.0226712  73.2442922 109.9006585  86.6826813  84.6118757
 110.8209594  86.8605412  84.8058804 109.8656168  85.7382858  84.4598456
 108.2010809  80.5559043  63.0872985 107.2942265  80.2592156  63.1635699
 108.4786790  80.2588861  62.2207272  99.1188750  81.8765407  73.5372032
  98.7991534  81.0230715  73.2446406  98.5722178  82.0913985  74.2929999
 102.8968657  84.5927848  77.2541538 103.1154667  85.5244955  77.2729572
 103.3094431  84.2335822  78.0396342 109.8172875  75.0995933  69.2417227
 109.0073603  74.7543018  69.6172473 110.5057292  74.7903477  69.8304838
 111.7463423  74.1773980  70.8641523 112.2994462  74.5969433  71.5231547
 111.9833510  73.2509728  70.9064479 107.7696523  80.1661053  86.6444287
 107.6693249  81.1155410  86.5756378 107.5518065  79.8379292  85.7720357
 106.9709594  77.4145978  63.2284965 107.8328758  77.7400877  63.4880782
 107.1559938  76.6277474  62.7158030  98.9877010  85.4968318  75.5065153
  98.2940481  85.0822271  74.9935108  99.7350001  85.5388855  74.9098572
 115.1242230  76.2874505  70.3720188 114.5440899  76.9459309  69.9898240
 114.8578163  75.4651849  69.9607605 113.5745797  75.6879563  72.5741508
 114.0745575  75.7996097  71.7655827 114.2181405  75.3840615  73.2142316
 107.6327793  83.5958192  85.4609349 107.1494874  84.3958552  85.6673238
 107.7188732  83.6066137  84.5076793 100.9013752  85.4286572  73.3831168
 100.8784440  85.5274259  72.4313051 101.2114389  86.2751723  73.7048334
 103.5601130  87.4862727  77.4977783 104.5144384  87.4546669  77.4307714
 103.3613654  87.0253351  78.3128009 104.1500512  86.0563843  80.0648580
 104.9693401  86.5507922  80.0883418 104.4237320  85.1395811  80.0366148
 113.9067108  78.4474595  69.4276536 113.0192963  78.7324246  69.2096731
 114.3221097  78.2868359  68.5803813 117.2581645  78.4721116  73.1430875
 118.0342035  78.9617569  73.4155492 116.5329779  78.8979170  73.6002745
 119.6954203  79.1848735  74.2004816 120.2898694  78.9444471  73.4898124
 119.7680787  78.4655866  74.8278352 101.9151359  93.0282346  74.5147981
 101.7805827  92.2682747  73.9485979 101.4983421  93.7523246  74.0476770
 113.0510322  88.2119270  63.5224556 113.7546172  88.4169272  64.1382212
 112.3272971  88.7796032  63.7873639 113.8808132  83.9629131  69.6426826
 113.8243334  84.4197683  68.8034459 114.4336475  83.2019816  69.4649669
 117.6912938  79.7518863  70.4676946 117.4349872  79.3515499  71.2985153
 117.0665806  80.4662657  70.3427085 105.0720485  93.9251663  74.7266423
 104.9552869  94.8697096  74.6245114 104.2512931  93.6225225  75.1152222
 114.9597019  88.6501799  65.5723016 115.7942623  88.2182998  65.3900491
 114.7981362  88.4783813  66.4999910 114.6142911  85.1533912  66.9379355
 114.5591715  84.9878184  65.9967799 113.9888967  85.8609945  67.0941545
  99.4035426  80.3901977  80.7640777 100.0494290  79.8800931  81.2528003
  99.1952578  81.1270658  81.3384203 111.9288819  87.4582824  86.2632918
 112.7979978  87.6323477  85.9019553 111.4495570  88.2777241  86.1408647
 107.9239037  74.6542021  66.5164674 107.9117707  75.5983861  66.6732945
 108.8162459  74.4712167  66.2224135 106.0974999  94.5779925  77.9422352
 107.0002246  94.6103536  78.2588847 105.8712369  93.6480376  77.9568687
 107.8528601  93.3310912  74.6032430 106.9024232  93.3312773  74.4896803
 108.1561087  92.5843646  74.0868465 111.7391156  71.2484798  70.7710610
 110.9723552  70.6943285  70.9167293 112.1501861  71.3206667  71.6324762
 103.7432917  77.5369594  84.8615792 104.6064379  77.1806399  85.0719116
 103.1698328  77.1983489  85.5491196 120.3971001  99.1198878  75.6039717
 120.0589512  99.0039943  74.7160252 121.2660769  98.7190043  75.5840724
 116.2557816 100.9734355  71.5936608 115.6922681 100.8824292  70.8252896
 116.1410211 100.1534259  72.0739101 120.8790784 100.2733730  81.5625923
 120.8679424  99.8786528  80.6906427 121.0411423  99.5399803  82.1559694
 113.8022248 102.4685546  74.4320829 114.5943540 102.1276371  74.0167128
 114.0418898 102.5780521  75.3522982 115.7613002 101.7294460  67.3038208
 116.5343878 101.1823447  67.1651083 116.1138401 102.5938709  67.5152669
 117.5998045 103.0570842  80.5105107 117.3087911 103.9616473  80.3951773
 118.2355029 103.0987369  81.2249176 118.5254252 100.4347690  77.1006467
 119.1217824 100.2103713  76.3863430 118.5829223  99.6932436  77.7031914
 118.0979280  97.8887126  64.9356658 118.3504801  97.3668647  64.1740121
 117.1603839  97.7253271  65.0383341 117.8175569  99.7915232  67.1381032
 117.7011827  99.1160135  67.8062117 117.9277829  99.3047606  66.3213186
 120.1607110  99.2525379  70.8427722 119.7965317  98.7256000  71.5540643
 121.0174226  98.8623848  70.6694207 119.8012597  94.2815278  65.8389070
 119.9686999  95.1495515  66.2059541 119.6109766  94.4442560  64.9150359
 116.0100411  99.1946054  73.5391605 115.0850908  99.0622268  73.7469297
 116.2584825  99.9740273  74.0361547 119.7801818  96.7372936  66.8235737
 119.6601443  97.1829987  67.6621217 119.0854406  97.0858254  66.2649275
 113.3709222  98.8379328  74.3735394 113.5001604  99.0913807  75.2874806
 112.6906674  99.4307036  74.0540049 120.0325939  96.6804443  83.1287235
 119.2559273  97.2398363  83.1190100 120.6716502  97.1661226  83.6502105
 118.2872312  99.4889896  82.6905202 119.0286996 100.0274940  82.4140026
 117.5809297 100.1156185  82.8476754 120.1158721  96.5691644  78.6610921
 120.9619917  96.9931057  78.8045570 120.0557359  95.9125268  79.3549484
 119.6384428 101.9294636  72.3079738 120.1022773 102.2082339  71.5184360
 119.3741226 101.0278080  72.1252828 116.5308509 101.4766117  75.2459501
 117.1009866 101.9053386  74.6076985 117.1216621 101.1948702  75.9443687
 118.5753314  98.0517788  69.1169303 119.2777357  98.5038832  69.5843229
 118.2433942  97.4101607  69.7449196 117.0233675  96.6429545  83.4920512
 116.3932336  97.3245826  83.7255909 116.9169763  96.5312626  82.5473650
 112.3178648  96.3101341  74.4186436 111.5277702  96.5658869  73.9426547
 112.8089895  97.1249679  74.5238477 114.2693393  96.6745920  71.3769913
 113.4724557  96.7864614  71.8953409 114.0418985  97.0132572  70.5110804
 120.0999061 103.1990623  79.3252428 120.1643493 103.6611030  80.1610600
 119.3909985 102.5687988  79.4534738 110.6016351  96.5631831  76.8501427
 110.8524389  97.4478841  77.1159003 111.1375899  96.3836433  76.0776519
 116.3014418  90.9450311  85.8545763 115.9081364  90.3916509  86.5293407
 117.1180559  91.2560889  86.2452281 113.2676476 102.3834169  69.7659333
 113.7800997 103.1777419  69.9164898 113.9199189 101.6860459  69.6992935
 115.0771361 105.4999925  71.8482086 115.2537989 106.4217890  71.6603070
 115.8728194 105.1858344  72.2776466 119.2182379  92.3608190  83.4466020
 119.9592093  92.9615343  83.3670482 119.4500302  91.6185827  82.8884062
 114.3623717  97.5464557  81.7244250 114.2477232  96.6449814  82.0251348
 113.5068235  97.7928254  81.3729066 116.2002676 107.0178099  77.8492429
 116.7510101 106.8895162  77.0769423 115.3614152 107.3172988  77.4987321
 119.9969847 103.2829227  82.1936660 120.5298184 102.5217515  81.9635968
 119.4683928 102.9902878  82.9360814 111.2325393 100.7122823  70.5418904
 112.0700615 101.1219831  70.3252611 111.4103660  99.7722265  70.5119098
 120.7136936  93.2247604  71.2887975 119.8578532  92.8354455  71.1093614
 121.1263888  93.3039565  70.4287761 118.4878968  90.8432677  74.6945716
 119.3531965  90.6475486  74.3351606 118.5556477  90.6143029  75.6215073
 121.3622560 102.4115219  69.7055472 120.8343921 101.6767979  69.3928709
 120.8610063 103.1889895  69.4595440 116.0941287  93.0734885  72.0662083
 116.6685039  92.8510067  71.3335276 116.6812270  93.1423580  72.8190685
 116.4210875  95.1039346  66.0857969 115.5848187  95.4414033  66.4067243
 116.2815644  94.9688326  65.1485106 118.3963955  89.9476134  70.7937153
 117.7428368  89.6325151  70.1693767 118.3544429  89.3251875  71.5196976
 119.5075160 100.2295429  62.7090445 118.6002222  99.9984683  62.9081594
 120.0046192  99.4333049  62.8964426 120.6863393 100.3308024  67.2314435
 119.7774613 100.0467057  67.3286905 120.7158477 100.7507103  66.3717742
 111.2551564  98.0513538  71.2129637 111.0575964  97.4582899  70.4880704
 110.6998228  97.7465749  71.9305576 119.2348288  97.9436645  73.3324230
 119.2896897  96.9910481  73.2566707 118.4239490  98.0996084  73.8165529
 120.3839481 101.8716768  64.5702513 119.9458911 101.1552627  64.1108151
 121.1249922 102.0992883  64.0087605 117.1740647  96.5613705  71.0914609
 116.3608513  96.8607875  71.4979801 117.6699642  96.1669393  71.8089091
 116.6654722  94.1332060  76.7075844 117.3054102  93.9920819  76.0098807
 115.8332253  93.8466573  76.3314446 117.4415026 103.4334490  72.8210837
 118.2355625 102.9384811  72.6193411 116.7306719 102.9052354  72.4578542
 113.7497790  97.5777572  68.8970589 112.8195378  97.5162028  69.1140551
 113.8455262  97.0553525  68.1007230 113.6683339  94.1032385  71.4848831
 113.9290156  95.0177718  71.3757991 114.4900511  93.6356828  71.6345444
 115.1408264  95.5170142  78.6547655 115.8131317  95.3087504  78.0060304
 114.3138050  95.3192228  78.2152888 120.0186302 104.0063512  76.5008674
 119.8797388 103.6382297  77.3734612 119.2300898 104.5211152  76.3292631
 121.5691517 103.3845115  73.8897511 121.2341350 103.3445885  74.7855161
 121.0695463 102.7189831  73.4167922 115.5435761  98.7912745  79.4150093
 115.4055559  98.0592984  80.0161632 116.4540685  98.7021645  79.1334280
 118.1718062  98.5032705  78.9033772 118.8817680  97.8625897  78.8620391
 118.1287370  98.7545599  79.8259953 116.8846996  95.4897922  80.7229412
 116.3484353  95.0388661  81.3751008 116.2963704  95.6243831  79.9799876
 116.2949255  94.9486574  63.2855875 115.4178721  94.8275375  62.9218122
 116.7707008  94.1572652  63.0334764 107.8151395  99.7363734  73.3797382
 108.5022435  99.4225464  72.7918398 107.6599524 100.6405098  73.1064634
 112.6186117  94.6253930  77.8082406 112.5344306  94.0179600  77.0732816
 111.7968824  95.1162948  77.8091903 119.3744800  95.2524877  72.9024286
 119.0042587  94.6995917  73.5905191 119.8703892  94.6483010  72.3499286
 117.2033998 105.7122372  79.9979304 117.9043458 106.3458855  80.1508698
 116.7329113 106.0537103  79.2374943 112.8001716 105.2458727  76.9310406
 113.3855153 104.5002415  77.0638311 112.6026555 105.5562683  77.8147070
 107.3919371  97.8164327  75.6514850 107.4303471  97.2827918  76.4451968
 106.8859664  97.2899532  75.0325827 114.7710133  92.6628867  79.1477392
 114.8351460  93.5243698  78.7354790 114.7077254  92.0502869  78.4149750
 114.2462406  94.7352000  82.7950426 114.8734445  94.3529077  83.4087950
 113.3890325  94.5166202  83.1606119 111.0227949  96.5428429  68.7268781
 111.3181390  95.6339107  68.6735835 110.1215984  96.5216169  68.4049783
 114.5522196  94.6184426  74.7096330 113.8308781  95.2320393  74.5703803
 115.3415451  95.1542190  74.6312976 117.3548509  91.9538852  80.9836981
 117.8782911  92.2001149  81.7463291 117.1360842  92.7858887  80.5640119
 112.7515790  94.2242527  68.8508106 112.4228496  93.3439906  68.6683212
 113.1055161  94.1690195  69.7384495 115.8657613  94.5115497  69.2183584
 116.2053686  95.0401418  68.4962192 116.3129734  94.8495903  69.9942150
 118.5601054  92.8952547  78.6686652 118.2197875  92.0960360  79.0707332
 117.8540061  93.1954258  78.0963485 119.2117526  89.9801860  77.1213975
 120.0343595  89.5062338  76.9992865 119.4555590  90.7592343  77.6212661
 117.8525761  93.0090118  67.4176877 118.5734123  93.3871371  66.9140593
 117.2291065  93.7278995  67.5211855 116.7356105  96.6720980  74.9305954
 116.5900686  96.9861283  75.8230235 116.2581308  97.2905881  74.3776852
 118.5952488  93.6623528  74.9786843 118.5814056  92.7664622  74.6419141
 119.3124916  93.6694192  75.6125129 120.4478618  94.0960868  77.0239971
 120.1896396  95.0177939  77.0224301 119.9163659  93.6991303  77.7140435
 111.2101767  99.2126325  77.8693615 110.6655235  99.9886133  78.0013889
 112.0881117  99.5597129  77.7112736 117.9989384  92.5437909  70.2474413
 118.1205295  91.6154555  70.4465301 117.7091426  92.5576595  69.3352729
 120.8680574  90.2292819  73.3841133 120.8902271  90.2932152  72.4293113
 121.2848633  89.3897328  73.5781639 111.9967789  98.3396221  80.7623772
 111.2549525  98.4878856  81.3488402 111.6760533  98.6004487  79.8990521
 112.4424403 106.2261650  72.7934166 113.2682422 105.9265422  72.4132810
 112.0918455 105.4569272  73.2423955 117.4105936 105.5788118  74.8631840
 116.7885945 104.9158823  74.5634068 118.0810803 105.6049250  74.1805488
 110.6433008 104.1447976  73.7523100 109.8064916 103.7170151  73.5707101
 110.6156653 104.3380419  74.6893891 117.4830463  94.0569906  84.4564346
 117.5318619  94.9332029  84.0742115 118.0252977  93.5147299  83.8835989
 116.9719443 104.1292041  68.3390300 117.1207563 104.8127506  67.6856973
 117.7785886 104.1097131  68.8539756 119.7129752  94.8101278  81.2110704
 118.8433061  95.1034844  80.9393293 119.9489232  95.3941723  81.9317968
 114.7272076 100.1557219  69.3451369 114.4818118  99.2519549  69.5431579
 114.8967990 100.1574369  68.4030847 113.9967723  95.8885576  66.8437531
 113.3036968  95.9629931  66.1877567 113.7519475  95.1245920  67.3659048
 119.0404564  95.8850961  63.0872985 118.1336019  95.5884074  63.1635699
 119.3180545  95.5880779  62.2207272 109.9582504  97.2057324  73.5372032
 109.6385288  96.3522632  73.2446406 109.4115932  97.4205902  74.2929999
 113.7362412  99.9219765  77.2541538 113.9548421 100.8536873  77.2729572
 114.1488186  99.5627740  78.0396342 120.6566629  90.4287851  69.2417227
 119.8467358  90.0834936  69.6172473 121.3451046  90.1195394  69.8304838
 118.6090277  95.4952971  86.6444287 118.5087004  96.4447328  86.5756378
 118.3911819  95.1671210  85.7720357 117.8103348  92.7437896  63.2284965
 118.6722512  93.0692794  63.4880782 117.9953693  91.9569392  62.7158030
 109.8270764 100.8260236  75.5065153 109.1334236 100.4114189  74.9935108
 110.5743755 100.8680772  74.9098572 118.4721547  98.9250110  85.4609349
 117.9888629  99.7250470  85.6673238 118.5582486  98.9358055  84.5076793
 111.7407507 100.7578490  73.3831168 111.7178195 100.8566177  72.4313051
 112.0508143 101.6043640  73.7048334 114.3994885 102.8154645  77.4977783
 115.3538138 102.7838587  77.4307714 114.2007408 102.3545268  78.3128009
 114.9894267 101.3855761  80.0648580 115.8087156 101.8799839  80.0883418
 115.2631074 100.4687729  80.0366148 112.7545113 108.3574264  74.5147981
 112.6199581 107.5974665  73.9485979 112.3377176 109.0815164  74.0476770
 110.2429181  95.7193894  80.7640777 110.8888045  95.2092848  81.2528003
 110.0346332  96.4562576  81.3384203 118.7632791  89.9833939  66.5164674
 118.7511461  90.9275779  66.6732945 119.6556213  89.8004085  66.2224135
 114.5826672  92.8661512  84.8615792 115.4458133  92.5098316  85.0719116
 114.0092083  92.5275406  85.5491196  52.5046184  -5.4612806  57.1971175
  52.4270214  -4.5104981  57.2759656  51.9007828  -5.8066933  57.8546101
  50.1433014  -2.7127412  61.3419377  50.3829612  -2.0808888  62.0198396
  49.3002210  -3.0639372  61.6284736  50.6177846  -6.6879409  58.6718155
  49.9488221  -6.2033282  58.1882196  50.4790716  -6.4410189  59.5861534
  54.7583114  -4.6535666  65.2700814  55.3101423  -4.4904044  66.0349899
  55.0989308  -4.0631228  64.5980839  47.7182588  -6.6115119  61.2393287
  47.5837056  -7.3714719  60.6731285  47.3014650  -5.8874220  60.7722076
  50.8751714  -5.7145802  61.4511730  50.7584098  -4.7700370  61.3490420
  50.0544160  -6.0172241  61.8397529  51.9006228  -5.0617541  64.6667658
  52.8033474  -5.0293930  64.9834153  51.6743598  -5.9917090  64.6813994
  66.2002229  -0.5198587  62.3285024  65.8620741  -0.6357523  61.4405559
  67.0691998  -0.9207422  62.3086030  62.0589045   1.3336889  58.3181915
  61.4953910   1.2426826  57.5498203  61.9441440   0.5136793  58.7984408
  66.6822012   0.6336264  68.2871230  66.6710653   0.2389063  67.4151733
  66.8442652  -0.0997663  68.8805001  59.6053477   2.8288081  61.1566135
  60.3974769   2.4878905  60.7412435  59.8450127   2.9383056  62.0768289
  67.6388604   5.0007857  53.6296380  66.9876584   5.5861937  53.2430394
  68.4332967   5.5314052  53.6891417  61.5644231   2.0896994  54.0283514
  62.3375107   1.5425981  53.8896390  61.9169630   2.9541243  54.2397976
  63.4029274   3.4173376  67.2350414  63.1119140   4.3219007  67.1197080
  64.0386258   3.4589904  67.9494483  64.3285480   0.7950225  63.8251773
  64.9249053   0.5706247  63.1108736  64.3860452   0.0534970  64.4277221
  69.1163869   2.6898289  54.1665364  68.4809702   2.7632915  54.8786269
  68.7861275   3.2791887  53.4884443  63.6206798   0.1517766  53.8626339
  63.5043056  -0.5237331  54.5307423  63.7309057  -0.3349860  53.0458492
  65.9638339  -0.3872087  57.5673028  65.5996546  -0.9141466  58.2785950
  66.8205454  -0.7773618  57.3939514  68.3619159   3.1034792  64.2300207
  68.0619882   4.0059830  64.1216014  68.0170218   2.8366975  65.0821360
  61.8131640  -0.4451412  60.2636912  60.8882137  -0.5775197  60.4714603
  62.0616053   0.3342808  60.7606854  59.1740451  -0.8018138  61.0980701
  59.3032832  -0.5483659  62.0120112  58.4937902  -0.2090430  60.7785356
  63.3439938   9.8679112  57.1971175  63.2663968  10.8186937  57.2759656
  62.7401582   9.5224984  57.8546101  64.0903541  -0.1507569  69.4150509
  64.8318225   0.3877475  69.1385332  63.3840526   0.4758719  69.5722061
  69.5658880   1.9921571  68.0122670  69.9742236   1.5503982  67.2677303
  68.8436142   1.4174199  68.2656863  69.8887695   2.5522762  61.7674959
  69.2596557   2.7168476  61.0651027  69.5013357   2.9664371  62.5385923
  73.7676927   3.4877200  59.1219323  73.0827965   3.8676101  58.5716356
  73.8520776   4.0972526  59.8551271  71.0227858   1.1337159  65.7214666
  71.2344754   1.7768919  65.0449048  70.9757607   0.2999475  65.2536597
  65.4415657   2.2897170  59.0325044  65.9054002   2.5684873  58.2429667
  65.1772455   1.3880614  58.8498135  62.3339738   1.8368651  61.9704808
  62.9041095   2.2655920  61.3322292  62.9247850   1.5551236  62.6688993
  58.1209877  -3.3296125  61.1431743  57.3308931  -3.0738597  60.6671854
  58.6121124  -2.5147787  61.2483784  72.1373686   4.0109114  63.8937024
  72.9591130   3.6089301  63.6119705  72.1336089   3.9077348  64.8453140
  60.0724622  -2.9651546  58.1015220  59.2755785  -2.8532852  58.6198715
  59.8450214  -2.6264894  57.2356110  65.9030290   3.5593157  66.0497734
  65.9674722   4.0213565  66.8855906  65.1941214   2.9290522  66.1780044
  56.4047580  -3.0765635  63.5746734  56.6555618  -2.1918625  63.8404310
  56.9407128  -3.2561033  62.8021826  65.6178307   5.2261265  55.9176715
  65.4823982   6.0712801  56.3461562  66.1588120   5.4280543  55.1542648
  59.0707705   2.7436703  56.4904640  59.5832225   3.5379953  56.6410204
  59.7230418   2.0462993  56.4238241  60.8802589   5.8602459  58.5727393
  61.0569218   6.7820424  58.3848377  61.6759423   5.5460878  59.0021773
  60.1654946  -2.0932909  68.4489556  60.0508461  -2.9947652  68.7496655
  59.3099464  -1.8469212  68.0974373  67.2446784   5.8484831  70.0477057
  66.8010638   5.0621210  69.7297961  67.9063997   6.0363982  69.3820948
  62.0033905   7.3780633  64.5737735  62.5541330   7.2497696  63.8014729
  61.1645381   7.6775522  64.2232628  69.3428022   6.1287631  68.0758458
  69.3246497   6.9496512  67.5838727  70.2647942   6.0041707  68.3008599
  65.8001076   3.6431761  68.9181966  66.3329413   2.8820049  68.6881274
  65.2715157   3.3505413  69.6606121  57.0356622   1.0725357  57.2664210
  57.8731844   1.4822366  57.0497918  57.2134889   0.1324799  57.2364404
  67.1653789   2.7717753  56.4300778  66.6375150   2.0370513  56.1174016
  66.6641291   3.5492430  56.1840747  72.1446635   0.9666774  61.5467825
  71.4870309   1.6566035  61.6347953  72.9487034   1.3563206  61.8901811
  65.3106389   0.5897964  49.4335751  64.4033451   0.3587217  49.6326900
  65.8077421  -0.2064417  49.6209733  68.2174468   9.2995471  52.3532438
  67.5436167   9.6027167  52.9617395  68.6040290  10.1024551  52.0037895
  66.4894622   0.6910558  53.9559742  65.5805842   0.4069591  54.0532211
  66.5189706   1.1109637  53.0963048  71.7213890   4.3017148  57.7250909
  71.2676217   3.4608058  57.7816100  71.0907856   4.9378546  58.0625689
  70.1646829   6.1393645  58.6600727  70.4569803   6.6998702  57.9413093
  70.6745450   6.4322206  59.4153886  57.0582793  -1.5883927  57.9374944
  56.8607193  -2.1814567  57.2126010  56.5029457  -1.8931717  58.6550883
  66.1870710   2.2319302  51.2947820  65.7490140   1.5155161  50.8353457
  66.9281151   2.4595417  50.7332911  65.1280454   6.9173996  59.7494180
  65.0856633   7.1434842  58.8202712  66.0443153   6.6837370  59.8979982
  74.3313204   2.5753026  62.3635410  74.7649711   2.4828315  63.2118464
  75.0444785   2.5510527  61.7255426  63.2446255   3.7937025  59.5456143
  64.0386853   3.2987345  59.3438718  62.5337947   3.2654888  59.1823849
  68.0641099   6.1755120  63.8968511  68.1178122   6.7446057  64.6646227
  67.1955881   6.3457005  63.5322548  59.5529018  -2.0619894  55.6215896
  58.6226606  -2.1235438  55.8385858  59.6486490  -2.5843941  54.8252537
  75.1928754   2.6176727  64.8968296  75.3864644   3.5222537  65.1427571
  75.0929372   2.1584146  65.7306881  70.2543863   2.7683470  70.4709176
  70.1029369   2.5394021  69.5539260  70.2448542   3.7254071  70.4840521
  67.0229199   0.3415382  65.4555443  67.9521259   0.4926542  65.2824410
  66.6020229   0.4299403  64.6004089  65.8217531   4.3666047  63.2253980
  65.6828617   3.9984831  64.0979918  65.0332127   4.8813686  63.0537938
  66.4165683   9.4675143  54.5679517  66.5917439   8.9963186  55.3825139
  65.7298471  10.0940909  54.7960778  67.3722746   3.7447649  60.6142818
  67.0372579   3.7048419  61.5100468  66.8726692   3.0792365  60.1413228
  61.3466990  -0.8484721  66.1395399  61.2086788  -1.5804482  66.7406938
  62.2571914  -0.9375820  65.8579587  70.3081938   1.0903684  50.8879878
  69.6911108   0.3650512  50.7912930  69.8398426   1.8513044  50.5446952
  63.9749291  -1.1364761  65.6279079  64.6848909  -1.7771569  65.5865697
  63.9318599  -0.8851866  66.5505260  71.9636069   5.8002592  68.5485658
  71.9048616   5.1161812  67.8816241  72.3655588   6.5421582  68.0966284
  60.9826768  12.6164506  61.3419377  61.2223366  13.2483030  62.0198396
  60.1395965  12.2652546  61.6284736  71.9653477   3.7642176  66.7799638
  71.0780255   3.4268098  66.9026037  72.5352028   3.0325207  67.0168403
  53.6182624   0.0966268  60.1042689  54.3053664  -0.2172002  59.5163704
  53.4630752   1.0007632  59.8309941  65.4954630   8.4243628  63.7460881
  65.4224802   9.2298600  64.2580185  65.0532023   8.6235594  62.9208902
  65.2844410   7.6615398  57.2563702  64.5011932   8.2037079  57.3501927
  65.9837155   8.1789378  57.6557944  67.9553314   8.3230462  65.9019040
  68.6681286   8.9577927  65.8294941  67.4643342   8.4194328  65.0859041
  69.6770840   2.2281715  57.4736331  68.7427119   2.3483178  57.3041036
  69.8547509   1.3254182  57.2096341  63.0065227   6.0724906  66.7224610
  63.7074687   6.7061389  66.8754005  62.5360342   6.4139637  65.9620250
  71.1319623   4.4142856  55.0072517  71.4079467   4.2999450  55.9166392
  70.2624122   4.0160341  54.9684691  67.7673687   8.6629206  58.6505331
  67.9496081   7.8450862  59.1133083  68.5906673   8.8796899  58.2130221
  68.1015852   7.5897392  55.9120380  68.6303619   7.0789846  55.2990542
  68.3644072   7.2739922  56.7765913  66.8554086  -0.6310676  71.0343198
  66.1794723  -0.7316546  71.7045573  67.6781720  -0.7871462  71.4979195
  58.6032945   5.6061261  63.6555713  59.1886382   4.8604949  63.7883617
  58.4057784   5.9165218  64.5392377  61.4571600   8.6412508  58.6718155
  60.7881976   9.1258636  58.1882196  61.3184470   8.8881729  59.5861534
  53.1950600  -1.8233139  62.3760156  53.2334699  -2.3569548  63.1697274
  52.6890893  -2.3497933  61.7571133  65.5976869  10.6756252  65.2700814
  66.1495177  10.8387873  66.0349899  65.9383062  11.2660690  64.5980839
  70.4487743   5.5017509  71.1249468  70.9927647   6.1147468  70.6304423
  69.8674588   6.0597088  71.6416481  56.8259177  -3.0969037  55.4514088
  57.1212619  -4.0058358  55.3981141  55.9247213  -3.1181297  55.1295090
  68.7345256   8.6238227  62.2564496  68.6096396   7.8227967  61.7475441
  69.3924347   9.1184421  61.7678466  70.7980165   6.4247247  63.8844046
  69.8510500   6.3052599  63.8122373  71.1462938   5.5369745  63.9670308
  67.8026598   6.2199964  60.0848398  67.6551560   5.2916671  60.2655968
  68.6280091   6.2420054  59.6005474  71.4060720   7.0428522  61.1713271
  72.3307267   6.8371384  61.0337722  71.2376023   6.7944924  62.0802613
  71.1956036   7.5614190  56.5275363  71.3692914   6.9960612  55.7749215
  71.6884927   8.3615085  56.3454852  57.0132996  -0.4271141  64.5938921
  56.4686464   0.3488667  64.7259196  57.8912346  -0.0800337  64.4358043
  72.1831208   6.8780954  53.6272261  72.8782113   7.4987647  53.8459575
  72.5254359   6.0276305  53.9024639  57.7999018  -1.3001245  67.4869078
  57.0580754  -1.1518609  68.0733709  57.4791762  -1.0392979  66.6235828
  74.0822632   4.3280660  55.1559592  74.6073956   4.6667933  54.4308912
  73.9944984   3.3927675  54.9722726  65.7442680   8.2414733  67.2849468
  66.0529807   7.9963880  68.1572168  66.5418162   8.4461372  66.7968338
  65.7663292  10.3952643  59.5154845  65.3268283   9.9029022  60.2087701
  66.5171409   9.8525611  59.2746920  58.2455631   6.5864184  59.5179473
  59.0713651   6.2867956  59.1378116  57.8949683   5.8171806  59.9669261
  63.2137164   5.9390652  61.5877146  62.5917174   5.2761357  61.2879374
  63.8842031   5.9651784  60.9050794  56.4464236   4.5050510  60.4768406
  55.6096145   4.0772685  60.2952408  56.4187882   4.6982954  61.4139198
  73.7716538   4.9613563  70.4610790  72.9812081   4.9437702  69.9215289
  73.5349892   5.5001857  71.2159826  62.7750671   4.4894575  55.0635607
  62.9238792   5.1730040  54.4102280  63.5817115   4.4699666  55.5785063
  75.3932610   4.2302971  68.0185540  75.1017418   4.5932952  68.8549001
  74.7804741   3.5169980  67.8398872  60.5303304   0.5159753  56.0696676
  60.2849346  -0.3877917  56.2676886  60.6999219   0.5176904  55.1276154
  66.2746077   6.9842706  52.5347354  65.7020044   7.6032893  52.0817826
  66.8478871   7.5342068  53.0687276  69.4943337   7.2679856  53.6655937
  70.4274010   7.2025418  53.8688812  69.4066550   8.1036123  53.2070469
  72.1231353   6.5845726  50.6259884  72.0444985   6.2505590  51.5195642
  72.9441020   7.0767494  50.6251357  66.5431568   2.3721265  71.3364064
  67.4634577   2.5499864  71.5304110  66.5081151   1.4277310  71.1843763
  55.7613733  -2.4340142  60.2617339  55.4416517  -3.2874833  59.9691713
  55.2147161  -2.2191563  61.0175306  59.5393641   0.2822299  63.9786845
  59.7579650   1.2139407  63.9974879  59.9519414  -0.0769726  64.7641649
  55.6301993   1.1862770  62.2310460  54.9365464   0.7716723  61.7180415
  56.3774984   1.2283306  61.6343879  64.2752776  -0.7147356  72.1854656
  63.7919858   0.0853004  72.3918545  64.3613715  -0.7039411  71.2322100
  57.5438735   1.1181024  60.1076475  57.5209424   1.2168711  59.1558358
  57.8539372   1.9646175  60.4293641  60.2026113   3.1757179  64.2223089
  61.1569367   3.1441121  64.1553021  60.0038637   2.7147803  65.0373315
  60.7925495   1.7458295  66.7893887  61.6118384   2.2402373  66.8128724
  61.0662303   0.8290263  66.7611455  58.5576342   8.7176798  61.2393287
  58.4230810   7.9577199  60.6731285  58.1408404   9.4417698  60.7722076
  69.6935305   3.9013722  50.2469863  70.3971155   4.1063724  50.8627518
  68.9697954   4.4690484  50.5118946  61.7145468   9.6146115  61.4511730
  61.5977852  10.5591548  61.3490420  60.8937914   9.3119677  61.8397529
  71.6022003   4.3396251  52.2968323  72.4367606   3.9077449  52.1145797
  71.4406345   4.1678265  53.2245217  71.2567895   0.8428364  53.6624662
  71.2016699   0.6772636  52.7213106  70.6313950   1.5504397  53.8186852
  56.0460410  -3.9203571  67.4886084  56.6919273  -4.4304617  67.9773309
  55.8377561  -3.1834890  68.0629509  68.5713802   3.1477276  72.9878225
  69.4404962   3.3217928  72.6264860  68.0920553   3.9671693  72.8653954
  62.7399982  10.2674377  64.6667658  63.6427229  10.2997987  64.9834153
  62.5137352   9.3374828  64.6813994  64.4953584   9.0205364  61.3277737
  63.5449215   9.0207225  61.2142109  64.7986070   8.2738098  60.8113772
  80.2306278  14.8565902  62.3923499  80.8684688  14.7372649  61.6886839
  80.1127121  15.8046746  62.4511452  77.0395984  14.8093330  62.3285024
  76.7014495  14.6934395  61.4405559  77.9085752  14.4084495  62.3086030
  72.8982800  16.6628807  58.3181915  72.3347665  16.5718744  57.5498203
  72.7835195  15.8428711  58.7984408  77.5215767  15.9628182  68.2871230
  77.5104408  15.5680980  67.4151733  77.6836406  15.2294255  68.8805001
  70.4447232  18.1579998  61.1566135  71.2368523  17.8170823  60.7412435
  70.6843882  18.2674973  62.0768289  78.4782358  20.3299774  53.6296380
  77.8270338  20.9153855  53.2430394  79.2726721  20.8605969  53.6891417
  72.4037986  17.4188911  54.0283514  73.1768862  16.8717899  53.8896390
  72.7563384  18.2833161  54.2397976  74.2423028  18.7465294  67.2350414
  73.9512894  19.6510925  67.1197080  74.8780012  18.7881821  67.9494483
  75.1679235  16.1242142  63.8251773  75.7642807  15.8998165  63.1108736
  75.2254206  15.3826888  64.4277221  74.7404263  13.5781578  51.6601964
  74.9929784  13.0563099  50.8985427  73.8028822  13.4147723  51.7628648
  79.7847546  12.5817356  59.4676707  80.5710635  12.1636779  59.1167124
  80.0486250  13.4863448  59.6358356  79.9557623  18.0190206  54.1665364
  79.3203456  18.0924833  54.8786269  79.6255030  18.6083805  53.4884443
  85.1855973  12.5192589  60.3709686  85.9181145  11.9491806  60.6047515
  84.4295329  12.1314190  60.8116191  74.4600552  15.4809684  53.8626339
  74.3436810  14.8054587  54.5307423  74.5702812  14.9942057  53.0458492
  76.8032093  14.9419831  57.5673028  76.4390300  14.4150452  58.2785950
  77.6599209  14.5518300  57.3939514  82.7081394   6.2314163  64.8304295
  82.3764718   7.1009574  64.6065509  82.1127007   5.9150447  65.5098325
  76.4437580   9.9709730  52.5634377  76.6111982  10.8389967  52.9304848
  76.2534749  10.1337012  51.6395666  79.2012913  18.4326709  64.2300207
  78.9013636  19.3351748  64.1216014  78.8563973  18.1658892  65.0821360
  72.6525395  14.8840506  60.2636912  71.7275891  14.7516720  60.4714603
  72.9009808  15.6634725  60.7606854  82.6010057  10.9509249  61.9097645
  81.6926934  10.8824658  61.6156406  82.5497653  11.4281194  62.7379470
  76.4226801  12.4267388  53.5481044  76.3026426  12.8724439  54.3866524
  75.7279389  12.7752706  52.9894582  70.0134206  14.5273780  61.0980701
  70.1426587  14.7808259  62.0120112  69.3331657  15.1201488  60.7785356
  74.1833693  25.1971030  57.1971175  74.1057723  26.1478855  57.2759656
  73.5795337  24.8516902  57.8546101  76.6750923  12.3698895  69.8532542
  75.8984257  12.9292815  69.8435406  77.3141486  12.8555678  70.3747412
  84.4671703   9.1525688  63.6875518  83.8246084   9.4458221  63.0415313
  83.9626632   9.0378608  64.4928715  82.1211867  12.8988861  54.3761378
  83.0329723  13.1316248  54.2009075  81.6121514  13.4825905  53.8136456
  74.9297295  15.1784348  69.4150509  75.6711979  15.7169392  69.1385332
  74.2234281  15.8050637  69.5722061  80.4052635  17.3213489  68.0122670
  80.8135991  16.8795899  67.2677303  79.6829896  16.7466116  68.2656863
  76.7583705  12.2586096  65.3856227  77.6044900  12.6825509  65.5290876
  76.6982342  11.6019720  66.0794790  80.7281449  17.8814679  61.7674959
  80.0990312  18.0460394  61.0651027  80.3407111  18.2956289  62.5385923
  84.6070681  18.8169117  59.1219323  83.9221719  19.1968019  58.5716356
  84.6914531  19.4264444  59.8551271  79.9083150   9.9190464  67.0437401
  79.6644082  10.6732525  66.5071677  80.1843081  10.2975812  67.8784648
  81.8621613  16.4629076  65.7214666  82.0738508  17.1060836  65.0449048
  81.8151361  15.6291393  65.2536597  79.4647842   9.0746897  62.6251239
  78.6032321   9.3728151  62.9167976  79.4910276   9.2917296  61.6932271
  76.2809411  17.6189088  59.0325044  76.7447757  17.8976791  58.2429667
  76.0166209  16.7172532  58.8498135  73.1733492  17.1660569  61.9704808
  73.7434849  17.5947837  61.3322292  73.7641604  16.8843154  62.6688993
  75.2178297  13.7412240  55.8414609  75.9202341  14.1933284  56.3088536
  74.8858926  13.0996059  56.4694503  73.6658659  12.3323997  70.2165819
  73.0357319  13.0140277  70.4501216  73.5594747  12.2207078  69.2718957
  68.9603631  11.9995793  61.1431743  68.1702685  12.2553321  60.6671854
  69.4514879  12.8144130  61.2483784  82.9767441  19.3401032  63.8937024
  83.7984884  18.9381219  63.6119705  82.9729844  19.2369266  64.8453140
  70.9118377  12.3640372  58.1015220  70.1149540  12.4759066  58.6198715
  70.6843969  12.7027024  57.2356110  76.7424044  18.8885075  66.0497734
  76.8068477  19.3505482  66.8855906  76.0334968  18.2582440  66.1780044
  67.2441334  12.2526283  63.5746734  67.4949373  13.1373293  63.8404310
  67.7800883  12.0730885  62.8021826  91.0673434  15.6839780  60.2421995
  90.3137142  15.1147178  60.0866000  91.2020975  15.6502445  61.1892630
  76.4572062  20.5553183  55.9176715  76.3217737  21.4004718  56.3461562
  76.9981874  20.7572460  55.1542648  72.9439402   6.6344762  72.5791070
  72.5506347   6.0810961  73.2538714  73.7605542   6.9455341  72.9697587
  69.9101459  18.0728621  56.4904640  70.4225980  18.8671871  56.6410204
  70.5624172  17.3754911  56.4238241  71.7196344  21.1894377  58.5727393
  71.8962972  22.1112342  58.3848377  72.5153177  20.8752796  59.0021773
  75.8607363   8.0502641  70.1711326  76.6017076   8.6509795  70.0915789
  76.0925285   7.3080279  69.6129369  71.0048701  13.2359009  68.4489556
  70.8902216  12.3344266  68.7496655  70.1493218  13.4822706  68.0974373
  78.0840538  21.1776749  70.0477057  77.6404392  20.3913128  69.7297961
  78.7457752  21.3655900  69.3820948  72.8427659  22.7072551  64.5737735
  73.3935085  22.5789614  63.8014729  72.0039135  23.0067440  64.2232628
  80.1821776  21.4579549  68.0758458  80.1640252  22.2788430  67.5838727
  81.1041696  21.3333624  68.3008599  76.6394830  18.9723678  68.9181966
  77.1723167  18.2111967  68.6881274  76.1108912  18.6797330  69.6606121
  79.8064525   4.0783744  64.4475608  79.4628795   4.9685386  64.3714719
  80.1743488   3.8885402  63.5845193  67.8750376  16.4017275  57.2664210
  68.7125598  16.8114283  57.0497918  68.0528644  15.4616717  57.2364404
  79.7714808  14.0692356  52.9548043  79.2561432  14.8396960  53.1936431
  79.4992117  13.3957492  53.5781105  77.3561919   8.9142056  58.0133282
  76.5003516   8.5248907  57.8338920  77.7688871   8.9934017  57.1533067
  78.8861066   6.4488400  62.4124841  78.3825861   6.4118535  61.5992647
  79.1791673   7.3581142  62.4721498  75.1303952   6.5327129  61.4191023
  75.9956948   6.3369938  61.0596913  75.1981461   6.3037481  62.3460380
  84.7449082  16.8224710  54.8901217  83.9678525  16.4835870  54.4456379
  85.4240563  16.8277333  54.2156182  79.5601111  11.9419448  54.7807824
  79.2551247  12.2565597  55.6317968  80.5131553  12.0200868  54.8235157
  78.0047543  18.1009671  56.4300778  77.4768905  17.3662431  56.1174016
  77.5035046  18.8784347  56.1840747  82.9840389  16.2958691  61.5467825
  82.3264064  16.9857953  61.6347953  83.7880788  16.6855123  61.8901811
  72.7366271   8.7629337  58.7907390  73.3110023   8.5404519  58.0580583
  73.3237253   8.8318032  59.5435991  81.7945848  14.6503064  59.5971766
  82.3077730  15.2833056  60.0993476  82.4447072  14.0504260  59.2315126
  73.0635858  10.7933798  52.8103275  72.2273170  11.1308485  53.1312550
  72.9240628  10.6582778  51.8730412  75.0388939   5.6370586  57.5182459
  74.3853351   5.3219603  56.8939074  74.9969413   5.0146327  58.2442282
  76.1500143  15.9189881  49.4335751  75.2427205  15.6879135  49.6326900
  76.6471175  15.1227500  49.6209733  79.0568222  24.6287388  52.3532438
  78.3829921  24.9319085  52.9617395  79.4434044  25.4316469  52.0037895
  78.2726679  12.1252520  61.8430107  77.3549240  12.3467467  61.6851795
  78.6886822  12.1998830  60.9841814  79.0561727  13.5243935  56.9732787
  79.8033546  14.0365333  56.6639909  79.3253316  13.2027988  57.8337181
  77.3288377  16.0202476  53.9559742  76.4199596  15.7361509  54.0532211
  77.3583461  16.4401555  53.0963048  82.5607644  19.6309066  57.7250909
  82.1069971  18.7899975  57.7816100  81.9301611  20.2670464  58.0625689
  81.5040564  10.5601052  58.9551577  80.7663321  10.0478438  59.2861819
  81.7567337  10.1201433  58.1434853  81.0040583  21.4685562  58.6600727
  81.2963558  22.0290619  57.9413093  81.5139204  21.7614123  59.4153886
  67.8976547  13.7407990  57.9374944  67.7000947  13.1477351  57.2126010
  67.3423211  13.4360200  58.6550883  75.8773271  13.6331097  60.0569537
  75.9321881  12.6804933  59.9812013  75.0664473  13.7890536  60.5410835
  77.0264465  17.5611220  51.2947820  76.5883895  16.8447079  50.8353457
  77.7674905  17.7887335  50.7332911  73.8165631  12.2508156  57.8159916
  73.0033496  12.5502327  58.2225108  74.3124625  11.8563845  58.5334398
  75.9674209  22.2465913  59.7494180  75.9250387  22.4726760  58.8202712
  76.8836908  22.0129288  59.8979982  79.4139842  12.7149981  66.6474810
  79.7689230  12.9421454  67.5069275  80.0611974  13.0468358  66.0252065
  85.1437579  15.8368417  57.3524139  85.0055478  16.0270013  56.4245328
  84.7873798  16.5987800  57.8092190  73.3079706   9.8226512  63.4321151
  73.9479085   9.6815271  62.7344114  72.4757236   9.5361025  63.0559753
  85.1706959  17.9044944  62.3635410  85.6043466  17.8120233  63.2118464
  85.8838540  17.8802444  61.7255426  74.0840009  19.1228942  59.5456143
  74.8780608  18.6279263  59.3438718  73.3731702  18.5946806  59.1823849
  78.9034854  21.5047038  63.8968511  78.9571876  22.0737974  64.6646227
  78.0349635  21.6748923  63.5322548  70.3922773  13.2672024  55.6215896
  69.4620361  13.2056480  55.8385858  70.4880245  12.7447977  54.8252537
  70.3108322   9.7926837  58.2094138  70.5715139  10.7072170  58.1003298
  71.1325494   9.3251280  58.3590750  71.7833247  11.2064594  65.3792962
  72.4556301  10.9981956  64.7305611  70.9563034  11.0086680  64.9398194
  86.0322509  17.9468644  64.8968296  86.2258399  18.8514455  65.1427571
  85.9323127  17.4876064  65.7306881  77.6858819   7.8326535  67.3958623
  77.0386734   8.5316485  67.3023099  78.4559835   8.2662679  67.7634871
  81.0937617  18.0975387  70.4709176  80.9423124  17.8685939  69.5539260
  81.0842297  19.0545989  70.4840521  77.8622954  15.6707300  65.4555443
  78.7915014  15.8218460  65.2824410  77.4413984  15.7591321  64.6004089
  76.6611285  19.6957964  63.2253980  76.5222371  19.3276749  64.0979918
  75.8725882  20.2105604  63.0537938  77.2559437  24.7967061  54.5679517
  77.4311193  24.3255104  55.3825139  76.5692225  25.4232827  54.7960778
  78.2116501  19.0739567  60.6142818  77.8766333  19.0340337  61.5100468
  77.7120446  18.4084283  60.1413228  72.1860745  14.4807197  66.1395399
  72.0480542  13.7487436  66.7406938  73.0965668  14.3916097  65.8579587
  81.1475692  16.4195601  50.8879878  80.5304863  15.6942430  50.7912930
  80.6792181  17.1804962  50.5446952  74.8143045  14.1927156  65.6279079
  75.5242664  13.5520349  65.5865697  74.7712353  14.4440051  66.5505260
  82.8029824  21.1294510  68.5485658  82.7442370  20.4453730  67.8816241
  83.2049342  21.8713500  68.0966284  73.5271979  11.1792374  67.4474718
  72.9909336  10.7283113  68.0996315  72.9388688  11.3138283  66.7045183
  71.8220523  27.9456424  61.3419377  72.0617121  28.5774948  62.0198396
  70.9789719  27.5944464  61.6284736  72.9374238  10.6381026  50.0101182
  72.0603704  10.5169826  49.6463429  73.4131991   9.8467104  49.7580071
  82.8047231  19.0934094  66.7799638  81.9174010  18.7560015  66.9026037
  83.3745782  18.3617125  67.0168403  64.4576378  15.4258185  60.1042689
  65.1447418  15.1119915  59.5163704  64.3024507  16.3299550  59.8309941
  69.2611100  10.3148382  64.5327713  69.1769289   9.7074052  63.7978123
  68.4393807  10.8057400  64.5337209  76.3348385  23.7535546  63.7460881
  76.2618556  24.5590518  64.2580185  75.8925778  23.9527512  62.9208902
  76.1238164  22.9907316  57.2563702  75.3405686  23.5328996  57.3501927
  76.8230909  23.5081296  57.6557944  79.4334814   8.8001946  59.8997908
  79.9303514   8.0471908  59.5798978  78.6621796   8.8366262  59.3341117
  87.2864572  14.5042311  61.5416199  87.2754448  15.3867026  61.1710132
  86.4181951  14.1513862  61.3470736  78.7947068  23.6522380  65.9019040
  79.5075040  24.2869845  65.8294941  78.3037097  23.7486246  65.0859041
  80.5164595  17.5573633  57.4736331  79.5820874  17.6775095  57.3041036
  80.6941263  16.6546100  57.2096341  76.0169783  10.9419329  59.6269592
  75.6467571  10.3890369  60.3150498  76.5128875  10.3377462  59.0744593
  83.9037146  13.3990952  58.0086365  84.3697599  14.2318944  57.9346668
  84.3544647  12.9335934  58.7131624  73.8458982  21.4016824  66.7224610
  74.5468441  22.0353307  66.8754005  73.3754097  21.7431555  65.9620250
  81.9713377  19.7434773  55.0072517  82.2473221  19.6291368  55.9166392
  81.1017876  19.3452258  54.9684691  81.8753809   5.7671539  62.0477267
  80.9616889   5.9975766  62.2159474  82.3046911   5.8509983  62.8991299
  81.6460268  13.9561431  64.5477161  80.9931718  14.2037338  63.8929614
  82.0240647  13.1425569  64.2139638  78.6067441  23.9921124  58.6505331
  78.7889836  23.1742780  59.1133083  79.4300427  24.2088816  58.2130221
  78.9409607  22.9189309  55.9120380  79.4697373  22.4081764  55.2990542
  79.2037827  22.6031840  56.7765913  77.6947841  14.6981242  71.0343198
  77.0188478  14.5975371  71.7045573  78.5175474  14.5420456  71.4979195
  69.4426700  20.9353179  63.6555713  70.0280136  20.1896866  63.7883617
  69.2451538  21.2457135  64.5392377  72.2965355  23.9704426  58.6718155
  71.6275730  24.4550554  58.1882196  72.1578225  24.2173646  59.5861534
  64.0344354  13.5058779  62.3760156  64.0728454  12.9722369  63.1697274
  63.5284647  12.9793984  61.7571133  76.4370623  26.0048169  65.2700814
  76.9888931  26.1679791  66.0349899  76.7776817  26.5952607  64.5980839
  71.4135117   8.3523319  65.8722699  71.4776443   9.2138150  65.4600096
  71.3502237   7.7397321  65.1395057  70.8887389  10.4246452  69.5195733
  71.5159428  10.0423529  70.1333257  70.0315308  10.2060654  69.8851425
  81.2881498  20.8309427  71.1249468  81.8321402  21.4439385  70.6304423
  80.7068343  21.3889005  71.6416481  67.6652932  12.2322881  55.4514088
  67.9606373  11.3233559  55.3981141  66.7640968  12.2110620  55.1295090
  79.5739011  23.9530145  62.2564496  79.4490150  23.1519885  61.7475441
  80.2318102  24.4476338  61.7678466  71.1947179  10.3078878  61.4341636
  70.4733765  10.9214845  61.2949110  71.9840435  10.8436642  61.3558282
  81.6373919  21.7539165  63.8844046  80.6904255  21.6344516  63.8122373
  81.9856692  20.8661663  63.9670308  73.9973492   7.6433304  67.7082288
  74.5207894   7.8895601  68.4708597  73.7785826   8.4753339  67.2885425
  69.3940774   9.9136979  55.5753413  69.0653480   9.0334358  55.3928519
  69.7480144   9.8584647  56.4629802  78.6420352  21.5491881  60.0848398
  78.4945315  20.6208589  60.2655968  79.4673846  21.5711972  59.6005474
  72.5082597  10.2009948  55.9428890  72.8478669  10.7295870  55.2207499
  72.9554717  10.5390355  56.7187457  82.2454474  22.3720440  61.1713271
  83.1701022  22.1663301  61.0337722  82.0769778  22.1236841  62.0802613
  75.2026038   8.5846999  65.3931959  74.8622858   7.7854812  65.7952638
  74.4965044   8.8848710  64.8208792  75.8542509   5.6696312  63.8459282
  76.6768579   5.1956790  63.7238172  76.0980573   6.4486795  64.3457968
  74.4950744   8.6984570  54.1422183  75.2159106   9.0765823  53.6385900
  73.8716048   9.4173447  54.2457161  78.6381867   9.4029719  55.0780516
  78.8545481  10.2854357  54.7769344  78.1575934   9.0115932  54.3486158
  73.3781088  12.3615432  61.6551260  73.2325669  12.6755735  62.5475542
  72.9006292  12.9800333  61.1022159  75.2377471   9.3517980  61.7032150
  75.2239040   8.4559073  61.3664448  75.9549899   9.3588644  62.3370436
  77.0903602   9.7855320  63.7485277  76.8321380  10.7072391  63.7469608
  76.5588642   9.3885755  64.4385741  82.0349790  22.8906107  56.5275363
  82.2086668  22.3252530  55.7749215  82.5278682  23.6907002  56.3454852
  67.8526750  14.9020777  64.5938921  67.3080218  15.6780585  64.7259196
  68.7306100  15.2491581  64.4358043  74.6414367   8.2332360  56.9719720
  74.7630278   7.3049007  57.1710607  74.3516409   8.2471046  56.0598035
  77.5105557   5.9187271  60.1086440  77.5327254   5.9826604  59.1538419
  77.9273616   5.0791780  60.3026946  87.8889182  15.6542530  58.1465662
  88.3320328  14.9049856  57.7484786  87.0115692  15.6452667  57.7639394
  83.0224963  22.2072872  53.6272261  83.7175868  22.8279565  53.8459575
  83.3648113  21.3568223  53.9024639  68.6392772  14.0290673  67.4869078
  67.8974508  14.1773308  68.0733709  68.3185516  14.2898938  66.6235828
  84.9216386  19.6572577  55.1559592  85.4467710  19.9959850  54.4308912
  84.8338739  18.7219593  54.9722726  76.5836435  23.5706651  67.2849468
  76.8923561  23.3255798  68.1572168  77.3811917  23.7753290  66.7968338
  76.6057047  25.7244561  59.5154845  76.1662037  25.2320939  60.2087701
  77.3565164  25.1817528  59.2746920  69.0849386  21.9156102  59.5179473
  69.9107406  21.6159873  59.1378116  68.7343438  21.1463724  59.9669261
  74.0530919  21.2682570  61.5877146  73.4310928  20.6053275  61.2879374
  74.7235786  21.2943702  60.9050794  67.2857991  19.8342428  60.4768406
  66.4489899  19.4064602  60.2952408  67.2581636  20.0274871  61.4139198
  74.1255446   9.7464358  71.1809652  74.1743602  10.6226481  70.7987422
  74.6677961   9.2041751  70.6081296  84.6110292  20.2905481  70.4610790
  83.8205836  20.2729620  69.9215289  84.3743647  20.8293775  71.2159826
  84.7308167  17.1397947  67.7743518  84.7806172  16.9747955  68.7159041
  84.6222091  16.2725206  67.3841399  73.6144426  19.8186493  55.0635607
  73.7632546  20.5021958  54.4102280  74.4210869  19.7991583  55.5785063
  82.0211930  13.1228875  69.0902825  82.9221792  12.9835340  68.7986823
  82.0959904  13.2883330  70.0301002  76.3554735  10.4995730  67.9356011
  75.4858044  10.7929296  67.6638600  76.5914215  11.0836175  68.6563275
  86.2326364  19.5594889  68.0185540  85.9411172  19.9224870  68.8549001
  85.6198495  18.8461897  67.8398872  87.4322046  17.1247769  60.5388110
  88.2668938  17.5637573  60.7025670  87.5681175  16.6486422  59.7196356
  84.4813552  14.6827504  66.4865598  84.9567674  14.8755150  65.6784449
  83.5579118  14.7386689  66.2408981  71.3697059  15.8451671  56.0696676
  71.1243101  14.9414001  56.2676886  71.5392973  15.8468821  55.1276154
  79.0593769   6.7175347  65.4521432  79.5775713   7.4536374  65.1267920
  78.7048902   7.0239340  66.2868191  70.6392706  11.5780028  53.5682837
  69.9461951  11.6524383  52.9122873  70.3944458  10.8140372  54.0904354
  77.1139831  22.3134624  52.5347354  76.5413799  22.9324811  52.0817826
  77.6872625  22.8633985  53.0687276  83.1815221  11.5593264  64.7193903
  84.1332644  11.6591361  64.7406127  83.0118672  10.7671532  65.2291988
  81.2029601   8.6448847  64.9053304  80.6079533   8.9253860  64.2099793
  80.9179297   9.1342748  65.6770045  80.3337091  22.5971774  53.6655937
  81.2667764  22.5317335  53.8688812  80.2460304  23.4328041  53.2070469
  82.9625108  21.9137644  50.6259884  82.8838739  21.5797508  51.5195642
  83.7834775  22.4059412  50.6251357  85.6603299  14.7799383  63.8336203
  85.6279619  13.8415384  64.0195887  86.2703923  14.8583420  63.1002028
  77.4986630  13.6495436  49.8763407  78.4445735  13.5201644  49.9451825
  77.1200875  12.9110098  50.3532835  85.8097788  11.5710427  63.8794486
  85.2936836  10.7868883  63.6924415  86.6937736  11.2429143  64.0441006
  83.4708514   5.3151442  59.8390299  83.2733336   5.0066531  60.7233631
  84.0808220   6.0413081  59.9688229  91.4779849  15.8415390  62.9742240
  92.2083237  15.5800678  63.5349943  90.8686794  15.1044112  63.0144308
  89.5595146  13.9823253  63.5716691  88.8328310  13.8479218  62.9633182
  89.1442433  14.2900081  64.3773409  77.3825322  17.7013182  71.3364064
  78.3028332  17.8791781  71.5304110  77.3474905  16.7569228  71.1843763
  75.6829547  11.5745413  49.8118292  74.7761002  11.2778525  49.8881006
  75.9605528  11.2775231  48.9452578  66.6007487  12.8951776  60.2617339
  66.2810272  12.0417084  59.9691713  66.0540916  13.1100354  61.0175306
  70.3787395  15.6114217  63.9786845  70.5973405  16.5431325  63.9974879
  70.7913169  15.2522192  64.7641649  77.2991613   6.1182302  55.9662533
  76.4892341   5.7729387  56.3417779  77.9876030   5.8089846  56.5550145
  79.2282161   5.1960349  57.5886830  79.7813200   5.6155803  58.2476853
  79.4652247   4.2696097  57.6309786  75.2515260  11.1847423  73.3689594
  75.1511987  12.1341780  73.3001685  75.0336802  10.8565662  72.4965664
  74.4528332   8.4332348  49.9530271  75.3147496   8.7587246  50.2126089
  74.6378676   7.6463844  49.4403337  66.4695747  16.5154688  62.2310460
  65.7759219  16.1008640  61.7180415  67.2168738  16.5575224  61.6343879
  82.6060968   7.3060874  57.0965494  82.0259637   7.9645678  56.7143547
  82.3396901   6.4838219  56.6852912  81.0564535   6.7065932  59.2986815
  81.5564313   6.8182467  58.4901133  81.7000142   6.4026985  59.9387623
  75.1146530  14.6144562  72.1854656  74.6313612  15.4144922  72.3918545
  75.2007469  14.6252507  71.2322100  68.3832490  16.4472941  60.1076475
  68.3603178  16.5460629  59.1558358  68.6933126  17.2938092  60.4293641
  71.0419868  18.5049096  64.2223089  71.9963121  18.4733039  64.1553021
  70.8432391  18.0439720  65.0373315  71.6319250  17.0750212  66.7893887
  72.4512139  17.5694291  66.8128724  71.9056058  16.1582181  66.7611455
  81.3885846   9.4660965  56.1521843  80.5011701   9.7510615  55.9342037
  81.8039835   9.3054728  55.3049119  84.7400382   9.4907486  59.8676182
  85.5160772   9.9803938  60.1400799  84.0148516   9.9165540  60.3248051
  87.1772941  10.2035105  60.9250122  87.7717432   9.9630841  60.2143431
  87.2499525   9.4842236  61.5523659  69.3970097  24.0468716  61.2393287
  69.2624565  23.2869117  60.6731285  68.9802159  24.7709616  60.7722076
  80.5329060  19.2305639  50.2469863  81.2364910  19.4355642  50.8627518
  79.8091708  19.7982401  50.5118946  81.3626870  14.9815501  56.3672133
  81.3062071  15.4384052  55.5279765  81.9155212  14.2206185  56.1894975
  85.1731676  10.7705233  57.1922252  84.9168610  10.3701868  58.0230460
  84.5484544  11.4849027  57.0672391  89.4844014  13.5101306  59.6993544
  88.9243572  13.5794495  60.4725106  88.8787517  13.3342290  58.9793040
  72.5539223  24.9438033  61.4511730  72.4371607  25.8883465  61.3490420
  71.7331669  24.6411595  61.8397529  82.4415757  19.6688169  52.2968323
  83.2761361  19.2369367  52.1145797  82.2800100  19.4970182  53.2245217
  82.0961649  16.1720282  53.6624662  82.0410453  16.0064553  52.7213106
  81.4707705  16.8796315  53.8186852  66.8854164  11.4088346  67.4886084
  67.5313028  10.8987300  67.9773309  66.6771315  12.1457028  68.0629509
  79.4107556  18.4769194  72.9878225  80.2798716  18.6509846  72.6264860
  78.9314308  19.2963611  72.8653954  75.4057775   5.6728391  53.2409980
  75.3936445   6.6170231  53.3978251  76.2981197   5.4898536  52.9469442
  73.5793737  25.5966295  64.6667658  74.4820983  25.6289905  64.9834153
  73.3531107  24.6666746  64.6813994  75.3347339  24.3497281  61.3277737
  74.3842970  24.3499143  61.2142109  75.6379825  23.6030016  60.8113772
  71.2251655   8.5555963  71.5861098  72.0883117   8.1992768  71.7964423
  70.6517066   8.2169858  72.2736503  91.0700032  30.1857820  62.3923499
  91.7078442  30.0664567  61.6886839  90.9520875  31.1338664  62.4511452
  87.8789738  30.1385248  62.3285024  87.5408250  30.0226313  61.4405559
  88.7479507  29.7376413  62.3086030  88.3609521  31.2920100  68.2871230
  88.3498162  30.8972898  67.4151733  88.5230161  30.5586172  68.8805001
  85.0816783  34.0757211  67.2350414  84.7906649  34.9802842  67.1197080
  85.7173767  34.1173739  67.9494483  86.0072989  31.4534060  63.8251773
  86.6036562  31.2290082  63.1108736  86.0647961  30.7118805  64.4277221
  96.0249728  27.8484507  60.3709686  96.7574900  27.2783724  60.6047515
  95.2689083  27.4606107  60.8116191  93.5475148  21.5606081  64.8304295
  93.2158473  22.4301492  64.6065509  92.9520762  21.2442365  65.5098325
  90.0406668  33.7618627  64.2300207  89.7407391  34.6643666  64.1216014
  89.6957727  33.4950810  65.0821360  93.4403811  26.2801167  61.9097645
  92.5320689  26.2116576  61.6156406  93.3891407  26.7573112  62.7379470
  80.8527960  29.8565697  61.0980701  80.9820341  30.1100176  62.0120112
  80.1725411  30.4493405  60.7785356  87.5144677  27.6990813  69.8532542
  86.7378011  28.2584733  69.8435406  88.1535240  28.1847596  70.3747412
  95.3065458  24.4817606  63.6875518  94.6639838  24.7750139  63.0415313
  94.8020386  24.3670526  64.4928715  85.7691050  30.5076266  69.4150509
  86.5105734  31.0461310  69.1385332  85.0628035  31.1342555  69.5722061
  91.2446389  32.6505407  68.0122670  91.6529745  32.2087817  67.2677303
  90.5223651  32.0758034  68.2656863  87.5977459  27.5878013  65.3856227
  88.4438654  28.0117427  65.5290876  87.5376097  26.9311638  66.0794790
  90.7476905  25.2482382  67.0437401  90.5037836  26.0024442  66.5071677
  91.0236835  25.6267729  67.8784648  92.7015367  31.7920994  65.7214666
  92.9132263  32.4352754  65.0449048  92.6545116  30.9583311  65.2536597
  90.3041596  24.4038815  62.6251239  89.4426075  24.7020068  62.9167976
  90.3304031  24.6209214  61.6932271  84.0127247  32.4952487  61.9704808
  84.5828604  32.9239755  61.3322292  84.6035359  32.2135071  62.6688993
  84.5052413  27.6615914  70.2165819  83.8751074  28.3432195  70.4501216
  84.3988501  27.5498996  69.2718957  79.7997386  27.3287710  61.1431743
  79.0096440  27.5845239  60.6671854  80.2908633  28.1436048  61.2483784
  93.8161195  34.6692949  63.8937024  94.6378639  34.2673137  63.6119705
  93.8123598  34.5661184  64.8453140  81.7512131  27.6932290  58.1015220
  80.9543294  27.8050984  58.6198715  81.5237723  28.0318942  57.2356110
  87.5817799  34.2176993  66.0497734  87.6462231  34.6797400  66.8855906
  86.8728723  33.5874358  66.1780044  78.0835089  27.5818201  63.5746734
  78.3343127  28.4665211  63.8404310  78.6194637  27.4022802  62.8021826
 101.9067188  31.0131698  60.2421995 101.1530897  30.4439096  60.0866000
 102.0414730  30.9794362  61.1892630  83.7833156  21.9636680  72.5791070
  83.3900102  21.4102879  73.2538714  84.5999296  22.2747259  72.9697587
  86.7001117  23.3794559  70.1711326  87.4410830  23.9801712  70.0915789
  86.9319040  22.6372197  69.6129369  81.8442455  28.5650926  68.4489556
  81.7295970  27.6636184  68.7496655  80.9886973  28.8114623  68.0974373
  88.9234293  36.5068667  70.0477057  88.4798147  35.7205045  69.7297961
  89.5851506  36.6947817  69.3820948  83.6821414  38.0364468  64.5737735
  84.2328839  37.9081532  63.8014729  82.8432890  38.3359357  64.2232628
  91.0215531  36.7871467  68.0758458  91.0034006  37.6080348  67.5838727
  91.9435451  36.6625542  68.3008599  87.4788585  34.3015596  68.9181966
  88.0116922  33.5403884  68.6881274  86.9502666  34.0089248  69.6606121
  90.6458280  19.4075662  64.4475608  90.3022549  20.2977304  64.3714719
  91.0137243  19.2177320  63.5845193  89.7254820  21.7780317  62.4124841
  89.2219616  21.7410452  61.5992647  90.0185427  22.6873060  62.4721498
  85.9697706  21.8619047  61.4191023  86.8350703  21.6661856  61.0596913
  86.0375215  21.6329399  62.3460380  83.5760025  24.0921255  58.7907390
  84.1503777  23.8696436  58.0580583  84.1631008  24.1609949  59.5435991
  85.8782693  20.9662504  57.5182459  85.2247105  20.6511521  56.8939074
  85.8363167  20.3438244  58.2442282  89.1120433  27.4544437  61.8430107
  88.1942995  27.6759384  61.6851795  89.5280577  27.5290748  60.9841814
  92.4445946  18.6669221  59.5493346  92.7504822  17.8066585  59.2619261
  93.1698550  19.2586841  59.3492340  78.7370302  29.0699908  57.9374944
  78.5394701  28.4769269  57.2126010  78.1816966  28.7652118  58.6550883
  90.2533597  28.0441899  66.6474810  90.6082985  28.2713372  67.5069275
  90.9005728  28.3760275  66.0252065  84.1473460  25.1518430  63.4321151
  84.7872839  25.0107189  62.7344114  83.3150991  24.8652943  63.0559753
  89.7428608  36.8338956  63.8968511  89.7965631  37.4029892  64.6646227
  88.8743390  37.0040841  63.5322548  81.1502076  25.1218755  58.2094138
  81.4108894  26.0364088  58.1003298  81.9719249  24.6543197  58.3590750
  82.6227002  26.5356512  65.3792962  83.2950055  26.3273874  64.7305611
  81.7956788  26.3378598  64.9398194  96.8716263  33.2760562  64.8968296
  97.0652153  34.1806373  65.1427571  96.7716881  32.8167981  65.7306881
  88.5252574  23.1618453  67.3958623  87.8780489  23.8608402  67.3023099
  89.2953589  23.5954597  67.7634871  91.9331372  33.4267305  70.4709176
  91.7816878  33.1977857  69.5539260  91.9236051  34.3837906  70.4840521
  88.7016708  30.9999218  65.4555443  89.6308768  31.1510377  65.2824410
  88.2807738  31.0883238  64.6004089  87.5005040  35.0249882  63.2253980
  87.3616126  34.6568666  64.0979918  86.7119636  35.5397521  63.0537938
  83.0254499  29.8099115  66.1395399  82.8874297  29.0779354  66.7406938
  83.9359422  29.7208015  65.8579587  85.6536800  29.5219074  65.6279079
  86.3636418  28.8812266  65.5865697  85.6106108  29.7731969  66.5505260
  93.6423578  36.4586427  68.5485658  93.5836125  35.7745648  67.8816241
  94.0443097  37.2005417  68.0966284  84.3665734  26.5084292  67.4474718
  83.8303091  26.0575030  68.0996315  83.7782442  26.6430201  66.7045183
  82.6614277  43.2748341  61.3419377  82.9010875  43.9066865  62.0198396
  81.8183474  42.9236381  61.6284736  93.6440986  34.4226011  66.7799638
  92.7567764  34.0851933  66.9026037  94.2139537  33.6909043  67.0168403
  75.2970133  30.7550103  60.1042689  75.9841173  30.4411833  59.5163704
  75.1418261  31.6591468  59.8309941  80.1004855  25.6440300  64.5327713
  80.0163044  25.0365969  63.7978123  79.2787561  26.1349318  64.5337209
  87.1742139  39.0827464  63.7460881  87.1012311  39.8882435  64.2580185
  86.7319532  39.2819430  62.9208902  90.2728569  24.1293863  59.8997908
  90.7697268  23.3763826  59.5798978  89.5015550  24.1658180  59.3341117
  98.1258326  29.8334229  61.5416199  98.1148202  30.7158944  61.1710132
  97.2575706  29.4805780  61.3470736  89.6340823  38.9814298  65.9019040
  90.3468795  39.6161763  65.8294941  89.1430851  39.0778164  65.0859041
  84.6852736  36.7308741  66.7224610  85.3862196  37.3645224  66.8754005
  84.2147851  37.0723473  65.9620250  92.7147564  21.0963457  62.0477267
  91.8010643  21.3267684  62.2159474  93.1440665  21.1801901  62.8991299
  92.4854022  29.2853349  64.5477161  91.8325472  29.5329256  63.8929614
  92.8634402  28.4717487  64.2139638  88.5341595  30.0273160  71.0343198
  87.8582232  29.9267289  71.7045573  89.3569229  29.8712373  71.4979195
  80.2820454  36.2645096  63.6555713  80.8673891  35.5188784  63.7883617
  80.0845293  36.5749053  64.5392377  74.8738109  28.8350696  62.3760156
  74.9122208  28.3014287  63.1697274  74.3678402  28.3085902  61.7571133
  87.2764378  41.3340087  65.2700814  87.8282686  41.4971709  66.0349899
  87.6170571  41.9244525  64.5980839  82.2528871  23.6815237  65.8722699
  82.3170198  24.5430068  65.4600096  82.1895991  23.0689239  65.1395057
  81.7281144  25.7538370  69.5195733  82.3553183  25.3715447  70.1333257
  80.8709063  25.5352571  69.8851425  92.1275252  36.1601345  71.1249468
  92.6715156  36.7731303  70.6304423  91.5462097  36.7180923  71.6416481
  78.5046686  27.5614799  55.4514088  78.8000128  26.6525477  55.3981141
  77.6034722  27.5402538  55.1295090  90.4132765  39.2822063  62.2564496
  90.2883905  38.4811803  61.7475441  91.0711856  39.7768256  61.7678466
  82.0340933  25.6370795  61.4341636  81.3127519  26.2506763  61.2949110
  82.8234189  26.1728560  61.3558282  92.4767674  37.0831083  63.8844046
  91.5298009  36.9636434  63.8122373  92.8250447  36.1953581  63.9670308
  84.8367247  22.9725222  67.7082288  85.3601649  23.2187518  68.4708597
  84.6179580  23.8045257  67.2885425  86.0419792  23.9138917  65.3931959
  85.7016612  23.1146730  65.7952638  85.3358798  24.2140628  64.8208792
  86.6936264  20.9988229  63.8459282  87.5162333  20.5248707  63.7238172
  86.9374327  21.7778713  64.3457968  84.2174843  27.6907350  61.6551260
  84.0719423  28.0047653  62.5475542  83.7400046  28.3092250  61.1022159
  86.0771225  24.6809898  61.7032150  86.0632794  23.7850991  61.3664448
  86.7943654  24.6880562  62.3370436  87.9297356  25.1147238  63.7485277
  87.6715134  26.0364309  63.7469608  87.3982397  24.7177673  64.4385741
  78.6920505  30.2312694  64.5938921  78.1473973  31.0072502  64.7259196
  79.5699855  30.5783499  64.4358043  85.4808121  23.5624278  56.9719720
  85.6024033  22.6340924  57.1710607  85.1910164  23.5762964  56.0598035
  88.3499312  21.2479189  60.1086440  88.3721009  21.3118522  59.1538419
  88.7667371  20.4083697  60.3026946  79.4786527  29.3582591  67.4869078
  78.7368263  29.5065226  68.0733709  79.1579271  29.6190856  66.6235828
  87.4230189  38.8998569  67.2849468  87.7317316  38.6547716  68.1572168
  88.2205671  39.1045207  66.7968338  78.1251745  35.1634346  60.4768406
  77.2883654  34.7356520  60.2952408  78.0975391  35.3566789  61.4139198
  84.9649201  25.0756276  71.1809652  85.0137356  25.9518398  70.7987422
  85.5071715  24.5333669  70.6081296  95.4504047  35.6197399  70.4610790
  94.6599590  35.6021538  69.9215289  95.2137401  36.1585692  71.2159826
  95.5701922  32.4689865  67.7743518  95.6199927  32.3039873  68.7159041
  95.4615845  31.6017124  67.3841399  92.8605684  28.4520793  69.0902825
  93.7615547  28.3127258  68.7986823  92.9353659  28.6175248  70.0301002
  87.1948489  25.8287648  67.9356011  86.3251799  26.1221214  67.6638600
  87.4307970  26.4128093  68.6563275  97.0720119  34.8886807  68.0185540
  96.7804927  35.2516787  68.8549001  96.4592250  34.1753815  67.8398872
  95.3207307  30.0119421  66.4865598  95.7961428  30.2047068  65.6784449
  94.3972872  30.0678607  66.2408981  89.8987523  22.0467265  65.4521432
  90.4169467  22.7828292  65.1267920  89.5442656  22.3531258  66.2868191
  90.1500117  18.4667547  60.9722328  90.4301871  17.7990736  61.5982755
  90.9350724  18.6596643  60.4596992  94.0208976  26.8885181  64.7193903
  94.9726399  26.9883279  64.7406127  93.8512426  26.0963450  65.2291988
  92.0423355  23.9740765  64.9053304  91.4473287  24.2545777  64.2099793
  91.7573052  24.4634666  65.6770045  96.4997054  30.1091301  63.8336203
  96.4673374  29.1707302  64.0195887  97.1097677  30.1875338  63.1002028
  96.6491542  26.9002344  63.8794486  96.1330591  26.1160801  63.6924415
  97.5331491  26.5721061  64.0441006  94.3102269  20.6443360  59.8390299
  94.1127090  20.3358448  60.7233631  94.9201975  21.3704999  59.9688229
 102.3173603  31.1707308  62.9742240 103.0476992  30.9092596  63.5349943
 101.7080549  30.4336030  63.0144308 100.3988901  29.3115170  63.5716691
  99.6722064  29.1771135  62.9633182  99.9836187  29.6191999  64.3773409
  88.2219077  33.0305100  71.3364064  89.1422086  33.2083699  71.5304110
  88.1868660  32.0861146  71.1843763  77.4401242  28.2243694  60.2617339
  77.1204026  27.3709002  59.9691713  76.8934670  28.4392272  61.0175306
  81.2181149  30.9406135  63.9786845  81.4367159  31.8723243  63.9974879
  81.6306923  30.5814109  64.7641649  88.1385367  21.4474220  55.9662533
  87.3286096  21.1021305  56.3417779  88.8269784  21.1381764  56.5550145
  90.0675916  20.5252267  57.5886830  90.6206954  20.9447720  58.2476853
  90.3046002  19.5988015  57.6309786  86.0909015  26.5139341  73.3689594
  85.9905742  27.4633698  73.3001685  85.8730557  26.1857579  72.4965664
  77.3089502  31.8446605  62.2310460  76.6152973  31.4300558  61.7180415
  78.0562493  31.8867142  61.6343879  93.4454723  22.6352792  57.0965494
  92.8653392  23.2937596  56.7143547  93.1790655  21.8130137  56.6852912
  91.8958289  22.0357850  59.2986815  92.3958067  22.1474384  58.4901133
  92.5393897  21.7318903  59.9387623  85.9540285  29.9436479  72.1854656
  85.4707367  30.7436840  72.3918545  86.0401224  29.9544424  71.2322100
  79.2226244  31.7764859  60.1076475  79.1996933  31.8752546  59.1558358
  79.5326881  32.6230010  60.4293641  81.8813622  33.8341014  64.2223089
  82.8356876  33.8024956  64.1553021  81.6826146  33.3731638  65.0373315
  82.4713004  32.4042130  66.7893887  83.2905893  32.8986209  66.8128724
  82.7449812  31.4874098  66.7611455  95.5794137  24.8199403  59.8676182
  96.3554527  25.3095856  60.1400799  94.8542271  25.2457458  60.3248051
  98.0166695  25.5327023  60.9250122  98.6111186  25.2922759  60.2143431
  98.0893279  24.8134153  61.5523659  80.2363851  39.3760634  61.2393287
  80.1018319  38.6161034  60.6731285  79.8195913  40.1001533  60.7722076
  96.0125430  26.0997150  57.1922252  95.7562365  25.6993786  58.0230460
  95.3878298  26.8140944  57.0672391 100.3237768  28.8393224  59.6993544
  99.7637326  28.9086413  60.4725106  99.7181272  28.6634208  58.9793040
  83.3932977  40.2729951  61.4511730  83.2765361  41.2175383  61.3490420
  82.5725423  39.9703512  61.8397529  77.7247919  26.7380264  67.4886084
  78.3706782  26.2279218  67.9773309  77.5165070  27.4748946  68.0629509
  90.2501311  33.8061112  72.9878225  91.1192471  33.9801764  72.6264860
  89.7708062  34.6255528  72.8653954  86.2451529  21.0020309  53.2409980
  86.2330199  21.9462149  53.3978251  87.1374951  20.8190454  52.9469442
  84.4187491  40.9258213  64.6667658  85.3214738  40.9581823  64.9834153
  84.1924861  39.9958663  64.6813994  90.0603649  17.5963085  57.4955917
  89.2936044  17.0421572  57.6412599  90.4714354  17.6684954  58.3570069
  82.0645410  23.8847881  71.5861098  82.9276871  23.5284686  71.7964423
  81.4910820  23.5461776  72.2736503 101.9093787  45.5149737  62.3923499
 102.5472197  45.3956485  61.6886839 101.7914630  46.4630581  62.4511452
  98.7183493  45.4677166  62.3285024  98.3802004  45.3518230  61.4405559
  99.5873261  45.0668331  62.3086030  94.5770309  47.3212642  58.3181915
  94.0135174  47.2302579  57.5498203  94.4622704  46.5012546  58.7984408
  99.2003276  46.6212017  68.2871230  99.1891917  46.2264816  67.4151733
  99.3623915  45.8878090  68.8805001  92.1234741  48.8163834  61.1566135
  92.9156032  48.4754658  60.7412435  92.3631391  48.9258809  62.0768289
 100.1569867  50.9883610  53.6296380  99.5057847  51.5737690  53.2430394
 100.9514230  51.5189805  53.6891417  94.0825494  48.0772747  54.0283514
  94.8556370  47.5301734  53.8896390  94.4350893  48.9416996  54.2397976
  95.9210537  49.4049129  67.2350414  95.6300403  50.3094760  67.1197080
  96.5567521  49.4465657  67.9494483  96.8466744  46.7825978  63.8251773
  97.4430316  46.5582000  63.1108736  96.9041715  46.0410723  64.4277221
  96.4191772  44.2365413  51.6601964  96.6717293  43.7146934  50.8985427
  95.4816331  44.0731558  51.7628648 101.4635055  43.2401191  59.4676707
 102.2498144  42.8220614  59.1167124 101.7273759  44.1447283  59.6358356
 101.6345132  48.6774042  54.1665364 100.9990965  48.7508668  54.8786269
 101.3042539  49.2667640  53.4884443 106.8643482  43.1776425  60.3709686
 107.5968654  42.6075641  60.6047515 106.1082838  42.7898025  60.8116191
  96.1388061  46.1393519  53.8626339  96.0224319  45.4638422  54.5307423
  96.2490321  45.6525893  53.0458492  98.4819602  45.6003666  57.5673028
  98.1177809  45.0734287  58.2785950  99.3386718  45.2102135  57.3939514
 104.3868903  36.8897999  64.8304295 104.0552227  37.7593410  64.6065509
 103.7914516  36.5734283  65.5098325 100.8800422  49.0910545  64.2300207
 100.5801145  49.9935583  64.1216014 100.5351482  48.8242728  65.0821360
  94.3312904  45.5424341  60.2636912  93.4063400  45.4100556  60.4714603
  94.5797317  46.3218561  60.7606854 104.2797566  41.6093085  61.9097645
 103.3714443  41.5408493  61.6156406 104.2285162  42.0865030  62.7379470
  98.1014310  43.0851223  53.5481044  97.9813935  43.5308274  54.3866524
  97.4066898  43.4336541  52.9894582  91.6921715  45.1857615  61.0980701
  91.8214096  45.4392094  62.0120112  91.0119166  45.7785323  60.7785356
  95.8621202  55.8554865  57.1971175  95.7845232  56.8062690  57.2759656
  95.2582846  55.5100737  57.8546101  98.3538432  43.0282730  69.8532542
  97.5771766  43.5876651  69.8435406  98.9928995  43.5139513  70.3747412
 106.1459212  39.8109523  63.6875518 105.5033593  40.1042056  63.0415313
 105.6414141  39.6962444  64.4928715 103.7999376  43.5572696  54.3761378
 104.7117232  43.7900083  54.2009075 103.2909023  44.1409741  53.8136456
  96.6084804  45.8368184  69.4150509  97.3499488  46.3753228  69.1385332
  95.9021789  46.4634472  69.5722061  98.4371214  42.9169931  65.3856227
  99.2832409  43.3409345  65.5290876  98.3769851  42.2603555  66.0794790
 102.4068958  48.5398515  61.7674959 101.7777821  48.7044229  61.0651027
 102.0194620  48.9540124  62.5385923 106.2858190  49.4752953  59.1219323
 105.6009228  49.8551854  58.5716356 106.3702040  50.0848279  59.8551271
 101.5870659  40.5774299  67.0437401 101.3431591  41.3316360  66.5071677
 101.8630590  40.9559647  67.8784648 103.5409122  47.1212912  65.7214666
 103.7526017  47.7644672  65.0449048 103.4938870  46.2875228  65.2536597
 101.1435351  39.7330732  62.6251239 100.2819830  40.0311986  62.9167976
 101.1697785  39.9501131  61.6932271  97.9596920  48.2772923  59.0325044
  98.4235266  48.5560626  58.2429667  97.6953718  47.3756367  58.8498135
  94.8521001  47.8244404  61.9704808  95.4222358  48.2531673  61.3322292
  95.4429113  47.5426989  62.6688993  95.3446168  42.9907832  70.2165819
  94.7144828  43.6724113  70.4501216  95.2382256  42.8790914  69.2718957
  90.6391140  42.6579628  61.1431743  89.8490194  42.9137156  60.6671854
  91.1302388  43.4727966  61.2483784 104.6554950  49.9984867  63.8937024
 105.4772393  49.5965054  63.6119705 104.6517353  49.8953101  64.8453140
  98.4211553  49.5468910  66.0497734  98.4855986  50.0089318  66.8855906
  97.7122477  48.9166275  66.1780044  88.9228843  42.9110118  63.5746734
  89.1736882  43.7957128  63.8404310  89.4588392  42.7314720  62.8021826
 112.7460943  46.3423616  60.2421995 111.9924651  45.7731014  60.0866000
 112.8808484  46.3086280  61.1892630  98.1359571  51.2137018  55.9176715
  98.0005246  52.0588554  56.3461562  98.6769383  51.4156296  55.1542648
  94.6226910  37.2928598  72.5791070  94.2293856  36.7394796  73.2538714
  95.4393051  37.6039176  72.9697587  91.5888968  48.7312456  56.4904640
  92.1013489  49.5255706  56.6410204  92.2411681  48.0338746  56.4238241
  93.3983853  51.8478212  58.5727393  93.5750481  52.7696177  58.3848377
  94.1940686  51.5336631  59.0021773  97.5394871  38.7086477  70.1711326
  98.2804585  39.3093630  70.0915789  97.7712794  37.9664115  69.6129369
  92.6836209  43.8942844  68.4489556  92.5689725  42.9928101  68.7496655
  91.8280727  44.1406541  68.0974373  99.7628047  51.8360584  70.0477057
  99.3191901  51.0496963  69.7297961 100.4245261  52.0239735  69.3820948
  94.5215168  53.3656386  64.5737735  95.0722594  53.2373449  63.8014729
  93.6826644  53.6651275  64.2232628 101.8609285  52.1163384  68.0758458
 101.8427761  52.9372265  67.5838727 102.7829205  51.9917460  68.3008599
  98.3182339  49.6307514  68.9181966  98.8510676  48.8695802  68.6881274
  97.7896421  49.3381166  69.6606121 101.4852034  34.7367580  64.4475608
 101.1416304  35.6269221  64.3714719 101.8530997  34.5469237  63.5845193
  89.5537885  47.0601110  57.2664210  90.3913107  47.4698119  57.0497918
  89.7316153  46.1200552  57.2364404 101.4502317  44.7276191  52.9548043
 100.9348941  45.4980796  53.1936431 101.1779626  44.0541327  53.5781105
 100.5648575  37.1072235  62.4124841 100.0613370  37.0702370  61.5992647
 100.8579182  38.0164978  62.4721498 106.4236591  47.4808546  54.8901217
 105.6466034  47.1419705  54.4456379 107.1028072  47.4861169  54.2156182
  99.6835052  48.7593506  56.4300778  99.1556414  48.0246266  56.1174016
  99.1822555  49.5368183  56.1840747 104.6627898  46.9542527  61.5467825
 104.0051573  47.6441788  61.6347953 105.4668297  47.3438959  61.8901811
 103.4733357  45.3086899  59.5971766 103.9865239  45.9416891  60.0993476
 104.1234581  44.7088095  59.2315126  97.8287652  46.5773717  49.4335751
  96.9214714  46.3462970  49.6326900  98.3258684  45.7811336  49.6209733
 100.7355731  55.2871224  52.3532438 100.0617430  55.5902921  52.9617395
 101.1221553  56.0900304  52.0037895  99.9514188  42.7836355  61.8430107
  99.0336749  43.0051302  61.6851795 100.3674331  42.8582666  60.9841814
 100.7349236  44.1827771  56.9732787 101.4821055  44.6949168  56.6639909
 101.0040825  43.8611823  57.8337181  99.0075886  46.6786311  53.9559742
  98.0987105  46.3945344  54.0532211  99.0370970  47.0985390  53.0963048
 104.2395153  50.2892901  57.7250909 103.7857480  49.4483811  57.7816100
 103.6089120  50.9254299  58.0625689 103.1828073  41.2184887  58.9551577
 102.4450830  40.7062273  59.2861819 103.4354846  40.7785269  58.1434853
 102.6828092  52.1269398  58.6600727 102.9751067  52.6874455  57.9413093
 103.1926713  52.4197959  59.4153886 103.2839700  33.9961139  59.5493346
 103.5898577  33.1358502  59.2619261 104.0092305  34.5878759  59.3492340
  97.5560780  44.2914932  60.0569537  97.6109390  43.3388768  59.9812013
  96.7451982  44.4474371  60.5410835  98.7051974  48.2195055  51.2947820
  98.2671404  47.5030914  50.8353457  99.4462414  48.4471170  50.7332911
  97.6461718  52.9049749  59.7494180  97.6037896  53.1310595  58.8202712
  98.5624416  52.6713123  59.8979982 101.0927351  43.3733816  66.6474810
 101.4476739  43.6005289  67.5069275 101.7399483  43.7052193  66.0252065
 106.8225088  46.4952252  57.3524139 106.6842987  46.6853848  56.4245328
 106.4661307  47.2571635  57.8092190  94.9867214  40.4810347  63.4321151
  95.6266594  40.3399106  62.7344114  94.1544745  40.1944861  63.0559753
 106.8494468  48.5628779  62.3635410 107.2830975  48.4704068  63.2118464
 107.5626049  48.5386280  61.7255426  95.7627518  49.7812778  59.5456143
  96.5568117  49.2863098  59.3438718  95.0519211  49.2530641  59.1823849
 100.5822363  52.1630873  63.8968511 100.6359385  52.7321810  64.6646227
  99.7137144  52.3332758  63.5322548  93.4620756  41.8648429  65.3792962
  94.1343810  41.6565792  64.7305611  92.6350543  41.6670515  64.9398194
 107.7110018  48.6052480  64.8968296 107.9045908  49.5098290  65.1427571
 107.6110636  48.1459899  65.7306881  99.3646328  38.4910370  67.3958623
  98.7174243  39.1900320  67.3023099 100.1347344  38.9246514  67.7634871
 102.7725126  48.7559223  70.4709176 102.6210633  48.5269774  69.5539260
 102.7629806  49.7129824  70.4840521  99.5410463  46.3291135  65.4555443
 100.4702523  46.4802295  65.2824410  99.1201493  46.4175156  64.6004089
  98.3398794  50.3541800  63.2253980  98.2009880  49.9860584  64.0979918
  97.5513391  50.8689439  63.0537938  98.9346946  55.4550896  54.5679517
  99.1098702  54.9838939  55.3825139  98.2479734  56.0816662  54.7960778
  99.8904010  49.7323402  60.6142818  99.5553842  49.6924172  61.5100468
  99.3907955  49.0668118  60.1413228  93.8648254  45.1391032  66.1395399
  93.7268051  44.4071271  66.7406938  94.7753177  45.0499933  65.8579587
 102.8263201  47.0779437  50.8879878 102.2092372  46.3526265  50.7912930
 102.3579690  47.8388797  50.5446952  96.4930554  44.8510992  65.6279079
  97.2030173  44.2104184  65.5865697  96.4499862  45.1023887  66.5505260
 104.4817333  51.7878345  68.5485658 104.4229879  51.1037565  67.8816241
 104.8836851  52.5297335  68.0966284  95.2059488  41.8376210  67.4474718
  94.6696845  41.3866948  68.0996315  94.6176197  41.9722118  66.7045183
 104.4834740  49.7517929  66.7799638 103.5961519  49.4143851  66.9026037
 105.0533291  49.0200960  67.0168403  86.1363887  46.0842021  60.1042689
  86.8234927  45.7703751  59.5163704  85.9812016  46.9883385  59.8309941
  90.9398609  40.9732217  64.5327713  90.8556798  40.3657887  63.7978123
  90.1181316  41.4641236  64.5337209  98.0135894  54.4119381  63.7460881
  97.9406065  55.2174353  64.2580185  97.5713287  54.6111347  62.9208902
  97.8025673  53.6491151  57.2563702  97.0193195  54.1912832  57.3501927
  98.5018418  54.1665131  57.6557944 108.9652081  45.1626146  61.5416199
 108.9541957  46.0450862  61.1710132 108.0969460  44.8097697  61.3470736
 100.4734577  54.3106215  65.9019040 101.1862549  54.9453680  65.8294941
  99.9824606  54.4070081  65.0859041 102.1952104  48.2157468  57.4736331
 101.2608383  48.3358931  57.3041036 102.3728772  47.3129935  57.2096341
 105.5824655  44.0574787  58.0086365 106.0485107  44.8902779  57.9346668
 106.0332156  43.5919769  58.7131624  95.5246491  52.0600659  66.7224610
  96.2255950  52.6937142  66.8754005  95.0541606  52.4015390  65.9620250
 103.6500886  50.4018609  55.0072517 103.9260730  50.2875203  55.9166392
 102.7805385  50.0036094  54.9684691 103.5541318  36.4255374  62.0477267
 102.6404398  36.6559601  62.2159474 103.9834420  36.5093818  62.8991299
 103.3247777  44.6145266  64.5477161 102.6719227  44.8621174  63.8929614
 103.7028156  43.8009405  64.2139638 100.2854950  54.6504960  58.6505331
 100.4677345  53.8326615  59.1133083 101.1087936  54.8672652  58.2130221
 100.6197116  53.5773145  55.9120380 101.1484882  53.0665599  55.2990542
 100.8825335  53.2615675  56.7765913  99.3735350  45.3565077  71.0343198
  98.6975987  45.2559207  71.7045573 100.1962983  45.2004291  71.4979195
  91.1214209  51.5937014  63.6555713  91.7067645  50.8480702  63.7883617
  90.9239047  51.9040971  64.5392377  93.9752864  54.6288261  58.6718155
  93.3063239  55.1134389  58.1882196  93.8365734  54.8757482  59.5861534
  85.7131863  44.1642614  62.3760156  85.7515963  43.6306205  63.1697274
  85.2072156  43.6377820  61.7571133  98.1158132  56.6632005  65.2700814
  98.6676440  56.8263626  66.0349899  98.4564326  57.2536443  64.5980839
  93.0922626  39.0107155  65.8722699  93.1563952  39.8721986  65.4600096
  93.0289746  38.3981156  65.1395057  92.5674898  41.0830287  69.5195733
  93.1946937  40.7007365  70.1333257  91.7102817  40.8644489  69.8851425
 102.9669007  51.4893262  71.1249468 103.5108911  52.1023221  70.6304423
 102.3855852  52.0472841  71.6416481 101.2526520  54.6113980  62.2564496
 101.1277659  53.8103720  61.7475441 101.9105611  55.1060174  61.7678466
  92.8734688  40.9662713  61.4341636  92.1521274  41.5798681  61.2949110
  93.6627944  41.5020478  61.3558282 103.3161428  52.4123000  63.8844046
 102.3691764  52.2928352  63.8122373 103.6644201  51.5245499  63.9670308
  95.6761001  38.3017139  67.7082288  96.1995403  38.5479436  68.4708597
  95.4573335  39.1337174  67.2885425 100.3207861  52.2075717  60.0848398
 100.1732824  51.2792424  60.2655968 101.1461355  52.2295807  59.6005474
 103.9241983  53.0304275  61.1713271 104.8488531  52.8247137  61.0337722
 103.7557287  52.7820677  62.0802613  96.8813547  39.2430834  65.3931959
  96.5410367  38.4438648  65.7952638  96.1752553  39.5432545  64.8208792
  97.5330018  36.3280147  63.8459282  98.3556088  35.8540625  63.7238172
  97.7768082  37.1070631  64.3457968  95.0568597  43.0199268  61.6551260
  94.9113178  43.3339571  62.5475542  94.5793801  43.6384168  61.1022159
  96.9164980  40.0101816  61.7032150  96.9026549  39.1142909  61.3664448
  97.6337408  40.0172479  62.3370436  98.7691111  40.4439156  63.7485277
  98.5108889  41.3656226  63.7469608  98.2376151  40.0469590  64.4385741
 103.7137299  53.5489943  56.5275363 103.8874177  52.9836365  55.7749215
 104.2066191  54.3490838  56.3454852  89.5314259  45.5604612  64.5938921
  88.9867727  46.3364420  64.7259196  90.4093609  45.9075416  64.4358043
 109.5676691  46.3126366  58.1465662 110.0107837  45.5633691  57.7484786
 108.6903201  46.3036502  57.7639394 104.7012472  52.8656707  53.6272261
 105.3963377  53.4863400  53.8459575 105.0435622  52.0152058  53.9024639
  90.3180281  44.6874508  67.4869078  89.5762017  44.8357144  68.0733709
  89.9973025  44.9482774  66.6235828 106.6003895  50.3156413  55.1559592
 107.1255219  50.6543686  54.4308912 106.5126248  49.3803428  54.9722726
  98.2623944  54.2290486  67.2849468  98.5711070  53.9839633  68.1572168
  99.0599426  54.4337125  66.7968338  98.2844556  56.3828396  59.5154845
  97.8449546  55.8904775  60.2087701  99.0352673  55.8401364  59.2746920
  90.7636895  52.5739937  59.5179473  91.5894915  52.2743709  59.1378116
  90.4130947  51.8047559  59.9669261  95.7318428  51.9266405  61.5877146
  95.1098437  51.2637110  61.2879374  96.4023295  51.9527537  60.9050794
  88.9645500  50.4926263  60.4768406  88.1277408  50.0648438  60.2952408
  88.9369145  50.6858707  61.4139198  95.8042955  40.4048193  71.1809652
  95.8531111  41.2810316  70.7987422  96.3465470  39.8625586  70.6081296
 106.2897801  50.9489316  70.4610790 105.4993345  50.9313455  69.9215289
 106.0531156  51.4877610  71.2159826 106.4095676  47.7981783  67.7743518
 106.4593681  47.6331790  68.7159041 106.3009600  46.9309042  67.3841399
  95.2931935  50.4770329  55.0635607  95.4420055  51.1605793  54.4102280
  96.0998378  50.4575419  55.5785063 103.6999439  43.7812711  69.0902825
 104.6009301  43.6419176  68.7986823 103.7747413  43.9467166  70.0301002
  98.0342244  41.1579566  67.9356011  97.1645553  41.4513132  67.6638600
  98.2701724  41.7420011  68.6563275 107.9113873  50.2178724  68.0185540
 107.6198681  50.5808705  68.8549001 107.2986004  49.5045733  67.8398872
 109.1109555  47.7831604  60.5388110 109.9456447  48.2221408  60.7025670
 109.2468684  47.3070257  59.7196356 106.1601061  45.3411339  66.4865598
 106.6355183  45.5338985  65.6784449 105.2366627  45.3970525  66.2408981
  93.0484568  46.5035506  56.0696676  92.8030610  45.5997836  56.2676886
  93.2180482  46.5052657  55.1276154 100.7381278  37.3759183  65.4521432
 101.2563222  38.1120209  65.1267920 100.3836411  37.6823176  66.2868191
 100.9893872  33.7959465  60.9722328 101.2695626  33.1282654  61.5982755
 101.7744479  33.9888561  60.4596992  98.7927340  52.9718459  52.5347354
  98.2201307  53.5908646  52.0817826  99.3660134  53.5217821  53.0687276
 104.8602730  42.2177099  64.7193903 105.8120153  42.3175197  64.7406127
 104.6906181  41.4255368  65.2291988 102.8817110  39.3032682  64.9053304
 102.2867042  39.5837695  64.2099793 102.5966806  39.7926583  65.6770045
 102.0124600  53.2555609  53.6655937 102.9455273  53.1901171  53.8688812
 101.9247813  54.0911876  53.2070469 104.6412617  52.5721479  50.6259884
 104.5626248  52.2381343  51.5195642 105.4622284  53.0643247  50.6251357
 107.3390808  45.4383219  63.8336203 107.3067128  44.4999219  64.0195887
 107.9491432  45.5167255  63.1002028 107.4885297  42.2294262  63.8794486
 106.9724345  41.4452719  63.6924415 108.3725245  41.9012979  64.0441006
 105.1496023  35.9735278  59.8390299 104.9520845  35.6650366  60.7233631
 105.7595729  36.6996917  59.9688229 113.1567358  46.4999226  62.9742240
 113.8870746  46.2384514  63.5349943 112.5474303  45.7627948  63.0144308
 111.2382655  44.6407088  63.5716691 110.5115819  44.5063053  62.9633182
 110.8229942  44.9483917  64.3773409  88.2794996  43.5535612  60.2617339
  87.9597781  42.7000920  59.9691713  87.7328425  43.7684190  61.0175306
  92.0574904  46.2698052  63.9786845  92.2760914  47.2015160  63.9974879
  92.4700678  45.9106027  64.7641649 100.9069670  35.8544185  57.5886830
 101.4600709  36.2739638  58.2476853 101.1439756  34.9279933  57.6309786
  96.9302769  41.8431258  73.3689594  96.8299496  42.7925615  73.3001685
  96.7124311  41.5149497  72.4965664  88.1483256  47.1738523  62.2310460
  87.4546728  46.7592476  61.7180415  88.8956247  47.2159060  61.6343879
 104.2848477  37.9644710  57.0965494 103.7047146  38.6229514  56.7143547
 104.0184410  37.1422054  56.6852912 102.7352044  37.3649767  59.2986815
 103.2351822  37.4766302  58.4901133 103.3787651  37.0610820  59.9387623
  96.7934039  45.2728397  72.1854656  96.3101121  46.0728757  72.3918545
  96.8794978  45.2836342  71.2322100  90.0619999  47.1056777  60.1076475
  90.0390687  47.2044464  59.1558358  90.3720635  47.9521928  60.4293641
  92.7207377  49.1632932  64.2223089  93.6750630  49.1316874  64.1553021
  92.5219900  48.7023556  65.0373315  93.3106759  47.7334048  66.7893887
  94.1299648  48.2278127  66.8128724  93.5843567  46.8166016  66.7611455
 106.4187891  40.1491321  59.8676182 107.1948281  40.6387774  60.1400799
 105.6936025  40.5749375  60.3248051 108.8560450  40.8618940  60.9250122
 109.4504941  40.6214676  60.2143431 108.9287034  40.1426071  61.5523659
  91.0757606  54.7052551  61.2393287  90.9412074  53.9452952  60.6731285
  90.6589668  55.4293451  60.7722076 102.2116569  49.8889475  50.2469863
 102.9152419  50.0939477  50.8627518 101.4879217  50.4566237  50.5118946
 103.0414379  45.6399336  56.3672133 102.9849580  46.0967888  55.5279765
 103.5942721  44.8790021  56.1894975 106.8519185  41.4289068  57.1922252
 106.5956119  41.0285704  58.0230460 106.2272053  42.1432862  57.0672391
 111.1631523  44.1685141  59.6993544 110.6031081  44.2378331  60.4725106
 110.5575026  43.9926126  58.9793040  94.2326731  55.6021868  61.4511730
  94.1159116  56.5467301  61.3490420  93.4119178  55.2995430  61.8397529
 104.1203266  50.3272004  52.2968323 104.9548870  49.8953203  52.1145797
 103.9587609  50.1554018  53.2245217 103.7749158  46.8304117  53.6624662
 103.7197962  46.6648389  52.7213106 103.1495213  47.5380150  53.8186852
  88.5641673  42.0672182  67.4886084  89.2100537  41.5571136  67.9773309
  88.3558824  42.8040863  68.0629509 101.0895065  49.1353029  72.9878225
 101.9586225  49.3093681  72.6264860 100.6101817  49.9547446  72.8653954
  97.0134848  55.0081117  61.3277737  96.0630479  55.0082978  61.2142109
  97.3167334  54.2613851  60.8113772 100.8997403  32.9255003  57.4955917
 100.1329799  32.3713490  57.6412599 101.3108108  32.9976872  58.3570069
  92.9039164  39.2139799  71.5861098  93.7670626  38.8576604  71.7964423
  92.3304575  38.8753694  72.2736503 112.7487541  60.8441655  62.3923499
 113.3865951  60.7248402  61.6886839 112.6308384  61.7922499  62.4511452
 109.5577247  60.7969083  62.3285024 109.2195759  60.6810148  61.4405559
 110.4267016  60.3960248  62.3086030 105.4164063  62.6504560  58.3181915
 104.8528928  62.5594497  57.5498203 105.3016458  61.8304464  58.7984408
 110.0397030  61.9503935  68.2871230 110.0285671  61.5556733  67.4151733
 110.2017670  61.2170008  68.8805001 102.9628495  64.1455751  61.1566135
 103.7549787  63.8046576  60.7412435 103.2025145  64.2550726  62.0768289
 110.9963622  66.3175527  53.6296380 110.3451602  66.9029608  53.2430394
 111.7907985  66.8481722  53.6891417 104.9219249  63.4064665  54.0283514
 105.6950125  62.8593652  53.8896390 105.2744648  64.2708914  54.2397976
 106.7604292  64.7341047  67.2350414 106.4694158  65.6386678  67.1197080
 107.3961276  64.7757574  67.9494483 107.6860498  62.1117895  63.8251773
 108.2824071  61.8873918  63.1108736 107.7435470  61.3702641  64.4277221
 107.2585527  59.5657331  51.6601964 107.5111047  59.0438852  50.8985427
 106.3210086  59.4023476  51.7628648 112.3028810  58.5693109  59.4676707
 113.0891899  58.1512532  59.1167124 112.5667514  59.4739201  59.6358356
 112.4738887  64.0065959  54.1665364 111.8384720  64.0800586  54.8786269
 112.1436293  64.5959558  53.4884443 117.7037237  58.5068342  60.3709686
 118.4362409  57.9367559  60.6047515 116.9476592  58.1189943  60.8116191
 106.9781816  61.4685437  53.8626339 106.8618074  60.7930340  54.5307423
 107.0884075  60.9817811  53.0458492 109.3213356  60.9295584  57.5673028
 108.9571564  60.4026205  58.2785950 110.1780472  60.5394053  57.3939514
 115.2262657  52.2189916  64.8304295 114.8945982  53.0885327  64.6065509
 114.6308270  51.9026200  65.5098325 108.9618843  55.9585483  52.5634377
 109.1293246  56.8265720  52.9304848 108.7716013  56.1212765  51.6395666
 111.7194177  64.4202462  64.2300207 111.4194900  65.3227501  64.1216014
 111.3745236  64.1534645  65.0821360 105.1706658  60.8716259  60.2636912
 104.2457155  60.7392473  60.4714603 105.4191071  61.6510478  60.7606854
 115.1191320  56.9385002  61.9097645 114.2108198  56.8700411  61.6156406
 115.0678916  57.4156947  62.7379470 108.9408064  58.4143141  53.5481044
 108.8207690  58.8600192  54.3866524 108.2460653  58.7628459  52.9894582
 102.5315469  60.5149533  61.0980701 102.6607850  60.7684012  62.0120112
 101.8512920  61.1077241  60.7785356 106.7014956  71.1846783  57.1971175
 106.6238986  72.1354608  57.2759656 106.0976600  70.8392655  57.8546101
 109.1932186  58.3574648  69.8532542 108.4165520  58.9168568  69.8435406
 109.8322749  58.8431431  70.3747412 116.9852967  55.1401441  63.6875518
 116.3427347  55.4333974  63.0415313 116.4807895  55.0254361  64.4928715
 114.6393130  58.8864614  54.3761378 115.5510987  59.1192001  54.2009075
 114.1302778  59.4701658  53.8136456 107.4478559  61.1660101  69.4150509
 108.1893243  61.7045145  69.1385332 106.7415544  61.7926390  69.5722061
 112.9233898  63.3089242  68.0122670 113.3317254  62.8671652  67.2677303
 112.2011160  62.7341869  68.2656863 109.2764968  58.2461849  65.3856227
 110.1226163  58.6701262  65.5290876 109.2163606  57.5895473  66.0794790
 113.2462713  63.8690433  61.7674959 112.6171575  64.0336147  61.0651027
 112.8588375  64.2832042  62.5385923 117.1251945  64.8044870  59.1219323
 116.4402983  65.1843772  58.5716356 117.2095794  65.4140197  59.8551271
 112.4264414  55.9066217  67.0437401 112.1825345  56.6608278  66.5071677
 112.7024344  56.2851565  67.8784648 114.3802876  62.4504829  65.7214666
 114.5919772  63.0936589  65.0449048 114.3332625  61.6167146  65.2536597
 111.9829105  55.0622650  62.6251239 111.1213584  55.3603904  62.9167976
 112.0091540  55.2793049  61.6932271 108.7990675  63.6064841  59.0325044
 109.2629020  63.8852544  58.2429667 108.5347473  62.7048285  58.8498135
 105.6914756  63.1536322  61.9704808 106.2616113  63.5823591  61.3322292
 106.2822868  62.8718907  62.6688993 107.7359561  59.7287993  55.8414609
 108.4383604  60.1809037  56.3088536 107.4040189  59.0871812  56.4694503
 106.1839922  58.3199750  70.2165819 105.5538583  59.0016030  70.4501216
 106.0776010  58.2082831  69.2718957 101.4784895  57.9871546  61.1431743
 100.6883949  58.2429074  60.6671854 101.9696142  58.8019883  61.2483784
 115.4948704  65.3276785  63.8937024 116.3166148  64.9256972  63.6119705
 115.4911107  65.2245019  64.8453140 103.4299640  58.3516125  58.1015220
 102.6330803  58.4634819  58.6198715 103.2025232  58.6902777  57.2356110
 109.2605308  64.8760828  66.0497734 109.3249740  65.3381235  66.8855906
 108.5516232  64.2458193  66.1780044  99.7622598  58.2402036  63.5746734
 100.0130636  59.1249046  63.8404310 100.2982146  58.0606638  62.8021826
 108.9753325  66.5428936  55.9176715 108.8399000  67.3880471  56.3461562
 109.5163138  66.7448213  55.1542648 105.4620665  52.6220515  72.5791070
 105.0687611  52.0686714  73.2538714 106.2786805  52.9331094  72.9697587
 102.4282723  64.0604374  56.4904640 102.9407243  64.8547624  56.6410204
 103.0805436  63.3630664  56.4238241 104.2377607  67.1770130  58.5727393
 104.4144236  68.0988095  58.3848377 105.0334441  66.8628549  59.0021773
 108.3788626  54.0378395  70.1711326 109.1198339  54.6385548  70.0915789
 108.6106549  53.2956032  69.6129369 103.5229964  59.2234762  68.4489556
 103.4083479  58.3220019  68.7496655 102.6674482  59.4698459  68.0974373
 110.6021802  67.1652502  70.0477057 110.1585656  66.3788881  69.7297961
 111.2639015  67.3531653  69.3820948 105.3608923  68.6948304  64.5737735
 105.9116348  68.5665367  63.8014729 104.5220399  68.9943193  64.2232628
 112.7003040  67.4455302  68.0758458 112.6821515  68.2664183  67.5838727
 113.6222960  67.3209377  68.3008599 109.1576094  64.9599432  68.9181966
 109.6904431  64.1987720  68.6881274 108.6290175  64.6673083  69.6606121
 112.3245789  50.0659497  64.4475608 111.9810058  50.9561139  64.3714719
 112.6924752  49.8761155  63.5845193 100.3931640  62.3893028  57.2664210
 101.2306862  62.7990036  57.0497918 100.5709907  61.4492470  57.2364404
 112.2896072  60.0568109  52.9548043 111.7742695  60.8272713  53.1936431
 112.0173380  59.3833245  53.5781105 109.8743183  54.9017809  58.0133282
 109.0184779  54.5124660  57.8338920 110.2870134  54.9809770  57.1533067
 111.4042329  52.4364153  62.4124841 110.9007125  52.3994288  61.5992647
 111.6972936  53.3456895  62.4721498 107.6485215  52.5202882  61.4191023
 108.5138212  52.3245691  61.0596913 107.7162724  52.2913234  62.3460380
 117.2630346  62.8100463  54.8901217 116.4859789  62.4711623  54.4456379
 117.9421827  62.8153086  54.2156182 112.0782375  57.9295201  54.7807824
 111.7732510  58.2441350  55.6317968 113.0312817  58.0076621  54.8235157
 110.5228807  64.0885424  56.4300778 109.9950168  63.3538184  56.1174016
 110.0216309  64.8660100  56.1840747 115.5021653  62.2834444  61.5467825
 114.8445327  62.9733706  61.6347953 116.3062052  62.6730876  61.8901811
 105.2547534  54.7505090  58.7907390 105.8291286  54.5280272  58.0580583
 105.8418517  54.8193785  59.5435991 114.3127111  60.6378817  59.5971766
 114.8258993  61.2708809  60.0993476 114.9628335  60.0380013  59.2315126
 105.5817121  56.7809551  52.8103275 104.7454434  57.1184238  53.1312550
 105.4421891  56.6458531  51.8730412 107.5570202  51.6246339  57.5182459
 106.9034614  51.3095356  56.8939074 107.5150676  51.0022080  58.2442282
 108.6681407  61.9065634  49.4335751 107.7608469  61.6754888  49.6326900
 109.1652439  61.1103254  49.6209733 111.5749486  70.6163141  52.3532438
 110.9011184  70.9194838  52.9617395 111.9615308  71.4192222  52.0037895
 110.7907942  58.1128273  61.8430107 109.8730504  58.3343220  61.6851795
 111.2068086  58.1874583  60.9841814 111.5742990  59.5119688  56.9732787
 112.3214809  60.0241086  56.6639909 111.8434580  59.1903741  57.8337181
 109.8469640  62.0078229  53.9559742 108.9380860  61.7237262  54.0532211
 109.8764724  62.4277308  53.0963048 115.0788908  65.6184819  57.7250909
 114.6251235  64.7775728  57.7816100 114.4482874  66.2546217  58.0625689
 114.0221827  56.5476805  58.9551577 113.2844584  56.0354191  59.2861819
 114.2748601  56.1077186  58.1434853 113.5221847  67.4561315  58.6600727
 113.8144821  68.0166372  57.9413093 114.0320467  67.7489876  59.4153886
 114.1233455  49.3253057  59.5493346 114.4292331  48.4650420  59.2619261
 114.8486059  49.9170677  59.3492340 100.4157811  59.7283743  57.9374944
 100.2182210  59.1353104  57.2126010  99.8604475  59.4235953  58.6550883
 108.3954534  59.6206850  60.0569537 108.4503144  58.6680686  59.9812013
 107.5845736  59.7766289  60.5410835 109.5445728  63.5486973  51.2947820
 109.1065158  62.8322832  50.8353457 110.2856169  63.7763088  50.7332911
 106.3346894  58.2383909  57.8159916 105.5214760  58.5378080  58.2225108
 106.8305888  57.8439598  58.5334398 108.4855472  68.2341666  59.7494180
 108.4431651  68.4602513  58.8202712 109.4018171  68.0005041  59.8979982
 111.9321106  58.7025734  66.6474810 112.2870494  58.9297207  67.5069275
 112.5793237  59.0344111  66.0252065 117.6618843  61.8244170  57.3524139
 117.5236741  62.0145766  56.4245328 117.3055062  62.5863553  57.8092190
 105.8260969  55.8102265  63.4321151 106.4660348  55.6691024  62.7344114
 104.9938500  55.5236778  63.0559753 117.6888222  63.8920697  62.3635410
 118.1224729  63.7995986  63.2118464 118.4019803  63.8678197  61.7255426
 106.6021273  65.1104695  59.5456143 107.3961871  64.6155016  59.3438718
 105.8912965  64.5822559  59.1823849 111.4216117  67.4922791  63.8968511
 111.4753140  68.0613727  64.6646227 110.5530899  67.6624676  63.5322548
 102.9104036  59.2547777  55.6215896 101.9801624  59.1932233  55.8385858
 103.0061508  58.7323730  54.8252537 102.8289585  55.7802590  58.2094138
 103.0896403  56.6947923  58.1003298 103.6506758  55.3127033  58.3590750
 104.3014511  57.1940347  65.3792962 104.9737564  56.9857709  64.7305611
 103.4744297  56.9962433  64.9398194 118.5503772  63.9344397  64.8968296
 118.7439662  64.8390208  65.1427571 118.4504390  63.4751817  65.7306881
 110.2040083  53.8202288  67.3958623 109.5567998  54.5192238  67.3023099
 110.9741098  54.2538432  67.7634871 113.6118881  64.0851140  70.4709176
 113.4604387  63.8561692  69.5539260 113.6023560  65.0421742  70.4840521
 110.3804217  61.6583053  65.4555443 111.3096277  61.8094213  65.2824410
 109.9595247  61.7467074  64.6004089 109.1792549  65.6833717  63.2253980
 109.0403635  65.3152502  64.0979918 108.3907145  66.1981357  63.0537938
 109.7740701  70.7842814  54.5679517 109.9492457  70.3130857  55.3825139
 109.0873489  71.4108580  54.7960778 110.7297764  65.0615320  60.6142818
 110.3947597  65.0216090  61.5100468 110.2301710  64.3960036  60.1413228
 104.7042008  60.4682950  66.1395399 104.5661806  59.7363189  66.7406938
 105.6146931  60.3791850  65.8579587 113.6656956  62.4071354  50.8879878
 113.0486126  61.6818183  50.7912930 113.1973444  63.1680715  50.5446952
 107.3324309  60.1802909  65.6279079 108.0423927  59.5396102  65.5865697
 107.2893617  60.4315804  66.5505260 115.3211087  67.1170263  68.5485658
 115.2623633  66.4329483  67.8816241 115.7230606  67.8589253  68.0966284
 106.0453243  57.1668127  67.4474718 105.5090600  56.7158866  68.0996315
 105.4569951  57.3014036  66.7045183 104.3401786  73.9332177  61.3419377
 104.5798384  74.5650701  62.0198396 103.4970983  73.5820217  61.6284736
 105.4555502  56.6256779  50.0101182 104.5784968  56.5045580  49.6463429
 105.9313255  55.8342857  49.7580071 115.3228495  65.0809847  66.7799638
 114.4355273  64.7435769  66.9026037 115.8927046  64.3492878  67.0168403
 101.7792364  56.3024135  64.5327713 101.6950553  55.6949805  63.7978123
 100.9575070  56.7933153  64.5337209 108.8529648  69.7411299  63.7460881
 108.7799819  70.5466271  64.2580185 108.4107041  69.9403265  62.9208902
 108.6419428  68.9783069  57.2563702 107.8586950  69.5204749  57.3501927
 109.3412173  69.4957049  57.6557944 111.9516078  54.7877699  59.8997908
 112.4484777  54.0347661  59.5798978 111.1803059  54.8242015  59.3341117
 119.8045835  60.4918064  61.5416199 119.7935711  61.3742780  61.1710132
 118.9363215  60.1389615  61.3470736 111.3128332  69.6398133  65.9019040
 112.0256304  70.2745598  65.8294941 110.8218360  69.7361999  65.0859041
 113.0345858  63.5449386  57.4736331 112.1002137  63.6650848  57.3041036
 113.2122527  62.6421853  57.2096341 108.5351046  56.9295082  59.6269592
 108.1648834  56.3766122  60.3150498 109.0310139  56.3253215  59.0744593
 116.4218410  59.3866705  58.0086365 116.8878862  60.2194697  57.9346668
 116.8725910  58.9211687  58.7131624 106.3640245  67.3892577  66.7224610
 107.0649705  68.0229060  66.8754005 105.8935360  67.7307308  65.9620250
 114.4894641  65.7310526  55.0072517 114.7654485  65.6167121  55.9166392
 113.6199140  65.3328011  54.9684691 114.3935073  51.7547292  62.0477267
 113.4798152  51.9851519  62.2159474 114.8228174  51.8385736  62.8991299
 114.1641531  59.9437184  64.5477161 113.5112981  60.1913091  63.8929614
 114.5421911  59.1301322  64.2139638 111.1248705  69.9796877  58.6505331
 111.3071099  69.1618533  59.1133083 111.9481691  70.1964569  58.2130221
 111.4590870  68.9065062  55.9120380 111.9878637  68.3957517  55.2990542
 111.7219090  68.5907593  56.7765913 110.2129104  60.6856995  71.0343198
 109.5369741  60.5851124  71.7045573 111.0356738  60.5296209  71.4979195
 101.9607963  66.9228932  63.6555713 102.5461400  66.1772620  63.7883617
 101.7632802  67.2332888  64.5392377 104.8146618  69.9580179  58.6718155
 104.1456994  70.4426307  58.1882196 104.6759488  70.2049399  59.5861534
  96.5525618  59.4934532  62.3760156  96.5909717  58.9598123  63.1697274
  96.0465911  58.9669737  61.7571133 108.9551887  71.9923923  65.2700814
 109.5070195  72.1555544  66.0349899 109.2958080  72.5828360  64.5980839
 103.9316380  54.3399072  65.8722699 103.9957707  55.2013903  65.4600096
 103.8683500  53.7273074  65.1395057 103.4068653  56.4122205  69.5195733
 104.0340691  56.0299282  70.1333257 102.5496572  56.1936407  69.8851425
 113.8062761  66.8185180  71.1249468 114.3502665  67.4315138  70.6304423
 113.2249606  67.3764758  71.6416481 100.1834195  58.2198634  55.4514088
 100.4787637  57.3109312  55.3981141  99.2822231  58.1986373  55.1295090
 112.0920274  69.9405898  62.2564496 111.9671414  69.1395638  61.7475441
 112.7499365  70.4352091  61.7678466 103.7128442  56.2954631  61.4341636
 102.9915028  56.9090598  61.2949110 104.5021698  56.8312395  61.3558282
 114.1555183  67.7414918  63.8844046 113.2085518  67.6220269  63.8122373
 114.5037956  66.8537416  63.9670308 106.5154756  53.6309057  67.7082288
 107.0389158  53.8771354  68.4708597 106.2967089  54.4629092  67.2885425
 101.9122037  55.9012732  55.5753413 101.5834743  55.0210111  55.3928519
 102.2661408  55.8460400  56.4629802 111.1601616  67.5367634  60.0848398
 111.0126578  66.6084342  60.2655968 111.9855109  67.5587725  59.6005474
 105.0263860  56.1885701  55.9428890 105.3659933  56.7171623  55.2207499
 105.4735981  56.5266108  56.7187457 114.7635738  68.3596193  61.1713271
 115.6882285  68.1539054  61.0337722 114.5951041  68.1112594  62.0802613
 107.7207301  54.5722752  65.3931959 107.3804121  53.7730565  65.7952638
 107.0146307  54.8724463  64.8208792 108.3723773  51.6572065  63.8459282
 109.1949842  51.1832543  63.7238172 108.6161836  52.4362548  64.3457968
 107.0132007  54.6860323  54.1422183 107.7340370  55.0641576  53.6385900
 106.3897311  55.4049200  54.2457161 111.1563130  55.3905472  55.0780516
 111.3726745  56.2730110  54.7769344 110.6757197  54.9991685  54.3486158
 105.8962352  58.3491185  61.6551260 105.7506932  58.6631488  62.5475542
 105.4187555  58.9676086  61.1022159 107.7558734  55.3393733  61.7032150
 107.7420303  54.4434827  61.3664448 108.4731163  55.3464397  62.3370436
 109.6084865  55.7731073  63.7485277 109.3502643  56.6948144  63.7469608
 109.0769906  55.3761508  64.4385741 114.5531054  68.8781861  56.5275363
 114.7267931  68.3128283  55.7749215 115.0459945  69.6782755  56.3454852
 100.3708014  60.8896530  64.5938921  99.8261482  61.6656338  64.7259196
 101.2487364  61.2367334  64.4358043 107.1595630  54.2208113  56.9719720
 107.2811542  53.2924760  57.1710607 106.8697673  54.2346799  56.0598035
 110.0286821  51.9063024  60.1086440 110.0508518  51.9702357  59.1538419
 110.4454880  51.0667533  60.3026946 120.4070445  61.6418283  58.1465662
 120.8501591  60.8925609  57.7484786 119.5296955  61.6328420  57.7639394
 115.5406226  68.1948625  53.6272261 116.2357131  68.8155318  53.8459575
 115.8829377  67.3443976  53.9024639 101.1574036  60.0166426  67.4869078
 100.4155772  60.1649061  68.0733709 100.8366780  60.2774691  66.6235828
 117.4397650  65.6448330  55.1559592 117.9648974  65.9835603  54.4308912
 117.3520002  64.7095346  54.9722726 109.1017698  69.5582404  67.2849468
 109.4104825  69.3131551  68.1572168 109.8993180  69.7629043  66.7968338
 109.1238310  71.7120314  59.5154845 108.6843301  71.2196692  60.2087701
 109.8746427  71.1693281  59.2746920 101.6030649  67.9031855  59.5179473
 102.4288669  67.6035626  59.1378116 101.2524701  67.1339477  59.9669261
 106.5712182  67.2558323  61.5877146 105.9492192  66.5929028  61.2879374
 107.2417049  67.2819455  60.9050794 106.6436710  55.7340111  71.1809652
 106.6924865  56.6102234  70.7987422 107.1859224  55.1917504  70.6081296
 117.1291556  66.2781234  70.4610790 116.3387099  66.2605373  69.9215289
 116.8924910  66.8169528  71.2159826 117.2489431  63.1273700  67.7743518
 117.2987436  62.9623708  68.7159041 117.1403354  62.2600960  67.3841399
 106.1325689  65.8062246  55.0635607 106.2813810  66.4897711  54.4102280
 106.9392133  65.7867336  55.5785063 114.5393193  59.1104629  69.0902825
 115.4403056  58.9711093  68.7986823 114.6141168  59.2759083  70.0301002
 108.8735998  56.4871483  67.9356011 108.0039308  56.7805049  67.6638600
 109.1095479  57.0711928  68.6563275 118.7507627  65.5470642  68.0185540
 118.4592436  65.9100623  68.8549001 118.1379759  64.8337650  67.8398872
 119.9503310  63.1123522  60.5388110 120.7850201  63.5513326  60.7025670
 120.0862439  62.6362175  59.7196356 116.9994816  60.6703257  66.4865598
 117.4748937  60.8630903  65.6784449 116.0760381  60.7262442  66.2408981
 103.8878322  61.8327424  56.0696676 103.6424364  60.9289754  56.2676886
 104.0574237  61.8344574  55.1276154 111.5775032  52.7051100  65.4521432
 112.0956976  53.4412127  65.1267920 111.2230165  53.0115093  66.2868191
 103.1573970  57.5655781  53.5682837 102.4643215  57.6400136  52.9122873
 102.9125722  56.8016125  54.0904354 111.8287626  49.1251383  60.9722328
 112.1089380  48.4574572  61.5982755 112.6138233  49.3180478  60.4596992
 109.6321095  68.3010377  52.5347354 109.0595062  68.9200564  52.0817826
 110.2053889  68.8509738  53.0687276 115.6996485  57.5469017  64.7193903
 116.6513908  57.6467114  64.7406127 115.5299935  56.7547285  65.2291988
 113.7210864  54.6324600  64.9053304 113.1260796  54.9129613  64.2099793
 113.4360561  55.1218501  65.6770045 112.8518355  68.5847527  53.6655937
 113.7849028  68.5193088  53.8688812 112.7641567  69.4203794  53.2070469
 115.4806371  67.9013397  50.6259884 115.4020003  67.5673261  51.5195642
 116.3016038  68.3935165  50.6251357 118.1784563  60.7675136  63.8336203
 118.1460883  59.8291137  64.0195887 118.7885186  60.8459173  63.1002028
 110.0167893  59.6371189  49.8763407 110.9626998  59.5077397  49.9451825
 109.6382138  58.8985851  50.3532835 118.3279051  57.5586180  63.8794486
 117.8118100  56.7744636  63.6924415 119.2119000  57.2304896  64.0441006
 115.9889778  51.3027195  59.8390299 115.7914599  50.9942284  60.7233631
 116.5989484  52.0288834  59.9688229 109.9006586  63.6888936  71.3364064
 110.8209595  63.8667535  71.5304110 109.8656169  62.7444981  71.1843763
 108.2010811  57.5621166  49.8118292 107.2942266  57.2654278  49.8881006
 108.4786792  57.2650984  48.9452578  99.1188751  58.8827529  60.2617339
  98.7991535  58.0292837  59.9691713  98.5722179  59.0976107  61.0175306
 102.8968658  61.5989970  63.9786845 103.1154668  62.5307078  63.9974879
 103.3094432  61.2397945  64.7641649 109.8172876  52.1058055  55.9662533
 109.0073605  51.7605140  56.3417779 110.5057293  51.7965599  56.5550145
 111.7463425  51.1836102  57.5886830 112.2994463  51.6031556  58.2476853
 111.9833511  50.2571850  57.6309786 107.7696524  57.1723176  73.3689594
 107.6693251  58.1217533  73.3001685 107.5518066  56.8441415  72.4965664
 106.9709595  54.4208101  49.9530271 107.8328759  54.7462999  50.2126089
 107.1559939  53.6339597  49.4403337  98.9877011  62.5030441  62.2310460
  98.2940482  62.0884393  61.7180415  99.7350002  62.5450977  61.6343879
 115.1242232  53.2936627  57.0965494 114.5440901  53.9521431  56.7143547
 114.8578164  52.4713972  56.6852912 113.5745798  52.6941685  59.2986815
 114.0745576  52.8058220  58.4901133 114.2181406  52.3902738  59.9387623
 107.6327794  60.6020315  72.1854656 107.1494876  61.4020675  72.3918545
 107.7188733  60.6128260  71.2322100 100.9013753  62.4348694  60.1076475
 100.8784442  62.5336382  59.1558358 101.2114390  63.2813845  60.4293641
 103.5601131  64.4924849  64.2223089 104.5144385  64.4608792  64.1553021
 103.3613655  64.0315473  65.0373315 104.1500513  63.0625966  66.7893887
 104.9693402  63.5570044  66.8128724 104.4237321  62.1457934  66.7611455
 113.9067110  55.4536718  56.1521843 113.0192965  55.7386368  55.9342037
 114.3221099  55.2930481  55.3049119 117.2581646  55.4783239  59.8676182
 118.0342036  55.9679691  60.1400799 116.5329780  55.9041293  60.3248051
 119.6954204  56.1910858  60.9250122 120.2898695  55.9506594  60.2143431
 119.7680788  55.4717989  61.5523659 101.9151360  70.0344469  61.2393287
 101.7805828  69.2744870  60.6731285 101.4983422  70.7585369  60.7722076
 113.0510323  65.2181392  50.2469863 113.7546173  65.4231395  50.8627518
 112.3272972  65.7858154  50.5118946 113.8808133  60.9691254  56.3672133
 113.8243335  61.4259805  55.5279765 114.4336476  60.2081938  56.1894975
 117.6912939  56.7580986  57.1922252 117.4349874  56.3577621  58.0230460
 117.0665807  57.4724780  57.0672391 105.0720486  70.9313786  61.4511730
 104.9552870  71.8759218  61.3490420 104.2512932  70.6287348  61.8397529
 114.9597021  65.6563922  52.2968323 115.7942624  65.2245120  52.1145797
 114.7981363  65.4845935  53.2245217 114.6142913  62.1596035  53.6624662
 114.5591717  61.9940306  52.7213106 113.9888968  62.8672068  53.8186852
  99.4035428  57.3964099  67.4886084 100.0494291  56.8863053  67.9773309
  99.1952579  58.1332781  68.0629509 111.9288820  64.4644947  72.9878225
 112.7979980  64.6385599  72.6264860 111.4495571  65.2839364  72.8653954
 107.9239038  51.6604144  53.2409980 107.9117708  52.6045984  53.3978251
 108.8162460  51.4774289  52.9469442 106.0975000  71.5842048  64.6667658
 107.0002247  71.6165658  64.9834153 105.8712370  70.6542499  64.6813994
 107.8528602  70.3373034  61.3277737 106.9024233  70.3374896  61.2142109
 108.1561088  69.5905769  60.8113772 111.7391158  48.2546921  57.4955917
 110.9723553  47.7005407  57.6412599 112.1501863  48.3268789  58.3570069
 103.7432919  54.5431716  71.5861098 104.6064380  54.1868521  71.7964423
 103.1698329  54.2045611  72.2736503 120.3971002  76.1261001  62.3285024
 120.0589513  76.0102066  61.4405559 121.2660770  75.7252166  62.3086030
 116.2557818  77.9796477  58.3181915 115.6922683  77.8886414  57.5498203
 116.1410213  77.1596382  58.7984408 120.8790785  77.2795853  68.2871230
 120.8679426  76.8848651  67.4151733 121.0411424  76.5461925  68.8805001
 113.8022250  79.4747669  61.1566135 114.5943541  79.1338494  60.7412435
 114.0418900  79.5842644  62.0768289 115.7613003  78.7356582  54.0283514
 116.5343879  78.1885569  53.8896390 116.1138402  79.6000831  54.2397976
 117.5998046  80.0632964  67.2350414 117.3087912  80.9678595  67.1197080
 118.2355030  80.1049492  67.9494483 118.5254253  77.4409813  63.8251773
 119.1217825  77.2165835  63.1108736 118.5829224  76.6994558  64.4277221
 118.0979281  74.8949248  51.6601964 118.3504802  74.3730770  50.8985427
 117.1603840  74.7315394  51.7628648 117.8175570  76.7977354  53.8626339
 117.7011828  76.1222258  54.5307423 117.9277830  76.3109728  53.0458492
 120.1607111  76.2587501  57.5673028 119.7965318  75.7318122  58.2785950
 121.0174227  75.8685970  57.3939514 119.8012598  71.2877401  52.5634377
 119.9687000  72.1557637  52.9304848 119.6109767  71.4504683  51.6395666
 116.0100413  76.2008177  60.2636912 115.0850909  76.0684391  60.4714603
 116.2584826  76.9802396  60.7606854 119.7801819  73.7435059  53.5481044
 119.6601444  74.1892109  54.3866524 119.0854407  74.0920376  52.9894582
 113.3709224  75.8441450  61.0980701 113.5001605  76.0975929  62.0120112
 112.6906675  76.4369158  60.7785356 117.5408711  86.5138700  57.1971175
 117.4632741  87.4646525  57.2759656 116.9370355  86.1684573  57.8546101
 120.0325941  73.6866566  69.8532542 119.2559275  74.2460486  69.8435406
 120.6716504  74.1723349  70.3747412 118.2872313  76.4952019  69.4150509
 119.0286997  77.0337063  69.1385332 117.5809298  77.1218308  69.5722061
 120.1158723  73.5753766  65.3856227 120.9619918  73.9993180  65.5290876
 120.0557360  72.9187391  66.0794790 119.6384429  78.9356758  59.0325044
 120.1022775  79.2144461  58.2429667 119.3741227  78.0340203  58.8498135
 116.5308510  78.4828240  61.9704808 117.1009867  78.9115508  61.3322292
 117.1216622  78.2010825  62.6688993 118.5753315  75.0579911  55.8414609
 119.2777359  75.5100954  56.3088536 118.2433944  74.4163730  56.4694503
 117.0233677  73.6491667  70.2165819 116.3932337  74.3307948  70.4501216
 116.9169765  73.5374749  69.2718957 112.3178649  73.3163463  61.1431743
 111.5277703  73.5720992  60.6671854 112.8089897  74.1311801  61.2483784
 114.2693395  73.6808043  58.1015220 113.4724558  73.7926737  58.6198715
 114.0418987  74.0194695  57.2356110 120.0999062  80.2052746  66.0497734
 120.1643495  80.6673153  66.8855906 119.3909986  79.5750111  66.1780044
 110.6016352  73.5693954  63.5746734 110.8524391  74.4540964  63.8404310
 111.1375901  73.3898555  62.8021826 119.8147080  81.8720853  55.9176715
 119.6792755  82.7172389  56.3461562 120.3556892  82.0740131  55.1542648
 116.3014419  67.9512433  72.5791070 115.9081365  67.3978632  73.2538714
 117.1180560  68.2623012  72.9697587 113.2676477  79.3896291  56.4904640
 113.7800998  80.1839542  56.6410204 113.9199190  78.6922582  56.4238241
 115.0771362  82.5062048  58.5727393 115.2537990  83.4280012  58.3848377
 115.8728195  82.1920467  59.0021773 119.2182380  69.3670312  70.1711326
 119.9592094  69.9677465  70.0915789 119.4500303  68.6247950  69.6129369
 114.3623718  74.5526679  68.4489556 114.2477234  73.6511937  68.7496655
 113.5068236  74.7990376  68.0974373 116.2002677  84.0240221  64.5737735
 116.7510103  83.8957285  63.8014729 115.3614153  84.3235110  64.2232628
 119.9969848  80.2891349  68.9181966 120.5298185  79.5279637  68.6881274
 119.4683930  79.9965001  69.6606121 111.2325394  77.7184946  57.2664210
 112.0700616  78.1281954  57.0497918 111.4103662  76.7784388  57.2364404
 120.7136937  70.2309727  58.0133282 119.8578533  69.8416577  57.8338920
 121.1263889  70.3101688  57.1533067 118.4878970  67.8494800  61.4191023
 119.3531966  67.6537609  61.0596913 118.5556479  67.6205152  62.3460380
 121.3622561  79.4177342  56.4300778 120.8343923  78.6830101  56.1174016
 120.8610064  80.1952018  56.1840747 116.0941289  70.0797008  58.7907390
 116.6685041  69.8572189  58.0580583 116.6812271  70.1485702  59.5435991
 116.4210876  72.1101469  52.8103275 115.5848188  72.4476156  53.1312550
 116.2815646  71.9750449  51.8730412 118.3963956  66.9538257  57.5182459
 117.7428369  66.6387274  56.8939074 118.3544431  66.3313997  58.2442282
 119.5075161  77.2357552  49.4335751 118.6002223  77.0046805  49.6326900
 120.0046193  76.4395171  49.6209733 120.6863395  77.3370147  53.9559742
 119.7774614  77.0529180  54.0532211 120.7158479  77.7569225  53.0963048
 111.2551565  75.0575661  57.9374944 111.0575965  74.4645022  57.2126010
 110.6998229  74.7527871  58.6550883 119.2348289  74.9498767  60.0569537
 119.2896899  73.9972604  59.9812013 118.4239491  75.1058206  60.5410835
 120.3839483  78.8778890  51.2947820 119.9458912  78.1614749  50.8353457
 121.1249923  79.1055005  50.7332911 117.1740649  73.5675827  57.8159916
 116.3608514  73.8669998  58.2225108 117.6699643  73.1731516  58.5334398
 119.3249227  83.5633584  59.7494180 119.2825405  83.7894430  58.8202712
 120.2411925  83.3296959  59.8979982 116.6654723  71.1394183  63.4321151
 117.3054103  70.9982942  62.7344114 115.8332254  70.8528696  63.0559753
 117.4415027  80.4396613  59.5456143 118.2355626  79.9446933  59.3438718
 116.7306720  79.9114476  59.1823849 113.7497791  74.5839695  55.6215896
 112.8195379  74.5224150  55.8385858 113.8455263  74.0615648  54.8252537
 113.6683340  71.1094508  58.2094138 113.9290157  72.0239841  58.1003298
 114.4900512  70.6418950  58.3590750 115.1408265  72.5232265  65.3792962
 115.8131319  72.3149627  64.7305611 114.3138052  72.3254351  64.9398194
 120.0186303  81.0125635  63.2253980 119.8797389  80.6444419  64.0979918
 119.2300900  81.5273274  63.0537938 120.6134455  86.1134732  54.5679517
 120.7886211  85.6422775  55.3825139 119.9267243  86.7400498  54.7960778
 121.5691519  80.3907238  60.6142818 121.2341351  80.3508008  61.5100468
 121.0695464  79.7251954  60.1413228 115.5435762  75.7974868  66.1395399
 115.4055560  75.0655107  66.7406938 116.4540686  75.7083768  65.8579587
 118.1718063  75.5094827  65.6279079 118.8817682  74.8688019  65.5865697
 118.1287371  75.7607722  66.5505260 116.8846997  72.4960045  67.4474718
 116.3484354  72.0450783  68.0996315 116.2963706  72.6305954  66.7045183
 115.1795541  89.2624094  61.3419377 115.4192139  89.8942618  62.0198396
 114.3364737  88.9112134  61.6284736 116.2949256  71.9548696  50.0101182
 115.4178722  71.8337497  49.6463429 116.7707009  71.1634775  49.7580071
 107.8151396  76.7425856  60.1042689 108.5022436  76.4287586  59.5163704
 107.6599525  77.6467221  59.8309941 112.6186118  71.6316053  64.5327713
 112.5344307  71.0241722  63.7978123 111.7968825  72.1225071  64.5337209
 119.6923403  85.0703217  63.7460881 119.6193574  85.8758188  64.2580185
 119.2500796  85.2695183  62.9208902 119.4813182  84.3074987  57.2563702
 118.6980704  84.8496667  57.3501927 120.1805927  84.8248966  57.6557944
 119.3744801  72.2586999  59.6269592 119.0042589  71.7058040  60.3150498
 119.8703893  71.6545133  59.0744593 117.2034000  82.7184494  66.7224610
 117.9043459  83.3520977  66.8754005 116.7329115  83.0599226  65.9620250
 112.8001718  82.2520849  63.6555713 113.3855154  81.5064537  63.7883617
 112.6026556  82.5624806  64.5392377 115.6540373  85.2872097  58.6718155
 114.9850748  85.7718224  58.1882196 115.5153243  85.5341317  59.5861534
 107.3919372  74.8226450  62.3760156 107.4303472  74.2890040  63.1697274
 106.8859665  74.2961655  61.7571133 119.7945641  87.3215840  65.2700814
 120.3463949  87.4847462  66.0349899 120.1351835  87.9120278  64.5980839
 114.7710135  69.6690990  65.8722699 114.8351461  70.5305821  65.4600096
 114.7077255  69.0564992  65.1395057 114.2462407  71.7414123  69.5195733
 114.8734446  71.3591200  70.1333257 113.3890326  71.5228324  69.8851425
 111.0227950  73.5490552  55.4514088 111.3181391  72.6401230  55.3981141
 110.1215986  73.5278291  55.1295090 114.5522197  71.6246548  61.4341636
 113.8308783  72.2382516  61.2949110 115.3415453  72.1604313  61.3558282
 117.3548510  68.9600975  67.7082288 117.8782912  69.2063271  68.4708597
 117.1360844  69.7921010  67.2885425 112.7515792  71.2304649  55.5753413
 112.4228498  70.3502028  55.3928519 113.1055162  71.1752318  56.4629802
 115.8657615  71.5177619  55.9428890 116.2053687  72.0463540  55.2207499
 116.3129735  71.8558025  56.7187457 118.5601056  69.9014670  65.3931959
 118.2197876  69.1022483  65.7952638 117.8540062  70.2016381  64.8208792
 119.2117527  66.9863982  63.8459282 120.0343597  66.5124460  63.7238172
 119.4555591  67.7654466  64.3457968 117.8525762  70.0152241  54.1422183
 118.5734124  70.3933493  53.6385900 117.2291066  70.7341118  54.2457161
 116.7356106  73.6783103  61.6551260 116.5900687  73.9923406  62.5475542
 116.2581310  74.2968003  61.1022159 118.5952489  70.6685651  61.7032150
 118.5814058  69.7726744  61.3664448 119.3124917  70.6756315  62.3370436
 120.4478620  71.1022991  63.7485277 120.1896397  72.0240062  63.7469608
 119.9163660  70.7053426  64.4385741 111.2101768  76.2188447  64.5938921
 110.6655236  76.9948255  64.7259196 112.0881118  76.5659252  64.4358043
 117.9989385  69.5500031  56.9719720 118.1205296  68.6216677  57.1710607
 117.7091427  69.5638717  56.0598035 120.8680575  67.2354942  60.1086440
 120.8902272  67.2994275  59.1538419 121.2848634  66.3959450  60.3026946
 111.9967790  75.3458344  67.4869078 111.2549526  75.4940979  68.0733709
 111.6760534  75.6066609  66.6235828 119.9411453  84.8874322  67.2849468
 120.2498579  84.6423469  68.1572168 120.7386935  85.0920960  66.7968338
 119.9632065  87.0412231  59.5154845 119.5237055  86.5488610  60.2087701
 120.7140182  86.4985199  59.2746920 112.4424404  83.2323772  59.5179473
 113.2682424  82.9327544  59.1378116 112.0918456  82.4631395  59.9669261
 117.4105937  82.5850241  61.5877146 116.7885946  81.9220946  61.2879374
 118.0810804  82.6111372  60.9050794 110.6433009  81.1510099  60.4768406
 109.8064917  80.7232273  60.2952408 110.6156654  81.3442542  61.4139198
 117.4830464  71.0632029  71.1809652 117.5318620  71.9394151  70.7987422
 118.0252979  70.5209422  70.6081296 116.9719444  81.1354164  55.0635607
 117.1207564  81.8189628  54.4102280 117.7785887  81.1159254  55.5785063
 119.7129753  71.8163401  67.9356011 118.8433062  72.1096967  67.6638600
 119.9489233  72.4003846  68.6563275 114.7272077  77.1619341  56.0696676
 114.4818119  76.2581671  56.2676886 114.8967991  77.1636492  55.1276154
 113.9967724  72.8947699  53.5682837 113.3036969  72.9692054  52.9122873
 113.7519476  72.1308043  54.0904354 120.4714849  83.6302294  52.5347354
 119.8988816  84.2492481  52.0817826 121.0447643  84.1801656  53.0687276
 119.0404565  72.8913083  49.8118292 118.1336020  72.5946196  49.8881006
 119.3180546  72.5942902  48.9452578 109.9582505  74.2119447  60.2617339
 109.6385290  73.3584755  59.9691713 109.4115934  74.4268025  61.0175306
 113.7362413  76.9281888  63.9786845 113.9548423  77.8598996  63.9974879
 114.1488187  76.5689862  64.7641649 120.6566631  67.4349973  55.9662533
 119.8467359  67.0897058  56.3417779 121.3451048  67.1257517  56.5550145
 118.6090278  72.5015094  73.3689594 118.5087005  73.4509451  73.3001685
 118.3911820  72.1733333  72.4965664 117.8103350  69.7500019  49.9530271
 118.6722514  70.0754917  50.2126089 117.9953694  68.9631515  49.4403337
 109.8270765  77.8322358  62.2310460 109.1334237  77.4176311  61.7180415
 110.5743756  77.8742895  61.6343879 118.4721548  75.9312232  72.1854656
 117.9888630  76.7312593  72.3918545 118.5582487  75.9420177  71.2322100
 111.7407508  77.7640612  60.1076475 111.7178196  77.8628299  59.1558358
 112.0508144  78.6105763  60.4293641 114.3994886  79.8216767  64.2223089
 115.3538139  79.7900709  64.1553021 114.2007409  79.3607391  65.0373315
 114.9894268  78.3917883  66.7893887 115.8087157  78.8861962  66.8128724
 115.2631076  77.4749851  66.7611455 112.7545115  85.3636387  61.2393287
 112.6199583  84.6036788  60.6731285 112.3377177  86.0877286  60.7722076
 115.9114240  86.2605704  61.4511730 115.7946625  87.2051136  61.3490420
 115.0906687  85.9579265  61.8397529 110.2429182  72.7256017  67.4886084
 110.8888046  72.2154971  67.9773309 110.0346333  73.4624699  68.0629509
 118.7632793  66.9896062  53.2409980 118.7511462  67.9337902  53.3978251
 119.6556215  66.8066207  52.9469442 116.9368755  86.9133966  64.6667658
 117.8396001  86.9457576  64.9834153 116.7106125  85.9834417  64.6813994
 118.6922357  85.6664952  61.3277737 117.7417988  85.6666814  61.2142109
 118.9954843  84.9197687  60.8113772 114.5826673  69.8723634  71.5861098
 115.4458135  69.5160439  71.7964423 114.0092084  69.5337529  72.2736503
 118.6545151  92.0717774  60.1042689 119.3416191  91.7579504  59.5163704
 118.4993279  92.9759138  59.8309941 118.2313127  90.1518367  62.3760156
 118.2697226  89.6181958  63.1697274 117.7253420  89.6253573  61.7571133
 121.4826763  96.4802016  60.4768406 120.6458672  96.0524191  60.2952408
 121.4550409  96.6734460  61.4139198 120.7976260  89.5411365  60.2617339
 120.4779044  88.6876673  59.9691713 120.2509688  89.7559943  61.0175306
 120.6664520  93.1614276  62.2310460 119.9727991  92.7468229  61.7180415
 121.4137511  93.2034813  61.6343879  74.1833694   2.2033152  43.9216482
  74.1057724   3.1540977  44.0004962  73.5795338   1.8579025  44.5791408
  71.8220524   4.9518546  48.0664684  72.0617122   5.5837070  48.7443702
  70.9789720   4.6006586  48.3530043  72.2965356   0.9766549  45.3963462
  71.6275731   1.4612676  44.9127502  72.1578226   1.2235769  46.3106841
  76.4370625   3.0110292  51.9946120  76.9888933   3.1741914  52.7595206
  76.7776818   3.6014730  51.3226145  69.3970098   1.0530839  47.9638594
  69.2624566   0.2931239  47.3976592  68.9802160   1.7771738  47.4967383
  72.5539224   1.9500156  48.1757037  72.4371608   2.8945588  48.0735727
  71.7331670   1.6473717  48.5642836  73.5793738   2.6028417  51.3912965
  74.4820985   2.6352028  51.7079460  73.3531108   1.6728868  51.4059301
  87.8789740   7.1447370  49.0530331  87.5408251   7.0288435  48.1650866
  88.7479508   6.7438536  49.0331337  83.7376555   8.9982847  45.0427222
  83.1741421   8.9072784  44.2743509  83.6228950   8.1782751  45.5229714
  88.3609523   8.2982222  55.0116536  88.3498163   7.9035020  54.1397040
  88.5230162   7.5648295  55.6050308  81.2840987  10.4934038  47.8811442
  82.0762279  10.1524863  47.4657741  81.5237637  10.6029014  48.8013595
  89.3176114  12.6653815  40.3541687  88.6664094  13.2507895  39.9675700
  90.1120477  13.1960010  40.4136724  83.2431741   9.7542952  40.7528821
  84.0162617   9.2071939  40.6141697  83.5957140  10.6187201  40.9643282
  85.0816784  11.0819334  53.9595720  84.7906650  11.9864965  53.8442387
  85.7173768  11.1235862  54.6739790  86.0072991   8.4596183  50.5497080
  86.6036563   8.2352205  49.8354043  86.0647962   7.7180928  51.1522528
  90.7951379  10.3544247  40.8910671  90.1597212  10.4278873  41.6031575
  90.4648786  10.9437845  40.2129750  85.2994308   7.8163724  40.5871646
  85.1830566   7.1408627  41.2552730  85.4096568   7.3296098  39.7703799
  87.6425849   7.2773871  44.2918335  87.2784056   6.7504492  45.0031256
  88.4992965   6.8872340  44.1184820  90.0406669  10.7680750  50.9545514
  89.7407392  11.6705788  50.8461321  89.6957728  10.5012933  51.8066667
  83.4919150   7.2194546  46.9882218  82.5669647   7.0870760  47.1959910
  83.7403564   7.9988766  47.4852161  80.8527961   6.8627820  47.8226007
  80.9820343   7.1162299  48.7365419  80.1725413   7.4555528  47.5030662
  85.0227449  17.5325070  43.9216482  84.9451478  18.4832895  44.0004962
  84.4189092  17.1870942  44.5791408  85.7691051   7.5138389  56.1395815
  86.5105735   8.0523433  55.8630639  85.0628036   8.1404677  56.2967367
  91.2446390   9.6567529  54.7367977  91.6529746   9.2149940  53.9922609
  90.5223652   9.0820157  54.9902170  91.5675205  10.2168720  48.4920266
  90.9384068  10.3814434  47.7896334  91.1800867  10.6310329  49.2631230
  95.4464437  11.1523158  45.8464630  94.7615475  11.5322059  45.2961663
  95.5308286  11.7618484  46.5796577  92.7015369   8.7983117  52.4459973
  92.9132264   9.4414877  51.7694354  92.6545117   7.9645433  51.9781903
  87.1203167   9.9543128  45.7570351  87.5841512  10.2330831  44.9674973
  86.8559965   9.0526572  45.5743442  84.0127248   9.5014609  48.6950114
  84.5828605   9.9301878  48.0567599  84.6035360   9.2197194  49.3934300
  79.7997387   4.3349833  47.8677050  79.0096441   4.5907361  47.3917160
  80.2908634   5.1498171  47.9729090  93.8161197  11.6755072  50.6182330
  94.6378640  11.2735259  50.3365012  93.8123599  11.5723306  51.5698446
  81.7512132   4.6994412  44.8260526  80.9543296   4.8113106  45.3444022
  81.5237725   5.0381064  43.9601417  87.5817800  11.2239115  52.7743041
  87.6462232  11.6859523  53.6101213  86.8728724  10.5936480  52.9025351
  78.0835090   4.5880323  50.2992040  78.3343128   5.4727333  50.5649616
  78.6194638   4.4084925  49.5267132  87.2965818  12.8907223  42.6422021
  87.1611492  13.7358759  43.0706869  87.8375630  13.0926500  41.8787955
  80.7495215  10.4082661  43.2149946  81.2619736  11.2025911  43.3655511
  81.4017928   9.7108951  43.1483548  82.5590100  13.5248417  45.2972700
  82.7356728  14.4466382  45.1093683  83.3546933  13.2106836  45.7267079
  81.8442456   5.5713049  55.1734863  81.7295971   4.6698306  55.4741962
  80.9886974   5.8176746  54.8219679  88.9234294  13.5130789  56.7722363
  88.4798148  12.7267168  56.4543268  89.5851508  13.7009940  56.1066254
  83.6821415  15.0426591  51.2983042  84.2328840  14.9143654  50.5260036
  82.8432891  15.3421480  50.9477935  91.0215532  13.7933589  54.8003765
  91.0034007  14.6142470  54.3084034  91.9435452  13.6687664  55.0253906
  87.4788586  11.3077719  55.6427273  88.0116923  10.5466007  55.4126581
  86.9502667  11.0151371  56.3851428  78.7144132   8.7371315  43.9909517
  79.5519354   9.1468324  43.7743225  78.8922399   7.7970757  43.9609711
  88.8441299  10.4363711  43.1546085  88.3162661   9.7016471  42.8419322
  88.3428802  11.2138388  42.9086053  93.8234145   8.6312732  48.2713131
  93.1657819   9.3211993  48.3593260  94.6274544   9.0209164  48.6147118
  86.9893899   8.2543921  36.1581058  86.0820961   8.0233175  36.3572207
  87.4864931   7.4581541  36.3455040  89.8961978  16.9641429  39.0777744
  89.2223677  17.2673125  39.6862702  90.2827800  17.7670509  38.7283201
  88.1682133   8.3556516  40.6805048  87.2593352   8.0715549  40.7777518
  88.1977216   8.7755595  39.8208355  93.4001400  11.9663106  44.4496216
  92.9463727  11.1254016  44.5061406  92.7695367  12.6024504  44.7870996
  91.8434339  13.8039603  45.3846034  92.1357314  14.3644660  44.6658400
  92.3532960  14.0968164  46.1399193  78.7370303   6.0762030  44.6620250
  78.5394703   5.4831391  43.9371317  78.1816967   5.7714241  45.3796189
  87.8658220   9.8965260  38.0193127  87.4277650   9.1801119  37.5598764
  88.6068661  10.1241375  37.4578218  86.8067964  14.5819954  46.4739487
  86.7644143  14.8080800  45.5448019  87.7230663  14.3483328  46.6225288
  96.0100715  10.2398984  49.0880717  96.4437221  10.1474273  49.9363771
  96.7232295  10.2156485  48.4500733  84.9233765  11.4582983  46.2701450
  85.7174364  10.9633303  46.0684025  84.2125458  10.9300846  45.9069155
  89.7428610  13.8401078  50.6213817  89.7965632  14.4092014  51.3891533
  88.8743391  14.0102963  50.2567855  81.2316529   5.6026064  42.3461202
  80.3014117   5.5410520  42.5631165  81.3274001   5.0802017  41.5497844
  96.8716264  10.2822685  51.6213602  97.0652154  11.1868495  51.8672877
  96.7716882   9.8230104  52.4552187  91.9331373  10.4329427  57.1954483
  91.7816879  10.2039979  56.2784567  91.9236052  11.3900029  57.2085828
  88.7016709   8.0061340  52.1800749  89.6308769   8.1572500  52.0069717
  88.2807739   8.0945361  51.3249396  87.5005041  12.0312005  49.9499287
  87.3616127  11.6630789  50.8225225  86.7119637  12.5459644  49.7783245
  88.0953193  17.1321101  41.2924823  88.2704949  16.6609144  42.1070446
  87.4085981  17.7586867  41.5206084  89.0510256  11.4093607  47.3388125
  88.7160089  11.3694377  48.2345775  88.5514202  10.7438323  46.8658535
  83.0254500   6.8161237  52.8640706  82.8874298   6.0841476  53.4652245
  83.9359424   6.7270137  52.5824894  91.9869448   8.7549642  37.6125184
  91.3698619   8.0296470  37.5158237  91.5185936   9.5159002  37.2692259
  85.6536801   6.5281197  52.3524385  86.3636419   5.8874389  52.3111004
  85.6106109   6.7794092  53.2750566  93.6423580  13.4648550  55.2730965
  93.5836126  12.7807770  54.6061548  94.0443098  14.2067540  54.8211591
  82.6614278  20.2810464  48.0664684  82.9010877  20.9128988  48.7443702
  81.8183475  19.9298504  48.3530043  93.6440987  11.4288134  53.5044944
  92.7567766  11.0914056  53.6271343  94.2139538  10.6971165  53.7413710
  75.2970134   7.7612226  46.8287996  75.9841174   7.4473956  46.2409011
  75.1418263   8.6653590  46.5555247  87.1742140  16.0889586  50.4706188
  87.1012312  16.8944558  50.9825492  86.7319533  16.2881552  49.6454209
  86.9631920  15.3261356  43.9809009  86.1799442  15.8683037  44.0747234
  87.6624665  15.8435336  44.3803250  89.6340824  15.9876420  52.6264346
  90.3468796  16.6223885  52.5540248  89.1430852  16.0840286  51.8104348
  91.3558351   9.8927673  44.1981638  90.4214629  10.0129135  44.0286342
  91.5335019   8.9900140  43.9341648  84.6852737  13.7370864  53.4469917
  85.3862197  14.3707347  53.5999311  84.2147852  14.0785595  52.6865556
  92.8107133  12.0788814  41.7317824  93.0866977  11.9645408  42.6411698
  91.9411632  11.6806298  41.6929997  89.4461197  16.3275164  45.3750638
  89.6283592  15.5096820  45.8378390  90.2694183  16.5442857  44.9375528
  89.7803363  15.2543350  42.6365686  90.3091129  14.7435804  42.0235848
  90.0431582  14.9385880  43.5011219  88.5341596   7.0335282  57.7588505
  87.8582233   6.9329412  58.4290880  89.3569230   6.8774496  58.2224502
  80.2820455  13.2707219  50.3801020  80.8673892  12.5250907  50.5128924
  80.0845294  13.5811176  51.2637684  83.1359111  16.3058466  45.3963462
  82.4669486  16.7904594  44.9127502  82.9971980  16.5527687  46.3106841
  74.8738110   5.8412819  49.1005463  74.9122210   5.3076410  49.8942581
  74.3678403   5.3148025  48.4816440  87.2764379  18.3402210  51.9946120
  87.8282687  18.5033831  52.7595206  87.6170573  18.9306648  51.3226145
  92.1275254  13.1663467  57.8494775  92.6715158  13.7793426  57.3549730
  91.5462098  13.7243046  58.3661788  78.5046688   4.5676921  42.1759394
  78.8000129   3.6587600  42.1226448  77.6034723   4.5464661  41.8540397
  90.4132766  16.2884185  48.9809803  90.2883906  15.4873925  48.4720748
  91.0711858  16.7830379  48.4923773  92.4767675  14.0893205  50.6089353
  91.5298010  13.9698557  50.5367679  92.8250448  13.2015703  50.6915614
  89.4814108  13.8845922  46.8093705  89.3339071  12.9562629  46.9901275
  90.3067602  13.9066012  46.3250780  93.0848230  14.7074480  47.8958578
  94.0094777  14.5017342  47.7583029  92.9163533  14.4590881  48.8047919
  92.8743546  15.2260148  43.2520669  93.0480424  14.6606570  42.4994522
  93.3672437  16.0261043  43.0700159  78.6920506   7.2374817  51.3184228
  78.1473974   8.0134625  51.4504502  79.5699856   7.5845621  51.1603349
  93.8618719  14.5426912  40.3517567  94.5569623  15.1633605  40.5704882
  94.2041869  13.6922263  40.6269945  79.4786528   6.3644713  54.2114385
  78.7368264   6.5127348  54.7979015  79.1579272   6.6252979  53.3481134
  95.7610142  11.9926618  41.8804898  96.2861466  12.3313890  41.1554218
  95.6732494  11.0573633  41.6968033  87.4230191  15.9060691  54.0094775
  87.7317317  15.6609838  54.8817474  88.2205673  16.1107330  53.5213645
  87.4450803  18.0598601  46.2400151  87.0055793  17.5674980  46.9333008
  88.1958920  17.5171569  45.9992227  79.9243142  14.2510142  46.2424779
  80.7501161  13.9513914  45.8623423  79.5737194  13.4817764  46.6914568
  84.8924675  13.6036610  48.3122453  84.2704684  12.9407315  48.0124681
  85.5629542  13.6297742  47.6296101  78.1251747  12.1696468  47.2013713
  77.2883655  11.7418643  47.0197714  78.0975392  12.3628912  48.1384504
  95.4504048  12.6259521  57.1856096  94.6599592  12.6083660  56.6460596
  95.2137402  13.1647815  57.9405133  84.4538182  12.1540533  41.7880914
  84.6026302  12.8375998  41.1347586  85.2604625  12.1345623  42.3030369
  97.0720120  11.8948929  54.7430846  96.7804928  12.2578910  55.5794307
  96.4592251  11.1815938  54.5644178  82.2090815   8.1805711  42.7941983
  81.9636857   7.2768041  42.9922193  82.3786729   8.1822861  41.8521461
  87.9533587  14.6488664  39.2592661  87.3807554  15.2678851  38.8063133
  88.5266381  15.1988026  39.7932583  91.1730847  14.9325814  40.3901243
  92.1061520  14.8671376  40.5934119  91.0854060  15.7682081  39.9315776
  93.8018864  14.2491684  37.3505191  93.7232495  13.9151548  38.2440949
  94.6228530  14.7413452  37.3496663  88.2219078  10.0367223  58.0609371
  89.1422088  10.2145822  58.2549417  88.1868661   9.0923268  57.9089070
  77.4401243   5.2305816  46.9862645  77.1204028   4.3771125  46.6937019
  76.8934671   5.4454395  47.7420612  81.2181151   7.9468257  50.7032152
  81.4367161   8.8785365  50.7220185  81.6306925   7.5876232  51.4886956
  77.3089503   8.8508728  48.9555767  76.6152975   8.4362681  48.4425721
  78.0562494   8.8929264  48.3589186  85.9540286   6.9498602  58.9099962
  85.4707368   7.7498962  59.1163851  86.0401225   6.9606547  57.9567406
  79.2226246   8.7826982  46.8321782  79.1996934   8.8814669  45.8803665
  79.5326882   9.6292132  47.1538948  81.8813624  10.8403137  50.9468396
  82.8356877  10.8087079  50.8798328  81.6826147  10.3793760  51.7618622
  82.4713006   9.4104253  53.5139194  83.2905895   9.9048331  53.5374031
  82.7449813   8.4936221  53.4856761  80.2363852  16.3822756  47.9638594
  80.1018320  15.6223157  47.3976592  79.8195915  17.1063656  47.4967383
  91.3722815  11.5659680  36.9715169  92.0758666  11.7709682  37.5872825
  90.6485464  12.1336442  37.2364253  83.3932978  17.2792073  48.1757037
  83.2765362  18.2237506  48.0735727  82.5725425  16.9765635  48.5642836
  93.2809513  12.0042209  39.0213629  94.1155117  11.5723407  38.8391104
  93.1193856  11.8324223  39.9490524  92.9355405   8.5074322  40.3869969
  92.8804209   8.3418594  39.4458413  92.3101460   9.2150355  40.5432158
  77.7247920   3.7442387  54.2131391  78.3706784   3.2341341  54.7018616
  77.5165071   4.4811068  54.7874816  90.2501312  10.8123234  59.7123531
  91.1192472  10.9863886  59.3510166  89.7708064  11.6317651  59.5899261
  84.4187492  17.9320335  51.3912965  85.3214739  17.9643945  51.7079460
  84.1924862  17.0020786  51.4059301  86.1741094  16.6851322  48.0523044
  85.2236725  16.6853183  47.9387416  86.4773581  15.9384056  47.5359078
 101.9093788  22.5211860  49.1168806 102.5472198  22.4018607  48.4132146
 101.7914631  23.4692704  49.1756758  98.7183494  22.4739288  49.0530331
  98.3802006  22.3580353  48.1650866  99.5873262  22.0730453  49.0331337
  99.2003277  23.6274140  55.0116536  99.1891918  23.2326938  54.1397040
  99.3623917  22.8940212  55.6050308  96.4191774  21.2427536  38.3847271
  96.6717294  20.7209057  37.6230734  95.4816333  21.0793681  38.4873954
 101.4635056  20.2463314  46.1922014 102.2498146  19.8282737  45.8412431
 101.7273761  21.1509406  46.3603662 101.6345134  25.6836164  40.8910671
 100.9990967  25.7570791  41.6031575 101.3042540  26.2729763  40.2129750
 106.8643484  20.1838547  47.0954993 107.5968655  19.6137764  47.3292822
 106.1082839  19.7960148  47.5361498  96.1388062  23.1455641  40.5871646
  96.0224320  22.4700545  41.2552730  96.2490322  22.6588015  39.7703799
  98.4819603  22.6065789  44.2918335  98.1177810  22.0796410  45.0031256
  99.3386719  22.2164258  44.1184820 104.3868904  13.8960121  51.5549601
 104.0552229  14.7655532  51.3310816 103.7914517  13.5796405  52.2343632
  98.1225090  17.6355688  39.2879684  98.2899493  18.5035925  39.6550155
  97.9322259  17.7982970  38.3640973 100.8800423  26.0972667  50.9545514
 100.5801146  26.9997706  50.8461321 100.5351483  25.8304850  51.8066667
  94.3312905  22.5486464  46.9882218  93.4063401  22.4162678  47.1959910
  94.5797318  23.3280683  47.4852161 104.2797567  18.6155207  48.6342951
 103.3714445  18.5470616  48.3401712 104.2285163  19.0927152  49.4624777
  98.1014311  20.0913346  40.2726350  97.9813936  20.5370397  41.1111831
  97.4066899  20.4398663  39.7139888  91.6921716  22.1919738  47.8226007
  91.8214097  22.4454217  48.7365419  91.0119167  22.7847446  47.5030662
  98.3538433  20.0344853  56.5777848  97.5771767  20.5938773  56.5680713
  98.9928996  20.5201636  57.0992719 106.1459214  16.8171646  50.4120825
 105.5033594  17.1104179  49.7660620 105.6414142  16.7024566  51.2174022
 103.7999377  20.5634819  41.1006684 104.7117233  20.7962206  40.9254382
 103.2909024  21.1471863  40.5381763  96.6084805  22.8430306  56.1395815
  97.3499490  23.3815350  55.8630639  95.9021791  23.4696595  56.2967367
 102.0840145  24.9859447  54.7367977 102.4923501  24.5441857  53.9922609
 101.3617406  24.4112074  54.9902170  98.4371215  19.9232054  52.1101534
  99.2832410  20.3471467  52.2536183  98.3769853  19.2665678  52.8040097
 102.4068960  25.5460637  48.4920266 101.7777822  25.7106352  47.7896334
 102.0194622  25.9602247  49.2631230 106.2858191  26.4815075  45.8464630
 105.6009230  26.8613977  45.2961663 106.3702041  27.0910402  46.5796577
 101.5870660  17.5836422  53.7682708 101.3431592  18.3378482  53.2316983
 101.8630591  17.9621770  54.6029955 103.5409123  24.1275034  52.4459973
 103.7526018  24.7706794  51.7694354 103.4938871  23.2937351  51.9781903
 101.1435352  16.7392855  49.3496545 100.2819831  17.0374109  49.6413283
 101.1697787  16.9563254  48.4177578  96.8965807  21.4058198  42.5659916
  97.5989851  21.8579242  43.0333842  96.5646436  20.7642017  43.1939809
  95.3446169  19.9969955  56.9411125  94.7144830  20.6786235  57.1746522
  95.2382257  19.8853036  55.9964264  90.6391141  19.6641751  47.8677050
  89.8490195  19.9199279  47.3917160  91.1302389  20.4790088  47.9729090
 104.6554951  27.0046990  50.6182330 105.4772395  26.6027177  50.3365012
 104.6517354  26.9015224  51.5698446  92.5905887  20.0286330  44.8260526
  91.7937050  20.1405024  45.3444022  92.3631479  20.3672982  43.9601417
  98.4211554  26.5531033  52.7743041  98.4855987  27.0151440  53.6101213
  97.7122478  25.9228398  52.9025351  88.9228844  19.9172241  50.2992040
  89.1736883  20.8019251  50.5649616  89.4588393  19.7376843  49.5267132
 112.7460944  23.3485738  46.9667302 111.9924652  22.7793136  46.8111306
 112.8808485  23.3148403  47.9137937  94.6226912  14.2990720  59.3036377
  94.2293857  13.7456919  59.9784021  95.4393052  14.6101299  59.6942894
  97.5394873  15.7148599  56.8956633  98.2804586  16.3155753  56.8161096
  97.7712796  14.9726237  56.3374676  92.6836211  20.9004967  55.1734863
  92.5689726  19.9990224  55.4741962  91.8280728  21.1468663  54.8219679
  99.7628048  28.8422707  56.7722363  99.3191903  28.0559086  56.4543268
 100.4245262  29.0301858  56.1066254 101.8609287  29.1225507  54.8003765
 101.8427762  29.9434388  54.3084034 102.7829207  28.9979582  55.0253906
  98.3182341  26.6369636  55.6427273  98.8510678  25.8757925  55.4126581
  97.7896422  26.3443288  56.3851428 101.4852036  11.7429702  51.1720915
 101.1416305  12.6331344  51.0960025 101.8530998  11.5531360  50.3090500
 101.4502318  21.7338313  39.6793350 100.9348942  22.5042918  39.9181737
 101.1779627  21.0603450  40.3026411  99.0349429  16.5788014  44.7378588
  98.1791026  16.1894865  44.5584227  99.4476381  16.6579975  43.8778374
 100.5648576  14.1134358  49.1370148 100.0613372  14.0764493  48.3237953
 100.8579183  15.0227100  49.1966805  96.8091462  14.1973087  48.1436330
  97.6744459  14.0015896  47.7842219  96.8768971  13.9683439  49.0705687
 106.4236593  24.4870668  41.6146523 105.6466035  24.1481828  41.1701685
 107.1028074  24.4923291  40.9401488 101.2388622  19.6065406  41.5053131
 100.9338757  19.9211555  42.3563274 102.1919064  19.6846825  41.5480464
 104.6627899  23.9604649  48.2713131 104.0051574  24.6503911  48.3593260
 105.4668299  24.3501081  48.6147118  94.4153781  16.4275295  45.5152697
  94.9897533  16.2050477  44.7825890  95.0024763  16.4963990  46.2681298
 103.4733358  22.3149022  46.3217073 103.9865240  22.9479014  46.8238783
 104.1234582  21.7150218  45.9560433  94.7423368  18.4579756  39.5348582
  93.9060680  18.7954443  39.8557857  94.6028138  18.3228736  38.5975719
  96.7176449  13.3016544  44.2427766  96.0640861  12.9865561  43.6184381
  96.6756923  12.6792285  44.9687589  97.8287654  23.5835839  36.1581058
  96.9214715  23.3525093  36.3572207  98.3258686  22.7873458  36.3455040
  99.9514189  19.7898478  48.5675414  99.0336750  20.0113425  48.4097102
 100.3674333  19.8644788  47.7087121 100.7349237  21.1889893  43.6978094
 101.4821056  21.7011291  43.3885216 101.0040826  20.8673946  44.5582487
  99.0075887  23.6848434  40.6805048  98.0987106  23.4007467  40.7777518
  99.0370971  24.1047513  39.8208355 104.2395154  27.2955024  44.4496216
 103.7857482  26.4545933  44.5061406 103.6089121  27.9316422  44.7870996
 103.1828074  18.2247010  45.6796883 102.4450831  17.7124396  46.0107126
 103.4354848  17.7847391  44.8680160  97.5560781  21.2977055  46.7814844
  97.6109391  20.3450891  46.7057320  96.7451983  21.4536494  47.2656142
  98.7051975  25.2257178  38.0193127  98.2671405  24.5093037  37.5598764
  99.4462416  25.4533293  37.4578218  95.4953141  19.9154114  44.5405222
  94.6821007  20.2148285  44.9470415  95.9912135  19.5209803  45.2579705
 101.0927353  20.3795939  53.3720116 101.4476740  20.6067412  54.2314582
 101.7399484  20.7114316  52.7497372 106.8225090  23.5014375  44.0769445
 106.6842988  23.6915971  43.1490635 106.4661308  24.2633758  44.5337496
  94.9867216  17.4872470  50.1566457  95.6266595  17.3461229  49.4589421
  94.1544746  17.2006983  49.7805059 106.8494469  25.5690902  49.0880717
 107.2830976  25.4766191  49.9363771 107.5626050  25.5448402  48.4500733
 100.5822364  29.1692996  50.6213817 100.6359386  29.7383932  51.3891533
  99.7137145  29.3394881  50.2567855  91.9895832  17.4572795  44.9339444
  92.2502649  18.3718128  44.8248605  92.8113005  16.9897237  45.0836057
  93.4620758  18.8710552  52.1038269  94.1343811  18.6627914  51.4550918
  92.6350544  18.6732638  51.6643501 107.7110019  25.6114602  51.6213602
 107.9045909  26.5160413  51.8672877 107.6110637  25.1522021  52.4552187
  99.3646330  15.4972493  54.1203930  98.7174245  16.1962443  54.0268406
 100.1347345  15.9308637  54.4880178 102.7725127  25.7621345  57.1954483
 102.6210634  25.5331897  56.2784567 102.7629807  26.7191947  57.2085828
  99.5410464  23.3353258  52.1800749 100.4702524  23.4864418  52.0069717
  99.1201494  23.4237279  51.3249396  98.3398796  27.3603922  49.9499287
  98.2009881  26.9922707  50.8225225  97.5513392  27.8751562  49.7783245
 102.8263202  24.0841559  37.6125184 102.2092373  23.3588388  37.5158237
 102.3579691  24.8450920  37.2692259  96.4930555  21.8573114  52.3524385
  97.2030174  21.2166307  52.3111004  96.4499864  22.1086009  53.2750566
 104.4817334  28.7940468  55.2730965 104.4229880  28.1099688  54.6061548
 104.8836852  29.5359458  54.8211591  95.2059489  18.8438332  54.1720025
  94.6696846  18.3929071  54.8241621  94.6176198  18.9784241  53.4290489
  94.6161748  18.3026984  36.7346489  93.7391215  18.1815784  36.3708735
  95.0919501  17.5113062  36.4825377 104.4834741  26.7580052  53.5044944
 103.5961520  26.4205973  53.6271343 105.0533292  26.0263083  53.7413710
  90.9398611  17.9794340  51.2573019  90.8556799  17.3720010  50.5223429
  90.1181317  18.4703358  51.2582516 101.1122325  16.4647903  46.6243215
 101.6091024  15.7117866  46.3044285 100.3409306  16.5012220  46.0586424
 108.9652082  22.1688269  48.2661506 108.9541958  23.0512984  47.8955439
 108.0969461  21.8159820  48.0716043 100.4734578  31.3168338  52.6264346
 101.1862550  31.9515803  52.5540248  99.9824607  31.4132204  51.8104348
 102.1952105  25.2219591  44.1981638 101.2608384  25.3421053  44.0286342
 102.3728774  24.3192057  43.9341648  97.6957293  18.6065286  46.3514899
  97.3255081  18.0536327  47.0395805  98.1916386  18.0023420  45.7989899
 105.5824657  21.0636910  44.7331672 106.0485109  21.8964902  44.6591975
 106.0332157  20.5981892  45.4376931 103.6500888  27.4080731  41.7317824
 103.9260732  27.2937326  42.6411698 102.7805386  27.0098216  41.6929997
 103.5541319  13.4317497  48.7722573 102.6404399  13.6621724  48.9404780
 103.9834421  13.5155941  49.6236606 103.3247778  21.6207389  51.2722467
 102.6719228  21.8683296  50.6174920 103.7028158  20.8071527  50.9384945
  99.3735351  22.3627200  57.7588505  98.6975988  22.2621329  58.4290880
 100.1962985  22.2066414  58.2224502  85.7131865  21.1704737  49.1005463
  85.7515964  20.6368327  49.8942581  85.2072157  20.6439942  48.4816440
  93.0922627  16.0169277  52.5968005  93.1563953  16.8784108  52.1845403
  93.0289747  15.4043279  51.8640364  92.5674899  18.0892410  56.2441039
  93.1946938  17.7069487  56.8578564  91.7102818  17.8706612  56.6096732
 102.9669008  28.4955385  57.8494775 103.5108912  29.1085343  57.3549730
 102.3855853  29.0534963  58.3661788  89.3440442  19.8968839  42.1759394
  89.6393883  18.9879517  42.1226448  88.4428478  19.8756578  41.8540397
 101.2526521  31.6176103  48.9809803 101.1277660  30.8165843  48.4720748
 101.9105612  32.1122296  48.4923773  92.8734689  17.9724835  48.1586943
  92.1521275  18.5860803  48.0194416  93.6627945  18.5082600  48.0803589
 103.3161429  29.4185123  50.6089353 102.3691765  29.2990474  50.5367679
 103.6644202  28.5307621  50.6915614  95.6761003  15.3079262  54.4327595
  96.1995405  15.5541559  55.1953904  95.4573336  16.1399297  54.0130732
  91.0728284  17.5782937  42.2998719  90.7440990  16.6980315  42.1173825
  91.4267654  17.5230605  43.1875109  94.1870107  17.8655906  42.6674197
  94.5266179  18.3941828  41.9452805  94.6342227  18.2036312  43.4432764
 103.9241984  30.0366398  47.8958578 104.8488532  29.8309259  47.7583029
 103.7557288  29.7882799  48.8047919  96.8813548  16.2492957  52.1177265
  96.5410368  15.4500770  52.5197945  96.1752554  16.5494668  51.5454098
  97.5330020  13.3342269  50.5704588  98.3556089  12.8602748  50.4483479
  97.7768083  14.1132753  51.0703274  96.1738254  16.3630528  40.8667490
  96.8946617  16.7411781  40.3631207  95.5503558  17.0819405  40.9702468
 100.3169377  17.0675677  41.8025822 100.5332991  17.9500315  41.5014650
  99.8363444  16.6761890  41.0731464  95.0568598  20.0261390  48.3796567
  94.9113179  20.3401693  49.2720848  94.5793802  20.6446290  47.8267465
  96.9164981  17.0163938  48.4277456  96.9026550  16.1205031  48.0909754
  97.6337409  17.0234602  49.0615742  98.7691112  17.4501278  50.4730584
  98.5108890  18.3718349  50.4714914  98.2376152  17.0531713  51.1631048
  96.3201877  15.8978318  43.6965026  96.4417788  14.9694965  43.8955914
  96.0303920  15.9117004  42.7843342  99.1893068  13.5833229  46.8331746
  99.2114764  13.6472562  45.8783726  99.6061127  12.7437737  47.0272252
 109.5676692  23.3188488  44.8710969 110.0107838  22.5695814  44.4730092
 108.6903202  23.3098625  44.4884701 104.7012473  29.8718830  40.3517567
 105.3963378  30.4925523  40.5704882 105.0435623  29.0214181  40.6269945
  90.3180282  21.6936631  54.2114385  89.5762018  21.8419266  54.7979015
  89.9973027  21.9544896  53.3481134 106.6003896  27.3218535  41.8804898
 107.1255220  27.6605808  41.1554218 106.5126249  26.3865551  41.6968033
  95.8042957  17.4110316  57.9054959  95.8531112  18.2872439  57.5232729
  96.3465471  16.8687709  57.3326602 106.2897802  27.9551439  57.1856096
 105.4993346  27.9375578  56.6460596 106.0531157  28.4939733  57.9405133
 106.4095677  24.8043905  54.4988825 106.4593682  24.6393913  55.4404347
 106.3009601  23.9371164  54.1086705 103.6999440  20.7874833  55.8148131
 104.6009303  20.6481298  55.5232129 103.7747414  20.9529288  56.7546309
  98.0342245  18.1641688  54.6601318  97.1645555  18.4575254  54.3883906
  98.2701726  18.7482133  55.3808581 107.9113874  27.2240847  54.7430846
 107.6198683  27.5870827  55.5794307 107.2986006  26.5107855  54.5644178
 109.1109557  24.7893727  47.2633416 109.9456448  25.2283531  47.4270977
 109.2468685  24.3132380  46.4441662 106.1601063  22.3473462  53.2110904
 106.6355184  22.5401108  52.4029756 105.2366628  22.4032647  52.9654288
 100.7381279  14.3821305  52.1766738 101.2563223  15.1182332  51.8513227
 100.3836412  14.6885298  53.0113497 104.8602732  19.2239222  51.4439210
 105.8120154  19.3237319  51.4651434 104.6906182  18.4317490  51.9537294
 102.8817111  16.3094805  51.6298611 102.2867043  16.5899818  50.9345099
 102.5966808  16.7988706  52.4015352 104.6412618  29.5783602  37.3505191
 104.5626250  29.2443466  38.2440949 105.4622285  30.0705370  37.3496663
 107.3390809  22.4445341  50.5581509 107.3067129  21.5061342  50.7441193
 107.9491433  22.5229378  49.8247334  99.1774140  21.3141394  36.6008714
 100.1233245  21.1847602  36.6697132  98.7988385  20.5756056  37.0778142
 107.4885298  19.2356385  50.6039793 106.9724346  18.4514841  50.4169722
 108.3725246  18.9075101  50.7686312 105.1496025  12.9797400  46.5635605
 104.9520846  12.6712489  47.4478937 105.7595730  13.7059039  46.6933535
 113.1567359  23.5061348  49.6987546 113.8870748  23.2446636  50.2595250
 112.5474305  22.7690070  49.7389614 111.2382656  21.6469211  50.2961997
 110.5115820  21.5125176  49.6878489 110.8229943  21.9546039  51.1018716
  99.0612833  25.3659140  58.0609371  99.9815842  25.5437739  58.2549417
  99.0262416  24.4215186  57.9089070  97.3617057  19.2391371  36.5363599
  96.4548513  18.9424483  36.6126312  97.6393038  18.9421189  35.6697885
  98.9779123  13.7828260  42.6907840  98.1679851  13.4375345  43.0663086
  99.6663540  13.4735804  43.2795452 100.9069671  12.8606307  44.3132137
 101.4600710  13.2801761  44.9722160 101.1439758  11.9342055  44.3555093
  96.9302771  18.8493381  60.0934901  96.8299497  19.7987738  60.0246992
  96.7124313  18.5211620  59.2210971  96.1315842  16.0978306  36.6775578
  96.9935006  16.4233204  36.9371395  96.3166186  15.3109802  36.1648644
 104.2848478  14.9706832  43.8210801 103.7047147  15.6291636  43.4388853
 104.0184411  14.1484177  43.4098218 102.7352045  14.3711890  46.0232121
 103.2351823  14.4828425  45.2146440 103.3787653  14.0672943  46.6632930
  96.7934041  22.2790520  58.9099962  96.3101122  23.0790880  59.1163851
  96.8794980  22.2898465  57.9567406 103.0673356  17.1306923  42.8767149
 102.1799211  17.4156573  42.6587344 103.4827345  16.9700686  42.0294426
 106.4187893  17.1553444  46.5921488 107.1948283  17.6449896  46.8646105
 105.6936027  17.5811498  47.0493358 108.8560451  17.8681063  47.6495429
 109.4504942  17.6276799  46.9388737 108.9287035  17.1488194  48.2768965
 102.2116570  26.8951597  36.9715169 102.9152420  27.1001600  37.5872825
 101.4879219  27.4628359  37.2364253 103.0414380  22.6461459  43.0917439
 102.9849582  23.1030010  42.2525072 103.5942723  21.8852143  42.9140282
 106.8519186  18.4351191  43.9167559 106.5956120  18.0347826  44.7475767
 106.2272054  19.1494984  43.7917698 111.1631524  21.1747264  46.4238850
 110.6031082  21.2440453  47.1970412 110.5575027  20.9988248  45.7038347
 104.1203267  27.3334127  39.0213629 104.9548871  26.9015325  38.8391104
 103.9587610  27.1616140  39.9490524 103.7749159  23.8366240  40.3869969
 103.7197963  23.6710511  39.4458413 103.1495215  24.5442273  40.5432158
  88.5641674  19.0734304  54.2131391  89.2100538  18.5633258  54.7018616
  88.3558826  19.8102986  54.7874816 101.0895067  26.1415152  59.7123531
 101.9586226  26.3155804  59.3510166 100.6101818  26.9609569  59.5899261
  97.0845285  13.3374349  39.9655287  97.0723955  14.2816189  40.1223558
  97.9768707  13.1544494  39.6714748  92.9039165  16.2201921  58.3106405
  93.7670627  15.8638726  58.5209730  92.3304576  15.8815816  58.9981809
 112.7487542  37.8503778  49.1168806 113.3865952  37.7310525  48.4132146
 112.6308385  38.7984622  49.1756758 109.5577249  37.8031206  49.0530331
 109.2195760  37.6872271  48.1650866 110.4267017  37.4022371  49.0331337
 105.4164064  39.6566682  45.0427222 104.8528929  39.5656619  44.2743509
 105.3016459  38.8366587  45.5229714 110.0397032  38.9566058  55.0116536
 110.0285672  38.5618856  54.1397040 110.2017671  38.2232130  55.6050308
 102.9628496  41.1517874  47.8811442 103.7549788  40.8108698  47.4657741
 103.2025146  41.2612849  48.8013595 110.9963623  43.3237650  40.3541687
 110.3451603  43.9091730  39.9675700 111.7907986  43.8543845  40.4136724
 104.9219250  40.4126787  40.7528821 105.6950126  39.8655774  40.6141697
 105.2744649  41.2771036  40.9643282 106.7604293  41.7403169  53.9595720
 106.4694159  42.6448800  53.8442387 107.3961277  41.7819697  54.6739790
 107.6860500  39.1180018  50.5497080 108.2824072  38.8936040  49.8354043
 107.7435471  38.3764763  51.1522528 107.2585528  36.5719453  38.3847271
 107.5111049  36.0500974  37.6230734 106.3210087  36.4085599  38.4873954
 112.3028811  35.5755232  46.1922014 113.0891900  35.1574655  45.8412431
 112.5667515  36.4801324  46.3603662 112.4738888  41.0128082  40.8910671
 111.8384721  41.0862708  41.6031575 112.1436295  41.6021681  40.2129750
 117.7037238  35.5130465  47.0954993 118.4362410  34.9429682  47.3292822
 116.9476594  35.1252065  47.5361498 106.9781817  38.4747559  40.5871646
 106.8618075  37.7992463  41.2552730 107.0884077  37.9879933  39.7703799
 109.3213358  37.9357706  44.2918335 108.9571565  37.4088327  45.0031256
 110.1780474  37.5456175  44.1184820 115.2262658  29.2252039  51.5549601
 114.8945983  30.0947450  51.3310816 114.6308272  28.9088323  52.2343632
 108.9618845  32.9647606  39.2879684 109.1293247  33.8327842  39.6550155
 108.7716014  33.1274888  38.3640973 111.7194178  41.4264585  50.9545514
 111.4194901  42.3289624  50.8461321 111.3745237  41.1596768  51.8066667
 105.1706659  37.8778382  46.9882218 104.2457156  37.7454596  47.1959910
 105.4191073  38.6572601  47.4852161 115.1191322  33.9447125  48.6342951
 114.2108199  33.8762533  48.3401712 115.0678917  34.4219070  49.4624777
 108.9408066  35.4205263  40.2726350 108.8207691  35.8662314  41.1111831
 108.2460654  35.7690581  39.7139888 102.5315470  37.5211655  47.8226007
 102.6607852  37.7746134  48.7365419 101.8512922  38.1139363  47.5030662
 106.7014958  48.1908905  43.9216482 106.6238987  49.1416730  44.0004962
 106.0976601  47.8454778  44.5791408 109.1932187  35.3636771  56.5777848
 108.4165522  35.9230691  56.5680713 109.8322751  35.8493554  57.0992719
 116.9852968  32.1463563  50.4120825 116.3427348  32.4396097  49.7660620
 116.4807897  32.0316484  51.2174022 114.6393132  35.8926737  41.1006684
 115.5510988  36.1254123  40.9254382 114.1302779  36.4763781  40.5381763
 107.4478560  38.1722224  56.1395815 108.1893244  38.7107268  55.8630639
 106.7415545  38.7988513  56.2967367 112.9233899  40.3151364  54.7367977
 113.3317255  39.8733775  53.9922609 112.2011161  39.7403992  54.9902170
 109.2764969  35.2523971  52.1101534 110.1226165  35.6763385  52.2536183
 109.2163607  34.5957596  52.8040097 113.2462714  40.8752555  48.4920266
 112.6171576  41.0398269  47.7896334 112.8588376  41.2894165  49.2631230
 117.1251946  41.8106993  45.8464630 116.4402984  42.1905894  45.2961663
 117.2095795  42.4202320  46.5796577 112.4264415  32.9128340  53.7682708
 112.1825347  33.6670400  53.2316983 112.7024345  33.2913687  54.6029955
 114.3802878  39.4566952  52.4459973 114.5919773  40.0998712  51.7694354
 114.3332626  38.6229269  51.9781903 111.9829107  32.0684773  49.3496545
 111.1213586  32.3666026  49.6413283 112.0091541  32.2855172  48.4177578
 108.7990676  40.6126963  45.7570351 109.2629021  40.8914666  44.9674973
 108.5347474  39.7110408  45.5743442 105.6914757  40.1598445  48.6950114
 106.2616114  40.5885713  48.0567599 106.2822869  39.8781029  49.3934300
 107.7359562  36.7350116  42.5659916 108.4383605  37.1871159  43.0333842
 107.4040190  36.0933934  43.1939809 106.1839924  35.3261872  56.9411125
 105.5538584  36.0078153  57.1746522 106.0776011  35.2144954  55.9964264
 115.4948705  42.3338907  50.6182330 116.3166149  41.9319095  50.3365012
 115.4911108  42.2307142  51.5698446 109.2605309  41.8822951  52.7743041
 109.3249741  42.3443358  53.6101213 108.5516233  41.2520316  52.9025351
 108.9753327  43.5491058  42.6422021 108.8399001  44.3942594  43.0706869
 109.5163139  43.7510336  41.8787955 105.4620666  29.6282638  59.3036377
 105.0687612  29.0748837  59.9784021 106.2786807  29.9393217  59.6942894
 104.2377609  44.1832253  45.2972700 104.4144237  45.1050217  45.1093683
 105.0334442  43.8690672  45.7267079 108.3788627  31.0440517  56.8956633
 109.1198341  31.6447670  56.8161096 108.6106550  30.3018155  56.3374676
 103.5229965  36.2296884  55.1734863 103.4083480  35.3282142  55.4741962
 102.6674483  36.4760581  54.8219679 110.6021803  44.1714625  56.7722363
 110.1585657  43.3851003  56.4543268 111.2639017  44.3593775  56.1066254
 105.3608924  45.7010426  51.2983042 105.9116349  45.5727490  50.5260036
 104.5220400  46.0005315  50.9477935 112.7003041  44.4517425  54.8003765
 112.6821516  45.2726306  54.3084034 113.6222961  44.3271500  55.0253906
 109.1576095  41.9661554  55.6427273 109.6904432  41.2049842  55.4126581
 108.6290176  41.6735206  56.3851428 112.3245790  27.0721620  51.1720915
 111.9810060  27.9623262  51.0960025 112.6924753  26.8823278  50.3090500
 112.2896073  37.0630231  39.6793350 111.7742696  37.8334836  39.9181737
 112.0173381  36.3895367  40.3026411 109.8743184  31.9079932  44.7378588
 109.0184780  31.5186782  44.5584227 110.2870136  31.9871893  43.8778374
 111.4042331  29.4426275  49.1370148 110.9007126  29.4056410  48.3237953
 111.6972937  30.3519018  49.1966805 107.6485216  29.5265005  48.1436330
 108.5138213  29.3307814  47.7842219 107.7162725  29.2975357  49.0705687
 117.2630347  39.8162586  41.6146523 116.4859790  39.4773745  41.1701685
 117.9421828  39.8215209  40.9401488 112.0782376  34.9357323  41.5053131
 111.7732512  35.2503472  42.3563274 113.0312818  35.0138743  41.5480464
 110.5228808  41.0947547  43.1546085 109.9950169  40.3600306  42.8419322
 110.0216311  41.8722223  42.9086053 115.5021654  39.2896567  48.2713131
 114.8445328  39.9795828  48.3593260 116.3062053  39.6792999  48.6147118
 105.2547536  31.7567213  45.5152697 105.8291287  31.5342394  44.7825890
 105.8418518  31.8255907  46.2681298 114.3127113  37.6440940  46.3217073
 114.8258994  38.2770932  46.8238783 114.9628337  37.0442135  45.9560433
 105.5817123  33.7871674  39.5348582 104.7454435  34.1246360  39.8557857
 105.4421892  33.6520654  38.5975719 107.5570203  28.6308462  44.2427766
 106.9034616  28.3157479  43.6184381 107.5150677  28.0084202  44.9687589
 108.6681408  38.9127757  36.1581058 107.7608470  38.6817010  36.3572207
 109.1652440  38.1165376  36.3455040 111.5749487  47.6225264  39.0777744
 110.9011186  47.9256961  39.6862702 111.9615309  48.4254344  38.7283201
 110.7907944  35.1190395  48.5675414 109.8730505  35.3405342  48.4097102
 111.2068087  35.1936706  47.7087121 111.5742991  36.5181811  43.6978094
 112.3214810  37.0303208  43.3885216 111.8434581  36.1965864  44.5582487
 109.8469642  39.0140352  40.6805048 108.9380861  38.7299385  40.7777518
 109.8764725  39.4339430  39.8208355 115.0788909  42.6246941  44.4496216
 114.6251236  41.7837851  44.5061406 114.4482876  43.2608340  44.7870996
 114.0221829  33.5538927  45.6796883 113.2844585  33.0416313  46.0107126
 114.2748602  33.1139309  44.8680160 113.5221848  44.4623438  45.3846034
 113.8144823  45.0228495  44.6658400 114.0320469  44.7551999  46.1399193
 114.1233456  26.3315179  46.2738652 114.4292333  25.4712543  45.9864568
 114.8486061  26.9232799  46.0737646 108.3954536  36.6268972  46.7814844
 108.4503145  35.6742809  46.7057320 107.5845738  36.7828411  47.2656142
 109.5445729  40.5549095  38.0193127 109.1065159  39.8384954  37.5598764
 110.2856170  40.7825210  37.4578218 106.3346895  35.2446032  44.5405222
 105.5214761  35.5440203  44.9470415 106.8305890  34.8501721  45.2579705
 108.4855473  45.2403789  46.4739487 108.4431652  45.4664635  45.5448019
 109.4018172  45.0067164  46.6225288 111.9321107  35.7087857  53.3720116
 112.2870495  35.9359330  54.2314582 112.5793238  36.0406233  52.7497372
 117.6618844  38.8306292  44.0769445 117.5236743  39.0207888  43.1490635
 117.3055063  39.5925675  44.5337496 105.8260970  32.8164388  50.1566457
 106.4660350  32.6753147  49.4589421 104.9938501  32.5298901  49.7805059
 117.6888224  40.8982819  49.0880717 118.1224730  40.8058109  49.9363771
 118.4019804  40.8740320  48.4500733 106.6021274  42.1166818  46.2701450
 107.3961873  41.6217138  46.0684025 105.8912967  41.5884681  45.9069155
 111.4216119  44.4984914  50.6213817 111.4753141  45.0675850  51.3891533
 110.5530900  44.6686799  50.2567855 104.3014512  34.2002470  52.1038269
 104.9737565  33.9919832  51.4550918 103.4744299  34.0024556  51.6643501
 118.5503773  40.9406520  51.6213602 118.7439663  41.8452331  51.8672877
 118.4504391  40.4813939  52.4552187 110.2040084  30.8264411  54.1203930
 109.5567999  31.5254360  54.0268406 110.9741099  31.2600555  54.4880178
 113.6118882  41.0913263  57.1954483 113.4604388  40.8623815  56.2784567
 113.6023561  42.0483864  57.2085828 110.3804218  38.6645176  52.1800749
 111.3096278  38.8156335  52.0069717 109.9595248  38.7529196  51.3249396
 109.1792550  42.6895840  49.9499287 109.0403636  42.3214624  50.8225225
 108.3907146  43.2043479  49.7783245 109.7740702  47.7904936  41.2924823
 109.9492458  47.3192980  42.1070446 109.0873490  48.4170703  41.5206084
 110.7297765  42.0677443  47.3388125 110.3947598  42.0278213  48.2345775
 110.2301711  41.4022159  46.8658535 104.7042009  37.4745073  52.8640706
 104.5661807  36.7425312  53.4652245 105.6146933  37.3853973  52.5824894
 113.6656957  39.4133477  37.6125184 113.0486128  38.6880305  37.5158237
 113.1973445  40.1742837  37.2692259 107.3324310  37.1865032  52.3524385
 108.0423928  36.5458224  52.3111004 107.2893618  37.4377927  53.2750566
 115.3211089  44.1232385  55.2730965 115.2623635  43.4391606  54.6061548
 115.7230607  44.8651375  54.8211591 106.0453244  34.1730250  54.1720025
 105.5090601  33.7220988  54.8241621 105.4569952  34.3076159  53.4290489
 104.3401787  50.9394299  48.0664684 104.5798386  51.5712823  48.7443702
 103.4970984  50.5882339  48.3530043 105.4555503  33.6318901  36.7346489
 104.5784969  33.5107702  36.3708735 105.9313256  32.8404980  36.4825377
 115.3228496  42.0871969  53.5044944 114.4355275  41.7497891  53.6271343
 115.8927047  41.3555001  53.7413710 101.7792365  33.3086258  51.2573019
 101.6950554  32.7011927  50.5223429 100.9575072  33.7995276  51.2582516
 108.8529649  46.7473422  50.4706188 108.7799821  47.5528393  50.9825492
 108.4107042  46.9465387  49.6454209 108.6419429  45.9845192  43.9809009
 107.8586951  46.5266872  44.0747234 109.3412174  46.5019171  44.3803250
 111.9516079  31.7939821  46.6243215 112.4484779  31.0409783  46.3044285
 111.1803061  31.8304138  46.0586424 119.8045836  37.4980187  48.2661506
 119.7935713  38.3804902  47.8955439 118.9363216  37.1451738  48.0716043
 111.3128333  46.6460256  52.6264346 112.0256305  47.2807721  52.5540248
 110.8218361  46.7424122  51.8104348 113.0345860  40.5511508  44.1981638
 112.1002138  40.6712971  44.0286342 113.2122528  39.6483975  43.9341648
 108.5351048  33.9357204  46.3514899 108.1648835  33.3828245  47.0395805
 109.0310140  33.3315338  45.7989899 116.4218411  36.3928828  44.7331672
 116.8878863  37.2256819  44.6591975 116.8725912  35.9273809  45.4376931
 106.3640246  44.3954699  53.4469917 107.0649706  45.0291182  53.5999311
 105.8935361  44.7369431  52.6865556 114.4894642  42.7372649  41.7317824
 114.7654486  42.6229244  42.6411698 113.6199141  42.3390134  41.6929997
 114.3935074  28.7609415  48.7722573 113.4798154  28.9913641  48.9404780
 114.8228175  28.8447859  49.6236606 114.1641532  36.9499307  51.2722467
 113.5112983  37.1975214  50.6174920 114.5421912  36.1363445  50.9384945
 111.1248706  46.9859000  45.3750638 111.3071101  46.1680656  45.8378390
 111.9481692  47.2026692  44.9375528 111.4590872  45.9127185  42.6365686
 111.9878638  45.4019640  42.0235848 111.7219091  45.5969715  43.5011219
 110.2129105  37.6919118  57.7588505 109.5369742  37.5913247  58.4290880
 111.0356739  37.5358331  58.2224502 101.9607964  43.9291054  50.3801020
 102.5461401  43.1834742  50.5128924 101.7632803  44.2395011  51.2637684
 104.8146620  46.9642302  45.3963462 104.1456995  47.4488429  44.9127502
 104.6759489  47.2111522  46.3106841 108.9551888  48.9986045  51.9946120
 109.5070196  49.1617667  52.7595206 109.2958082  49.5890483  51.3226145
 103.9316381  31.3461195  52.5968005 103.9957708  32.2076026  52.1845403
 103.8683502  30.7335197  51.8640364 103.4068654  33.4184327  56.2441039
 104.0340693  33.0361405  56.8578564 102.5496573  33.1998529  56.6096732
 113.8062763  43.8247303  57.8494775 114.3502666  44.4377261  57.3549730
 113.2249607  44.3826881  58.3661788 112.0920275  46.9468021  48.9809803
 111.9671415  46.1457760  48.4720748 112.7499367  47.4414214  48.4923773
 103.7128444  33.3016753  48.1586943 102.9915029  33.9152721  48.0194416
 104.5021699  33.8374518  48.0803589 114.1555184  44.7477041  50.6089353
 113.2085519  44.6282392  50.5367679 114.5037957  43.8599539  50.6915614
 106.5154757  30.6371180  54.4327595 107.0389159  30.8833476  55.1953904
 106.2967090  31.4691214  54.0130732 111.1601617  44.5429757  46.8093705
 111.0126580  43.6146464  46.9901275 111.9855111  44.5649848  46.3250780
 105.0263861  33.1947824  42.6674197 105.3659934  33.7233745  41.9452805
 105.4735982  33.5328230  43.4432764 114.7635739  45.3658316  47.8958578
 115.6882286  45.1601177  47.7583029 114.5951042  45.1174717  48.8047919
 107.7207302  31.5784875  52.1177265 107.3804123  30.7792688  52.5197945
 107.0146309  31.8786586  51.5454098 108.3723774  28.6634187  50.5704588
 109.1949843  28.1894665  50.4483479 108.6161838  29.4424671  51.0703274
 107.0132009  31.6922446  40.8667490 107.7340371  32.0703698  40.3631207
 106.3897313  32.4111322  40.9702468 111.1563131  32.3967595  41.8025822
 111.3726746  33.2792232  41.5014650 110.6757199  32.0053808  41.0731464
 105.8962353  35.3553308  48.3796567 105.7506934  35.6693611  49.2720848
 105.4187556  35.9738208  47.8267465 107.7558736  32.3455856  48.4277456
 107.7420304  31.4496949  48.0909754 108.4731164  32.3526520  49.0615742
 109.6084866  32.7793196  50.4730584 109.3502644  33.7010267  50.4714914
 109.0769907  32.3823631  51.1631048 114.5531055  45.8843983  43.2520669
 114.7267933  45.3190406  42.4994522 115.0459946  46.6844878  43.0700159
 107.1595632  31.2270236  43.6965026 107.2811543  30.2986882  43.8955914
 106.8697674  31.2408922  42.7843342 110.0286822  28.9125147  46.8331746
 110.0508519  28.9764480  45.8783726 110.4454881  28.0729655  47.0272252
 120.4070446  38.6480406  44.8710969 120.8501592  37.8987731  44.4730092
 119.5296957  38.6390542  44.4884701 115.5406228  45.2010748  40.3517567
 116.2357132  45.8217440  40.5704882 115.8829378  44.3506099  40.6269945
 101.1574037  37.0228548  54.2114385 100.4155773  37.1711184  54.7979015
 100.8366781  37.2836814  53.3481134 117.4397651  42.6510453  41.8804898
 117.9648975  42.9897726  41.1554218 117.3520003  41.7157468  41.6968033
 109.1017700  46.5644527  54.0094775 109.4104826  46.3193673  54.8817474
 109.8993182  46.7691165  53.5213645 109.1238312  48.7182436  46.2400151
 108.6843302  48.2258815  46.9333008 109.8746429  48.1755404  45.9992227
 101.6030651  44.9093977  46.2424779 102.4288670  44.6097749  45.8623423
 101.2524703  44.1401600  46.6914568 106.5712184  44.2620445  48.3122453
 105.9492193  43.5991150  48.0124681 107.2417051  44.2881577  47.6296101
 106.6436711  32.7402233  57.9054959 106.6924867  33.6164356  57.5232729
 107.1859225  32.1979627  57.3326602 117.1291557  43.2843357  57.1856096
 116.3387101  43.2667496  56.6460596 116.8924911  43.8231650  57.9405133
 117.2489432  40.1335823  54.4988825 117.2987437  39.9685831  55.4404347
 117.1403355  39.2663082  54.1086705 106.1325691  42.8124369  41.7880914
 106.2813811  43.4959833  41.1347586 106.9392134  42.7929459  42.3030369
 114.5393194  36.1166751  55.8148131 115.4403057  35.9773216  55.5232129
 114.6141169  36.2821206  56.7546309 108.8736000  33.4933606  54.6601318
 108.0039309  33.7867172  54.3883906 109.1095480  34.0774051  55.3808581
 118.7507629  42.5532765  54.7430846 118.4592437  42.9162745  55.5794307
 118.1379760  41.8399773  54.5644178 119.9503311  40.1185644  47.2633416
 120.7850202  40.5575448  47.4270977 120.0862440  39.6424298  46.4441662
 116.9994817  37.6765379  53.2110904 117.4748939  37.8693026  52.4029756
 116.0760382  37.7324565  52.9654288 111.5775033  29.7113223  52.1766738
 112.0956977  30.4474250  51.8513227 111.2230166  30.0177216  53.0113497
 111.8287628  26.1313505  47.6967635 112.1089381  25.4636694  48.3228061
 112.6138235  26.3242601  47.1842299 109.6321096  45.3072499  39.2592661
 109.0595063  45.9262686  38.8063133 110.2053890  45.8571861  39.7932583
 115.6996486  34.5531139  51.4439210 116.6513909  34.6529237  51.4651434
 115.5299936  33.7609408  51.9537294 113.7210865  31.6386723  51.6298611
 113.1260798  31.9191735  50.9345099 113.4360562  32.1280623  52.4015352
 112.8518356  45.5909649  40.3901243 113.7849029  45.5255211  40.5934119
 112.7641569  46.4265916  39.9315776 115.4806373  44.9075520  37.3505191
 115.4020004  44.5735383  38.2440949 116.3016039  45.3997288  37.3496663
 118.1784564  37.7737259  50.5581509 118.1460884  36.8353260  50.7441193
 118.7885187  37.8521296  49.8247334 110.0167895  36.6433312  36.6008714
 110.9626999  36.5139520  36.6697132 109.6382140  35.9047974  37.0778142
 118.3279052  34.5648302  50.6039793 117.8118101  33.7806759  50.4169722
 119.2119001  34.2367019  50.7686312 115.9889779  28.3089318  46.5635605
 115.7914600  28.0004406  47.4478937 116.5989485  29.0350957  46.6933535
 109.9006587  40.6951058  58.0609371 110.8209597  40.8729657  58.2549417
 109.8656170  39.7507103  57.9089070 108.2010812  34.5683288  36.5363599
 107.2942267  34.2716401  36.6126312 108.4786793  34.2713106  35.6697885
 102.8968660  38.6052093  50.7032152 103.1154670  39.5369201  50.7220185
 103.3094434  38.2460067  51.4886956 109.8172878  29.1120178  42.6907840
 109.0073606  28.7667263  43.0663086 110.5057294  28.8027722  43.2795452
 111.7463426  28.1898225  44.3132137 112.2994464  28.6093678  44.9722160
 111.9833512  27.2633973  44.3555093 107.7696525  34.1785299  60.0934901
 107.6693252  35.1279655  60.0246992 107.5518067  33.8503537  59.2210971
 106.9709596  31.4270224  36.6775578 107.8328760  31.7525122  36.9371395
 107.1559941  30.6401719  36.1648644 115.1242233  30.2998750  43.8210801
 114.5440902  30.9583554  43.4388853 114.8578166  29.4776095  43.4098218
 113.5745799  29.7003808  46.0232121 114.0745578  29.8120342  45.2146440
 114.2181407  29.3964861  46.6632930 107.6327795  37.6082437  58.9099962
 107.1494877  38.4082797  59.1163851 107.7188734  37.6190382  57.9567406
 103.5601133  41.4986972  50.9468396 104.5144386  41.4670914  50.8798328
 103.3613656  41.0377596  51.7618622 104.1500515  40.0688088  53.5139194
 104.9693404  40.5632167  53.5374031 104.4237322  39.1520056  53.4856761
 113.9067111  32.4598840  42.8767149 113.0192966  32.7448491  42.6587344
 114.3221100  32.2992604  42.0294426 117.2581647  32.4845361  46.5921488
 118.0342037  32.9741814  46.8646105 116.5329781  32.9103416  47.0493358
 119.6954206  33.1972981  47.6495429 120.2898696  32.9568717  46.9388737
 119.7680789  32.4780111  48.2768965 101.9151361  47.0406592  47.9638594
 101.7805829  46.2806992  47.3976592 101.4983424  47.7647491  47.4967383
 113.0510324  42.2243515  36.9715169 113.7546175  42.4293518  37.5872825
 112.3272973  42.7920277  37.2364253 113.8808135  37.9753376  43.0917439
 113.8243336  38.4321928  42.2525072 114.4336477  37.2144061  42.9140282
 117.6912941  33.7643108  43.9167559 117.4349875  33.3639744  44.7475767
 117.0665809  34.4786902  43.7917698 105.0720487  47.9375909  48.1757037
 104.9552871  48.8821341  48.0735727 104.2512934  47.6349470  48.5642836
 114.9597022  42.6626044  39.0213629 115.7942626  42.2307243  38.8391104
 114.7981365  42.4908058  39.9490524 114.6142914  39.1658158  40.3869969
 114.5591718  39.0002429  39.4458413 113.9888969  39.8734191  40.5432158
 111.9288821  41.4707069  59.7123531 112.7979981  41.6447722  59.3510166
 111.4495573  42.2901486  59.5899261 107.9239039  28.6666267  39.9655287
 107.9117709  29.6108107  40.1223558 108.8162461  28.4836412  39.6714748
 106.0975001  48.5904170  51.3912965 107.0002248  48.6227781  51.7079460
 105.8712371  47.6604621  51.4059301 107.8528603  47.3435157  48.0523044
 106.9024234  47.3437019  47.9387416 108.1561090  46.5967892  47.5359078
 111.7391159  25.2609043  44.2201224 110.9723555  24.7067530  44.3657906
 112.1501864  25.3330912  45.0815375 103.7432920  31.5493839  58.3106405
 104.6064382  31.1930644  58.5209730 103.1698331  31.2107734  58.9981809
 120.3971003  53.1323124  49.0530331 120.0589515  53.0164188  48.1650866
 121.2660771  52.7314289  49.0331337 116.2557819  54.9858600  45.0427222
 115.6922684  54.8948537  44.2743509 116.1410214  54.1658504  45.5229714
 120.8790786  54.2857975  55.0116536 120.8679427  53.8910774  54.1397040
 121.0411426  53.5524048  55.6050308 113.8022251  56.4809792  47.8811442
 114.5943543  56.1400616  47.4657741 114.0418901  56.5904767  48.8013595
 115.7613005  55.7418705  40.7528821 116.5343881  55.1947692  40.6141697
 116.1138404  56.6062954  40.9643282 117.5998047  57.0695087  53.9595720
 117.3087913  57.9740718  53.8442387 118.2355032  57.1111615  54.6739790
 118.5254254  54.4471936  50.5497080 119.1217826  54.2227958  49.8354043
 118.5829226  53.7056681  51.1522528 118.0979283  51.9011371  38.3847271
 118.3504803  51.3792892  37.6230734 117.1603842  51.7377516  38.4873954
 117.8175571  53.8039477  40.5871646 117.7011829  53.1284380  41.2552730
 117.9277831  53.3171851  39.7703799 120.1607112  53.2649624  44.2918335
 119.7965319  52.7380245  45.0031256 121.0174228  52.8748093  44.1184820
 119.8012599  48.2939524  39.2879684 119.9687002  49.1619760  39.6550155
 119.6109768  48.4566805  38.3640973 116.0100414  53.2070299  46.9882218
 115.0850910  53.0746514  47.1959910 116.2584827  53.9864519  47.4852161
 119.7801820  50.7497181  40.2726350 119.6601445  51.1954232  41.1111831
 119.0854408  51.0982499  39.7139888 113.3709225  52.8503573  47.8226007
 113.5001606  53.1038052  48.7365419 112.6906676  53.4431281  47.5030662
 117.5408712  63.5200823  43.9216482 117.4632742  64.4708648  44.0004962
 116.9370356  63.1746695  44.5791408 120.0325942  50.6928688  56.5777848
 119.2559276  51.2522608  56.5680713 120.6716505  51.1785471  57.0992719
 118.2872314  53.5014142  56.1395815 119.0286999  54.0399186  55.8630639
 117.5809300  54.1280430  56.2967367 120.1158724  50.5815889  52.1101534
 120.9619919  51.0055302  52.2536183 120.0557362  49.9249513  52.8040097
 119.6384430  55.9418881  45.7570351 120.1022776  56.2206584  44.9674973
 119.3741229  55.0402325  45.5743442 116.5308511  55.4890362  48.6950114
 117.1009869  55.9177631  48.0567599 117.1216623  55.2072947  49.3934300
 118.5753316  52.0642033  42.5659916 119.2777360  52.5163077  43.0333842
 118.2433945  51.4225852  43.1939809 117.0233678  50.6553790  56.9411125
 116.3932339  51.3370071  57.1746522 116.9169766  50.5436871  55.9964264
 112.3178650  50.3225586  47.8677050 111.5277704  50.5783114  47.3917160
 112.8089898  51.1373924  47.9729090 114.2693396  50.6870165  44.8260526
 113.4724559  50.7988859  45.3444022 114.0418988  51.0256817  43.9601417
 120.0999063  57.2114868  52.7743041 120.1643496  57.6735276  53.6101213
 119.3909987  56.5812233  52.9025351 110.6016353  50.5756076  50.2992040
 110.8524392  51.4603086  50.5649616 111.1375902  50.3960678  49.5267132
 119.8147081  58.8782976  42.6422021 119.6792756  59.7234512  43.0706869
 120.3556894  59.0802254  41.8787955 116.3014421  44.9574556  59.3036377
 115.9081366  44.4040754  59.9784021 117.1180561  45.2685134  59.6942894
 113.2676478  56.3958414  43.2149946 113.7800999  57.1901664  43.3655511
 113.9199191  55.6984704  43.1483548 115.0771363  59.5124170  45.2972700
 115.2537992  60.4342135  45.1093683 115.8728197  59.1982589  45.7267079
 119.2182382  46.3732435  56.8956633 119.9592095  46.9739588  56.8161096
 119.4500305  45.6310073  56.3374676 114.3623720  51.5588802  55.1734863
 114.2477235  50.6574059  55.4741962 113.5068237  51.8052499  54.8219679
 116.2002679  61.0302344  51.2983042 116.7510104  60.9019407  50.5260036
 115.3614155  61.3297233  50.9477935 119.9969850  57.2953472  55.6427273
 120.5298186  56.5341760  55.4126581 119.4683931  57.0027124  56.3851428
 111.2325395  54.7247068  43.9909517 112.0700617  55.1344077  43.7743225
 111.4103663  53.7846510  43.9609711 120.7136938  47.2371850  44.7378588
 119.8578535  46.8478700  44.5584227 121.1263890  47.3163810  43.8778374
 118.4878971  44.8556923  48.1436330 119.3531968  44.6599731  47.7842219
 118.5556480  44.6267274  49.0705687 121.3622562  56.4239464  43.1546085
 120.8343924  55.6892224  42.8419322 120.8610065  57.2014141  42.9086053
 116.0941290  47.0859131  45.5152697 116.6685042  46.8634312  44.7825890
 116.6812272  47.1547825  46.2681298 116.4210877  49.1163592  39.5348582
 115.5848189  49.4538278  39.8557857 116.2815647  48.9812571  38.5975719
 118.3963958  43.9600379  44.2427766 117.7428370  43.6449397  43.6184381
 118.3544432  43.3376120  44.9687589 119.5075163  54.2419675  36.1581058
 118.6002224  54.0108928  36.3572207 120.0046195  53.4457294  36.3455040
 120.6863396  54.3432269  40.6805048 119.7774615  54.0591302  40.7777518
 120.7158480  54.7631348  39.8208355 111.2551566  52.0637784  44.6620250
 111.0575966  51.4707144  43.9371317 110.6998230  51.7589994  45.3796189
 119.2348290  51.9560890  46.7814844 119.2896900  51.0034726  46.7057320
 118.4239492  52.1120329  47.2656142 120.3839484  55.8841013  38.0193127
 119.9458914  55.1676872  37.5598764 121.1249925  56.1117128  37.4578218
 117.1740650  50.5737950  44.5405222 116.3608516  50.8732120  44.9470415
 117.6699644  50.1793639  45.2579705 119.3249228  60.5695707  46.4739487
 119.2825407  60.7956553  45.5448019 120.2411927  60.3359081  46.6225288
 116.6654725  48.1456305  50.1566457 117.3054104  48.0045064  49.4589421
 115.8332255  47.8590819  49.7805059 117.4415029  57.4458736  46.2701450
 118.2355627  56.9509056  46.0684025 116.7306721  56.9176599  45.9069155
 113.7497792  51.5901817  42.3461202 112.8195380  51.5286273  42.5631165
 113.8455264  51.0677770  41.5497844 113.6683341  48.1156630  44.9339444
 113.9290158  49.0301963  44.8248605 114.4900513  47.6481073  45.0836057
 115.1408266  49.5294387  52.1038269 115.8131320  49.3211750  51.4550918
 114.3138053  49.3316473  51.6643501 120.0186305  58.0187758  49.9499287
 119.8797390  57.6506542  50.8225225 119.2300901  58.5335397  49.7783245
 120.6134457  63.1196854  41.2924823 120.7886212  62.6484897  42.1070446
 119.9267245  63.7462620  41.5206084 121.5691520  57.3969360  47.3388125
 121.2341352  57.3570130  48.2345775 121.0695465  56.7314076  46.8658535
 115.5435764  52.8036990  52.8640706 115.4055562  52.0717229  53.4652245
 116.4540687  52.7145891  52.5824894 118.1718064  52.5156950  52.3524385
 118.8817683  51.8750142  52.3111004 118.1287373  52.7669845  53.2750566
 116.8846998  49.5022168  54.1720025 116.3484355  49.0512906  54.8241621
 116.2963707  49.6368076  53.4290489 115.1795542  66.2686217  48.0664684
 115.4192140  66.9004741  48.7443702 114.3364738  65.9174257  48.3530043
 116.2949257  48.9610819  36.7346489 115.4178724  48.8399620  36.3708735
 116.7707010  48.1696897  36.4825377 107.8151397  53.7487979  46.8287996
 108.5022437  53.4349709  46.2409011 107.6599526  54.6529343  46.5555247
 112.6186120  48.6378175  51.2573019 112.5344308  48.0303845  50.5223429
 111.7968826  49.1287194  51.2582516 119.6923404  62.0765339  50.4706188
 119.6193575  62.8820311  50.9825492 119.2500797  62.2757305  49.6454209
 119.4813183  61.3137109  43.9809009 118.6980705  61.8558790  44.0747234
 120.1805929  61.8311089  44.3803250 119.3744802  49.2649122  46.3514899
 119.0042590  48.7120162  47.0395805 119.8703895  48.6607255  45.7989899
 117.2034001  59.7246617  53.4469917 117.9043460  60.3583100  53.5999311
 116.7329116  60.0661348  52.6865556 112.8001719  59.2582972  50.3801020
 113.3855156  58.5126660  50.5128924 112.6026557  59.5686929  51.2637684
 115.6540374  62.2934219  45.3963462 114.9850749  62.7780347  44.9127502
 115.5153244  62.5403440  46.3106841 107.3919374  51.8288572  49.1005463
 107.4303473  51.2952163  49.8942581 106.8859666  51.3023778  48.4816440
 119.7945643  64.3277963  51.9946120 120.3463951  64.4909584  52.7595206
 120.1351836  64.9182401  51.3226145 114.7710136  46.6753113  52.5968005
 114.8351462  47.5367944  52.1845403 114.7077256  46.0627114  51.8640364
 114.2462408  48.7476245  56.2441039 114.8734447  48.3653322  56.8578564
 113.3890327  48.5290447  56.6096732 111.0227951  50.5552674  42.1759394
 111.3181392  49.6463353  42.1226448 110.1215987  50.5340414  41.8540397
 114.5522198  48.6308671  48.1586943 113.8308784  49.2444639  48.0194416
 115.3415454  49.1666436  48.0803589 117.3548512  45.9663097  54.4327595
 117.8782914  46.2125394  55.1953904 117.1360845  46.7983132  54.0130732
 112.7515793  48.2366772  42.2998719 112.4228499  47.3564151  42.1173825
 113.1055163  48.1814441  43.1875109 115.8657616  48.5239742  42.6674197
 116.2053688  49.0525663  41.9452805 116.3129736  48.8620148  43.4432764
 118.5601057  46.9076792  52.1177265 118.2197877  46.1084605  52.5197945
 117.8540063  47.2078503  51.5454098 119.2117529  43.9926105  50.5704588
 120.0343598  43.5186583  50.4483479 119.4555592  44.7716589  51.0703274
 117.8525763  47.0214363  40.8667490 118.5734126  47.3995616  40.3631207
 117.2291067  47.7403240  40.9702468 116.7356107  50.6845225  48.3796567
 116.5900688  50.9985529  49.2720848 116.2581311  51.3030126  47.8267465
 118.5952490  47.6747773  48.4277456 118.5814059  46.7788867  48.0909754
 119.3124918  47.6818437  49.0615742 120.4478621  48.1085114  50.4730584
 120.1896399  49.0302184  50.4714914 119.9163661  47.7115548  51.1631048
 111.2101769  53.2250570  51.3184228 110.6655238  54.0010378  51.4504502
 112.0881119  53.5721374  51.1603349 117.9989386  46.5562154  43.6965026
 118.1205297  45.6278800  43.8955914 117.7091429  46.5700840  42.7843342
 120.8680577  44.2417064  46.8331746 120.8902273  44.3056397  45.8783726
 121.2848636  43.4021573  47.0272252 111.9967791  52.3520466  54.2114385
 111.2549527  52.5003102  54.7979015 111.6760536  52.6128732  53.3481134
 119.9411454  61.8936444  54.0094775 120.2498580  61.6485591  54.8817474
 120.7386936  62.0983083  53.5213645 119.9632066  64.0474354  46.2400151
 119.5237056  63.5550733  46.9333008 120.7140183  63.5047322  45.9992227
 112.4424405  60.2385895  46.2424779 113.2682425  59.9389667  45.8623423
 112.0918457  59.4693517  46.6914568 117.4105938  59.5912363  48.3122453
 116.7885947  58.9283068  48.0124681 118.0810805  59.6173495  47.6296101
 110.6433010  58.1572221  47.2013713 109.8064918  57.7294396  47.0197714
 110.6156656  58.3504665  48.1384504 117.4830466  48.0694151  57.9054959
 117.5318621  48.9456274  57.5232729 118.0252980  47.5271544  57.3326602
 116.9719445  58.1416286  41.7880914 117.1207565  58.8251751  41.1347586
 117.7785889  58.1221377  42.3030369 119.7129754  48.8225524  54.6601318
 118.8433064  49.1159090  54.3883906 119.9489234  49.4065969  55.3808581
 114.7272078  54.1681464  42.7941983 114.4818120  53.2643794  42.9922193
 114.8967993  54.1698615  41.8521461 113.9967726  49.9009822  40.2928144
 113.3036971  49.9754177  39.6368180 113.7519478  49.1370165  40.8149661
 120.4714851  60.6364417  39.2592661 119.8988818  61.2554604  38.8063133
 121.0447644  61.1863779  39.7932583 119.0404566  49.8975206  36.5363599
 118.1336022  49.6008319  36.6126312 119.3180547  49.6005024  35.6697885
 109.9582507  51.2181569  46.9862645 109.6385291  50.3646878  46.6937019
 109.4115935  51.4330148  47.7420612 113.7362414  53.9344010  50.7032152
 113.9548424  54.8661118  50.7220185 114.1488188  53.5751985  51.4886956
 120.6566632  44.4412096  42.6907840 119.8467360  44.0959181  43.0663086
 121.3451049  44.1319639  43.2795452 118.6090280  49.5077216  60.0934901
 118.5087006  50.4571573  60.0246992 118.3911822  49.1795455  59.2210971
 117.8103351  46.7562141  36.6775578 118.6722515  47.0817040  36.9371395
 117.9953695  45.9693637  36.1648644 109.8270767  54.8384481  48.9555767
 109.1334238  54.4238434  48.4425721 110.5743758  54.8805017  48.3589186
 118.4721550  52.9374355  58.9099962 117.9888631  53.7374715  59.1163851
 118.5582489  52.9482300  57.9567406 111.7407509  54.7702735  46.8321782
 111.7178197  54.8690422  45.8803665 112.0508146  55.6167886  47.1538948
 114.3994887  56.8278890  50.9468396 115.3538141  56.7962832  50.8798328
 114.2007411  56.3669513  51.7618622 114.9894269  55.3980006  53.5139194
 115.8087158  55.8924084  53.5374031 115.2631077  54.4811974  53.4856761
 112.7545116  62.3698509  47.9638594 112.6199584  61.6098910  47.3976592
 112.3377178  63.0939409  47.4967383 115.9114242  63.2667826  48.1757037
 115.7946626  64.2113259  48.0735727 115.0906688  62.9641388  48.5642836
 110.2429183  49.7318140  54.2131391 110.8888047  49.2217094  54.7018616
 110.0346335  50.4686821  54.7874816 118.7632794  43.9958184  39.9655287
 118.7511464  44.9400024  40.1223558 119.6556216  43.8128330  39.6714748
 116.9368756  63.9196088  51.3912965 117.8396003  63.9519698  51.7079460
 116.7106126  62.9896539  51.4059301 118.6922358  62.6727075  48.0523044
 117.7417989  62.6728936  47.9387416 118.9954844  61.9259809  47.5359078
 114.5826674  46.8785757  58.3106405 115.4458136  46.5222562  58.5209730
 114.0092085  46.5399652  58.9981809 118.6545152  69.0779896  46.8287996
 119.3416192  68.7641626  46.2409011 118.4993281  69.9821261  46.5555247
 118.2313128  67.1580490  49.1005463 118.2697228  66.6244080  49.8942581
 117.7253421  66.6315695  48.4816440 121.4826765  73.4864139  47.2013713
 120.6458673  73.0586313  47.0197714 121.4550410  73.6796582  48.1384504
 120.7976261  66.5473487  46.9862645 120.4779046  65.6938795  46.6937019
 120.2509689  66.7622065  47.7420612 120.6664521  70.1676399  48.9555767
 119.9727993  69.7530351  48.4425721 121.4137512  70.2096935  48.3589186
  95.8621204   9.8679110  30.6461788  95.7845234  10.8186935  30.7250269
  95.2582848   9.5224983  31.3036715  93.5008034  12.6164504  34.7909990
  93.7404632  13.2483028  35.4689009  92.6577231  12.2652544  35.0775349
  93.9752866   8.6412507  32.1208769  93.3063242   9.1258634  31.6372809
  93.8365736   8.8881727  33.0352147  98.1158135  10.6756250  38.7191427
  98.6676443  10.8387872  39.4840512  98.4564328  11.2660688  38.0471452
  91.0757608   8.7176796  34.6883901  90.9412076   7.9577197  34.1221899
  90.6589670   9.4417696  34.2212689  94.2326734   9.6146114  34.9002343
  94.1159118  10.5591546  34.7981033  93.4119180   9.3119675  35.2888142
  95.2581248  10.2674375  38.1158272  96.1608495  10.2997986  38.4324767
  95.0318618   9.3374826  38.1304607 109.5577250  14.8093328  35.7775637
 109.2195761  14.6934393  34.8896172 110.4267018  14.4084494  35.7576643
 105.4164066  16.6628805  31.7672528 104.8528931  16.5718742  30.9988816
 105.3016461  15.8428709  32.2475021 110.0397033  15.9628180  41.7361843
 110.0285674  15.5680978  40.8642347 110.2017672  15.2294253  42.3295614
 102.9628498  18.1579996  34.6056749 103.7549789  17.8170821  34.1903048
 103.2025148  18.2674971  35.5258902 110.9963624  20.3299773  27.0786993
 110.3451604  20.9153853  26.6921007 111.7907987  20.8605967  27.1382031
 104.9219251  17.4188910  27.4774128 105.6950127  16.8717897  27.3387003
 105.2744650  18.2833159  27.6888589 106.7604294  18.7465292  40.6841027
 106.4694160  19.6510923  40.5687693 107.3961278  18.7881820  41.3985096
 107.6860501  16.1242140  37.2742386 108.2824073  15.8998163  36.5599349
 107.7435472  15.3826886  37.8767834 106.9781818  15.4809682  27.3116952
 106.8618076  14.8054585  27.9798037 107.0884078  14.9942056  26.4949105
 109.3213359  14.9419829  31.0163642 108.9571566  14.4150450  31.7276563
 110.1780475  14.5518298  30.8430127 111.7194179  18.4326707  37.6790821
 111.4194902  19.3351746  37.5706628 111.3745239  18.1658891  38.5311973
 105.1706661  14.8840504  33.7127525 104.2457157  14.7516718  33.9205217
 105.4191074  15.6634724  34.2097467 102.5315472  14.5273778  34.5471314
 102.6607853  14.7808257  35.4610726 101.8512923  15.1201486  34.2275969
 106.7014959  25.1971028  30.6461788 106.6238989  26.1478853  30.7250269
 106.0976603  24.8516900  31.3036715 107.4478561  15.1784347  42.8641122
 108.1893245  15.7169391  42.5875946 106.7415546  15.8050635  43.0212674
 112.9233901  17.3213487  41.4613284 113.3317257  16.8795898  40.7167916
 112.2011162  16.7466115  41.7147477 113.2462715  17.8814678  35.2165572
 112.6171578  18.0460392  34.5141640 112.8588377  18.2956287  35.9876537
 117.1251947  18.8169116  32.5709936 116.4402985  19.1968017  32.0206970
 117.2095797  19.4264442  33.3041884 114.3802879  16.4629075  39.1705280
 114.5919774  17.1060834  38.4939661 114.3332627  15.6291391  38.7027210
 108.7990677  17.6189086  32.4815658 109.2629023  17.8976789  31.6920280
 108.5347475  16.7172530  32.2988748 105.6914758  17.1660567  35.4195421
 106.2616115  17.5947836  34.7812905 106.2822870  16.8843152  36.1179607
 101.4784897  11.9995791  34.5922356 100.6883951  12.2553319  34.1162467
 101.9696145  12.8144129  34.6974397 115.4948707  19.3401030  37.3427637
 116.3166150  18.9381217  37.0610319 115.4911110  19.2369264  38.2943753
 103.4299643  12.3640370  31.5505833 102.6330806  12.4759064  32.0689329
 103.2025235  12.7027022  30.6846724 109.2605310  18.8885073  39.4988348
 109.3249743  19.3505481  40.3346519 108.5516234  18.2582438  39.6270657
  99.7622600  12.2526281  37.0237347 100.0130639  13.1373291  37.2894923
 100.2982149  12.0730883  36.2512439 108.9753328  20.5553181  29.3667328
 108.8399003  21.4004717  29.7952176 109.5163140  20.7572458  28.6033262
 102.4282725  18.0728619  29.9395253 102.9407246  18.8671869  30.0900818
 103.0805438  17.3754909  29.8728855 104.2377610  21.1894375  32.0218006
 104.4144238  22.1112340  31.8338990 105.0334443  20.8752794  32.4512386
 103.5229966  13.2359007  41.8980169 103.4083482  12.3344264  42.1987268
 102.6674484  13.4822704  41.5464986 110.6021804  21.1776747  43.4967670
 110.1585658  20.3913126  43.1788575 111.2639018  21.3655898  42.8311561
 105.3608925  22.7072549  38.0228349 105.9116351  22.5789612  37.2505342
 104.5220401  23.0067438  37.6723241 112.7003042  21.4579547  41.5249071
 112.6821518  22.2788428  41.0329340 113.6222962  21.3333622  41.7499212
 109.1576096  18.9723677  42.3672580 109.6904433  18.2111965  42.1371888
 108.6290178  18.6797329  43.1096734 100.3931642  16.4017273  30.7154824
 101.2306864  16.8114281  30.4988531 100.5709910  15.4616715  30.6855017
 110.5228809  18.1009669  29.8791392 109.9950171  17.3662429  29.5664629
 110.0216312  18.8784346  29.6331360 115.5021655  16.2958690  34.9958438
 114.8445330  16.9857951  35.0838567 116.3062054  16.6855122  35.3392424
 111.5749488  24.6287387  25.8023051 110.9011187  24.9319083  26.4108009
 111.9615310  25.4316467  25.4528508 115.0788910  19.6309064  31.1741522
 114.6251237  18.7899974  31.2306713 114.4482877  20.2670462  31.5116303
 113.5221849  21.4685561  32.1091341 113.8144824  22.0290618  31.3903706
 114.0320470  21.7614121  32.8644500 100.4157813  13.7407988  31.3865557
 100.2182213  13.1477349  30.6616624  99.8604477  13.4360199  32.1041496
 108.4855475  22.2465912  33.1984794 108.4431653  22.4726758  32.2693326
 109.4018173  22.0129286  33.3470595 117.6888225  17.9044942  35.8126023
 118.1224732  17.8120231  36.6609077 118.4019806  17.8802442  35.1746039
 106.6021275  19.1228941  32.9946756 107.3961874  18.6279261  32.7929331
 105.8912968  18.5946804  32.6314462 111.4216120  21.5047036  37.3459124
 111.4753142  22.0737972  38.1136840 110.5530901  21.6748921  36.9813161
 102.9104039  13.2672022  29.0706509 101.9801627  13.2056478  29.2876471
 103.0061511  12.7447975  28.2743150 118.5503775  17.9468643  38.3458909
 118.7439665  18.8514453  38.5918184 118.4504393  17.4876062  39.1797494
 113.6118883  18.0975385  43.9199789 113.4604390  17.8685937  43.0029873
 113.6023563  19.0545987  43.9331134 110.3804220  15.6707298  38.9046056
 111.3096280  15.8218458  38.7315023 109.9595250  15.7591319  38.0494702
 109.1792551  19.6957963  36.6744594 109.0403637  19.3276747  37.5470532
 108.3907148  20.2105602  36.5028551 109.7740703  24.7967059  28.0170130
 109.9492459  24.3255102  28.8315753 109.0873491  25.4232825  28.2451391
 110.7297767  19.0739565  34.0633431 110.3947599  19.0340335  34.9591081
 110.2301712  18.4084281  33.5903842 104.7042011  14.4807195  39.5886012
 104.5661808  13.7487434  40.1897552 105.6146934  14.3916095  39.3070200
 107.3324311  14.1927155  39.0769692 108.0423930  13.5520347  39.0356311
 107.2893619  14.4440049  39.9995873 115.3211090  21.1294508  41.9976271
 115.2623636  20.4453728  41.3306854 115.7230608  21.8713498  41.5456897
 104.3401789  27.9456422  34.7909990 104.5798387  28.5774946  35.4689009
 103.4970985  27.5944462  35.0775349 115.3228497  19.0934092  40.2290251
 114.4355276  18.7560014  40.3516650 115.8927048  18.3617123  40.4659016
  96.9757644  15.4258184  33.5533302  97.6628684  15.1119914  32.9654318
  96.8205773  16.3299548  33.2800554 108.8529651  23.7535544  37.1951494
 108.7799822  24.5590516  37.7070799 108.4107044  23.9527510  36.3699516
 108.6419430  22.9907314  30.7054316 107.8586952  23.5328994  30.7992540
 109.3412175  23.5081294  31.1048557 111.3128334  23.6522378  39.3509653
 112.0256306  24.2869843  39.2785554 110.8218363  23.7486244  38.5349655
 113.0345861  17.5573631  30.9226945 112.1002140  17.6775093  30.7531649
 113.2122529  16.6546098  30.6586954 106.3640248  21.4016822  40.1715224
 107.0649707  22.0353305  40.3244618 105.8935363  21.7431553  39.4110863
 111.1248707  23.9921122  32.0995944 111.3071102  23.1742778  32.5623697
 111.9481693  24.2088815  31.6620834 111.4590873  22.9189308  29.3610993
 111.9878639  22.4081762  28.7481155 111.7219093  22.6031838  30.2256526
 110.2129107  14.6981240  44.4833811 109.5369744  14.5975370  45.1536186
 111.0356740  14.5420454  44.9469808 101.9607966  20.9353177  37.1046326
 102.5461402  20.1896865  37.2374231 101.7632804  21.2457134  37.9882990
 104.8146621  23.9704424  32.1208769 104.1456996  24.4550552  31.6372809
 104.6759491  24.2173645  33.0352147  96.5525620  13.5058777  35.8250770
  96.5909720  12.9722368  36.6187888  96.0465913  12.9793983  35.2061747
 108.9551889  26.0048168  38.7191427 109.5070197  26.1679789  39.4840512
 109.2958083  26.5952606  38.0471452 113.8062764  20.8309425  44.5740082
 114.3502668  21.4439384  44.0795036 113.2249609  21.3889004  45.0907095
 112.0920277  23.9530143  35.7055109 111.9671416  23.1519883  35.1966055
 112.7499368  24.4476337  35.2169079 114.1555185  21.7539163  37.3334659
 113.2085521  21.6344515  37.2612986 114.5037958  20.8661661  37.4160921
 111.1601618  21.5491880  33.5339012 111.0126581  20.6208587  33.7146582
 111.9855112  21.5711970  33.0496087 114.7635740  22.3720438  34.6203884
 115.6882288  22.1663300  34.4828335 114.5951044  22.1236839  35.5293226
 114.5531056  22.8906106  29.9765976 114.7267934  22.3252528  29.2239828
 115.0459948  23.6907001  29.7945466 100.3708016  14.9020775  38.0429535
  99.8261484  15.6780583  38.1749809 101.2487366  15.2491579  37.8848656
 101.1574038  14.0290671  40.9359691 100.4155774  14.1773306  41.5224322
 100.8366782  14.2898937  40.0726441 109.1017701  23.5706649  40.7340081
 109.4104827  23.3255796  41.6062781 109.8993183  23.7753288  40.2458952
 109.1238313  25.7244559  32.9645458 108.6843303  25.2320938  33.6578315
 109.8746430  25.1817527  32.7237533 101.6030652  21.9156100  32.9670086
 102.4288672  21.6159872  32.5868730 101.2524704  21.1463722  33.4159875
 106.5712185  21.2682568  35.0367760 105.9492194  20.6053273  34.7369988
 107.2417052  21.2943700  34.3541407  99.8039257  19.8342426  33.9259020
  98.9671165  19.4064601  33.7443021  99.7762902  20.0274870  34.8629811
 117.1291558  20.2905479  43.9101403 116.3387102  20.2729618  43.3705902
 116.8924913  20.8293773  44.6650439 106.1325692  19.8186491  28.5126220
 106.2813812  20.5021956  27.8592893 106.9392135  19.7991581  29.0275676
 118.7507630  19.5594887  41.4676153 118.4592438  19.9224868  42.3039614
 118.1379761  18.8461895  41.2889485 103.8878325  15.8451669  29.5187289
 103.6424367  14.9413999  29.7167499 104.0574239  15.8468819  28.5766767
 109.6321097  22.3134622  25.9837968 109.0595064  22.9324809  25.5308440
 110.2053891  22.8633984  26.5177890 109.9006588  17.7013181  44.7854677
 110.8209598  17.8791780  44.9794724 109.8656171  16.7569226  44.6334376
  99.1188753  12.8951774  33.7107952  98.7991538  12.0417083  33.4182326
  98.5722182  13.1100353  34.4665919 102.8968661  15.6114215  37.4277458
 103.1154671  16.5431323  37.4465492 103.3094435  15.2522190  38.2132262
  98.9877013  16.5154686  35.6801073  98.2940485  16.1008639  35.1671028
  99.7350004  16.5575222  35.0834492 107.6327796  14.6144560  45.6345269
 107.1494878  15.4144920  45.8409158 107.7188735  14.6252505  44.6812713
 100.9013756  16.4472940  33.5567088 100.8784444  16.5460627  32.6048971
 101.2114392  17.2938090  33.8784254 103.5601134  18.5049095  37.6713703
 104.5144387  18.4733037  37.6043634 103.3613657  18.0439718  38.4863929
 104.1500516  17.0750211  40.2384500 104.9693405  17.5694289  40.2619338
 104.4237324  16.1582179  40.2102068 101.9151363  24.0468714  34.6883901
 101.7805831  23.2869115  34.1221899 101.4983425  24.7709614  34.2212689
 105.0720489  24.9438031  34.9002343 104.9552873  25.8883464  34.7981033
 104.2512935  24.6411593  35.2888142  99.4035430  11.4088345  40.9376697
 100.0494294  10.8987299  41.4263923  99.1952581  12.1457026  41.5120123
 111.9288822  18.4769192  46.4368838 112.7979982  18.6509844  46.0755473
 111.4495574  19.2963609  46.3144567 106.0975003  25.5966293  38.1158272
 107.0002249  25.6289903  38.4324767 105.8712373  24.6666744  38.1304607
 107.8528605  24.3497280  34.7768350 106.9024236  24.3499141  34.6632723
 108.1561091  23.6030014  34.2604385 120.3971004  30.1385246  35.7775637
 120.0589516  30.0226311  34.8896172 121.2660773  29.7376411  35.7576643
 116.2557820  31.9920723  31.7672528 115.6922685  31.9010659  30.9988816
 116.1410215  31.1720627  32.2475021 120.8790787  31.2920098  41.7361843
 120.8679428  30.8972896  40.8642347 121.0411427  30.5586170  42.3295614
 113.8022252  33.4871914  34.6056749 114.5943544  33.1462739  34.1903048
 114.0418902  33.5966889  35.5258902 115.7613006  32.7480827  27.4774128
 116.5343882  32.2009814  27.3387003 116.1138405  33.6125077  27.6888589
 117.5998049  34.0757210  40.6841027 117.3087915  34.9802840  40.5687693
 118.2355033  34.1173737  41.3985096 118.5254255  31.4534058  37.2742386
 119.1217828  31.2290081  36.5599349 118.5829227  30.7118804  37.8767834
 117.8175573  30.8101599  27.3116952 117.7011831  30.1346503  27.9798037
 117.9277832  30.3233973  26.4949105 120.1607113  30.2711747  31.0163642
 119.7965321  29.7442368  31.7276563 121.0174229  29.8810216  30.8430127
 116.0100415  30.2132422  33.7127525 115.0850912  30.0808636  33.9205217
 116.2584828  30.9926641  34.2097467 113.3709226  29.8565696  34.5471314
 113.5001607  30.1100174  35.4610726 112.6906677  30.4493404  34.2275969
 117.5408713  40.5262945  30.6461788 117.4632743  41.4770771  30.7250269
 116.9370357  40.1808818  31.3036715 120.0325943  27.6990811  43.3023155
 119.2559277  28.2584731  43.2926020 120.6716506  28.1847594  43.8238025
 118.2872316  30.5076264  42.8641122 119.0287000  31.0461308  42.5875946
 117.5809301  31.1342553  43.0212674 120.1158725  27.5878012  38.8346841
 120.9619920  28.0117425  38.9781490 120.0557363  26.9311636  39.5285404
 119.6384432  32.9481003  32.4815658 120.1022777  33.2268706  31.6920280
 119.3741230  32.0464448  32.2988748 116.5308513  32.4952485  35.4195421
 117.1009870  32.9239753  34.7812905 117.1216625  32.2135070  36.1179607
 118.5753318  29.0704156  29.2905223 119.2777361  29.5225199  29.7579149
 118.2433946  28.4287975  29.9185116 117.0233679  27.6615912  43.6656432
 116.3932340  28.3432193  43.8991829 116.9169767  27.5498994  42.7209570
 112.3178652  27.3287708  34.5922356 111.5277706  27.5845237  34.1162467
 112.8089899  28.1436046  34.6974397 114.2693397  27.6932288  31.5505833
 113.4724560  27.8050982  32.0689329 114.0418989  28.0318940  30.6846724
 120.0999065  34.2176991  39.4988348 120.1643497  34.6797398  40.3346519
 119.3909989  33.5874356  39.6270657 110.6016355  27.5818199  37.0237347
 110.8524393  28.4665209  37.2894923 111.1375903  27.4022800  36.2512439
 119.8147082  35.8845098  29.3667328 119.6792757  36.7296634  29.7952176
 120.3556895  36.0864376  28.6033262 116.3014422  21.9636678  46.0281683
 115.9081368  21.4102877  46.7029327 117.1180562  22.2747257  46.4188201
 113.2676480  33.4020536  29.9395253 113.7801000  34.1963787  30.0900818
 113.9199193  32.7046827  29.8728855 115.0771364  36.5186293  32.0218006
 115.2537993  37.4404257  31.8338990 115.8728198  36.2044712  32.4512386
 119.2182383  23.3794557  43.6201940 119.9592096  23.9801711  43.5406402
 119.4500306  22.6372195  43.0619982 114.3623721  28.5650925  41.8980169
 114.2477236  27.6636182  42.1987268 113.5068239  28.8114621  41.5464986
 116.2002680  38.0364467  38.0228349 116.7510105  37.9081530  37.2505342
 115.3614156  38.3359356  37.6723241 119.9969851  34.3015594  42.3672580
 120.5298188  33.5403883  42.1371888 119.4683932  34.0089246  43.1096734
 111.2325397  31.7309191  30.7154824 112.0700619  32.1406199  30.4988531
 111.4103664  30.7908633  30.6855017 118.4878972  21.8619045  34.8681636
 119.3531969  21.6661854  34.5087526 118.5556481  21.6329397  35.7950993
 121.3622564  33.4301587  29.8791392 120.8343925  32.6954346  29.5664629
 120.8610066  34.2076263  29.6331360 116.0941291  24.0921253  32.2398003
 116.6685043  23.8696435  31.5071196 116.6812274  24.1609948  32.9926605
 111.2551568  29.0699906  31.3865557 111.0575967  28.4769267  30.6616624
 110.6998232  28.7652116  32.1041496 119.2348291  28.9623013  33.5060150
 119.2896901  28.0096849  33.4302627 118.4239493  29.1182452  33.9901449
 117.1740651  27.5800072  31.2650529 116.3608517  27.8794243  31.6715721
 117.6699645  27.1855761  31.9825011 119.3249229  37.5757829  33.1984794
 119.2825408  37.8018676  32.2693326 120.2411928  37.3421204  33.3470595
 116.6654726  25.1518428  36.8811764 117.3054105  25.0107187  36.1834727
 115.8332257  24.8652941  36.5050366 117.4415030  34.4520858  32.9946756
 118.2355628  33.9571178  32.7929331 116.7306722  33.9238721  32.6314462
 113.7497793  28.5963940  29.0706509 112.8195381  28.5348396  29.2876471
 113.8455265  28.0739893  28.2743150 113.6683342  25.1218753  31.6584751
 113.9290160  26.0364086  31.5493911 114.4900515  24.6543195  31.8081364
 115.1408268  26.5356510  38.8283575 115.8131321  26.3273872  38.1796224
 114.3138054  26.3378596  38.3888808 120.0186306  35.0249880  36.6744594
 119.8797392  34.6568665  37.5470532 119.2300902  35.5397520  36.5028551
 120.6134458  40.1258977  28.0170130 120.7886214  39.6547020  28.8315753
 119.9267246  40.7524743  28.2451391 121.5691521  34.4031483  34.0633431
 121.2341354  34.3632253  34.9591081 121.0695467  33.7376199  33.5903842
 115.5435765  29.8099113  39.5886012 115.4055563  29.0779352  40.1897552
 116.4540688  29.7208013  39.3070200 118.1718066  29.5219072  39.0769692
 118.8817684  28.8812265  39.0356311 118.1287374  29.7731967  39.9995873
 116.8847000  26.5084290  40.8965332 116.3484357  26.0575029  41.5486928
 116.2963708  26.6430199  40.1535796 115.1795543  43.2748339  34.7909990
 115.4192141  43.9066864  35.4689009 114.3364740  42.9236380  35.0775349
 107.8151399  30.7550101  33.5533302 108.5022439  30.4411831  32.9654318
 107.6599527  31.6591466  33.2800554 112.6186121  25.6440298  37.9818326
 112.5344310  25.0365967  37.2468736 111.7968827  26.1349316  37.9827822
 119.6923405  39.0827462  37.1951494 119.6193576  39.8882433  37.7070799
 119.2500798  39.2819428  36.3699516 119.4813185  38.3199232  30.7054316
 118.6980707  38.8620912  30.7992540 120.1805930  38.8373212  31.1048557
 119.3744804  26.2711244  33.0760206 119.0042591  25.7182285  33.7641111
 119.8703896  25.6669378  32.5235206 117.2034002  36.7308739  40.1715224
 117.9043462  37.3645222  40.3244618 116.7329117  37.0723471  39.4110863
 112.8001720  36.2645094  37.1046326 113.3855157  35.5188782  37.2374231
 112.6026559  36.5749051  37.9882990 115.6540375  39.2996342  32.1208769
 114.9850751  39.7842470  31.6372809 115.5153245  39.5465562  33.0352147
 107.3919375  28.8350695  35.8250770 107.4303474  28.3014285  36.6187888
 106.8859668  28.3085900  35.2061747 119.7945644  41.3340085  38.7191427
 120.3463952  41.4971707  39.4840512 120.1351837  41.9244523  38.0471452
 114.7710137  23.6815235  39.3213312 114.8351464  24.5430066  38.9090710
 114.7077257  23.0689237  38.5885670 114.2462410  25.7538368  42.9686346
 114.8734449  25.3715445  43.5823870 113.3890329  25.5352570  43.3342039
 111.0227952  27.5614797  28.9004701 111.3181394  26.6525475  28.8471755
 110.1215988  27.5402536  28.5785703 114.5522199  25.6370793  34.8832250
 113.8308785  26.2506761  34.7439723 115.3415455  26.1728558  34.8048895
 117.3548513  22.9725220  41.1572901 117.8782915  23.2187516  41.9199211
 117.1360846  23.8045255  40.7376039 112.7515794  25.2428895  29.0244026
 112.4228500  24.3626273  28.8419132 113.1055165  25.1876563  29.9120415
 115.8657617  25.5301864  29.3919504 116.2053690  26.0587786  28.6698112
 116.3129738  25.8682270  30.1678070 118.5601058  23.9138915  38.8422572
 118.2197878  23.1146728  39.2443252 117.8540064  24.2140626  38.2699405
 119.2117530  20.9988227  37.2949895 120.0343599  20.5248706  37.1728785
 119.4555593  21.7778711  37.7948581 116.7356109  27.6907348  35.1041873
 116.5900689  28.0047651  35.9966155 116.2581312  28.3092248  34.5512772
 118.5952491  24.6809896  35.1522763 118.5814060  23.7850989  34.8155061
 119.3124920  24.6880560  35.7861049 120.4478622  25.1147236  37.1975890
 120.1896400  26.0364307  37.1960221 119.9163663  24.7177671  37.8876355
 111.2101771  30.2312692  38.0429535 110.6655239  31.0072500  38.1749809
 112.0881121  30.5783497  37.8848656 111.9967793  29.3582589  40.9359691
 111.2549529  29.5065224  41.5224322 111.6760537  29.6190854  40.0726441
 119.9411455  38.8998567  40.7340081 120.2498582  38.6547714  41.6062781
 120.7386937  39.1045205  40.2458952 119.9632067  41.0536477  32.9645458
 119.5237058  40.5612855  33.6578315 120.7140184  40.5109444  32.7237533
 112.4424406  37.2448017  32.9670086 113.2682426  36.9451789  32.5868730
 112.0918458  36.4755640  33.4159875 117.4105939  36.5974486  35.0367760
 116.7885949  35.9345191  34.7369988 118.0810806  36.6235618  34.3541407
 110.6433011  35.1634344  33.9259020 109.8064920  34.7356518  33.7443021
 110.6156657  35.3566787  34.8629811 117.4830467  25.0756274  44.6300266
 117.5318622  25.9518397  44.2478035 118.0252981  24.5333667  44.0571909
 116.9719446  35.1478409  28.5126220 117.1207567  35.8313873  27.8592893
 117.7785890  35.1283499  29.0275676 119.7129755  25.8287646  41.3846624
 118.8433065  26.1221212  41.1129213 119.9489236  26.4128091  42.1053888
 114.7272079  31.1743587  29.5187289 114.4818121  30.2705917  29.7167499
 114.8967994  31.1760737  28.5766767 113.9967727  26.9071944  27.0173451
 113.3036972  26.9816299  26.3613487 113.7519479  26.1432288  27.5394968
 120.4714852  37.6426539  25.9837968 119.8988819  38.2616727  25.5308440
 121.0447646  38.1925901  26.5177890 109.9582508  28.2243692  33.7107952
 109.6385292  27.3709000  33.4182326 109.4115936  28.4392270  34.4665919
 113.7362415  30.9406133  37.4277458 113.9548425  31.8723241  37.4465492
 114.1488189  30.5814107  38.2132262 118.6090281  26.5139339  46.8180207
 118.5087008  27.4633696  46.7492298 118.3911823  26.1857578  45.9456277
 109.8270768  31.8446604  35.6801073 109.1334239  31.4300556  35.1671028
 110.5743759  31.8867140  35.0834492 118.4721551  29.9436478  45.6345269
 117.9888633  30.7436838  45.8409158 118.5582490  29.9544423  44.6812713
 111.7407510  31.7764857  33.5567088 111.7178199  31.8752545  32.6048971
 112.0508147  32.6230008  33.8784254 114.3994888  33.8341012  37.6713703
 115.3538142  33.8024955  37.6043634 114.2007412  33.3731636  38.4863929
 114.9894270  32.4042128  40.2384500 115.8087159  32.8986207  40.2619338
 115.2631078  31.4874097  40.2102068 112.7545117  39.3760632  34.6883901
 112.6199585  38.6161033  34.1221899 112.3377179  40.1001532  34.2212689
 115.9114243  40.2729949  34.9002343 115.7946627  41.2175381  34.7981033
 115.0906689  39.9703510  35.2888142 110.2429185  26.7380262  40.9376697
 110.8888048  26.2279216  41.4263923 110.0346336  27.4748944  41.5120123
 116.9368757  40.9258211  38.1158272 117.8396004  40.9581821  38.4324767
 116.7106127  39.9958662  38.1304607 118.6922359  39.6789197  34.7768350
 117.7417990  39.6791059  34.6632723 118.9954845  38.9321932  34.2604385
 114.5826676  23.8847879  45.0351712 115.4458137  23.5284684  45.2455036
 114.0092086  23.5461774  45.7227116 118.6545153  46.0842019  33.5533302
 119.3416193  45.7703749  32.9654318 118.4993282  46.9883384  33.2800554
 118.2313129  44.1642612  35.8250770 118.2697229  43.6306203  36.6187888
 117.7253422  43.6377818  35.2061747 121.4826766  50.4926262  33.9259020
 120.6458674  50.0648436  33.7443021 121.4550411  50.6858705  34.8629811
 120.7976262  43.5535610  33.7107952 120.4779047  42.7000918  33.4182326
 120.2509691  43.7684188  34.4665919 120.6664522  47.1738521  35.6801073
 119.9727994  46.7592474  35.1671028 121.4137513  47.2159058  35.0834492
   3.1811936  55.2871227 105.4551208   2.5073635  55.5902924 106.0636166
   3.5677758  56.0900308 105.1056665   7.1468677  52.8656711 106.7291031
   7.8419581  53.4863403 106.9478346   7.4891827  52.0152062 107.0043409
   1.2383545  52.9718462 105.6366125   0.6657512  53.5908650 105.1836597
   1.8116339  53.5217824 106.1706047   4.4580805  53.2555613 106.7674707
   5.3911478  53.1901174 106.9707583   4.3704018  54.0911879 106.3089240
   7.0868821  52.5721483 103.7278655   7.0082453  52.2381347 104.6214413
   7.9078488  53.0643251 103.7270127   4.6572773  49.8889478 103.3488633
   5.3608623  50.0939481 103.9646289   3.9335422  50.4566240 103.6137716
   6.5659471  50.3272008 105.3987093   7.4005075  49.8953206 105.2164568
   6.4043814  50.1554021 106.3263987  15.1943746  60.8441659 115.4942270
  15.8322156  60.7248406 114.7905610  15.0764589  61.7922503 115.5530222
   7.8620268  62.6504563 111.4200685   7.2985133  62.5594500 110.6516973
   7.7472663  61.8304468 111.9003178  13.4419826  66.3175531 106.7315150
  12.7907806  66.9029611 106.3449164  14.2364189  66.8481726 106.7910188
   7.3675454  63.4064668 107.1302285   8.1406330  62.8593655 106.9915160
   7.7200852  64.2708917 107.3416746   9.7041731  59.5657334 104.7620735
   9.9567252  59.0438855 104.0004198   8.7666290  59.4023480 104.8647418
  14.7485014  58.5693113 112.5695478  15.5348103  58.1512536 112.2185895
  15.0123719  59.4739205 112.7377126  14.9195092  64.0065963 107.2684135
  14.2840925  64.0800589 107.9805039  14.5892498  64.5959562 106.5903214
  20.1493441  58.5068346 113.4728456  20.8818613  57.9367563 113.7066286
  19.3932797  58.1189946 113.9134962   9.4238020  61.4685440 106.9645110
   9.3074278  60.7930344 107.6326194   9.5340280  60.9817814 106.1477263
  11.7669561  60.9295587 110.6691799  11.4027768  60.4026208 111.3804720
  12.6236677  60.5394056 110.4958284  11.4075048  55.9585487 105.6653147
  11.5749450  56.8265723 106.0323618  11.2172217  56.1212769 104.7414437
  11.3864269  58.4143144 106.6499814  11.2663894  58.8600195 107.4885294
  10.6916857  58.7628462 106.0913352   9.1471161  71.1846786 110.2989945
   9.0695191  72.1354611 110.3778426   8.5432805  70.8392659 110.9564872
  17.0849335  58.8864618 107.4780148  17.9967191  59.1192004 107.3027846
  16.5758982  59.4701662 106.9155227  15.6918917  63.8690436 114.8693730
  15.0627780  64.0336150 114.1669797  15.3044579  64.2832046 115.6404694
  19.5708149  64.8044874 112.2238093  18.8859187  65.1843775 111.6735127
  19.6551999  65.4140201 112.9570041  11.2446879  63.6064844 112.1343815
  11.7085225  63.8852547 111.3448437  10.9803677  62.7048289 111.9516905
  10.1815765  59.7287997 108.9433380  10.8839809  60.1809040 109.4107306
   9.8496394  59.0871815 109.5713273  17.9404909  65.3276788 116.9955794
  18.7622353  64.9256976 116.7138476  17.9367312  65.2245023 117.9471910
  26.0310902  61.6715537 113.3440766  25.2774610  61.1022935 113.1884770
  26.1658443  61.6378201 114.2911400  11.4209530  66.5428939 109.0195485
  11.2855205  67.3880475 109.4480333  11.9619342  66.7448217 108.2561419
   4.8738927  64.0604377 109.5923410   5.3863448  64.8547627 109.7428975
   5.5261640  63.3630668 109.5257012   6.6833812  67.1770133 111.6746163
   6.8600440  68.0988098 111.4867147   7.4790646  66.8628553 112.1040543
   2.8387844  62.3893031 110.3682981   3.6763066  62.7990040 110.1516688
   3.0166112  61.4492474 110.3383175  14.7352276  60.0568112 106.0566814
  14.2198900  60.8272717 106.2955201  14.4629585  59.3833248 106.6799875
  12.3199387  54.9017813 111.1152052  11.4640984  54.5124663 110.9357691
  12.7326339  54.9809774 110.2551838  19.7086550  62.8100467 107.9919987
  18.9315993  62.4711626 107.5475149  20.3878031  62.8153090 107.3174952
  14.5238579  57.9295204 107.8826595  14.2188715  58.2441353 108.7336738
  15.4769021  58.0076624 107.9253928  12.9685011  64.0885428 109.5319549
  12.4406373  63.3538187 109.2192786  12.4672514  64.8660104 109.2859517
  17.9477857  62.2834448 114.6486595  17.2901532  62.9733709 114.7366724
  18.7518256  62.6730880 114.9920581  16.7583316  60.6378821 112.6990537
  17.2715198  61.2708813 113.2012247  17.4084540  60.0380016 112.3333897
   8.0273326  56.7809555 105.9122046   7.1910638  57.1184241 106.2331320
   7.8878096  56.6458535 104.9749183  11.1137611  61.9065638 102.5354522
  10.2064673  61.6754891 102.7345671  11.6108643  61.1103257 102.7228503
  14.0205690  70.6163145 105.4551208  13.3467389  70.9194842 106.0636166
  14.4071512  71.4192225 105.1056665  14.0199195  59.5119692 110.0751558
  14.7671014  60.0241089 109.7658680  14.2890784  59.1903745 110.9355951
  12.2925845  62.0078233 107.0578512  11.3837064  61.7237265 107.1550982
  12.3220929  62.4277311 106.1981819  17.5245112  65.6184822 110.8269679
  17.0707439  64.7775732 110.8834870  16.8939079  66.2546221 111.1644460
  16.4678032  56.5476808 112.0570347  15.7300789  56.0354194 112.3880589
  16.7204805  56.1077190 111.2453624  15.9678051  67.4561319 111.7619498
  16.2601026  68.0166376 111.0431863  16.4776672  67.7489880 112.5172657
  10.8410739  59.6206853 113.1588307  10.8959349  58.6680690 113.0830784
  10.0301941  59.7766292 113.6429606  11.9901933  63.5486976 104.3966590
  11.5521363  62.8322835 103.9372228  12.7312373  63.7763091 103.8351682
   8.7803099  58.2383913 110.9178686   7.9670964  58.5378084 111.3243878
   9.2762093  57.8439602 111.6353168  10.9311677  68.2341670 112.8512951
  10.8887855  68.4602516 111.9221483  11.8474376  68.0005045 112.9998752
  20.1075047  61.8244173 110.4542909  19.9692946  62.0145769 109.5264098
  19.7511266  62.5863556 110.9110960  20.1344427  63.8920700 115.4654181
  20.5680934  63.7995989 116.3137235  20.8476008  63.8678201 114.8274197
   9.0477477  65.1104699 112.6474914   9.8418076  64.6155019 112.4457488
   8.3369170  64.5822562 112.2842619   5.3560241  59.2547781 108.7234666
   4.4257829  59.1932236 108.9404628   5.4517713  58.7323733 107.9271307
  20.9959977  63.9344401 117.9987066  21.1895867  64.8390212 118.2446341
  20.8960595  63.4751820 118.8325651  12.2196905  70.7842817 107.6698287
  12.3948661  70.3130861 108.4843910  11.5329693  71.4108584 107.8979548
  13.1753969  65.0615324 113.7161588  12.8403801  65.0216094 114.6119238
  12.6757914  64.3960040 113.2431999  16.1113160  62.4071358 103.9898648
  15.4942331  61.6818186 103.8931701  15.6429649  63.1680718 103.6465722
   7.9011706  56.6256782 103.1119952   7.0241172  56.5045583 102.7482199
   8.3769459  55.8342861 102.8598841  11.0875632  68.9783073 110.3582473
  10.3043154  69.5204753 110.4520697  11.7868377  69.4957052 110.7576714
  22.2502040  60.4918068 114.6434970  22.2391916  61.3742783 114.2728903
  21.3819419  60.1389618 114.4489507  15.4802063  63.5449389 110.5755102
  14.5458342  63.6650852 110.4059806  15.6578731  62.6421856 110.3115111
  18.8674614  59.3866709 111.1105136  19.3335067  60.2194700 111.0365438
  19.3182115  58.9211690 111.8150394  16.9350845  65.7310530 108.1091288
  17.2110689  65.6167124 109.0185162  16.0655344  65.3328015 108.0703461
  13.5704909  69.9796881 111.7524101  13.7527304  69.1618537 112.2151854
  14.3937895  70.1964573 111.3148991  13.9047075  68.9065066 109.0139150
  14.4334841  68.3957520 108.4009312  14.1675295  68.5907596 109.8784683
   2.6290400  58.2198638 108.5532858   2.9243841  57.3109316 108.4999912
   1.7278436  58.1986377 108.2313860  14.5376479  69.9405902 115.3583266
  14.4127618  69.1395641 114.8494212  15.1955570  70.4352095 114.8697236
  16.6011387  67.7414922 116.9862816  15.6541723  67.6220273 116.9141143
  16.9494160  66.8537420 117.0689078  13.6057820  67.5367638 113.1867169
  13.4582783  66.6084345 113.3674739  14.4311314  67.5587729 112.7024244
   7.4720065  56.1885705 109.0447661   7.8116137  56.7171626 108.3226269
   7.9192185  56.5266111 109.8206227  17.2091942  68.3596197 114.2732041
  18.1338490  68.1539058 114.1356493  17.0407246  68.1112598 115.1821383
   9.4588212  54.6860327 107.2440954  10.1796574  55.0641579 106.7404670
   8.8353516  55.4049203 107.3475932  13.6019335  55.3905476 108.1799286
  13.8182949  56.2730113 107.8788114  13.1213402  54.9991689 107.4504928
  16.9987259  68.8781864 109.6294133  17.1724136  68.3128287 108.8767985
  17.4916150  69.6782759 109.4473623  22.8526650  61.6418287 111.2484433
  23.2957796  60.8925612 110.8503556  21.9753160  61.6328423 110.8658165
  17.9862431  68.1948628 106.7291031  18.6813336  68.8155321 106.9478346
  18.3285581  67.3443980 107.0043409  19.8853854  65.6448334 108.2578362
  20.4105178  65.9835607 107.5327682  19.7976207  64.7095349 108.0741497
   8.5781894  65.8062250 108.1654377   8.7270014  66.4897714 107.5121050
   9.3848337  65.7867340 108.6803833  22.3959514  63.1123525 113.6406880
  23.2306406  63.5513329 113.8044441  22.5318643  62.6362179 112.8215126
   6.3334527  61.8327427 109.1715446   6.0880569  60.9289757 109.3695656
   6.5030441  61.8344578 108.2294924   5.6030174  57.5655785 106.6701608
   4.9099419  57.6400140 106.0141644   5.3581926  56.8016129 107.1923125
  12.0777299  68.3010380 105.6366125  11.5051267  68.9200567 105.1836597
  12.6510093  68.8509742 106.1706047  15.2974559  68.5847530 106.7674707
  16.2305232  68.5193092 106.9707583  15.2097772  69.4203797 106.3089240
  17.9262576  67.9013401 103.7278655  17.8476207  67.5673264 104.6214413
  18.7472243  68.3935169 103.7270127  20.6240767  60.7675140 116.9354973
  20.5917087  59.8291141 117.1214657  21.2341391  60.8459177 116.2020798
  12.4624098  59.6371193 102.9782177  13.4083203  59.5077401 103.0470595
  12.0838343  58.8985855 103.4551605  26.4417317  61.8291147 116.0761010
  27.1720705  61.5676435 116.6368713  25.8324262  61.0919869 116.1163078
  24.5232614  59.9699009 116.6735461  23.7965778  59.8354974 116.0651953
  24.1079901  60.2775838 117.4792179  10.6467015  57.5621169 102.9137062
   9.7398470  57.2654282 102.9899776  10.9242996  57.2650987 102.0471349
  12.2629081  52.1058059 109.0681304  11.4529809  51.7605144 109.4436550
  12.9513498  51.7965603 109.6568915   9.4165800  54.4208105 103.0549042
  10.2784964  54.7463003 103.3144859   9.6016144  53.6339600 102.5422107
  17.5698436  53.2936631 110.1984265  16.9897105  53.9521435 109.8162317
  17.3034369  52.4713976 109.7871682  16.3523314  55.4536721 109.2540613
  15.4649169  55.7386372 109.0360808  16.7677303  55.2930485 108.4067890
  19.7037850  55.4783242 112.9694952  20.4798240  55.9679695 113.2419569
  18.9785985  55.9041297 113.4266822  22.1410409  56.1910862 114.0268893
  22.7354900  55.9506598 113.3162201  22.2136993  55.4717992 114.6542429
  15.4966528  65.2181396 103.3488633  16.2002378  65.4231399 103.9646289
  14.7729176  65.7858158 103.6137716  16.3264338  60.9691257 109.4690903
  16.2699539  61.4259809 108.6298536  16.8792680  60.2081942 109.2913746
  20.1369144  56.7580989 110.2941023  19.8806078  56.3577625 111.1249230
  19.5122012  57.4724783 110.1691162  24.4481482  59.4977062 112.8012314
  23.8881040  59.5670252 113.5743876  23.8424985  59.3218047 112.0811810
  17.4053225  65.6563925 105.3987093  18.2398829  65.2245124 105.2164568
  17.2437568  65.4845939 106.3263987  17.0599117  62.1596039 106.7643432
  17.0047921  61.9940310 105.8231876  16.4345173  62.8672071 106.9205622
  10.3695243  51.6604148 106.3428751  10.3573913  52.6045987 106.4997022
  11.2618665  51.4774293 106.0488212  26.0337500  76.1733576 115.4942270
  26.6715910  76.0540324 114.7905610  25.9158343  77.1214420 115.5530222
  22.8427206  76.1261004 115.4303794  22.5045718  76.0102069 114.5424329
  23.7116975  75.7252170 115.4104801  18.7014022  77.9796481 111.4200685
  18.1378887  77.8886418 110.6516973  18.5866417  77.1596385 111.9003178
  24.2813581  81.6467449 106.7315150  23.6301561  82.2321529 106.3449164
  25.0757944  82.1773643 106.7910188  18.2069208  78.7356586 107.1302285
  18.9800084  78.1885573 106.9915160  18.5594607  79.6000835 107.3416746
  20.9710457  77.4409817 116.9270544  21.5674030  77.2165839 116.2127507
  21.0285429  76.6994562 117.5295991  20.5435486  74.8949252 104.7620735
  20.7961007  74.3730773 104.0004198  19.6060045  74.7315397 104.8647418
  25.5878769  73.8985030 112.5695478  26.3741858  73.4804453 112.2185895
  25.8517473  74.8031122 112.7377126  25.7588846  79.3357881 107.2684135
  25.1234679  79.4092507 107.9805039  25.4286252  79.9251479 106.5903214
  30.9887196  73.8360263 113.4728456  31.7212368  73.2659480 113.7066286
  30.2326551  73.4481864 113.9134962  20.2631775  76.7977358 106.9645110
  20.1468033  76.1222261 107.6326194  20.3734034  76.3109732 106.1477263
  22.6063316  76.2587505 110.6691799  22.2421523  75.7318126 111.3804720
  23.4630431  75.8685974 110.4958284  28.5112616  67.5481838 117.9323065
  28.1795941  68.4177248 117.7084280  27.9158230  67.2318122 118.6117095
  22.2468802  71.2877405 105.6653147  22.4143205  72.1557641 106.0323618
  22.0565972  71.4504686 104.7414437  25.0044136  79.7494384 117.3318978
  24.7044859  80.6519422 117.2234785  24.6595195  79.4826567 118.1840131
  18.4556617  76.2008180 113.3655682  17.5307114  76.0684394 113.5733374
  18.7041030  76.9802400 113.8625624  28.4041279  72.2676924 115.0116415
  27.4958157  72.1992332 114.7175176  28.3528875  72.7448869 115.8398240
  22.2258023  73.7435062 106.6499814  22.1057649  74.1892113 107.4885294
  21.5310612  74.0920380 106.0913352  19.9864915  86.5138704 110.2989945
  19.9088945  87.4646529 110.3778426  19.3826559  86.1684576 110.9564872
  30.2702926  70.4693362 116.7894289  29.6277306  70.7625895 116.1434083
  29.7657854  70.3546282 117.5947486  27.9243090  74.2156535 107.4780148
  28.8360946  74.4483922 107.3027846  27.4152737  74.7993579 106.9155227
  22.5614927  73.5753770 118.4874998  23.4076122  73.9993183 118.6309647
  22.5013565  72.9187394 119.1813561  26.5312672  79.1982354 114.8693730
  25.9021534  79.3628068 114.1669797  26.1438334  79.6123963 115.6404694
  30.4101904  80.1336792 112.2238093  29.7252942  80.5135693 111.6735127
  30.4945753  80.7432118 112.9570041  25.7114373  71.2358138 120.1456171
  25.4675304  71.9900199 119.6090447  25.9874303  71.6143486 120.9803418
  27.6652835  77.7796751 118.8233437  27.8769731  78.4228511 118.1467818
  27.6182584  76.9459067 118.3555367  25.2679064  70.3914571 115.7270009
  24.4063543  70.6895825 116.0186747  25.2941499  70.6084970 114.7951042
  22.0840634  78.9356762 112.1343815  22.5478979  79.2144465 111.3448437
  21.8197432  78.0340206 111.9516905  18.9764715  78.4828243 115.0723578
  19.5466072  78.9115512 114.4341062  19.5672827  78.2010828 115.7707764
  21.0209520  75.0579914 108.9433380  21.7233563  75.5100958 109.4107306
  20.6890148  74.4163733 109.5713273  14.7634854  73.3163467 114.2450513
  13.9733908  73.5720995 113.7690624  15.2546101  74.1311805 114.3502554
  28.7798663  80.6568706 116.9955794  29.6016107  80.2548893 116.7138476
  28.7761066  80.5536940 117.9471910  16.7149599  73.6808046 111.2033990
  15.9180762  73.7926740 111.7217486  16.4875191  74.0194698 110.3374881
  36.8704656  77.0007455 113.3440766  36.1168365  76.4314853 113.1884770
  37.0052198  76.9670119 114.2911400  22.2603284  81.8720857 109.0195485
  22.1248959  82.7172393 109.4480333  22.8013097  82.0740134 108.2561419
  15.7132682  79.3896295 109.5923410  16.2257202  80.1839545 109.7428975
  16.3655395  78.6922585 109.5257012  17.5227566  82.5062051 111.6746163
  17.6994195  83.4280016 111.4867147  18.3184400  82.1920470 112.1040543
  25.6095748  65.3951419 117.5494379  25.2660017  66.2853060 117.4733489
  25.9774711  65.2053076 116.6863964  13.6781599  77.7184949 110.3682981
  14.5156821  78.1281958 110.1516688  13.8559866  76.7784391 110.3383175
  25.5746031  75.3860030 106.0566814  25.0592654  76.1564634 106.2955201
  25.3023339  74.7125166 106.6799875  23.1593142  70.2309731 111.1152052
  22.3034738  69.8416581 110.9357691  23.5720093  70.3101691 110.2551838
  24.6892288  67.7656074 115.5143612  24.1857084  67.7286209 114.7011417
  24.9822895  68.6748817 115.5740268  20.9335174  67.8494804 114.5209793
  21.7988171  67.6537612 114.1615683  21.0012683  67.6205155 115.4479150
  30.5480305  78.1392384 107.9919987  29.7709748  77.8003544 107.5475149
  31.2271786  78.1445008 107.3174952  25.3632334  73.2587122 107.8826595
  25.0582469  73.5733271 108.7336738  26.3162776  73.3368542 107.9253928
  23.8078766  79.4177345 109.5319549  23.2800127  78.6830105 109.2192786
  23.3066268  80.1952022 109.2859517  28.7871612  77.6126366 114.6486595
  28.1295286  78.3025627 114.7366724  29.5912011  78.0022798 114.9920581
  18.5397493  70.0797012 111.8926160  19.1141245  69.8572193 111.1599353
  19.1268476  70.1485706 112.6454762  27.5977071  75.9670738 112.6990537
  28.1108952  76.6000730 113.2012247  28.2478294  75.3671934 112.3333897
  18.8667080  72.1101473 105.9122046  18.0304393  72.4476159 106.2331320
  18.7271850  71.9750452 104.9749183  20.8420161  66.9538260 110.6201230
  20.1884573  66.6387278 109.9957845  20.8000635  66.3314001 111.3461053
  21.9531366  77.2357555 102.5354522  21.0458428  77.0046809 102.7345671
  22.4502398  76.4395175 102.7228503  24.8599445  85.9455063 105.4551208
  24.1861144  86.2486759 106.0636166  25.2465267  86.7484143 105.1056665
  24.0757901  73.4420194 114.9448877  23.1580463  73.6635141 114.7870565
  24.4918045  73.5166504 114.0860585  24.8592949  74.8411610 110.0751558
  25.6064768  75.3533007 109.7658680  25.1284539  74.5195662 110.9355951
  23.1319599  77.3370150 107.0578512  22.2230819  77.0529183 107.1550982
  23.1614683  77.7569229 106.1981819  28.3638867  80.9476740 110.8269679
  27.9101194  80.1067650 110.8834870  27.7332833  81.5838138 111.1644460
  27.3071786  71.8768726 112.0570347  26.5694543  71.3646112 112.3880589
  27.5598560  71.4369107 111.2453624  26.8071806  82.7853237 111.7619498
  27.0994780  83.3458294 111.0431863  27.3170427  83.0781798 112.5172657
  27.4083414  64.6544978 112.6512116  27.7142290  63.7942341 112.3638031
  28.1336018  65.2462598 112.4511110  13.7007770  75.0575664 111.0393714
  13.5032170  74.4645025 110.3144781  13.1454434  74.7527875 111.7569653
  21.6804493  74.9498771 113.1588307  21.7353103  73.9972607 113.0830784
  20.8695695  75.1058210 113.6429606  22.8295687  78.8778894 104.3966590
  22.3915117  78.1614753 103.9372228  23.5706128  79.1055009 103.8351682
  19.6196853  73.5675831 110.9178686  18.8064719  73.8670001 111.3243878
  20.1155847  73.1731519 111.6353168  21.7705431  83.5633588 112.8512951
  21.7281610  83.7894434 111.9221483  22.6868130  83.3296962 112.9998752
  25.2171065  74.0317655 119.7493580  25.5720453  74.2589128 120.6088046
  25.8643196  74.3636032 119.1270835  30.9468802  77.1536091 110.4542909
  30.8086700  77.3437687 109.5264098  30.5905021  77.9155474 110.9110960
  19.1110928  71.1394186 116.5339921  19.7510307  70.9982945 115.8362884
  18.2788459  70.8528700 116.1578523  30.9738182  79.2212618 115.4654181
  31.4074688  79.1287907 116.3137235  31.6869762  79.1970119 114.8274197
  19.8871232  80.4396617 112.6474914  20.6811830  79.9446937 112.4457488
  19.1762924  79.9114480 112.2842619  16.1953995  74.5839698 108.7234666
  15.2651584  74.5224154 108.9404628  16.2911467  74.0615651 107.9271307
  16.1139544  71.1094511 111.3112908  16.3746362  72.0239844 111.2022068
  16.9356717  70.6418954 111.4609521  31.8353731  79.2636319 117.9987066
  32.0289621  80.1682129 118.2446341  31.7354349  78.8043738 118.8325651
  23.4890042  69.1494209 120.4977393  22.8417957  69.8484159 120.4041870
  24.2591057  69.5830353 120.8653641  23.6654176  76.9874974 118.5574213
  24.5946236  77.1386134 118.3843180  23.2445206  77.0758995 117.7022860
  23.0590660  86.1134735 107.6698287  23.2342416  85.6422778 108.4843910
  22.3723448  86.7400501 107.8979548  24.0147723  80.3907241 113.7161588
  23.6797556  80.3508011 114.6119238  23.5151669  79.7251957 113.2431999
  26.9506915  77.7363276 103.9898648  26.3336085  77.0110104 103.8931701
  26.4823403  78.4972636 103.6465722  18.7405461  71.9548700 103.1119952
  17.8634927  71.8337501 102.7482199  19.2163214  71.1634778 102.8598841
  28.6078454  80.4101768 119.8818408  27.7205232  80.0727690 120.0044807
  29.1777005  79.6784799 120.1187173  21.9269387  84.3074990 110.3582473
  21.1436909  84.8496671 110.4520697  22.6262132  84.8248970 110.7576714
  25.2366037  70.1169620 113.0016678  25.7334736  69.3639582 112.6817748
  24.4653018  70.1533936 112.4359888  33.0895794  75.8209985 114.6434970
  33.0785670  76.7034701 114.2728903  32.2213174  75.4681536 114.4489507
  26.3195817  78.8741307 110.5755102  25.3852096  78.9942769 110.4059806
  26.4972486  77.9713774 110.3115111  21.8201006  72.2587003 112.7288363
  21.4498793  71.7058043 113.4169268  22.3160098  71.6545136 112.1763363
  29.7068369  74.7158626 111.1105136  30.1728821  75.5486618 111.0365438
  30.1575869  74.2503608 111.8150394  27.7744600  81.0602448 108.1091288
  28.0504444  80.9459042 109.0185162  26.9049099  80.6619932 108.0703461
  27.6785032  67.0839213 115.1496037  26.7648111  67.3143440 115.3178244
  28.1078133  67.1677657 116.0010069  27.4491490  75.2729105 117.6495931
  26.7962940  75.5205013 116.9948384  27.8271870  74.4593243 117.3158408
  24.4098664  85.3088798 111.7524101  24.5921058  84.4910454 112.2151854
  25.2331650  85.5256491 111.3148991  24.7440829  84.2356984 109.0139150
  25.2728596  83.7249438 108.4009312  25.0069049  83.9199514 109.8784683
  17.2166339  69.6690994 118.9741469  17.2807666  70.5305824 118.5618867
  17.1533459  69.0564995 118.2413827  13.4684154  73.5490555 108.5532858
  13.7637596  72.6401234 108.4999912  12.5672190  73.5278295 108.2313860
  25.3770233  85.2697819 115.3583266  25.2521373  84.4687559 114.8494212
  26.0349324  85.7644013 114.8697236  16.9978401  71.6246552 114.5360407
  16.2764987  72.2382519 114.3967880  17.7871657  72.1604317 114.4577053
  27.4405142  83.0706839 116.9862816  26.4935477  82.9512191 116.9141143
  27.7887915  82.1829337 117.0689078  19.8004715  68.9600978 120.8101058
  20.3239117  69.2063275 121.5727368  19.5817048  69.7921013 120.3904196
  15.1971996  71.2304653 108.6772183  14.8684702  70.3502032 108.4947289
  15.5511367  71.1752322 109.5648572  24.4451575  82.8659556 113.1867169
  24.2976537  81.9376263 113.3674739  25.2705068  82.8879646 112.7024244
  18.3113819  71.5177623 109.0447661  18.6509892  72.0463544 108.3226269
  18.7585940  71.8558029 109.8206227  28.0485697  83.6888114 114.2732041
  28.9732244  83.4830976 114.1356493  27.8801000  83.4404515 115.1821383
  21.0057260  69.9014673 118.4950729  20.6654080  69.1022486 118.8971409
  20.2996266  70.2016384 117.9227562  21.6573732  66.9863986 116.9478052
  22.4799801  66.5124464 116.8256942  21.9011795  67.7654470 117.4476738
  20.2981966  70.0152244 107.2440954  21.0190329  70.3933497 106.7404670
  19.6747270  70.7341121 107.3475932  24.4413089  70.7197393 108.1799286
  24.6576704  71.6022031 107.8788114  23.9607156  70.3283607 107.4504928
  19.1812311  73.6783106 114.7570031  19.0356891  73.9923410 115.6494312
  18.7037514  74.2968007 114.2040929  21.0408694  70.6685654 114.8050920
  21.0270262  69.7726748 114.4683218  21.7581122  70.6756318 115.4389206
  22.8934824  71.1022995 116.8504048  22.6352602  72.0240065 116.8488378
  22.3619865  70.7053429 117.5404512  27.8381013  84.2073782 109.6294133
  28.0117891  83.6420204 108.8767985  28.3309904  85.0074677 109.4473623
  20.4445589  69.5500035 110.0738490  20.5661501  68.6216681 110.2729378
  20.1547632  69.5638721 109.1616806  23.3136780  67.2354945 113.2105210
  23.3358477  67.2994278 112.2557190  23.7304839  66.3959454 113.4045716
  33.6920404  76.9710205 111.2484433  34.1351550  76.2217530 110.8503556
  32.8146914  76.9620341 110.8658165  28.8256185  83.5240546 106.7291031
  29.5207090  84.1447239 106.9478346  29.1679336  82.6735897 107.0043409
  30.7247609  80.9740252 108.2578362  31.2498933  81.3127524 107.5327682
  30.6369961  80.0387267 108.0741497  30.5339390  78.4565622 120.8762288
  30.5837395  78.2915629 121.8177811  30.4253313  77.5892881 120.4860169
  19.4175648  81.1354167 108.1654377  19.5663769  81.8189632 107.5121050
  20.2242092  81.1159257 108.6803833  27.8243152  74.4396550 122.1921595
  28.7253015  74.3003015 121.9005593  27.8991127  74.6051005 123.1319773
  22.1585957  71.8163404 121.0374781  21.2889267  72.1096971 120.7657370
  22.3945438  72.4003849 121.7582045  32.0357587  80.8762563 121.1204310
  31.7442395  81.2392544 121.9567771  31.4229718  80.1629572 120.9417642
  33.2353269  78.4415443 113.6406880  34.0700160  78.8805247 113.8044441
  33.3712398  77.9654096 112.8215126  30.2844775  75.9995178 119.5884368
  30.7598896  76.1922824 118.7803219  29.3610340  76.0554364 119.3427752
  17.1728281  77.1619345 109.1715446  16.9274323  76.2581675 109.3695656
  17.3424196  77.1636495 108.2294924  24.8624991  68.0343021 118.5540202
  25.3806935  68.7704048 118.2286690  24.5080124  68.3407015 119.3886961
  16.4423929  72.8947703 106.6701608  15.7493174  72.9692058 106.0141644
  16.1975681  72.1308046 107.1923125  25.1137585  64.4543304 114.0741098
  25.3939339  63.7866493 114.7001525  25.8988192  64.6472400 113.5615762
  22.9171054  83.6302298 105.6366125  22.3445021  84.2492485 105.1836597
  23.4903848  84.1801660 106.1706047  28.9846444  72.8760938 117.8212674
  29.9363867  72.9759036 117.8424898  28.8149894  72.0839207 118.3310758
  27.0060823  69.9616521 118.0072074  26.4110755  70.2421534 117.3118563
  26.7210520  70.4510422 118.7788816  26.1368314  83.9139448 106.7674707
  27.0698987  83.8485010 106.9707583  26.0491527  84.7495715 106.3089240
  28.7656330  83.2305318 103.7278655  28.6869962  82.8965182 104.6214413
  29.5865997  83.7227086 103.7270127  31.4634522  76.0967058 116.9354973
  31.4310842  75.1583058 117.1214657  32.0735145  76.1751094 116.2020798
  23.3017852  74.9663111 102.9782177  24.2476957  74.8369319 103.0470595
  22.9232097  74.2277773 103.4551605  31.6129010  72.8878101 116.9813256
  31.0968059  72.1036558 116.7943185  32.4968959  72.5596818 117.1459776
  29.2739737  66.6319117 112.9409069  29.0764558  66.3234205 113.8252401
  29.8839443  67.3580756 113.0706999  37.2811071  77.1583064 116.0761010
  38.0114460  76.8968353 116.6368713  36.6718017  76.4211786 116.1163078
  35.3626369  75.2990927 116.6735461  34.6359532  75.1646892 116.0651953
  34.9473655  75.6067756 117.4792179  21.4860770  72.8913087 102.9137062
  20.5792225  72.5946200 102.9899776  21.7636751  72.5942905 102.0471349
  23.1022835  67.4349977 109.0681304  22.2923564  67.0897062 109.4436550
  23.7907252  67.1257520 109.6568915  25.0313384  66.5128024 110.6905600
  25.5844422  66.9323477 111.3495624  25.2683470  65.5863772 110.7328556
  20.2559554  69.7500022 103.0549042  21.1178718  70.0754921 103.3144859
  20.4409898  68.9631518 102.5422107  28.4092191  68.6228549 110.1984265
  27.8290860  69.2813353 109.8162317  28.1428123  67.8005893 109.7871682
  26.8595757  68.0233606 112.4005585  27.3595535  68.1350141 111.5919904
  27.5031365  67.7194659 113.0406393  27.1917069  70.7828639 109.2540613
  26.3042924  71.0678290 109.0360808  27.6071058  70.6222402 108.4067890
  30.5431605  70.8075160 112.9694952  31.3191995  71.2971612 113.2419569
  29.8179739  71.2333214 113.4266822  32.9804163  71.5202779 114.0268893
  33.5748654  71.2798515 113.3162201  33.0530747  70.8009910 114.6542429
  26.3360282  80.5473314 103.3488633  27.0396132  80.7523316 103.9646289
  25.6122931  81.1150076 103.6137716  27.1658092  76.2983175 109.4690903
  27.1093294  76.7551726 108.6298536  27.7186435  75.5373860 109.2913746
  30.9762898  72.0872907 110.2941023  30.7199833  71.6869543 111.1249230
  30.3515766  72.8016701 110.1691162  35.2875236  74.8268980 112.8012314
  34.7274794  74.8962169 113.5743876  34.6818740  74.6509965 112.0811810
  28.2446980  80.9855843 105.3987093  29.0792584  80.5537041 105.2164568
  28.0831322  80.8137857 106.3263987  27.8992872  77.4887956 106.7643432
  27.8441676  77.3232228 105.8231876  27.2738927  78.1963989 106.9205622
  21.2088997  66.9896065 106.3428751  21.1967667  67.9337905 106.4997022
  22.1012419  66.8066211 106.0488212  25.0241117  63.5838842 110.5974687
  24.2573512  63.0297329 110.7431370  25.4351822  63.6560711 111.4588839
  36.8731255  91.5025494 115.4942270  37.5109665  91.3832241 114.7905610
  36.7552098  92.4506338 115.5530222  33.6820961  91.4552922 115.4303794
  33.3439472  91.3393987 114.5424329  34.5510729  91.0544087 115.4104801
  29.5407777  93.3088399 111.4200685  28.9772642  93.2178336 110.6516973
  29.4260172  92.4888303 111.9003178  35.1207335  96.9759366 106.7315150
  34.4695315  97.5613447 106.3449164  35.9151698  97.5065561 106.7910188
  29.0462963  94.0648503 107.1302285  29.8193839  93.5177490 106.9915160
  29.3988361  94.9292753 107.3416746  31.8104212  92.7701734 116.9270544
  32.4067784  92.5457757 116.2127507  31.8679183  92.0286480 117.5295991
  31.3829240  90.2241170 104.7620735  31.6354761  89.7022691 104.0004198
  30.4453799  90.0607315 104.8647418  36.4272523  89.2276948 112.5695478
  37.2135612  88.8096371 112.2185895  36.6911227  90.1323040 112.7377126
  36.5982601  94.6649798 107.2684135  35.9628433  94.7384425 107.9805039
  36.2680007  95.2543397 106.5903214  41.8280950  89.1652181 113.4728456
  42.5606122  88.5951398 113.7066286  41.0720306  88.7773782 113.9134962
  31.1025529  92.1269275 106.9645110  30.9861787  91.4514179 107.6326194
  31.2127789  91.6401649 106.1477263  33.4457070  91.5879423 110.6691799
  33.0815277  91.0610044 111.3804720  34.3024186  91.1977892 110.4958284
  39.3506371  82.8773755 117.9323065  39.0189695  83.7469166 117.7084280
  38.7551984  82.5610039 118.6117095  33.0862557  86.6169322 105.6653147
  33.2536959  87.4849559 106.0323618  32.8959726  86.7796604 104.7414437
  35.8437890  95.0786301 117.3318978  35.5438613  95.9811340 117.2234785
  35.4988950  94.8118484 118.1840131  29.2950372  91.5300098 113.3655682
  28.3700868  91.3976312 113.5733374  29.5434785  92.3094317 113.8625624
  39.2435034  87.5968841 115.0116415  38.3351911  87.5284250 114.7175176
  39.1922630  88.0740786 115.8398240  33.0651778  89.0726980 106.6499814
  32.9451403  89.5184031 107.4885294  32.3704366  89.4212297 106.0913352
  30.8258670 101.8430622 110.2989945  30.7482700 102.7938447 110.3778426
  30.2220314 101.4976494 110.9564872  41.1096680  85.7985280 116.7894289
  40.4671061  86.0917813 116.1434083  40.6051609  85.6838200 117.5947486
  38.7636844  89.5448453 107.4780148  39.6754700  89.7775840 107.3027846
  38.2546491  90.1285497 106.9155227  33.4008682  88.9045688 118.4874998
  34.2469877  89.3285101 118.6309647  33.3407319  88.2479312 119.1813561
  37.3706426  94.5274271 114.8693730  36.7415289  94.6919986 114.1669797
  36.9832088  94.9415881 115.6404694  41.2495658  95.4628709 112.2238093
  40.5646696  95.8427611 111.6735127  41.3339508  96.0724036 112.9570041
  36.5508127  86.5650056 120.1456171  36.3069059  87.3192116 119.6090447
  36.8268058  86.9435404 120.9803418  38.5046590  93.1088668 118.8233437
  38.7163485  93.7520428 118.1467818  38.4576338  92.2750985 118.3555367
  36.1072819  85.7206489 115.7270009  35.2457298  86.0187743 116.0186747
  36.1335253  85.9376888 114.7951042  32.9234388  94.2648680 112.1343815
  33.3872734  94.5436382 111.3448437  32.6591186  93.3632124 111.9516905
  29.8158469  93.8120161 115.0723578  30.3859826  94.2407429 114.4341062
  30.4066581  93.5302746 115.7707764  31.8603274  90.3871832 108.9433380
  32.5627318  90.8392876 109.4107306  31.5283903  89.7455651 109.5713273
  25.6028608  88.6455385 114.2450513  24.8127662  88.9012913 113.7690624
  26.0939856  89.4603722 114.3502554  39.6192418  95.9860624 116.9955794
  40.4409862  95.5840811 116.7138476  39.6154821  95.8828858 117.9471910
  27.5543354  89.0099964 111.2033990  26.7574517  89.1218658 111.7217486
  27.3268946  89.3486616 110.3374881  47.7098411  92.3299372 113.3440766
  46.9562119  91.7606770 113.1884770  47.8445952  92.2962037 114.2911400
  33.0997039  97.2012774 109.0195485  32.9642714  98.0464310 109.4480333
  33.6406851  97.4032052 108.2561419  26.5526436  94.7188213 109.5923410
  27.0650957  95.5131463 109.7428975  27.2049149  94.0214503 109.5257012
  28.3621321  97.8353969 111.6746163  28.5387949  98.7571934 111.4867147
  29.1578154  97.5212388 112.1040543  36.4489502  80.7243336 117.5494379
  36.1053772  81.6144978 117.4733489  36.8168465  80.5344994 116.6863964
  24.5175353  93.0476867 110.3682981  25.3550575  93.4573875 110.1516688
  24.6953621  92.1076309 110.3383175  36.4139785  90.7151947 106.0566814
  35.8986409  91.4856552 106.2955201  36.1417094  90.0417084 106.6799875
  33.9986896  85.5601648 111.1152052  33.1428493  85.1708499 110.9357691
  34.4113848  85.6393609 110.2551838  35.5286043  83.0947992 115.5143612
  35.0250838  83.0578127 114.7011417  35.8216650  84.0040734 115.5740268
  31.7728929  83.1786721 114.5209793  32.6381925  82.9829530 114.1615683
  31.8406438  82.9497073 115.4479150  41.3874059  93.4684302 107.9919987
  40.6103502  93.1295462 107.5475149  42.0665540  93.4736925 107.3174952
  36.2026088  88.5879040 107.8826595  35.8976224  88.9025189 108.7336738
  37.1556530  88.6660459 107.9253928  34.6472520  94.7469263 109.5319549
  34.1193882  94.0122022 109.2192786  34.1460023  95.5243939 109.2859517
  39.6265366  92.9418283 114.6486595  38.9689041  93.6317545 114.7366724
  40.4305765  93.3314715 114.9920581  29.3791248  85.4088929 111.8926160
  29.9535000  85.1864111 111.1599353  29.9662230  85.4777624 112.6454762
  38.4370825  91.2962656 112.6990537  38.9502707  91.9292648 113.2012247
  39.0872049  90.6963852 112.3333897  29.7060835  87.4393390 105.9122046
  28.8698147  87.7768077 106.2331320  29.5665605  87.3042370 104.9749183
  31.6813916  82.2830178 110.6201230  31.0278328  81.9679195 109.9957845
  31.6394390  81.6605919 111.3461053  32.7925120  92.5649473 102.5354522
  31.8852182  92.3338727 102.7345671  33.2896152  91.7687092 102.7228503
  35.6993199 101.2746980 105.4551208  35.0254898 101.5778677 106.0636166
  36.0859021 102.0776061 105.1056665  34.9151656  88.7712112 114.9448877
  33.9974217  88.9927059 114.7870565  35.3311799  88.8458422 114.0860585
  35.6986704  90.1703527 110.0751558  36.4458523  90.6824925 109.7658680
  35.9678293  89.8487580 110.9355951  33.9713354  92.6662068 107.0578512
  33.0624573  92.3821101 107.1550982  34.0008438  93.0861147 106.1981819
  39.2032621  96.2768658 110.8269679  38.7494948  95.4359567 110.8834870
  38.5726588  96.9130056 111.1644460  38.1465541  87.2060644 112.0570347
  37.4088298  86.6938030 112.3880589  38.3992314  86.7661025 111.2453624
  37.6465560  98.1145154 111.7619498  37.9388535  98.6750211 111.0431863
  38.1564181  98.4073715 112.5172657  38.2477168  79.9836896 112.6512116
  38.5536045  79.1234259 112.3638031  38.9729773  80.5754516 112.4511110
  24.5401524  90.3867582 111.0393714  24.3425924  89.7936943 110.3144781
  23.9848188  90.0819792 111.7569653  32.5198248  90.2790689 113.1588307
  32.5746858  89.3264525 113.0830784  31.7089450  90.4350128 113.6429606
  33.6689442  94.2070812 104.3966590  33.2308872  93.4906671 103.9372228
  34.4099882  94.4346927 103.8351682  30.4590608  88.8967748 110.9178686
  29.6458473  89.1961919 111.3243878  30.9549602  88.5023437 111.6353168
  32.6099186  98.8925505 112.8512951  32.5675364  99.1186352 111.9221483
  33.5261885  98.6588880 112.9998752  36.0564819  89.3609573 119.7493580
  36.4114207  89.5881046 120.6088046  36.7036951  89.6927950 119.1270835
  41.7862556  92.4828009 110.4542909  41.6480455  92.6729605 109.5264098
  41.4298775  93.2447392 110.9110960  29.9504683  86.4686104 116.5339921
  30.5904062  86.3274863 115.8362884  29.1182213  86.1820617 116.1578523
  41.8131936  94.5504536 115.4654181  42.2468443  94.4579825 116.3137235
  42.5263517  94.5262036 114.8274197  30.7264986  95.7688534 112.6474914
  31.5205585  95.2738854 112.4457488  30.0156679  95.2406397 112.2842619
  27.0347750  89.9131616 108.7234666  26.1045338  89.8516072 108.9404628
  27.1305222  89.3907569 107.9271307  26.9533299  86.4386429 111.3112908
  27.2140116  87.3531762 111.2022068  27.7750471  85.9710871 111.4609521
  42.6747486  94.5928236 117.9987066  42.8683376  95.4974047 118.2446341
  42.5748104  94.1335655 118.8325651  34.3283796  84.4786127 120.4977393
  33.6811711  85.1776077 120.4041870  35.0984812  84.9122271 120.8653641
  34.5047931  92.3166892 118.5574213  35.4339991  92.4678052 118.3843180
  34.0838961  92.4050913 117.7022860  33.8984414 101.4426653 107.6698287
  34.0736170 100.9714696 108.4843910  33.2117202 102.0692419 107.8979548
  34.8541478  95.7199159 113.7161588  34.5191310  95.6799929 114.6119238
  34.3545423  95.0543875 113.2431999  37.7900669  93.0655193 103.9898648
  37.1729840  92.3402022 103.8931701  37.3217158  93.8264554 103.6465722
  29.5799215  87.2840618 103.1119952  28.7028681  87.1629418 102.7482199
  30.0556968  86.4926696 102.8598841  39.4472208  95.7393686 119.8818408
  38.5598987  95.4019607 120.0044807  40.0170759  95.0076717 120.1187173
  32.7663141  99.6366908 110.3582473  31.9830663 100.1788588 110.4520697
  33.4655886 100.1540888 110.7576714  36.0759791  85.4461537 113.0016678
  36.5728491  84.6931500 112.6817748  35.3046773  85.4825854 112.4359888
  43.9289549  91.1501903 114.6434970  43.9179425  92.0326618 114.2728903
  43.0606928  90.7973454 114.4489507  37.1589572  94.2033225 110.5755102
  36.2245851  94.3234687 110.4059806  37.3366240  93.3005691 110.3115111
  32.6594760  87.5878920 112.7288363  32.2892548  87.0349961 113.4169268
  33.1553852  86.9837054 112.1763363  40.5462123  90.0450544 111.1105136
  41.0122576  90.8778536 111.0365438  40.9969624  89.5795526 111.8150394
  38.6138354  96.3894365 108.1091288  38.8898198  96.2750960 109.0185162
  37.7442853  95.9911850 108.0703461  38.5178786  82.4131131 115.1496037
  37.6041866  82.6435358 115.3178244  38.9471888  82.4969575 116.0010069
  38.2885245  90.6021023 117.6495931  37.6356695  90.8496930 116.9948384
  38.6665624  89.7885161 117.3158408  35.2492418 100.6380716 111.7524101
  35.4314813  99.8202372 112.2151854  36.0725404 100.8548408 111.3148991
  35.5834584  99.5648901 109.0139150  36.1122350  99.0541356 108.4009312
  35.8462804  99.2491431 109.8784683  28.0560094  84.9982911 118.9741469
  28.1201420  85.8597742 118.5618867  27.9927214  84.3856913 118.2413827
  24.3077909  88.8782473 108.5532858  24.6031350  87.9693151 108.4999912
  23.4065945  88.8570212 108.2313860  36.2163988 100.5989737 115.3583266
  36.0915127  99.7979477 114.8494212  36.8743079 101.0935930 114.8697236
  27.8372156  86.9538469 114.5360407  27.1158742  87.5674437 114.3967880
  28.6265412  87.4896234 114.4577053  38.2798896  98.3998757 116.9862816
  37.3329232  98.2804108 116.9141143  38.6281669  97.5121255 117.0689078
  30.6398470  84.2892896 120.8101058  31.1632871  84.5355193 121.5727368
  30.4210803  85.1212931 120.3904196  26.0365751  86.5596571 108.6772183
  25.7078457  85.6793949 108.4947289  26.3905121  86.5044239 109.5648572
  35.2845329  98.1951473 113.1867169  35.1370292  97.2668181 113.3674739
  36.1098823  98.2171564 112.7024244  29.1507574  86.8469540 109.0447661
  29.4903646  87.3755462 108.3226269  29.5979694  87.1849946 109.8206227
  38.8879451  99.0180032 114.2732041  39.8125999  98.8122893 114.1356493
  38.7194755  98.7696433 115.1821383  31.8451015  85.2306591 118.4950729
  31.5047835  84.4314404 118.8971409  31.1390021  85.5308302 117.9227562
  32.4967486  82.3155903 116.9478052  33.3193556  81.8416382 116.8256942
  32.7405550  83.0946387 117.4476738  31.1375721  85.3444162 107.2440954
  31.8584083  85.7225415 106.7404670  30.5141025  86.0633039 107.3475932
  35.2806844  86.0489311 108.1799286  35.4970458  86.9313949 107.8788114
  34.8000911  85.6575524 107.4504928  30.0206065  89.0075024 114.7570031
  29.8750646  89.3215327 115.6494312  29.5431269  89.6259924 114.2040929
  31.8802448  85.9977572 114.8050920  31.8664017  85.1018665 114.4683218
  32.5974876  86.0048236 115.4389206  33.7328579  86.4314912 116.8504048
  33.4746357  87.3531983 116.8488378  33.2013619  86.0345347 117.5404512
  38.6774767  99.5365699 109.6294133  38.8511645  98.9712122 108.8767985
  39.1703659 100.3366594 109.4473623  31.2839344  84.8791952 110.0738490
  31.4055255  83.9508599 110.2729378  30.9941386  84.8930638 109.1616806
  34.1530534  82.5646863 113.2105210  34.1752231  82.6286196 112.2557190
  34.5698593  81.7251371 113.4045716  44.5314159  92.3002122 111.2484433
  44.9745305  91.5509448 110.8503556  43.6540669  92.2912259 110.8658165
  39.6649940  98.8532464 106.7291031  40.3600845  99.4739157 106.9478346
  40.0073090  98.0027815 107.0043409  41.5641363  96.3032169 108.2578362
  42.0892687  96.6419442 107.5327682  41.4763716  95.3679185 108.0741497
  41.3733144  93.7857539 120.8762288  41.4231149  93.6207547 121.8177811
  41.2647068  92.9184798 120.4860169  30.2569403  96.4646085 108.1654377
  30.4057523  97.1481549 107.5121050  31.0635846  96.4451175 108.6803833
  38.6636907  89.7688467 122.1921595  39.5646769  89.6294932 121.9005593
  38.7384881  89.9342922 123.1319773  32.9979712  87.1455322 121.0374781
  32.1283021  87.4388888 120.7657370  33.2339192  87.7295767 121.7582045
  42.8751341  96.2054481 121.1204310  42.5836149  96.5684461 121.9567771
  42.2623472  95.4921489 120.9417642  44.0747023  93.7707361 113.6406880
  44.9093915  94.2097165 113.8044441  44.2106152  93.2946014 112.8215126
  41.1238529  91.3287096 119.5884368  41.5992651  91.5214742 118.7803219
  40.2004095  91.3846281 119.3427752  28.0122036  92.4911263 109.1715446
  27.7668078  91.5873593 109.3695656  28.1817950  92.4928413 108.2294924
  35.7018746  83.3634939 118.5540202  36.2200690  84.0995966 118.2286690
  35.3473879  83.6698932 119.3886961  27.2817683  88.2239620 106.6701608
  26.5886928  88.2983975 106.0141644  27.0369435  87.4599964 107.1923125
  35.9531340  79.7835222 114.0741098  36.2333094  79.1158411 114.7001525
  36.7381947  79.9764317 113.5615762  33.7564808  98.9594216 105.6366125
  33.1838776  99.5784403 105.1836597  34.3297602  99.5093577 106.1706047
  39.8240198  88.2052856 117.8212674  40.7757621  88.3050953 117.8424898
  39.6543649  87.4131124 118.3310758  37.8454578  85.2908439 118.0072074
  37.2504510  85.5713452 117.3118563  37.5604274  85.7802340 118.7788816
  36.9762068  99.2431366 106.7674707  37.9092741  99.1776927 106.9707583
  36.8885281 100.0787633 106.3089240  39.6050085  98.5597236 103.7278655
  39.5263716  98.2257100 104.6214413  40.4259752  99.0519004 103.7270127
  42.3028276  91.4258975 116.9354973  42.2704596  90.4874976 117.1214657
  42.9128900  91.5043012 116.2020798  34.1411607  90.2955028 102.9782177
  35.0870712  90.1661236 103.0470595  33.7625852  89.5569690 103.4551605
  42.4522765  88.2170019 116.9813256  41.9361813  87.4328475 116.7943185
  43.3362713  87.8888735 117.1459776  40.1133491  81.9611034 112.9409069
  39.9158313  81.6526123 113.8252401  40.7233197  82.6872673 113.0706999
  48.1204826  92.4874982 116.0761010  48.8508214  92.2260270 116.6368713
  47.5111771  91.7503704 116.1163078  46.2020123  90.6282845 116.6735461
  45.4753287  90.4938810 116.0651953  45.7867410  90.9359673 117.4792179
  32.3254524  88.2205005 102.9137062  31.4185979  87.9238117 102.9899776
  32.6030505  87.9234823 102.0471349  33.9416590  82.7641894 109.0681304
  33.1317318  82.4188979 109.4436550  34.6301007  82.4549438 109.6568915
  35.8707138  81.8419941 110.6905600  36.4238177  82.2615395 111.3495624
  36.1077224  80.9155689 110.7328556  31.0953309  85.0791940 103.0549042
  31.9572473  85.4046838 103.3144859  31.2803653  84.2923436 102.5422107
  39.2485945  83.9520466 110.1984265  38.6684614  84.6105270 109.8162317
  38.9821878  83.1297811 109.7871682  37.6989512  83.3525524 112.4005585
  38.1989290  83.4642059 111.5919904  38.3425119  83.0486577 113.0406393
  38.0310823  86.1120557 109.2540613  37.1436678  86.3970207 109.0360808
  38.4464812  85.9514320 108.4067890  41.3825359  86.1367078 112.9694952
  42.1585749  86.6263530 113.2419569  40.6573493  86.5625132 113.4266822
  43.8197918  86.8494697 114.0268893  44.4142409  86.6090433 113.3162201
  43.8924502  86.1301828 114.6542429  37.1754037  95.8765231 103.3488633
  37.8789887  96.0815234 103.9646289  36.4516685  96.4441993 103.6137716
  38.0051847  91.6275093 109.4690903  37.9487048  92.0843644 108.6298536
  38.5580189  90.8665777 109.2913746  41.8156653  87.4164825 110.2941023
  41.5593587  87.0161460 111.1249230  41.1909521  88.1308618 110.1691162
  46.1268991  90.1560898 112.8012314  45.5668549  90.2254087 113.5743876
  45.5212494  89.9801882 112.0811810  39.0840734  96.3147761 105.3987093
  39.9186338  95.8828959 105.2164568  38.9225077  96.1429774 106.3263987
  38.7386626  92.8179874 106.7643432  38.6835430  92.6524145 105.8231876
  38.1132682  93.5255907 106.9205622  32.0482752  82.3187983 106.3428751
  32.0361422  83.2629823 106.4997022  32.9406174  82.1358128 106.0488212
  35.8634871  78.9130760 110.5974687  35.0967267  78.3589246 110.7431370
  36.2745576  78.9852628 111.4588839  40.3801531 108.6380316 111.4200685
  39.8166396 108.5470253 110.6516973  40.2653926 107.8180221 111.9003178
  45.9601090 112.3051284 106.7315150  45.3089070 112.8905364 106.3449164
  46.7545453 112.8357479 106.7910188  39.8856717 109.3940421 107.1302285
  40.6587593 108.8469408 106.9915160  40.2382116 110.2584670 107.3416746
  42.2222995 105.5533087 104.7620735  42.4748516 105.0314608 104.0004198
  41.2847554 105.3899233 104.8647418  47.2666278 104.5568866 112.5695478
  48.0529367 104.1388289 112.2185895  47.5304982 105.4614958 112.7377126
  47.4376355 109.9941716 107.2684135  46.8022188 110.0676342 107.9805039
  47.1073761 110.5835315 106.5903214  41.9419284 107.4561193 106.9645110
  41.8255542 106.7806097 107.6326194  42.0521543 106.9693567 106.1477263
  44.2850824 106.9171340 110.6691799  43.9209032 106.3901961 111.3804720
  45.1417940 106.5269809 110.4958284  43.9256311 101.9461240 105.6653147
  44.0930714 102.8141476 106.0323618  43.7353481 102.1088522 104.7414437
  40.1344126 106.8592016 113.3655682  39.2094623 106.7268230 113.5733374
  40.3828539 107.6386235 113.8625624  43.9045532 104.4018897 106.6499814
  43.7845158 104.8475948 107.4885294  43.2098121 104.7504215 106.0913352
  49.6030599 104.8740371 107.4780148  50.5148455 105.1067757 107.3027846
  49.0940246 105.4577415 106.9155227  46.9466573 101.0498407 115.7270009
  46.0851052 101.3479660 116.0186747  46.9729008 101.2668806 114.7951042
  43.7628143 109.5940597 112.1343815  44.2266488 109.8728300 111.3448437
  43.4984941 108.6924042 111.9516905  42.6997029 105.7163750 108.9433380
  43.4021072 106.1684793 109.4107306  42.3677657 105.0747568 109.5713273
  36.4422363 103.9747302 114.2450513  35.6521417 104.2304831 113.7690624
  36.9333610 104.7895640 114.3502554  38.3937108 104.3391881 111.2033990
  37.5968271 104.4510576 111.7217486  38.1662700 104.6778534 110.3374881
  43.9390793 112.5304692 109.0195485  43.8036468 113.3756228 109.4480333
  44.4800606 112.7323970 108.2561419  37.3920191 110.0480130 109.5923410
  37.9044711 110.8423380 109.7428975  38.0442904 109.3506421 109.5257012
  39.2015075 113.1645886 111.6746163  39.3781704 114.0863851 111.4867147
  39.9971909 112.8504306 112.1040543  47.2883257  96.0535254 117.5494379
  46.9447526  96.9436896 117.4733489  47.6562220  95.8636912 116.6863964
  35.3569108 108.3768785 110.3682981  36.1944330 108.7865793 110.1516688
  35.5347375 107.4368227 110.3383175  47.2533540 106.0443865 106.0566814
  46.7380163 106.8148470 106.2955201  46.9810848 105.3709001 106.6799875
  44.8380651 100.8893566 111.1152052  43.9822247 100.5000416 110.9357691
  45.2507602 100.9685527 110.2551838  46.3679797  98.4239909 115.5143612
  45.8644593  98.3870044 114.7011417  46.6610404  99.3332652 115.5740268
  42.6122683  98.5078639 114.5209793  43.4775680  98.3121448 114.1615683
  42.6800192  98.2788991 115.4479150  52.2267814 108.7976220 107.9919987
  51.4497257 108.4587379 107.5475149  52.9059295 108.8028843 107.3174952
  47.0419843 103.9170957 107.8826595  46.7369978 104.2317106 108.7336738
  47.9950285 103.9952377 107.9253928  45.4866275 110.0761181 109.5319549
  44.9587636 109.3413940 109.2192786  44.9853777 110.8535857 109.2859517
  40.2185002 100.7380847 111.8926160  40.7928754 100.5156028 111.1599353
  40.8055985 100.8069541 112.6454762  40.5454589 102.7685308 105.9122046
  39.7091902 103.1059994 106.2331320  40.4059359 102.6334288 104.9749183
  42.5207670  97.6122096 110.6201230  41.8672082  97.2971113 109.9957845
  42.4788144  96.9897836 111.3461053  43.6318875 107.8941391 102.5354522
  42.7245937 107.6630644 102.7345671  44.1289907 107.0979010 102.7228503
  46.5386954 116.6038898 105.4551208  45.8648653 116.9070595 106.0636166
  46.9252776 117.4067978 105.1056665  45.7545410 104.1004029 114.9448877
  44.8367972 104.3218976 114.7870565  46.1705554 104.1750340 114.0860585
  46.5380458 105.4995445 110.0751558  47.2852277 106.0116842 109.7658680
  46.8072048 105.1779498 110.9355951  44.8107108 107.9953986 107.0578512
  43.9018328 107.7113019 107.1550982  44.8402192 108.4153064 106.1981819
  48.9859295 102.5352561 112.0570347  48.2482052 102.0229947 112.3880589
  49.2386069 102.0952943 111.2453624  49.0870923  95.3128813 112.6512116
  49.3929799  94.4526177 112.3638031  49.8123527  95.9046433 112.4511110
  35.3795279 105.7159500 111.0393714  35.1819678 105.1228861 110.3144781
  34.8241943 105.4111710 111.7569653  43.3592002 105.6082606 113.1588307
  43.4140612 104.6556443 113.0830784  42.5483204 105.7642045 113.6429606
  44.5083196 109.5362729 104.3966590  44.0702626 108.8198588 103.9372228
  45.2493637 109.7638844 103.8351682  41.2984362 104.2259666 110.9178686
  40.4852228 104.5253837 111.3243878  41.7943356 103.8315355 111.6353168
  52.6256311 107.8119926 110.4542909  52.4874209 108.0021522 109.5264098
  52.2692530 108.5739309 110.9110960  40.7898437 101.7978022 116.5339921
  41.4297816 101.6566781 115.8362884  39.9575968 101.5112535 116.1578523
  41.5658741 111.0980452 112.6474914  42.3599339 110.6030772 112.4457488
  40.8550433 110.5698315 112.2842619  37.8741504 105.2423534 108.7234666
  36.9439092 105.1807989 108.9404628  37.9698976 104.7199486 107.9271307
  37.7927053 101.7678347 111.3112908  38.0533871 102.6823680 111.2022068
  38.6144226 101.3002789 111.4609521  44.7378169 116.7718570 107.6698287
  44.9129925 116.3006614 108.4843910  44.0510957 117.3984337 107.8979548
  48.6294424 108.3947111 103.9898648  48.0123594 107.6693939 103.8931701
  48.1610912 109.1556471 103.6465722  40.4192970 102.6132535 103.1119952
  39.5422436 102.4921336 102.7482199  40.8950723 101.8218614 102.8598841
  46.9153546 100.7753455 113.0016678  47.4122245 100.0223417 112.6817748
  46.1440527 100.8117772 112.4359888  47.9983326 109.5325142 110.5755102
  47.0639605 109.6526605 110.4059806  48.1759995 108.6297609 110.3115111
  43.4988515 102.9170838 112.7288363  43.1286302 102.3641879 113.4169268
  43.9947607 102.3128972 112.1763363  51.3855878 105.3742462 111.1105136
  51.8516330 106.2070453 111.0365438  51.8363378 104.9087443 111.8150394
  49.4532109 111.7186283 108.1091288  49.7291953 111.6042878 109.0185162
  48.5836608 111.3203768 108.0703461  49.3572541  97.7423049 115.1496037
  48.4435620  97.9727275 115.3178244  49.7865642  97.8261493 116.0010069
  46.4228338 114.8940819 109.0139150  46.9516105 114.3833273 108.4009312
  46.6856558 114.5783349 109.8784683  38.8953848 100.3274829 118.9741469
  38.9595175 101.1889660 118.5618867  38.8320968  99.7148831 118.2413827
  35.1471663 104.2074391 108.5532858  35.4425105 103.2985069 108.4999912
  34.2459699 104.1862130 108.2313860  38.6765910 102.2830387 114.5360407
  37.9552496 102.8966355 114.3967880  39.4659166 102.8188152 114.4577053
  36.8759505 101.8888488 108.6772183  36.5472211 101.0085867 108.4947289
  37.2298876 101.8336157 109.5648572  39.9901328 102.1761458 109.0447661
  40.3297401 102.7047379 108.3226269  40.4373449 102.5141864 109.8206227
  42.6844769 100.5598509 118.4950729  42.3441589  99.7606322 118.8971409
  41.9783775 100.8600220 117.9227562  43.3361241  97.6447821 116.9478052
  44.1587310  97.1708299 116.8256942  43.5799304  98.4238305 117.4476738
  41.9769475 100.6736080 107.2440954  42.6977838 101.0517332 106.7404670
  41.3534779 101.3924956 107.3475932  46.1200598 101.3781229 108.1799286
  46.3364213 102.2605866 107.8788114  45.6394665 100.9867442 107.4504928
  40.8599820 104.3366942 114.7570031  40.7144400 104.6507245 115.6494312
  40.3825023 104.9551842 114.2040929  42.7196202 101.3269490 114.8050920
  42.7057771 100.4310583 114.4683218  43.4368631 101.3340154 115.4389206
  44.5722333 101.7606830 116.8504048  44.3140111 102.6823901 116.8488378
  44.0407374 101.3637265 117.5404512  42.1233098 100.2083870 110.0738490
  42.2449010  99.2800516 110.2729378  41.8335141 100.2222556 109.1616806
  44.9924289  97.8938781 113.2105210  45.0145986  97.9578114 112.2557190
  45.4092348  97.0543289 113.4045716  50.5043694 114.1824382 106.7291031
  51.1994599 114.8031074 106.9478346  50.8466845 113.3319733 107.0043409
  52.4035118 111.6324087 108.2578362  52.9286442 111.9711360 107.5327682
  52.3157470 110.6971102 108.0741497  41.0963157 111.7938003 108.1654377
  41.2451278 112.4773467 107.5121050  41.9029601 111.7743093 108.6803833
  38.8515790 107.8203180 109.1715446  38.6061832 106.9165510 109.3695656
  39.0211705 107.8220331 108.2294924  38.1211438 103.5531538 106.6701608
  37.4280683 103.6275893 106.0141644  37.8763190 102.7891882 107.1923125
  46.7925094  95.1127139 114.0741098  47.0726848  94.4450328 114.7001525
  47.5775701  95.3056235 113.5615762  44.5958563 114.2886133 105.6366125
  44.0232530 114.9076320 105.1836597  45.1691357 114.8385495 106.1706047
  47.8155823 114.5723283 106.7674707  48.7486496 114.5068845 106.9707583
  47.7279036 115.4079550 106.3089240  50.4443839 113.8889154 103.7278655
  50.3657471 113.5549017 104.6214413  51.2653506 114.3810922 103.7270127
  44.9805361 105.6246946 102.9782177  45.9264466 105.4953154 103.0470595
  44.6019606 104.8861608 103.4551605  50.9527246  97.2902952 112.9409069
  50.7552067  96.9818040 113.8252401  51.5626952  98.0164591 113.0706999
  43.1648279 103.5496922 102.9137062  42.2579734 103.2530035 102.9899776
  43.4424260 103.2526740 102.0471349  44.7810344  98.0933812 109.0681304
  43.9711073  97.7480897 109.4436550  45.4694761  97.7841356 109.6568915
  46.7100893  97.1711859 110.6905600  47.2631931  97.5907312 111.3495624
  46.9470979  96.2447607 110.7328556  41.9347063 100.4083858 103.0549042
  42.7966227 100.7338756 103.3144859  42.1197407  99.6215353 102.5422107
  50.0879700  99.2812384 110.1984265  49.5078369  99.9397188 109.8162317
  49.8215632  98.4589729 109.7871682  48.5383266  98.6817442 112.4005585
  49.0383044  98.7933976 111.5919904  49.1818874  98.3778495 113.0406393
  48.8704578 101.4412474 109.2540613  47.9830433 101.7262125 109.0360808
  49.2858567 101.2806238 108.4067890  52.2219114 101.4658995 112.9694952
  52.9979504 101.9555448 113.2419569  51.4967248 101.8917050 113.4266822
  48.0147791 111.2057149 103.3488633  48.7183641 111.4107152 103.9646289
  47.2910440 111.7733911 103.6137716  48.8445601 106.9567010 109.4690903
  48.7880803 107.4135562 108.6298536  49.3973944 106.1957695 109.2913746
  52.6550407 102.7456742 110.2941023  52.3987342 102.3453378 111.1249230
  52.0303275 103.4600536 110.1691162  49.9234489 111.6439678 105.3987093
  50.7580092 111.2120877 105.2164568  49.7618831 111.4721692 106.3263987
  49.5780381 108.1471792 106.7643432  49.5229185 107.9816063 105.8231876
  48.9526436 108.8547825 106.9205622  42.8876506  97.6479901 106.3428751
  42.8755176  98.5921741 106.4997022  43.7799928  97.4650046 106.0488212
  46.7028626  94.2422677 110.5974687  45.9361021  93.6881164 110.7431370
  47.1139331  94.3144546 111.4588839  51.3848344 118.0977226 105.9122046
  50.5485656 118.4351912 106.2331320  51.2453114 117.9626205 104.9749183
  51.2586724 117.9424453 103.1119952  50.3816190 117.8213254 102.7482199
  51.7344477 117.1510531 102.8598841  48.9605192 118.8823456 106.6701608
  48.2674437 118.9567811 106.0141644  48.7156944 118.1183799 107.1923125
  54.0042033 118.8788840 102.9137062  53.0973488 118.5821953 102.9899776
  54.2818014 118.5818658 102.0471349  52.7740818 115.7375775 103.0549042
  53.6359982 116.0630674 103.3144859  52.9591162 114.9507271 102.5422107
  53.7270261 112.9771818 106.3428751  53.7148931 113.9213658 106.4997022
  54.6193683 112.7941964 106.0488212   3.1811937  32.2933350  92.1796515
   2.5073636  32.5965047  92.7881472   3.5677759  33.0962430  91.8301972
   7.1468678  29.8718833  93.4536338   7.8419582  30.4925526  93.6723652
   7.4891828  29.0214185  93.7288716   1.2383546  29.9780585  92.3611431
   0.6657513  30.5970772  91.9081903   1.8116340  30.5279947  92.8951353
   4.4580806  30.2617735  93.4920014   5.3911479  30.1963297  93.6952889
   4.3704019  31.0974002  93.0334546   7.0868823  29.5783606  90.4523961
   7.0082454  29.2443469  91.3459719   7.9078489  30.0705373  90.4515434
   4.6572774  26.8951601  90.0733940   5.3608625  27.1001603  90.6891595
   3.9335423  27.4628363  90.3383023   6.5659472  27.3334130  92.1232400
   7.4005076  26.9015329  91.9409874   6.4043815  27.1616144  93.0509294
  15.1943747  37.8503781 102.2187576  15.8322157  37.7310529 101.5150916
  15.0764590  38.7984625 102.2775529   7.8620269  39.6566686  98.1445992
   7.2985134  39.5656623  97.3762280   7.7472664  38.8366590  98.6248485
  13.4419828  43.3237654  93.4560457  12.7907807  43.9091734  93.0694471
  14.2364190  43.8543848  93.5155494   7.3675455  40.4126791  93.8547591
   8.1406331  39.8655778  93.7160467   7.7200854  41.2771040  94.0662053
   9.7041733  36.5719457  91.4866041   9.9567253  36.0500978  90.7249504
   8.7666292  36.4085602  91.5892725  14.7485015  35.5755235  99.2940784
  15.5348105  35.1574658  98.9431201  15.0123720  36.4801327  99.4622433
  14.9195093  41.0128085  93.9929441  14.2840926  41.0862712  94.7050346
  14.5892499  41.6021684  93.3148520  20.1493443  35.5130468 100.1973763
  20.8818615  34.9429685 100.4311592  19.3932798  35.1252069 100.6380268
   9.4238021  38.4747563  93.6890416   9.3074279  37.7992466  94.3571500
   9.5340281  37.9879937  92.8722569  11.7669562  37.9357710  97.3937105
  11.4027770  37.4088331  98.1050027  12.6236678  37.5456179  97.2203591
  11.4075049  32.9647610  92.3898454  11.5749452  33.8327846  92.7568925
  11.2172218  33.1274891  91.4659743  11.3864270  35.4205267  93.3745121
  11.2663895  35.8662318  94.2130601  10.6916859  35.7690585  92.8158659
   9.1471162  48.1908909  97.0235252   9.0695192  49.1416734  97.1023733
   8.5432806  47.8454781  97.6810178  17.0849336  35.8926740  94.2025455
  17.9967192  36.1254127  94.0273152  16.5758983  36.4763784  93.6400533
  15.6918919  40.8752559 101.5939036  15.0627781  41.0398273 100.8915104
  15.3044581  41.2894168 102.3650000  19.5708151  41.8106997  98.9483400
  18.8859189  42.1905898  98.3980433  19.6552000  42.4202323  99.6815348
  11.2446880  40.6126967  98.8589121  11.7085226  40.8914670  98.0693744
  10.9803679  39.7110411  98.6762212  10.1815767  36.7350119  95.6678686
  10.8839810  37.1871163  96.1352613   9.8496395  36.0933938  96.2958580
  17.9404910  42.3338911 103.7201101  18.7622354  41.9319098 103.4383782
  17.9367313  42.2307145 104.6717217  26.0310903  38.6777659 100.0686072
  25.2774611  38.1085058  99.9130077  26.1658444  38.6440324 101.0156707
  11.4209531  43.5491062  95.7440792  11.2855206  44.3942597  96.1725639
  11.9619344  43.7510339  94.9806725   4.8738929  41.0666500  96.3168717
   5.3863449  41.8609750  96.4674281   5.5261641  40.3692790  96.2502318
   6.6833813  44.1832256  98.3991470   6.8600442  45.1050221  98.2112454
   7.4790647  43.8690675  98.8285850   7.8065129  45.7010430 104.4001812
   8.3572554  45.5727493 103.6278806   6.9676605  46.0005319 104.0496705
   2.8387845  39.3955154  97.0928287   3.6763067  39.8052162  96.8761995
   3.0166113  38.4554596  97.0628481  14.7352277  37.0630235  92.7812120
  14.2198901  37.8334839  93.0200508  14.4629586  36.3895371  93.4045182
  12.3199388  31.9079936  97.8397359  11.4640985  31.5186786  97.6602997
  12.7326340  31.9871896  96.9797144  19.7086552  39.8162589  94.7165294
  18.9315994  39.4773749  94.2720456  20.3878033  39.8215213  94.0420259
  14.5238581  34.9357327  94.6071901  14.2188716  35.2503476  95.4582045
  15.4769023  35.0138747  94.6499234  12.9685012  41.0947550  96.2564855
  12.4406374  40.3600310  95.9438093  12.4672515  41.8722226  96.0104824
  17.9477858  39.2896571 101.3731902  17.2901533  39.9795832 101.4612030
  18.7518258  39.6793003 101.7165888  16.7583317  37.6440943  99.4235843
  17.2715199  38.2770935  99.9257553  17.4084541  37.0442139  99.0579203
   8.0273327  33.7871677  92.6367352   7.1910639  34.1246364  92.9576627
   7.8878097  33.6520657  91.6994489  11.1137613  38.9127760  89.2599828
  10.2064674  38.6817014  89.4590977  11.6108645  38.1165380  89.4473810
  14.0205692  47.6225268  92.1796515  13.3467390  47.9256964  92.7881472
  14.4071513  48.4254348  91.8301972  14.0199196  36.5181815  96.7996864
  14.7671015  37.0303212  96.4903986  14.2890785  36.1965867  97.6601258
  12.2925846  39.0140355  93.7823819  11.3837065  38.7299388  93.8796288
  12.3220930  39.4339434  92.9227125  17.5245113  42.6246945  97.5514986
  17.0707441  41.7837855  97.6080177  16.8939080  43.2608343  97.8889766
  16.4678033  33.5538931  98.7815654  15.7300790  33.0416317  99.1125896
  16.7204807  33.1139312  97.9698930  15.9678053  44.4623441  98.4864804
  16.2601027  45.0228499  97.7677170  16.4776673  44.7552002  99.2417963
  10.8410740  36.6268976  99.8833614  10.8959350  35.6742812  99.8076090
  10.0301942  36.7828415 100.3674912  11.9901934  40.5549099  91.1211897
  11.5521364  39.8384958  90.6617534  12.7312375  40.7825214  90.5596989
   8.7803100  35.2446036  97.6423993   7.9670966  35.5440206  98.0489185
   9.2762094  34.8501724  98.3598475  10.9311678  45.2403793  99.5758257
  10.8887857  45.4664639  98.6466789  11.8474377  45.0067167  99.7244059
  20.1075049  38.8306296  97.1788216  19.9692947  39.0207892  96.2509405
  19.7511267  39.5925679  97.6356267  20.1344428  40.8982823 102.1899487
  20.5680935  40.8058112 103.0382541  20.8476009  40.8740323 101.5519503
   9.0477479  42.1166822  99.3720220   9.8418077  41.6217142  99.1702795
   8.3369171  41.5884685  99.0087926  13.8672323  44.4984917 103.7232588
  13.9209345  45.0675853 104.4910304  12.9987105  44.6686802 103.3586625
   5.3560242  36.2609903  95.4479973   4.4257830  36.1994359  95.6649935
   5.4517714  35.7385856  94.6516614  20.9959978  40.9406524 104.7232373
  21.1895868  41.8452334 104.9691648  20.8960596  40.4813943 105.5570958
  11.6248755  42.6895844 103.0518057  11.4859840  42.3214628 103.9243995
  10.8363351  43.2043483 102.8802015  12.2196907  47.7904940  94.3943594
  12.3948662  47.3192983  95.2089216  11.5329695  48.4170706  94.6224855
  13.1753970  42.0677446 100.4406895  12.8403802  42.0278216 101.3364545
  12.6757916  41.4022162  99.9677305  16.1113161  39.4133481  90.7143955
  15.4942332  38.6880309  90.6177007  15.6429650  40.1742841  90.3711029
   6.7857992  50.9394303 101.1683454   7.0254590  51.5712827 101.8462473
   5.9427188  50.5882343 101.4548813   7.9011707  33.6318905  89.8365259
   7.0241174  33.5107706  89.4727506   8.3769460  32.8404983  89.5844148
  11.2985854  46.7473425 103.5724958  11.2256025  47.5528397 104.0844262
  10.8563247  46.9465391 102.7472979  11.0875633  45.9845195  97.0827779
  10.3043155  46.5266875  97.1766004  11.7868379  46.5019175  97.4822021
  22.2502041  37.4980190 101.3680276  22.2391917  38.3804906 100.9974209
  21.3819420  37.1451741 101.1734813  13.7584537  46.6460259 105.7283117
  14.4712510  47.2807724 105.6559018  13.2674566  46.7424125 104.9123118
  15.4802064  40.5511512  97.3000408  14.5458343  40.6712974  97.1305113
  15.6578733  39.6483979  97.0360418  18.8674616  36.3928831  97.8350442
  19.3335068  37.2256823  97.7610745  19.3182116  35.9273813  98.5395701
  16.9350847  42.7372653  94.8336594  17.2110691  42.6229247  95.7430469
  16.0655345  42.3390137  94.7948768  13.5704911  46.9859003  98.4769408
  13.7527305  46.1680659  98.9397160  14.3937897  47.2026696  98.0394298
  13.9047076  45.9127188  95.7384457  14.4334843  45.4019643  95.1254619
  14.1675296  45.5969719  96.6029990   7.2602824  46.9642305  98.4982232
   6.5913199  47.4488433  98.0146273   7.1215694  47.2111526  99.4125611
  11.4008093  48.9986049 105.0964891  11.9526401  49.1617670 105.8613976
  11.7414286  49.5890487 104.4244916   2.6290401  35.2260760  95.2778165
   2.9243842  34.3171439  95.2245218   1.7278437  35.2048500  94.9559167
  14.5376480  46.9468024 102.0828573  14.4127619  46.1457764 101.5739519
  15.1955571  47.4414218 101.5942543  16.6011388  44.7477044 103.7108123
  15.6541724  44.6282395 103.6386450  16.9494162  43.8599542 103.7934385
  13.6057822  44.5429761  99.9112475  13.4582784  43.6146468 100.0920045
  14.4311315  44.5649851  99.4269551   7.4720066  33.1947828  95.7692967
   7.8116138  33.7233749  95.0471576   7.9192186  33.5328234  96.5451534
  17.2091944  45.3658319 100.9977348  18.1338491  45.1601181 100.8601799
  17.0407247  45.1174720 101.9066690   9.4588213  31.6922449  93.9686260
  10.1796576  32.0703702  93.4649977   8.8353517  32.4111326  94.0721238
  13.6019336  32.3967598  94.9044593  13.8182950  33.2792236  94.6033421
  13.1213403  32.0053812  94.1750235  16.9987260  45.8843987  96.3539440
  17.1724137  45.3190409  95.6013292  17.4916151  46.6844882  96.1718929
  22.8526651  38.6480410  97.9729739  23.2957797  37.8987735  97.5748863
  21.9753161  38.6390546  97.5903471  17.9862432  45.2010751  93.4536338
  18.6813337  45.8217444  93.6723652  18.3285582  44.3506102  93.7288716
  19.8853855  42.6510457  94.9823669  20.4105179  42.9897729  94.2572989
  19.7976208  41.7157472  94.7986803  11.5694516  48.7182440  99.3418922
  11.1299506  48.2258819 100.0351778  12.3202633  48.1755408  99.1010997
   4.0486855  44.9093981  99.3443550   4.8744875  44.6097753  98.9642193
   3.6980907  44.1401603  99.7933339   9.0168388  44.2620449 101.4141223
   8.3948398  43.5991154 101.1143451   9.6873255  44.2881581 100.7314871
   8.5781895  42.8124372  94.8899684   8.7270016  43.4959837  94.2366357
   9.3848339  42.7929462  95.4049140  22.3959516  40.1185648 100.3652187
  23.2306407  40.5575452 100.5289747  22.5318644  39.6424301  99.5460433
   6.3334528  38.8389550  95.8960753   6.0880570  37.9351880  96.0940963
   6.5030443  38.8406700  94.9540231   5.6030176  34.5717908  93.3946914
   4.9099421  34.6462263  92.7386950   5.3581928  33.8078251  93.9168431
  12.0777301  45.3072503  92.3611431  11.5051268  45.9262690  91.9081903
  12.6510094  45.8571864  92.8951353  15.2974560  45.5909653  93.4920014
  16.2305234  45.5255215  93.6952889  15.2097773  46.4265920  93.0334546
  17.9262577  44.9075523  90.4523961  17.8476209  44.5735387  91.3459719
  18.7472244  45.3997291  90.4515434  20.6240768  37.7737263 103.6600280
  20.5917088  36.8353263 103.8459964  21.2341392  37.8521299 102.9266105
  12.4624099  36.6433316  89.7027484  13.4083204  36.5139524  89.7715902
  12.0838344  35.9047977  90.1796912  26.4417318  38.8353269 102.8006317
  27.1720707  38.5738558 103.3614020  25.8324264  38.0981991 102.8408385
  24.5232615  36.9761132 103.3980768  23.7965779  36.8417097 102.7897259
  24.1079902  37.2837961 104.2037486  10.6467016  34.5683292  89.6382369
   9.7398472  34.2716405  89.7145083  10.9242997  34.2713110  88.7716655
  12.2629082  29.1120182  95.7926610  11.4529810  28.7667267  96.1681857
  12.9513499  28.8027725  96.3814222   9.4165801  31.4270227  89.7794348
  10.2784965  31.7525125  90.0390166   9.6016145  30.6401723  89.2667414
  17.5698437  30.2998754  96.9229571  16.9897107  30.9583558  96.5407624
  17.3034370  29.4776098  96.5116989  16.3523315  32.4598844  95.9785920
  15.4649170  32.7448495  95.7606114  16.7677305  32.2992607  95.1313196
  19.7037852  32.4845365  99.6940259  20.4798242  32.9741817  99.9664876
  18.9785986  32.9103419 100.1512128  22.1410410  33.1972984 100.7514199
  22.7354901  32.9568720 100.0407508  22.2136994  32.4780115 101.3787736
   4.3607566  47.0406595 101.0657364   4.2262034  46.2806996 100.4995362
   3.9439628  47.7647495 100.5986153  15.4966529  42.2243519  90.0733940
  16.2002379  42.4293521  90.6891595  14.7729178  42.7920281  90.3383023
  16.3264339  37.9753380  96.1936210  16.2699541  38.4321931  95.3543842
  16.8792682  37.2144065  96.0159052  20.1369145  33.7643112  97.0186329
  19.8806079  33.3639747  97.8494537  19.5122013  34.4786906  96.8936468
  24.4481483  36.5039185  99.5257621  23.8881041  36.5732374 100.2989183
  23.8424986  36.3280170  98.8057117   7.5176692  47.9375912 101.2775807
   7.4009076  48.8821345 101.1754497   6.6969138  47.6349474 101.6661606
  17.4053226  42.6626048  92.1232400  18.2398830  42.2307246  91.9409874
  17.2437569  42.4908062  93.0509294  17.0599119  39.1658161  93.4888739
  17.0047922  39.0002433  92.5477183  16.4345174  39.8734194  93.6450929
  10.3695244  28.6666270  93.0674057  10.3573914  29.6108110  93.2242328
  11.2618666  28.4836416  92.7733519   8.5431206  48.5904174 104.4931735
   9.4458453  48.6227784 104.8098230   8.3168576  47.6604625 104.5078071
  10.2984808  47.3435161 101.1541814   9.3480439  47.3437022 101.0406186
  10.6017294  46.5967895 100.6377849  26.0337501  53.1795699 102.2187576
  26.6715911  53.0602446 101.5150916  25.9158344  54.1276543 102.2775529
  22.8427208  53.1323127 102.1549101  22.5045719  53.0164192 101.2669636
  23.7116976  52.7314292 102.1350107  18.7014023  54.9858603  98.1445992
  18.1378889  54.8948540  97.3762280  18.5866418  54.1658508  98.6248485
  23.3246991  54.2857979 108.1135307  23.3135631  53.8910777 107.2415810
  23.4867630  53.5524051 108.7069078  16.2478455  56.4809795 100.9830212
  17.0399747  56.1400620 100.5676512  16.4875106  56.5904770 101.9032366
  24.2813582  58.6529571  93.4560457  23.6301562  59.2383652  93.0694471
  25.0757945  59.1835766  93.5155494  18.2069209  55.7418708  93.8547591
  18.9800085  55.1947695  93.7160467  18.5594608  56.6062958  94.0662053
  20.0454252  57.0695091 107.0614491  19.7544118  57.9740721 106.9461157
  20.6811236  57.1111618 107.7758560  20.9710459  54.4471939 103.6515850
  21.5674031  54.2227962 102.9372813  21.0285430  53.7056685 104.2541298
  20.5435487  51.9011374  91.4866041  20.7961008  51.3792896  90.7249504
  19.6060046  51.7377520  91.5892725  25.5878770  50.9047153  99.2940784
  26.3741859  50.4866576  98.9431201  25.8517474  51.8093245  99.4622433
  25.7588847  56.3420003  93.9929441  25.1234680  56.4154630  94.7050346
  25.4286254  56.9313602  93.3148520  20.2631776  53.8039480  93.6890416
  20.1468034  53.1284384  94.3571500  20.3734036  53.3171854  92.8722569
  22.6063317  53.2649628  97.3937105  22.2421524  52.7380248  98.1050027
  23.4630433  52.8748097  97.2203591  28.5112617  44.5543960 104.6568372
  28.1795942  45.4239371 104.4329587  27.9158231  44.2380244 105.3362402
  22.2468804  48.2939527  92.3898454  22.4143206  49.1619764  92.7568925
  22.0565973  48.4566809  91.4659743  25.0044137  56.7556506 104.0564284
  24.7044860  57.6581545 103.9480091  24.6595196  56.4888689 104.9085437
  18.4556618  53.2070303 100.0900989  17.5307115  53.0746517 100.2978680
  18.7041032  53.9864522 100.5870931  28.4041281  49.2739046 101.7361722
  27.4958158  49.2054455 101.4420483  28.3528877  49.7510991 102.5643547
  22.2258025  50.7497185  93.3745121  22.1057650  51.1954235  94.2130601
  21.5310613  51.0982502  92.8158659  15.8165429  52.8503577 100.9244778
  15.9457811  53.1038055 101.8384189  15.1362881  53.4431285 100.6049433
  19.9864917  63.5200826  97.0235252  19.9088946  64.4708652  97.1023733
  19.3826560  63.1746699  97.6810178  22.4782146  50.6928692 109.6796619
  21.7015481  51.2522612 109.6699483  23.1172710  51.1785475 110.2011489
  30.2702927  47.4755485 103.5139595  29.6277307  47.7688018 102.8679390
  29.7657856  47.3608405 104.3192792  27.9243091  51.2218658  94.2025455
  28.8360947  51.4546045  94.0273152  27.4152738  51.8055702  93.6400533
  20.7328519  53.5014145 109.2414586  21.4743203  54.0399189 108.9649409
  20.0265504  54.1280434 109.3986138  26.2083858  55.6443286 107.8386747
  26.6167214  55.2025696 107.0941380  25.4861120  55.0695913 108.0920940
  22.5614928  50.5815892 105.2120304  23.4076124  51.0055306 105.3554953
  22.5013566  49.9249517 105.9058867  26.5312673  56.2044476 101.5939036
  25.9021536  56.3690190 100.8915104  26.1438335  56.6186086 102.3650000
  30.4101905  57.1398914  98.9483400  29.7252943  57.5197816  98.3980433
  30.4945754  57.7494241  99.6815348  25.7114374  48.2420261 106.8701478
  25.4675306  48.9962321 106.3335754  25.9874304  48.6205608 107.7048725
  27.6652837  54.7858873 105.5478744  27.8769732  55.4290633 104.8713125
  27.6182585  53.9521190 105.0800674  25.2679066  47.3976694 102.4515316
  24.4063545  47.6957947 102.7432053  25.2941500  47.6147093 101.5196348
  22.0840635  55.9418884  98.8589121  22.5478981  56.2206587  98.0693744
  21.8197433  55.0402329  98.6762212  18.9764716  55.4890366 101.7968885
  19.5466073  55.9177634 101.1586369  19.5672828  55.2072951 102.4953070
  21.0209521  52.0642037  95.6678686  21.7233564  52.5163080  96.1352613
  20.6890150  51.4225856  96.2958580  19.4689883  50.6553793 110.0429896
  18.8388543  51.3370074 110.2765293  19.3625970  50.5436875 109.0983034
  14.7634855  50.3225589 100.9695820  13.9733909  50.5783118 100.4935931
  15.2546102  51.1373927 101.0747861  28.7798665  57.6630829 103.7201101
  29.6016108  57.2611016 103.4383782  28.7761067  57.5599063 104.6717217
  16.7149600  50.6870169  97.9279297  15.9180764  50.7988863  98.4462792
  16.4875193  51.0256821  97.0620187  22.5455268  57.2114872 105.8761811
  22.6099701  57.6735279 106.7119983  21.8366192  56.5812237 106.0044121
  13.0472558  50.5756080 103.4010811  13.2980596  51.4603090 103.6668387
  13.5832106  50.3960681 102.6285903  22.2603286  58.8782979  95.7440792
  22.1248960  59.7234515  96.1725639  22.8013098  59.0802257  94.9806725
  15.7132683  56.3958417  96.3168717  16.2257204  57.1901668  96.4674281
  16.3655396  55.6984708  96.2502318  17.5227568  59.5124174  98.3991470
  17.6994196  60.4342138  98.2112454  18.3184401  59.1982593  98.8285850
  21.6638586  46.3732438 109.9975403  22.4048300  46.9739591 109.9179866
  21.8956509  45.6310076 109.4393446  16.8079924  51.5588806 108.2753633
  16.6933439  50.6574063 108.5760732  15.9524442  51.8052502 107.9238450
  23.8871762  59.5006546 109.8741134  23.4435616  58.7142924 109.5562038
  24.5488976  59.6885696 109.2085025  18.6458883  61.0302348 104.4001812
  19.1966308  60.9019411 103.6278806  17.8070359  61.3297237 104.0496705
  25.9853000  59.7809346 107.9022535  25.9671475  60.6018227 107.4102804
  26.9072920  59.6563421 108.1272676  22.4426054  57.2953475 108.7446043
  22.9754391  56.5341764 108.5145351  21.9140135  57.0027127 109.4870198
  25.6095749  42.4013541 104.2739685  25.2660019  43.2915183 104.1978796
  25.9774712  42.2115199 103.4109270  13.6781600  54.7247072  97.0928287
  14.5156822  55.1344080  96.8761995  13.8559868  53.7846514  97.0628481
  25.5746032  52.3922152  92.7812120  25.0592655  53.1626757  93.0200508
  25.3023340  51.7187289  93.4045182  23.1593143  47.2371853  97.8397359
  22.3034739  46.8478704  97.6602997  23.5720095  47.3163814  96.9797144
  24.6892290  44.7718196 102.2388918  24.1857085  44.7348332 101.4256724
  24.9822896  45.6810939 102.2985575  20.9335175  44.8556926 101.2455100
  21.7988172  44.6599735 100.8860990  21.0012684  44.6267278 102.1724457
  25.3632335  50.2649245  94.6071901  25.0582471  50.5795394  95.4582045
  26.3162777  50.3430664  94.6499234  23.8078767  56.4239468  96.2564855
  23.2800129  55.6892227  95.9438093  23.3066270  57.2014144  96.0104824
  28.7871613  54.6188488 101.3731902  28.1295287  55.3087750 101.4612030
  29.5912012  55.0084920 101.7165888  18.5397495  47.0859134  98.6171467
  19.1141246  46.8634316  97.8844660  19.1268477  47.1547829  99.3700068
  27.5977072  52.9732861  99.4235843  28.1108954  53.6062853  99.9257553
  28.2478296  52.3734057  99.0579203  18.8667082  49.1163595  92.6367352
  18.0304394  49.4538282  92.9576627  18.7271851  48.9812575  91.6994489
  20.8420162  43.9600383  97.3446536  20.1884575  43.6449400  96.7203151
  20.8000636  43.3376123  98.0706359  21.9531367  54.2419678  89.2599828
  21.0458429  54.0108932  89.4590977  22.4502399  53.4457297  89.4473810
  24.8599446  62.9517185  92.1796515  24.1861145  63.2548882  92.7881472
  25.2465268  63.7546266  91.8301972  24.0757903  50.4482317 101.6694184
  23.1580464  50.6697264 101.5115872  24.4918046  50.5228627 100.8105891
  24.8592950  51.8473732  96.7996864  25.6064769  52.3595129  96.4903986
  25.1284540  51.5257785  97.6601258  23.1319601  54.3432273  93.7823819
  22.2230820  54.0591306  93.8796288  23.1614684  54.7631352  92.9227125
  28.3638868  57.9538862  97.5514986  27.9101195  57.1129772  97.6080177
  27.7332835  58.5900261  97.8889766  27.3071788  48.8830848  98.7815654
  26.5694544  48.3708235  99.1125896  27.5598561  48.4431230  97.9698930
  26.8071807  59.7915359  98.4864804  27.0994782  60.3520416  97.7677170
  27.3170428  60.0843920  99.2417963  27.4083415  41.6607100  99.3757423
  27.7142292  40.8004464  99.0883338  28.1336020  42.2524721  99.1756417
  13.7007771  52.0637787  97.7639021  13.5032171  51.4707148  97.0390087
  13.1454435  51.7589997  98.4814960  21.6804495  51.9560894  99.8833614
  21.7353104  51.0034730  99.8076090  20.8695697  52.1120333 100.3674912
  22.8295688  55.8841017  91.1211897  22.3915118  55.1676876  90.6617534
  23.5706129  56.1117131  90.5596989  19.6196855  50.5737953  97.6423993
  18.8064720  50.8732124  98.0489185  20.1155849  50.1793642  98.3598475
  21.7705432  60.5695710  99.5758257  21.7281611  60.7956557  98.6466789
  22.6868131  60.3359085  99.7244059  25.2171066  51.0379778 106.4738887
  25.5720454  51.2651251 107.3333352  25.8643197  51.3698155 105.8516142
  19.1110929  48.1456309 103.2585228  19.7510309  48.0045068 102.5608191
  18.2788460  47.8590822 102.8823830  30.9738183  56.2274741 102.1899487
  31.4074689  56.1350030 103.0382541  31.6869763  56.2032241 101.5519503
  19.8871233  57.4458739  99.3720220  20.6811832  56.9509059  99.1702795
  19.1762926  56.9176602  99.0087926  24.7066078  59.8276835 103.7232588
  24.7603100  60.3967771 104.4910304  23.8380859  59.9978720 103.3586625
  16.1953997  51.5901821  95.4479973  15.2651585  51.5286276  95.6649935
  16.2911469  51.0677774  94.6516614  16.1139546  48.1156634  98.0358215
  16.3746363  49.0301967  97.9267375  16.9356718  47.6481076  98.1854827
  17.5864471  49.5294391 105.2057039  18.2587524  49.3211753 104.5569688
  16.7594258  49.3316477 104.7662271  31.8353732  56.2698441 104.7232373
  32.0289622  57.1744252 104.9691648  31.7354350  55.8105860 105.5570958
  23.4890043  46.1556332 107.2222700  22.8417958  46.8546282 107.1287176
  24.2591058  46.5892476 107.5898948  26.8968841  56.4205184 110.2973253
  26.7454347  56.1915736 109.3803337  26.8873520  57.3775785 110.3104598
  23.6654177  53.9937097 105.2819520  24.5946237  54.1448256 105.1088487
  23.2445207  54.0821118 104.4268166  22.4642509  58.0187761 103.0518057
  22.3253595  57.6506546 103.9243995  21.6757105  58.5335401 102.8802015
  23.0590661  63.1196858  94.3943594  23.2342417  62.6484901  95.2089216
  22.3723449  63.7462624  94.6224855  24.0147724  57.3969364 100.4406895
  23.6797557  57.3570134 101.3364545  23.5151670  56.7314080  99.9677305
  17.9891968  52.8036994 105.9659476  17.8511766  52.0717233 106.5671015
  18.8996892  52.7145894 105.6843664  20.6174269  52.5156953 105.4543156
  21.3273887  51.8750145 105.4129774  20.5743577  52.7669848 106.3769337
  28.6061048  59.4524307 108.3749735  28.5473594  58.7683527 107.7080318
  29.0080566  60.1943297 107.9230361  19.3303203  49.5022171 107.2738795
  18.7940560  49.0512910 107.9260392  18.7419911  49.6368080 106.5309260
  17.6251746  66.2686220 101.1683454  17.8648345  66.9004745 101.8462473
  16.7820943  65.9174260 101.4548813  18.7405462  48.9610823  89.8365259
  17.8634928  48.8399623  89.4727506  19.2163215  48.1696901  89.5844148
  28.6078455  57.4163891 106.6063715  27.7205234  57.0789812 106.7290114
  29.1777006  56.6846922 106.8432480  10.2607602  53.7487982  99.9306766
  10.9478642  53.4349712  99.3427781  10.1055731  54.6529347  99.6574018
  15.0642324  48.6378179 104.3591790  14.9800513  48.0303848 103.6242200
  14.2425031  49.1287197 104.3601286  22.1379608  62.0765343 103.5724958
  22.0649780  62.8820314 104.0844262  21.6957001  62.2757309 102.7472979
  21.9269388  61.3137113  97.0827779  21.1436910  61.8558793  97.1766004
  22.6262133  61.8311093  97.4822021  25.2366038  47.1231742  99.7261985
  25.7334738  46.3701705  99.4063055  24.4653020  47.1596059  99.1605194
  24.5978292  61.9752177 105.7283117  25.3106264  62.6099642 105.6559018
  24.1068320  62.0716043 104.9123118  26.3195819  55.8803430  97.3000408
  25.3852097  56.0004892  97.1305113  26.4972487  54.9775896  97.0360418
  21.8201007  49.2649125  99.4533669  21.4498794  48.7120166 100.1414575
  22.3160099  48.6607259  98.9008670  19.6490205  59.7246620 106.5488687
  20.3499665  60.3583103 106.7018082  19.1785320  60.0661352 105.7884327
  27.6785033  44.0901336 101.8741344  26.7648113  44.3205563 102.0423551
  28.1078134  44.1739780 102.7255376  27.4491491  52.2791228 104.3741238
  26.7962942  52.5267135 103.7193691  27.8271871  51.4655366 104.0403715
  24.4098665  62.3150921  98.4769408  24.5921060  61.4972577  98.9397160
  25.2331651  62.5318613  98.0394298  24.7440831  61.2419106  95.7384457
  25.2728597  60.7311561  95.1254619  25.0069050  60.9261636  96.6029990
  23.4979064  53.0211039 110.8607275  22.8219701  52.9205168 111.5309650
  24.3206698  52.8650253 111.3243272  15.2457923  59.2582975 103.4819790
  15.8311360  58.5126663 103.6147694  15.0482762  59.5686932 104.3656454
  18.0996579  62.2934223  98.4982232  17.4306954  62.7780350  98.0146273
  17.9609448  62.5403443  99.4125611   9.8375578  51.8288576 102.2024233
   9.8759678  51.2952166 102.9961351   9.3315871  51.3023781 101.5835210
  22.2401847  64.3277966 105.0964891  22.7920155  64.4909588 105.8613976
  22.5808041  64.9182404 104.4244916  17.2166340  46.6753116 105.6986776
  17.2807667  47.5367947 105.2864173  17.1533461  46.0627118 104.9659134
  27.0912722  59.1539224 110.9513545  27.6352626  59.7669182 110.4568500
  26.5099566  59.7118802 111.4680558  13.4684156  50.5552678  95.2778165
  13.7637597  49.6463356  95.2245218  12.5672192  50.5340417  94.9559167
  25.3770235  62.2759942 102.0828573  25.2521374  61.4749682 101.5739519
  26.0349326  62.7706135 101.5942543  16.9978403  48.6308674 101.2605713
  16.2764988  49.2444642 101.1213187  17.7871659  49.1666439 101.1822359
  19.8004716  45.9663101 107.5346365  20.3239118  46.2125397 108.2972674
  19.5817050  46.7983136 107.1149502  15.1971997  48.2366775  95.4017490
  14.8684703  47.3564154  95.2192596  15.5511368  48.1814444  96.2893879
  24.4451576  59.8721678  99.9112475  24.2976539  58.9438386 100.0920045
  25.2705070  59.8941769  99.4269551  18.3113820  48.5239745  95.7692967
  18.6509893  49.0525667  95.0471576  18.7585941  48.8620151  96.5451534
  28.0485698  60.6950237 100.9977348  28.9732246  60.4893098 100.8601799
  27.8801001  60.4466638 101.9066690  21.0057261  46.9076796 105.2196036
  20.6654082  46.1084609 105.6216715  20.2996268  47.2078507 104.6472869
  21.6573733  43.9926108 103.6723359  22.4799802  43.5186587 103.5502249
  21.9011797  44.7716592 104.1722045  20.2981968  47.0214367  93.9686260
  21.0190330  47.3995620  93.4649977  19.6747272  47.7403244  94.0721238
  24.4413091  47.7259516  94.9044593  24.6576705  48.6084154  94.6033421
  23.9607158  47.3345729  94.1750235  19.1812312  50.6845229 101.4815337
  19.0356893  50.9985532 102.3739619  18.7037516  51.3030129 100.9286236
  21.0408695  47.6747777 101.5296227  21.0270264  46.7788870 101.1928525
  21.7581123  47.6818441 102.1634513  22.8934825  48.1085117 103.5749354
  22.6352603  49.0302188 103.5733685  22.3619866  47.7115552 104.2649818
  27.8381014  61.2135904  96.3539440  28.0117892  60.6482327  95.6013292
  28.3309905  62.0136799  96.1718929  13.6557974  53.2250573 104.4202998
  13.1111442  54.0010381 104.5523273  14.5337324  53.5721378 104.2622120
  20.4445591  46.5562157  96.7983797  20.5661502  45.6278803  96.9974684
  20.1547633  46.5700843  95.8862112  23.3136781  44.2417068  99.9350517
  23.3358478  44.3056401  98.9802496  23.7304840  43.4021576 100.1291023
  14.4423996  52.3520470 107.3133155  13.7005732  52.5003105 107.8997786
  14.1216740  52.6128735 106.4499905  22.3867659  61.8936448 107.1113545
  22.6954785  61.6485595 107.9836245  23.1843141  62.0983086 106.6232415
  22.4088271  64.0474358  99.3418922  21.9693261  63.5550736 100.0351778
  23.1596388  63.5047325  99.1010997  14.8880610  60.2385898  99.3443550
  15.7138629  59.9389670  98.9642193  14.5374662  59.4693521  99.7933339
  19.8562143  59.5912367 101.4141223  19.2342152  58.9283072 101.1143451
  20.5267010  59.6173499 100.7314871  13.0889215  58.1572225 100.3032483
  12.2521123  57.7294399 100.1216485  13.0612860  58.3504668 101.2403275
  30.4141516  58.6135278 110.2874867  29.6237060  58.5959417 109.7479366
  30.1774870  59.1523572 111.0423903  30.5339391  55.4627744 107.6007595
  30.5837396  55.2977752 108.5423118  30.4253314  54.5955003 107.2105476
  19.4175650  58.1416290  94.8899684  19.5663770  58.8251754  94.2366357
  20.2242093  58.1221380  95.4049140  27.8243153  51.4458672 108.9166902
  28.7253016  51.3065137 108.6250900  27.8991128  51.6113127 109.8565079
  22.1585959  48.8225527 107.7620088  21.2889268  49.1159093 107.4902677
  22.3945439  49.4065972 108.4827352  32.0357588  57.8824686 107.8449617
  31.7442396  58.2454666 108.6813078  31.4229719  57.1691694 107.6662949
  30.2844776  53.0057300 106.3129675  30.7598898  53.1984947 105.5048526
  29.3610341  53.0616486 106.0673058  17.1728283  54.1681468  95.8960753
  16.9274325  53.2643798  96.0940963  17.3424197  54.1698618  94.9540231
  24.8624993  45.0405144 105.2785509  25.3806936  45.7766171 104.9531997
  24.5080125  45.3469137 106.1132268  16.4423930  49.9009825  93.3946914
  15.7493175  49.9754180  92.7386950  16.1975682  49.1370169  93.9168431
  25.1137587  41.4605427 100.7986405  25.3939340  40.7928616 101.4246832
  25.8988194  41.6534522 100.2861069  22.9171055  60.6364420  92.3611431
  22.3445022  61.2554608  91.9081903  23.4903849  61.1863782  92.8951353
  28.9846445  49.8823061 104.5457980  29.9363868  49.9821158 104.5670204
  28.8149895  49.0901329 105.0556065  27.0060825  46.9678644 104.7317381
  26.4110757  47.2483656 104.0363870  26.7210521  47.4572545 105.5034122
  26.1368315  60.9201571  93.4920014  27.0698988  60.8547132  93.6952889
  26.0491528  61.7557837  93.0334546  28.7656332  60.2367441  90.4523961
  28.6869963  59.9027305  91.3459719  29.5865998  60.7289209  90.4515434
  31.4634523  53.1029180 103.6600280  31.4310843  52.1645181 103.8459964
  32.0735146  53.1813217 102.9266105  23.3017854  51.9725233  89.7027484
  24.2476958  51.8431441  89.7715902  22.9232099  51.2339895  90.1796912
  31.6129011  49.8940224 103.7058563  31.0968060  49.1098680 103.5188492
  32.4968960  49.5658940 103.8705083  29.2739738  43.6381239  99.6654376
  29.0764559  43.3296327 100.5497708  29.8839444  44.3642878  99.7952306
  35.3626370  52.3053050 103.3980768  34.6359533  52.1709015 102.7897259
  34.9473657  52.6129878 104.2037486  23.1856546  56.0242979 111.1628141
  24.1059556  56.2021578 111.3568187  23.1506129  55.0799025 111.0107840
  21.4860771  49.8975210  89.6382369  20.5792226  49.6008322  89.7145083
  21.7636752  49.6005028  88.7716655  12.4038711  51.2181573 100.0881416
  12.0841496  50.3646881  99.7955790  11.8572139  51.4330151 100.8439383
  16.1818619  53.9344014 103.8050922  16.4004629  54.8661122 103.8238956
  16.5944393  53.5751988 104.5905726  23.1022837  44.4412099  95.7926610
  22.2923565  44.0959184  96.1681857  23.7907253  44.1319643  96.3814222
  25.0313385  43.5190146  97.4150907  25.5844423  43.9385600  98.0740930
  25.2683471  42.5925894  97.4573863  20.2559555  46.7562145  89.7794348
  21.1178719  47.0817043  90.0390166  20.4409900  45.9693641  89.2667414
  12.2726971  54.8384484 102.0574537  11.5790443  54.4238437 101.5444492
  13.0199962  54.8805021 101.4607956  28.4092192  45.6290671  96.9229571
  27.8290861  46.2875475  96.5407624  28.1428125  44.8068016  96.5116989
  26.8595758  45.0295729  99.1250892  27.3595537  45.1412264  98.3165210
  27.5031366  44.7256782  99.7651700  20.9177754  52.9374359 112.0118733
  20.4344836  53.7374719 112.2182622  21.0038693  52.9482303 111.0586177
  14.1863714  54.7702738  99.9340552  14.1634402  54.8690426  98.9822435
  14.4964350  55.6167889 100.2557718  16.8451092  56.8278893 104.0487166
  17.7994345  56.7962836 103.9817098  16.6463615  56.3669517 104.8637392
  17.4350474  55.3980009 106.6157964  18.2543363  55.8924088 106.6392801
  17.7087281  54.4811977 106.5875532  27.1917070  47.7890762  95.9785920
  26.3042925  48.0740412  95.7606114  27.6071059  47.6284525  95.1313196
  15.2001320  62.3698513 101.0657364  15.0655788  61.6098914 100.4995362
  14.7833383  63.0939413 100.5986153  27.1658094  53.3045298  96.1936210
  27.1093295  53.7613849  95.3543842  27.7186436  52.5435982  96.0159052
  18.3570446  63.2667830 101.2775807  18.2402830  64.2113262 101.1754497
  17.5362893  62.9641391 101.6661606  27.8992873  54.4950079  93.4888739
  27.8441677  54.3294350  92.5477183  27.2738928  55.2026112  93.6450929
  12.6885388  49.7318143 107.3150161  13.3344252  49.2217097 107.8037386
  12.4802539  50.4686825 107.8893586  25.2138780  56.7998991 112.8142302
  26.0829940  56.9739643 112.4528937  24.7345532  57.6193408 112.6918031
  21.2088998  43.9958188  93.0674057  21.1967668  44.9400028  93.2242328
  22.1012420  43.8128333  92.7733519  19.3824960  63.9196092 104.4931735
  20.2852207  63.9519702 104.8098230  19.1562330  62.9896543 104.5078071
  21.1378562  62.6727078 101.1541814  20.1874193  62.6728940 101.0406186
  21.4411049  61.9259813 100.6377849  25.0241118  40.5900964  97.3219994
  24.2573514  40.0359451  97.4676676  25.4351823  40.6622833  98.1834146
  27.0872210  71.8101713 100.9830212  27.8793502  71.4692537 100.5676512
  27.3268860  71.9196688 101.9032366  26.6559184  68.1795494 100.9244778
  26.7851565  68.4329973 101.8384189  25.9756635  68.7723202 100.6049433
  33.3175901  66.0220610 109.6796619  32.5409235  66.5814530 109.6699483
  33.9566464  66.5077393 110.2011489  31.5722273  68.8306063 109.2414586
  32.3136958  69.3691107 108.9649409  30.8659259  69.4572352 109.3986138
  36.5508128  63.5712179 106.8701478  36.3069060  64.3254239 106.3335754
  36.8268059  63.9497526 107.7048725  30.3083637  65.9845711 110.0429896
  29.6782298  66.6661992 110.2765293  30.2019725  65.8728793 109.0983034
  25.6028609  65.6517507 100.9695820  24.8127663  65.9075036 100.4935931
  26.0939857  66.4665845 101.0747861  23.8866312  65.9047998 103.4010811
  24.1374351  66.7895007 103.6668387  24.4225861  65.7252599 102.6285903
  29.5864380  60.2866477 112.4055147  29.1931325  59.7332675 113.0802791
  30.4030520  60.5977055 112.7961664  28.3621322  74.8416091  98.3991470
  28.5387951  75.7634056  98.2112454  29.1578156  74.5274511  98.8285850
  32.5032341  61.7024356 109.9975403  33.2442054  62.3031509 109.9179866
  32.7350264  60.9601994 109.4393446  27.6473679  66.8880723 108.2753633
  27.5327194  65.9865981 108.5760732  26.7918197  67.1344420 107.9238450
  33.2819809  72.6245393 108.7446043  33.8148146  71.8633681 108.5145351
  32.7533890  72.3319045 109.4870198  24.5175354  70.0538989  97.0928287
  25.3550576  70.4635998  96.8761995  24.6953622  69.1138432  97.0628481
  24.5401525  67.3929705  97.7639021  24.3425925  66.7999065  97.0390087
  23.9848189  67.0881915  98.4814960  27.0347751  66.9193739  95.4479973
  26.1045339  66.8578194  95.6649935  27.1305223  66.3969691  94.6516614
  26.9533300  63.4448551  98.0358215  27.2140118  64.3593885  97.9267375
  27.7750473  62.9772994  98.1854827  28.4258226  64.8586309 105.2057039
  29.0981279  64.6503671 104.5569688  27.5988012  64.6608395 104.7662271
  34.3283798  61.4848250 107.2222700  33.6811713  62.1838199 107.1287176
  35.0984813  61.9184393 107.5898948  28.8285723  68.1328912 105.9659476
  28.6905521  67.4009150 106.5671015  29.7390646  68.0437812 105.6843664
  30.1696957  64.8314089 107.2738795  29.6334314  64.3804827 107.9260392
  29.5813666  64.9659998 106.5309260  28.4645501  81.5978138 101.1683454
  28.7042099  82.2296662 101.8462473  27.6214697  81.2466178 101.4548813
  29.5799216  64.2902740  89.8365259  28.7028683  64.1691541  89.4727506
  30.0556969  63.4988819  89.5844148  21.1001357  69.0779900  99.9306766
  21.7872396  68.7641630  99.3427781  20.9449485  69.9821265  99.6574018
  25.9036079  63.9670097 104.3591790  25.8194267  63.3595766 103.6242200
  25.0818785  64.4579115 104.3601286  34.3372819  68.3502957 110.8607275
  33.6613456  68.2497086 111.5309650  35.1600453  68.1942170 111.3243272
  26.0851678  74.5874893 103.4819790  26.6705115  73.8418581 103.6147694
  25.8876516  74.8978850 104.3656454  20.6769333  67.1580493 102.2024233
  20.7153432  66.6244084 102.9961351  20.1709625  66.6315699 101.5835210
  27.5312367  64.0768166 109.3459810  28.1584406  63.6945244 109.9597334
  26.6740286  63.8582368 109.7115502  24.3077910  65.8844595  95.2778165
  24.6031351  64.9755274  95.2245218  23.4065946  65.8632335  94.9559167
  30.6398471  61.2955019 107.5346365  31.1632873  61.5417315 108.2972674
  30.4210804  62.1275053 107.1149502  26.0365752  63.5658693  95.4017490
  25.7078458  62.6856072  95.2192596  26.3905123  63.5106362  96.2893879
  24.4951729  68.5542491 104.4202998  23.9505197  69.3302299 104.5523273
  25.3731078  68.9013296 104.2622120  25.2817750  67.6812387 107.3133155
  24.5399486  67.8295023 107.8997786  24.9610495  67.9420653 106.4499905
  25.7274364  75.5677816  99.3443550  26.5532384  75.2681588  98.9642193
  25.3768416  74.7985439  99.7933339  23.9282969  73.4864143 100.3032483
  23.0914877  73.0586317 100.1216485  23.9006615  73.6796586 101.2403275
  30.7680425  63.3986072 111.0073729  30.8168580  64.2748195 110.6251499
  31.3102939  62.8563465 110.4345373  32.9979713  64.1517445 107.7620088
  32.1283023  64.4451011 107.4902677  33.2339194  64.7357890 108.4827352
  35.7018747  60.3697062 105.2785509  36.2200691  61.1058089 104.9531997
  35.3473880  60.6761055 106.1132268  27.2817685  65.2301743  93.3946914
  26.5886930  65.3046098  92.7386950  27.0369437  64.4662087  93.9168431
  34.0250301  71.3534897 111.1628141  34.9453310  71.5313496 111.3568187
  33.9899884  70.4090942 111.0107840  23.2432466  66.5473491 100.0881416
  22.9235250  65.6938799  99.7955790  22.6965894  66.7622069 100.8439383
  27.0212373  69.2635932 103.8050922  27.2398383  70.1953039 103.8238956
  27.4338147  68.9043906 104.5905726  31.8940239  64.8369137 113.1953671
  31.7936965  65.7863494 113.1265762  31.6761781  64.5087376 112.3229741
  31.0953310  62.0854062  89.7794348  31.9572474  62.4108961  90.0390166
  31.2803654  61.2985558  89.2667414  23.1120726  70.1676402 102.0574537
  22.4184197  69.7530355 101.5444492  23.8593717  70.2096939 101.4607956
  31.7571509  68.2666276 112.0118733  31.2738590  69.0666636 112.2182622
  31.8432448  68.2774221 111.0586177  25.0257468  70.0994656  99.9340552
  25.0028156  70.1982343  98.9822435  25.3358105  70.9459807 100.2557718
  27.6844846  72.1570811 104.0487166  28.6388100  72.1254753 103.9817098
  27.4857370  71.6961435 104.8637392  28.2744228  70.7271927 106.6157964
  29.0937117  71.2216006 106.6392801  28.5481036  69.8103895 106.5875532
  26.0395075  77.6990430 101.0657364  25.9049543  76.9390831 100.4995362
  25.6227137  78.4231330 100.5986153  29.1964201  78.5959747 101.2775807
  29.0796585  79.5405180 101.1754497  28.3756647  78.2933309 101.6661606
  23.5279142  65.0610061 107.3150161  24.1738006  64.5509015 107.8037386
  23.3196294  65.7978743 107.8893586  36.0532535  72.1290908 112.8142302
  36.9223694  72.3031561 112.4528937  35.5739286  72.9485325 112.6918031
  30.2218715  79.2488009 104.4931735  31.1245962  79.2811620 104.8098230
  29.9956085  78.3188460 104.5078071  27.8676633  62.2077678 111.4125175
  28.7308095  61.8514483 111.6228500  27.2942044  61.8691573 112.1000580
  47.7125010  83.8379534 102.2187576  48.3503420  83.7186282 101.5150916
  47.5945853  84.7860378 102.2775529  44.5214717  83.7906962 102.1549101
  44.1833228  83.6748027 101.2669636  45.3904485  83.3898128 102.1350107
  40.3801532  85.6442439  98.1445992  39.8166398  85.5532376  97.3762280
  40.2653927  84.8242343  98.6248485  45.0034500  84.9441814 108.1135307
  44.9923140  84.5494612 107.2415810  45.1655139  84.2107887 108.7069078
  37.9265964  87.1393630 100.9830212  38.7187256  86.7984455 100.5676512
  38.1662614  87.2488605 101.9032366  45.9601091  89.3113407  93.4560457
  45.3089071  89.8967487  93.0694471  46.7545454  89.8419601  93.5155494
  39.8856718  86.4002544  93.8547591  40.6587594  85.8531531  93.7160467
  40.2382117  87.2646793  94.0662053  41.7241761  87.7278926 107.0614491
  41.4331627  88.6324557 106.9461157  42.3598745  87.7695454 107.7758560
  42.6497968  85.1055774 103.6515850  43.2461540  84.8811797 102.9372813
  42.7072939  84.3640520 104.2541298  42.2222996  82.5595210  91.4866041
  42.4748517  82.0376731  90.7249504  41.2847555  82.3961355  91.5892725
  47.2666279  81.5630988  99.2940784  48.0529368  81.1450411  98.9431201
  47.5304983  82.4677080  99.4622433  47.4376356  87.0003838  93.9929441
  46.8022189  87.0738465  94.7050346  47.1073763  87.5897437  93.3148520
  52.6674706  81.5006221 100.1973763  53.3999878  80.9305438 100.4311592
  51.9114062  81.1127822 100.6380268  41.9419285  84.4623316  93.6890416
  41.8255543  83.7868219  94.3571500  42.0521545  83.9755690  92.8722569
  44.2850826  83.9233463  97.3937105  43.9209033  83.3964084  98.1050027
  45.1417942  83.5331932  97.2203591  50.1900126  75.2127795 104.6568372
  49.8583451  76.0823206 104.4329587  49.5945740  74.8964079 105.3362402
  43.9256313  78.9523363  92.3898454  44.0930715  79.8203599  92.7568925
  43.7353482  79.1150644  91.4659743  46.6831646  87.4140341 104.0564284
  46.3832369  88.3165380 103.9480091  46.3382705  87.1472525 104.9085437
  40.1344127  83.8654138 100.0900989  39.2094624  83.7330352 100.2978680
  40.3828541  84.6448358 100.5870931  50.0828790  79.9322882 101.7361722
  49.1745667  79.8638290 101.4420483  50.0316385  80.4094827 102.5643547
  43.9045534  81.4081020  93.3745121  43.7845159  81.8538071  94.2130601
  43.2098122  81.7566338  92.8158659  37.4952938  83.5087412 100.9244778
  37.6245320  83.7621891 101.8384189  36.8150390  84.1015120 100.6049433
  41.6652426  94.1784662  97.0235252  41.5876455  95.1292487  97.1023733
  41.0614069  93.8330534  97.6810178  44.1569655  81.3512527 109.6796619
  43.3802990  81.9106447 109.6699483  44.7960219  81.8369310 110.2011489
  51.9490436  78.1339320 103.5139595  51.3064816  78.4271853 102.8679390
  51.4445365  78.0192240 104.3192792  49.6030600  81.8802493  94.2025455
  50.5148456  82.1129880  94.0273152  49.0940247  82.4639537  93.6400533
  42.4116028  84.1597981 109.2414586  43.1530712  84.6983025 108.9649409
  41.7053013  84.7864269 109.3986138  47.8871367  86.3027121 107.8386747
  48.2954723  85.8609532 107.0941380  47.1648629  85.7279749 108.0920940
  44.2402437  81.2399728 105.2120304  45.0863633  81.6639141 105.3554953
  44.1801075  80.5833352 105.9058867  48.2100182  86.8628312 101.5939036
  47.5809045  87.0274026 100.8915104  47.8225844  87.2769921 102.3650000
  52.0889414  87.7982750  98.9483400  51.4040452  88.1781651  98.3980433
  52.1733263  88.4078076  99.6815348  47.3901883  78.9004096 106.8701478
  47.1462815  79.6546157 106.3335754  47.6661813  79.2789444 107.7048725
  49.3440346  85.4442709 105.5478744  49.5557241  86.0874468 104.8713125
  49.2970094  84.6105025 105.0800674  43.7628144  86.6002720  98.8589121
  44.2266489  86.8790423  98.0693744  43.4984942  85.6986164  98.6762212
  40.6552225  86.1474201 101.7968885  41.2253582  86.5761470 101.1586369
  41.2460337  85.8656786 102.4953070  42.6997030  82.7225872  95.6678686
  43.4021073  83.1746916  96.1352613  42.3677659  82.0809691  96.2958580
  41.1477392  81.3137629 110.0429896  40.5176052  81.9953910 110.2765293
  41.0413479  81.2020710 109.0983034  50.4586174  88.3214664 103.7201101
  51.2803617  87.9194851 103.4383782  50.4548576  88.2182898 104.6717217
  38.3937109  81.3454004  97.9279297  37.5968273  81.4572698  98.4462792
  38.1662702  81.6840656  97.0620187  44.2242777  87.8698707 105.8761811
  44.2887209  88.3319115 106.7119983  43.5153701  87.2396072 106.0044121
  58.5492167  84.6653412 100.0686072  57.7955875  84.0960811  99.9130077
  58.6839708  84.6316077 101.0156707  43.9390795  89.5366815  95.7440792
  43.8036469  90.3818350  96.1725639  44.4800607  89.7386092  94.9806725
  37.3920192  87.0542253  96.3168717  37.9044713  87.8485503  96.4674281
  38.0442905  86.3568543  96.2502318  39.2015077  90.1708009  98.3991470
  39.3781705  91.0925974  98.2112454  39.9971910  89.8566428  98.8285850
  43.3426095  77.0316274 109.9975403  44.0835809  77.6323427 109.9179866
  43.5744018  76.2893912 109.4393446  38.4867433  82.2172641 108.2753633
  38.3720948  81.3157898 108.5760732  37.6311951  82.4636338 107.9238450
  45.5659271  90.1590381 109.8741134  45.1223125  89.3726760 109.5562038
  46.2276485  90.3469532 109.2085025  40.3246392  91.6886183 104.4001812
  40.8753817  91.5603246 103.6278806  39.4857868  91.9881072 104.0496705
  47.6640509  90.4393181 107.9022535  47.6458984  91.2602062 107.4102804
  48.5860429  90.3147256 108.1272676  44.1213563  87.9537311 108.7446043
  44.6541900  87.1925599 108.5145351  43.5927644  87.6610963 109.4870198
  35.3569109  85.3830907  97.0928287  36.1944331  85.7927915  96.8761995
  35.5347377  84.4430349  97.0628481  47.2533541  83.0505988  92.7812120
  46.7380164  83.8210592  93.0200508  46.9810849  82.3771124  93.4045182
  52.2267815  85.8038342  94.7165294  51.4497258  85.4649502  94.2720456
  52.9059296  85.8090966  94.0420259  47.0419844  80.9233080  94.6071901
  46.7369980  81.2379229  95.4582045  47.9950286  81.0014500  94.6499234
  45.4866276  87.0823303  96.2564855  44.9587638  86.3476063  95.9438093
  44.9853779  87.8597980  96.0104824  50.4659122  85.2772324 101.3731902
  49.8082796  85.9671585 101.4612030  51.2699521  85.6668756 101.7165888
  49.2764581  83.6316696  99.4235843  49.7896463  84.2646688  99.9257553
  49.9265805  83.0317892  99.0579203  40.5454591  79.7747430  92.6367352
  39.7091903  80.1122117  92.9576627  40.4059360  79.6396410  91.6994489
  43.6318876  84.9003513  89.2599828  42.7245938  84.6692767  89.4590977
  44.1289908  84.1041133  89.4473810  46.5386955  93.6101021  92.1796515
  45.8648654  93.9132717  92.7881472  46.9252777  94.4130101  91.8301972
  46.5380459  82.5057568  96.7996864  47.2852278  83.0178965  96.4903986
  46.8072049  82.1841620  97.6601258  44.8107110  85.0016108  93.7823819
  43.9018329  84.7175141  93.8796288  44.8402193  85.4215187  92.9227125
  50.0426377  88.6122698  97.5514986  49.5888704  87.7713608  97.6080177
  49.4120344  89.2484096  97.8889766  48.9859297  79.5414684  98.7815654
  48.2482053  79.0292070  99.1125896  49.2386070  79.1015065  97.9698930
  48.4859316  90.4499194  98.4864804  48.7782291  91.0104252  97.7677170
  48.9957937  90.7427755  99.2417963  44.5083197  86.5424852  91.1211897
  44.0702627  85.8260711  90.6617534  45.2493638  86.7700967  90.5596989
  41.2984364  81.2321789  97.6423993  40.4852229  81.5315959  98.0489185
  41.7943358  80.8377477  98.3598475  43.4492941  91.2279546  99.5758257
  43.4069120  91.4540392  98.6466789  44.3655640  90.9942920  99.7244059
  46.8958575  81.6963613 106.4738887  47.2507963  81.9235086 107.3333352
  47.5430706  82.0281990 105.8516142  52.6256312  84.8182049  97.1788216
  52.4874211  85.0083645  96.2509405  52.2692531  85.5801432  97.6356267
  52.6525692  86.8858576 102.1899487  53.0862198  86.7933865 103.0382541
  53.3657272  86.8616076 101.5519503  41.5658742  88.1042575  99.3720220
  42.3599341  87.6092895  99.1702795  40.8550435  87.5760438  99.0087926
  46.3853587  90.4860670 103.7232588  46.4390609  91.0551606 104.4910304
  45.5168368  90.6562555 103.3586625  37.8741506  82.2485656  95.4479973
  36.9439094  82.1870112  95.6649935  37.9698978  81.7261609  94.6516614
  53.5141241  86.9282277 104.7232373  53.7077131  87.8328087 104.9691648
  53.4141859  86.4689696 105.5570958  48.5756350  87.0789019 110.2973253
  48.4241856  86.8499571 109.3803337  48.5661029  88.0359621 110.3104598
  45.3441686  84.6520932 105.2819520  46.2733746  84.8032092 105.1088487
  44.9232716  84.7404953 104.4268166  44.1430018  88.6771597 103.0518057
  44.0041104  88.3090381 103.9243995  43.3544614  89.1919236 102.8802015
  44.7378170  93.7780693  94.3943594  44.9129926  93.3068736  95.2089216
  44.0510958  94.4046459  94.6224855  45.6935233  88.0553199 100.4406895
  45.3585066  88.0153969 101.3364545  45.1939179  87.3897915  99.9677305
  39.6679477  83.4620829 105.9659476  39.5299275  82.7301068 106.5671015
  40.5784401  83.3729729 105.6843664  48.6294425  85.4009234  90.7143955
  48.0123596  84.6756062  90.6177007  48.1610913  86.1618594  90.3711029
  42.2961778  83.1740789 105.4543156  43.0061396  82.5333981 105.4129774
  42.2531086  83.4253683 106.3769337  50.2848557  90.1108142 108.3749735
  50.2261103  89.4267362 107.7080318  50.6868075  90.8527132 107.9230361
  41.0090712  80.1606007 107.2738795  40.4728069  79.7096745 107.9260392
  40.4207420  80.2951915 106.5309260  39.3039255  96.9270056 101.1683454
  39.5435854  97.5588580 101.8462473  38.4608452  96.5758096 101.4548813
  40.4192971  79.6194658  89.8365259  39.5422437  79.4983459  89.4727506
  40.8950724  78.8280736  89.5844148  50.2865964  88.0747726 106.6063715
  49.3992743  87.7373648 106.7290114  50.8564515  87.3430757 106.8432480
  31.9395111  84.4071818  99.9306766  32.6266151  84.0933548  99.3427781
  31.7843240  85.3113182  99.6574018  43.8167117  92.7349178 103.5724958
  43.7437289  93.5404150 104.0844262  43.3744510  92.9341144 102.7472979
  43.6056897  91.9720948  97.0827779  42.8224419  92.5142628  97.1766004
  44.3049642  92.4894928  97.4822021  54.7683304  83.4855943 101.3680276
  54.7573181  84.3680659 100.9974209  53.9000684  83.1327494 101.1734813
  46.2765801  92.6336012 105.7283117  46.9893773  93.2683477 105.6559018
  45.7855829  92.7299878 104.9123118  47.9983328  86.5387265  97.3000408
  47.0639606  86.6588727  97.1305113  48.1759996  85.6359732  97.0360418
  51.3855879  82.3804584  97.8350442  51.8516331  83.2132576  97.7610745
  51.8363380  81.9149566  98.5395701  41.3277714  90.3830456 106.5488687
  42.0287174  91.0166939 106.7018082  40.8572829  90.7245187 105.7884327
  49.4532110  88.7248406  94.8336594  49.7291954  88.6105000  95.7430469
  48.5836609  88.3265890  94.7948768  49.1279000  82.9375063 104.3741238
  48.4750451  83.1850971 103.7193691  49.5059380  82.1239201 104.0403715
  46.0886174  92.9734756  98.4769408  46.2708569  92.1556412  98.9397160
  46.9119160  93.1902449  98.0394298  46.4228340  91.9002942  95.7384457
  46.9516106  91.3895396  95.1254619  46.6856559  91.5845472  96.6029990
  45.1766573  83.6794874 110.8607275  44.5007210  83.5789004 111.5309650
  45.9994207  83.5234088 111.3243272  36.9245432  89.9166811 103.4819790
  37.5098869  89.1710499 103.6147694  36.7270271  90.2270768 104.3656454
  39.7784088  92.9518058  98.4982232  39.1094463  93.4364186  98.0146273
  39.6396957  93.1987279  99.4125611  31.5163087  82.4872411 102.2024233
  31.5547187  81.9536002 102.9961351  31.0103380  81.9607617 101.5835210
  43.9189356  94.9861802 105.0964891  44.4707664  95.1493423 105.8613976
  44.2595550  95.5766240 104.4244916  38.3706122  79.4060084 109.3459810
  38.9978161  79.0237161 109.9597334  37.5134041  79.1874286 109.7115502
  48.7700231  89.8123059 110.9513545  49.3140135  90.4253017 110.4568500
  48.1887075  90.3702638 111.4680558  47.0557743  92.9343777 102.0828573
  46.9308883  92.1333517 101.5739519  47.7136835  93.4289971 101.5942543
  49.1192652  90.7352797 103.7108123  48.1722987  90.6158149 103.6386450
  49.4675425  89.8475295 103.7934385  46.1239085  90.5305514  99.9112475
  45.9764048  89.6022221 100.0920045  46.9492579  90.5525604  99.4269551
  39.9901329  79.1823581  95.7692967  40.3297402  79.7109502  95.0471576
  40.4373450  79.5203987  96.5451534  49.7273207  91.3534072 100.9977348
  50.6519754  91.1476934 100.8601799  49.5588510  91.1050473 101.9066690
  46.1200599  78.3843351  94.9044593  46.3364214  79.2667989  94.6033421
  45.6394667  77.9929565  94.1750235  49.5168523  91.8719740  96.3539440
  49.6905401  91.3066162  95.6013292  50.0097414  92.6720635  96.1718929
  35.3345483  83.8834409 104.4202998  34.7898951  84.6594217 104.5523273
  36.2124833  84.2305213 104.2622120  55.3707914  84.6356163  97.9729739
  55.8139060  83.8863488  97.5748863  54.4934425  84.6266299  97.5903471
  50.5043696  91.1886504  93.4536338  51.1994600  91.8093197  93.6723652
  50.8466846  90.3381855  93.7288716  36.1211505  83.0104305 107.3133155
  35.3793241  83.1586940 107.8997786  35.8004249  83.2712571 106.4499905
  52.4035119  88.6386210  94.9823669  52.9286443  88.9773482  94.2572989
  52.3157471  87.7033225  94.7986803  44.0655168  92.5520283 107.1113545
  44.3742294  92.3069430 107.9836245  44.8630650  92.7566922 106.6232415
  44.0875780  94.7058193  99.3418922  43.6480770  94.2134572 100.0351778
  44.8383897  94.1631161  99.1010997  36.5668119  90.8969734  99.3443550
  37.3926138  90.5973506  98.9642193  36.2162171  90.1277356  99.7933339
  41.5349652  90.2496202 101.4141223  40.9129661  89.5866907 101.1143451
  42.2054519  90.2757334 100.7314871  34.7676724  88.8156060 100.3032483
  33.9308632  88.3878235 100.1216485  34.7400369  89.0088504 101.2403275
  41.6074179  78.7277990 111.0073729  41.6562335  79.6040113 110.6251499
  42.1496693  78.1855383 110.4345373  52.0929025  89.2719113 110.2874867
  51.3024569  89.2543252 109.7479366  51.8562379  89.8107407 111.0423903
  52.2126900  86.1211580 107.6007595  52.2624905  85.9561587 108.5423118
  52.1040823  85.2538839 107.2105476  41.0963159  88.8000125  94.8899684
  41.2451279  89.4835590  94.2366357  41.9029602  88.7805215  95.4049140
  49.5030662  82.1042508 108.9166902  50.4040525  81.9648973 108.6250900
  49.5778637  82.2696963 109.8565079  43.8373468  79.4809362 107.7620088
  42.9676777  79.7742929 107.4902677  44.0732948  80.0649807 108.4827352
  53.7145097  88.5408521 107.8449617  53.4229905  88.9038502 108.6813078
  53.1017228  87.8275529 107.6662949  54.9140779  86.1061401 100.3652187
  55.7487670  86.5451205 100.5289747  55.0499908  85.6300054  99.5460433
  51.9632285  83.6641136 106.3129675  52.4386407  83.8568782 105.5048526
  51.0397850  83.7200322 106.0673058  38.8515792  84.8265303  95.8960753
  38.6061834  83.9227633  96.0940963  39.0211706  84.8282453  94.9540231
  44.5958564  91.2948256  92.3611431  44.0232531  91.9138443  91.9081903
  45.1691358  91.8447617  92.8951353  50.6633954  80.5406896 104.5457980
  51.6151377  80.6404994 104.5670204  50.4937404  79.7485164 105.0556065
  48.6848333  77.6262479 104.7317381  48.0898266  77.9067492 104.0363870
  48.3998030  78.1156380 105.5034122  47.8155824  91.5785406  93.4920014
  48.7486497  91.5130968  93.6952889  47.7279037  92.4141673  93.0334546
  50.4443841  90.8951276  90.4523961  50.3657472  90.5611140  91.3459719
  51.2653507  91.3873044  90.4515434  53.1422032  83.7613016 103.6600280
  53.1098352  82.8229016 103.8459964  53.7522655  83.8397052 102.9266105
  44.9805363  82.6309069  89.7027484  45.9264467  82.5015277  89.7715902
  44.6019608  81.8923730  90.1796912  53.2916520  80.5524059 103.7058563
  52.7755569  79.7682516 103.5188492  54.1756469  80.2242776 103.8705083
  58.9598582  84.8229022 102.8006317  59.6901970  84.5614311 103.3614020
  58.3505527  84.0857744 102.8408385  57.0413879  82.9636885 103.3980768
  56.3147042  82.8292850 102.7897259  56.6261166  83.2713714 104.2037486
  44.8644055  86.6826815 111.1628141  45.7847065  86.8605414 111.3568187
  44.8293638  85.7382860 111.0107840  43.1648280  80.5559045  89.6382369
  42.2579735  80.2592158  89.7145083  43.4424261  80.2588863  88.7716655
  37.8606128  84.5927849 103.8050922  38.0792138  85.5244957 103.8238956
  38.2731902  84.2335824 104.5905726  42.7333993  80.1661055 113.1953671
  42.6330720  81.1155412 113.1265762  42.5155535  79.8379294 112.3229741
  41.9347064  77.4145980  89.7794348  42.7966228  77.7400878  90.0390166
  42.1197409  76.6277476  89.2667414  33.9514480  85.4968320 102.0574537
  33.2577952  85.0822273 101.5444492  34.6987471  85.5388856 101.4607956
  42.5965263  83.5958194 112.0118733  42.1132345  84.3958554 112.2182622
  42.6826202  83.6066139 111.0586177  35.8651223  85.4286574  99.9340552
  35.8421911  85.5274261  98.9822435  36.1751859  86.2751724 100.2557718
  38.5238601  87.4862729 104.0487166  39.4781854  87.4546671 103.9817098
  38.3251124  87.0253352 104.8637392  39.1137983  86.0563845 106.6157964
  39.9330872  86.5507923 106.6392801  39.3874790  85.1395813 106.5875532
  52.2219115  78.4721118  99.6940259  52.9979505  78.9617570  99.9664876
  51.4967249  78.8979172 100.1512128  54.6591674  79.1848737 100.7514199
  55.2536165  78.9444473 100.0407508  54.7318257  78.4655868 101.3787736
  36.8788829  93.0282348 101.0657364  36.7443297  92.2682749 100.4995362
  36.4620892  93.7523248 100.5986153  48.0147792  88.2119272  90.0733940
  48.7183643  88.4169274  90.6891595  47.2910441  88.7796034  90.3383023
  48.8445603  83.9629133  96.1936210  48.7880804  84.4197684  95.3543842
  49.3973945  83.2019818  96.0159052  52.6550409  79.7518865  97.0186329
  52.3987343  79.3515500  97.8494537  52.0303277  80.4662659  96.8936468
  56.9662746  82.4914938  99.5257621  56.4062304  82.5608127 100.2989183
  56.3606250  82.3155923  98.8057117  40.0357955  93.9251665 101.2775807
  39.9190339  94.8697098 101.1754497  39.2150402  93.6225227 101.6661606
  49.9234490  88.6501801  92.1232400  50.7580094  88.2182999  91.9409874
  49.7618833  88.4783815  93.0509294  49.5780382  85.1533914  93.4888739
  49.5229186  84.9878186  92.5477183  48.9526437  85.8609947  93.6450929
  34.3672897  80.3901979 107.3150161  35.0131761  79.8800933 107.8037386
  34.1590048  81.1270660 107.8893586  46.8926289  87.4582826 112.8142302
  47.7617449  87.6323478 112.4528937  46.4133041  88.2777243 112.6918031
  41.0612469  94.5779927 104.4931735  41.9639716  94.6103537 104.8098230
  40.8349839  93.6480378 104.5078071  42.8166071  93.3310914 101.1541814
  41.8661702  93.3312775 101.0406186  43.1198558  92.5843648 100.6377849
  58.5518765  99.1671452 102.2187576  59.1897175  99.0478199 101.5150916
  58.4339608 100.1152296 102.2775529  55.3608471  99.1198880 102.1549101
  55.0226983  99.0039945 101.2669636  56.2298239  98.7190045 102.1350107
  51.2195287 100.9734357  98.1445992  50.6560152 100.8824293  97.3762280
  51.1047682 100.1534261  98.6248485  55.8428254 100.2733732 108.1135307
  55.8316895  99.8786530 107.2415810  56.0048894  99.5399804 108.7069078
  48.7659719 102.4685548 100.9830212  49.5581011 102.1276373 100.5676512
  49.0056369 102.5780523 101.9032366  56.7994846 104.6405324  93.4560457
  56.1482825 105.2259405  93.0694471  57.5939208 105.1711519  93.5155494
  50.7250473 101.7294461  93.8547591  51.4981349 101.1823448  93.7160467
  51.0775872 102.5938711  94.0662053  52.5635515 103.0570844 107.0614491
  52.2725381 103.9616474 106.9461157  53.1992500 103.0987371 107.7758560
  53.4891722 100.4347692 103.6515850  54.0855294 100.2103715 102.9372813
  53.5466694  99.6932438 104.2541298  53.0616751  97.8887127  91.4866041
  53.3142271  97.3668649  90.7249504  52.1241310  97.7253273  91.5892725
  58.1060033  96.8922906  99.2940784  58.8923123  96.4742329  98.9431201
  58.3698738  97.7968998  99.4622433  58.2770111 102.3295756  93.9929441
  57.6415944 102.4030383  94.7050346  57.9467517 102.9189355  93.3148520
  63.5068461  96.8298139 100.1973763  64.2393632  96.2597356 100.4311592
  62.7507816  96.4419739 100.6380268  52.7813039  99.7915233  93.6890416
  52.6649297  99.1160137  94.3571500  52.8915299  99.3047607  92.8722569
  55.1244580  99.2525381  97.3937105  54.7602787  98.7256002  98.1050027
  55.9811696  98.8623850  97.2203591  61.0293881  90.5419713 104.6568372
  60.6977206  91.4115124 104.4329587  60.4339494  90.2255997 105.3362402
  54.7650067  94.2815280  92.3898454  54.9324470  95.1495517  92.7568925
  54.5747236  94.4442562  91.4659743  57.5225400 102.7432259 104.0564284
  57.2226123 103.6457298 103.9480091  57.1776460 102.4764442 104.9085437
  50.9737882  99.1946056 100.0900989  50.0488378  99.0622270 100.2978680
  51.2222295  99.9740275 100.5870931  60.9222544  95.2614799 101.7361722
  60.0139422  95.1930208 101.4420483  60.8710140  95.7386744 102.5643547
  54.7439288  96.7372938  93.3745121  54.6238913  97.1829989  94.2130601
  54.0491876  97.0858255  92.8158659  48.3346693  98.8379330 100.9244778
  48.4639074  99.0913808 101.8384189  47.6544144  99.4307038 100.6049433
  52.5046180 109.5076579  97.0235252  52.4270210 110.4584405  97.1023733
  51.9007824 109.1622452  97.6810178  54.9963410  96.6804445 109.6796619
  54.2196744  97.2398365 109.6699483  55.6353973  97.1661228 110.2011489
  62.7884191  93.4631238 103.5139595  62.1458571  93.7563771 102.8679390
  62.2839119  93.3484158 104.3192792  60.4424354  97.2094411  94.2025455
  61.3542210  97.4421798  94.0273152  59.9334001  97.7931455  93.6400533
  53.2509782  99.4889898 109.2414586  53.9924467 100.0274942 108.9649409
  52.5446768 100.1156187 109.3986138  58.7265122 101.6319039 107.8386747
  59.1348478 101.1901449 107.0941380  58.0042383 101.0571666 108.0920940
  55.0796192  96.5691646 105.2120304  55.9257387  96.9931059 105.3554953
  55.0194830  95.9125270 105.9058867  59.0493937 102.1920229 101.5939036
  58.4202799 102.3565943 100.8915104  58.6619599 102.6061839 102.3650000
  62.9283168 103.1274667  98.9483400  62.2434207 103.5073569  98.3980433
  63.0127018 103.7369994  99.6815348  58.2295637  94.2296014 106.8701478
  57.9856569  94.9838074 106.3335754  58.5055568  94.6081361 107.7048725
  60.1834100 100.7734626 105.5478744  60.3950995 101.4166386 104.8713125
  60.1363848  99.9396943 105.0800674  57.7860329  93.3852447 102.4515316
  56.9244808  93.6833700 102.7432053  57.8122764  93.6022846 101.5196348
  54.6021898 101.9294637  98.8589121  55.0660244 102.2082340  98.0693744
  54.3378697 101.0278082  98.6762212  51.4945980 101.4766119 101.7968885
  52.0647337 101.9053387 101.1586369  52.0854091 101.1948704 102.4953070
  53.5390785  98.0517790  95.6678686  54.2414828  98.5038833  96.1352613
  53.2071413  97.4101609  96.2958580  51.9871146  96.6429546 110.0429896
  51.3569807  97.3245827 110.2765293  51.8807234  96.5312628 109.0983034
  47.2816118  96.3101342 100.9695820  46.4915172  96.5658871 100.4935931
  47.7727366  97.1249680 101.0747861  61.2979928 103.6506582 103.7201101
  62.1197372 103.2486769 103.4383782  61.2942331 103.5474816 104.6717217
  49.2330864  96.6745922  97.9279297  48.4362027  96.7864616  98.4462792
  49.0056456  97.0132574  97.0620187  55.0636531 103.1990625 105.8761811
  55.1280964 103.6611032 106.7119983  54.3547455 102.5687990 106.0044121
  45.5653821  96.5631833 103.4010811  45.8161860  97.4478843 103.6668387
  46.1013370  96.3836434 102.6285903  69.3885921  99.9945330 100.0686072
  68.6349629  99.4252728  99.9130077  69.5233462  99.9607995 101.0156707
  54.7784549 104.8658732  95.7440792  54.6430224 105.7110268  96.1725639
  55.3194362 105.0678010  94.9806725  51.2651889  90.9450312 112.4055147
  50.8718834  90.3916511 113.0802791  52.0818029  91.2560891 112.7961664
  48.2313947 102.3834170  96.3168717  48.7438467 103.1777421  96.4674281
  48.8836659 101.6860461  96.2502318  50.0408831 105.4999927  98.3991470
  50.2175460 106.4217891  98.2112454  50.8365665 105.1858346  98.8285850
  54.1819850  92.3608191 109.9975403  54.9229563  92.9615345 109.9179866
  54.4137773  91.6185829 109.4393446  49.3261188  97.5464559 108.2753633
  49.2114703  96.6449816 108.5760732  48.4705706  97.7928255 107.9238450
  56.4053026 105.4882299 109.8741134  55.9616880 104.7018678 109.5562038
  57.0670239 105.6761449 109.2085025  51.1640147 107.0178101 104.4001812
  51.7147572 106.8895164 103.6278806  50.3251623 107.3172990 104.0496705
  58.5034264 105.7685099 107.9022535  58.4852739 106.5893980 107.4102804
  59.4254184 105.6439174 108.1272676  54.9607318 103.2829228 108.7446043
  55.4935655 102.5217517 108.5145351  54.4321399 102.9902880 109.4870198
  58.1277013  88.3889294 104.2739685  57.7841282  89.2790936 104.1978796
  58.4955975  88.1990952 103.4109270  46.1962863 100.7122825  97.0928287
  47.0338085 101.1219833  96.8761995  46.3741131  99.7722267  97.0628481
  58.0927295  98.3797905  92.7812120  57.5773919  99.1502510  93.0200508
  57.8204604  97.7063042  93.4045182  55.6774406  93.2247606  97.8397359
  54.8216003  92.8354457  97.6602997  56.0901358  93.3039567  96.9797144
  57.2073553  90.7593949 102.2388918  56.7038349  90.7224085 101.4256724
  57.5004160  91.6686692 102.2985575  53.4516439  90.8432679 101.2455100
  54.3169436  90.6475488 100.8860990  53.5193948  90.6143031 102.1724457
  63.0661570 101.1330260  94.7165294  62.2891012 100.7941420  94.2720456
  63.7453051 101.1382883  94.0420259  57.8813599  96.2524998  94.6071901
  57.5763734  96.5671147  95.4582045  58.8344041  96.3306417  94.6499234
  56.3260030 102.4115221  96.2564855  55.7981392 101.6767980  95.9438093
  55.8247533 103.1889897  96.0104824  61.3052876 100.6064241 101.3731902
  60.6476551 101.2963503 101.4612030  62.1093276 100.9960673 101.7165888
  51.0578758  93.0734887  98.6171467  51.6322510  92.8510069  97.8844660
  51.6449740  93.1423582  99.3700068  60.1158335  98.9608614  99.4235843
  60.6290217  99.5938606  99.9257553  60.7659559  98.3609810  99.0579203
  51.3848345  95.1039348  92.6367352  50.5485657  95.4414035  92.9576627
  51.2453115  94.9688328  91.6994489  53.3601426  89.9476136  97.3446536
  52.7065838  89.6325153  96.7203151  53.3181900  89.3251876  98.0706359
  54.4712631 100.2295431  89.2599828  53.5639692  99.9984685  89.4590977
  54.9683663  99.4333050  89.4473810  57.3780709 108.9392938  92.1796515
  56.7042408 109.2424635  92.7881472  57.7646531 109.7422019  91.8301972
  56.5939166  96.4358070 101.6694184  55.6761727  96.6573017 101.5115872
  57.0099310  96.5104380 100.8105891  57.3774214  97.8349485  96.7996864
  58.1246033  98.3470882  96.4903986  57.6465803  97.5133538  97.6601258
  55.6500864 100.3308026  93.7823819  54.7412083 100.0467059  93.8796288
  55.6795948 100.7507105  92.9227125  60.8820131 103.9414615  97.5514986
  60.4282459 103.1005525  97.6080177  60.2514098 104.5776014  97.8889766
  59.8253051  94.8706602  98.7815654  59.0875808  94.3583988  99.1125896
  60.0779825  94.4306983  97.9698930  59.3253071 105.7791112  98.4864804
  59.6176045 106.3396169  97.7677170  59.8351691 106.0719673  99.2417963
  59.9264678  87.6482854  99.3757423  60.2323555  86.7880217  99.0883338
  60.6517283  88.2400474  99.1756417  46.2189034  98.0513540  97.7639021
  46.0213434  97.4582901  97.0390087  45.6635698  97.7465750  98.4814960
  54.1985758  97.9436647  99.8833614  54.2534368  96.9910483  99.8076090
  53.3876960  98.0996086 100.3674912  55.3476952 101.8716770  91.1211897
  54.9096382 101.1552629  90.6617534  56.0887393 102.0992884  90.5596989
  52.1378118  96.5613706  97.6423993  51.3245984  96.8607877  98.0489185
  52.6337112  96.1669395  98.3598475  54.2886696 106.5571463  99.5758257
  54.2462875 106.7832310  98.6466789  55.2049395 106.3234838  99.7244059
  57.7352330  97.0255531 106.4738887  58.0901717  97.2527004 107.3333352
  58.3824461  97.3573908 105.8516142  63.4650067 100.1473967  97.1788216
  63.3267965 100.3375563  96.2509405  63.1086285 100.9093350  97.6356267
  51.6292193  94.1332062 103.2585228  52.2691572  93.9920821 102.5608191
  50.7969723  93.8466575 102.8823830  63.4919446 102.2150494 102.1899487
  63.9255953 102.1225783 103.0382541  64.2051027 102.1907994 101.5519503
  52.4052497 103.4334492  99.3720220  53.1993095 102.9384812  99.1702795
  51.6944189 102.9052355  99.0087926  57.2247341 105.8152588 103.7232588
  57.2784363 106.3843524 104.4910304  56.3562123 105.9854473 103.3586625
  48.7135260  97.5777574  95.4479973  47.7832848  97.5162029  95.6649935
  48.8092732  97.0553527  94.6516614  48.6320809  94.1032387  98.0358215
  48.8927626  95.0177720  97.9267375  49.4537982  93.6356829  98.1854827
  50.1045735  95.5170144 105.2057039  50.7768788  95.3087506 104.5569688
  49.2775521  95.3192230 104.7662271  64.3534996 102.2574194 104.7232373
  64.5470886 103.1620005 104.9691648  64.2535614 101.7981613 105.5570958
  56.0071307  92.1432085 107.2222700  55.3599222  92.8422035 107.1287176
  56.7772322  92.5768229 107.5898948  59.4150104 102.4080937 110.2973253
  59.2635611 102.1791489 109.3803337  59.4054784 103.3651539 110.3104598
  56.1835441  99.9812850 105.2819520  57.1127501 100.1324009 105.1088487
  55.7626471 100.0696871 104.4268166  54.9823773 104.0063514 103.0518057
  54.8434858 103.6382299 103.9243995  54.1938369 104.5211154 102.8802015
  55.5771925 109.1072611  94.3943594  55.7523680 108.6360654  95.2089216
  54.8904713 109.7338377  94.6224855  56.5328988 103.3845117 100.4406895
  56.1978820 103.3445887 101.3364545  56.0332933 102.7189833  99.9677305
  50.5073232  98.7912747 105.9659476  50.3693030  98.0592986 106.5671015
  51.4178155  98.7021647 105.6843664  59.4688179 100.7301151  90.7143955
  58.8517350 100.0047979  90.6177007  59.0004668 101.4910512  90.3711029
  53.1355532  98.5032706 105.4543156  53.8455151  97.8625899 105.4129774
  53.0924841  98.7545601 106.3769337  61.1242311 105.4400060 108.3749735
  61.0654857 104.7559280 107.7080318  61.5261830 106.1819050 107.9230361
  51.8484466  95.4897924 107.2738795  51.3121823  95.0388663 107.9260392
  51.2601175  95.6243833 106.5309260  50.1433010 112.2561973 101.1683454
  50.3829608 112.8880498 101.8462473  49.3002206 111.9050014 101.4548813
  51.2586725  94.9486576  89.8365259  50.3816192  94.8275376  89.4727506
  51.7344478  94.1572654  89.5844148  61.1259718 103.4039644 106.6063715
  60.2386497 103.0665565 106.7290114  61.6958269 102.6722675 106.8432480
  42.7788866  99.7363735  99.9306766  43.4659905  99.4225465  99.3427781
  42.6236994 100.6405100  99.6574018  47.5823588  94.6253932 104.3591790
  47.4981776  94.0179601 103.6242200  46.7606294  95.1162950 104.3601286
  54.6560872 108.0641096 103.5724958  54.5831043 108.8696067 104.0844262
  54.2138265 108.2633062 102.7472979  54.4450651 107.3012866  97.0827779
  53.6618173 107.8434546  97.1766004  55.1443397 107.8186846  97.4822021
  57.7547302  93.1107495  99.7261985  58.2516001  92.3577458  99.4063055
  56.9834283  93.1471812  99.1605194  65.6077059  98.8147861 101.3680276
  65.5966935  99.6972576 100.9974209  64.7394438  98.4619412 101.1734813
  57.1159555 107.9627930 105.7283117  57.8287528 108.5975395 105.6559018
  56.6249584 108.0591796 104.9123118  58.8377082 101.8679183  97.3000408
  57.9033361 101.9880645  97.1305113  59.0153751 100.9651649  97.0360418
  54.3382270  95.2524878  99.4533669  53.9680058  94.6995919 100.1414575
  54.8341363  94.6483012  98.9008670  62.2249634  97.7096502  97.8350442
  62.6910086  98.5424494  97.7610745  62.6757134  97.2441483  98.5395701
  52.1671469 105.7122373 106.5488687  52.8680928 106.3458856 106.7018082
  51.6966584 106.0537105 105.7884327  60.2925865 104.0540323  94.8336594
  60.5685709 103.9396918  95.7430469  59.4230363 103.6557808  94.7948768
  60.1966296  90.0777089 101.8741344  59.2829376  90.3081316 102.0423551
  60.6259398  90.1615533 102.7255376  59.9672755  98.2666981 104.3741238
  59.3144205  98.5142888 103.7193691  60.3453135  97.4531119 104.0403715
  56.9279929 108.3026674  98.4769408  57.1102323 107.4848330  98.9397160
  57.7512915 108.5194366  98.0394298  57.2622094 107.2294859  95.7384457
  57.7909861 106.7187314  95.1254619  57.5250314 106.9137389  96.6029990
  56.0160328  99.0086792 110.8607275  55.3400965  98.9080921 111.5309650
  56.8387962  98.8526006 111.3243272  47.7639187 105.2458728 103.4819790
  48.3492624 104.5002416 103.6147694  47.5664025 105.5562685 104.3656454
  50.6177842 108.2809976  98.4982232  49.9488217 108.7656103  98.0146273
  50.4790712 108.5279196  99.4125611  42.3556842  97.8164329 102.2024233
  42.3940941  97.2827919 102.9961351  41.8497134  97.2899534 101.5835210
  54.7583111 110.3153719 105.0964891  55.3101419 110.4785341 105.8613976
  55.0989304 110.9058157 104.4244916  49.7347604  92.6628869 105.6986776
  49.7988930  93.5243700 105.2864173  49.6714724  92.0502871 104.9659134
  49.2099876  94.7352002 109.3459810  49.8371915  94.3529079 109.9597334
  48.3527795  94.5166204 109.7115502  45.9865419  96.5428431  95.2778165
  46.2818860  95.6339109  95.2245218  45.0853455  96.5216170  94.9559167
  57.8951498 108.2635695 102.0828573  57.7702637 107.4625435 101.5739519
  58.5530589 108.7581888 101.5942543  49.5159666  94.6184427 101.2605713
  48.7946252  95.2320395 101.1213187  50.3052922  95.1542192 101.1822359
  59.9586406 106.0644715 103.7108123  59.0116742 105.9450066 103.6386450
  60.3069179 105.1767213 103.7934385  52.3185980  91.9538854 107.5346365
  52.8420382  92.2001150 108.2972674  52.0998313  92.7858889 107.1149502
  47.7153261  94.2242528  95.4017490  47.3865967  93.3439907  95.2192596
  48.0692631  94.1690197  96.2893879  56.9632840 105.8597431  99.9112475
  56.8157802 104.9314139 100.0920045  57.7886333 105.8817522  99.4269551
  50.8295084  94.5115498  95.7692967  51.1691156  95.0401420  95.0471576
  51.2767204  94.8495904  96.5451534  60.5666962 106.6825990 100.9977348
  61.4913509 106.4768851 100.8601799  60.3982265 106.4342391 101.9066690
  53.5238525  92.8952549 105.2196036  53.1835345  92.0960362 105.6216715
  52.8177531  93.1954260 104.6472869  54.1754997  89.9801861 103.6723359
  54.9981066  89.5062340 103.5502249  54.4193060  90.7592345 104.1722045
  52.8163231  93.0090120  93.9686260  53.5371594  93.3871373  93.4649977
  52.1928535  93.7278997  94.0721238  56.9594354  93.7135269  94.9044593
  57.1757968  94.5959907  94.6033421  56.4788421  93.3221482  94.1750235
  51.6993575  96.6720982 101.4815337  51.5538156  96.9861285 102.3739619
  51.2218779  97.2905882 100.9286236  53.5589958  93.6623530 101.5296227
  53.5451527  92.7664623 101.1928525  54.2762386  93.6694194 102.1634513
  55.4116089  94.0960870 103.5749354  55.1533867  95.0177941 103.5733685
  54.8801129  93.6991305 104.2649818  60.3562278 107.2011657  96.3539440
  60.5299155 106.6358080  95.6013292  60.8491169 108.0012552  96.1718929
  46.1739238  99.2126326 104.4202998  45.6292706  99.9886134 104.5523273
  47.0518587  99.5597131 104.2622120  52.9626854  92.5437910  96.7983797
  53.0842765  91.6154557  96.9974684  52.6728897  92.5576596  95.8862112
  55.8318045  90.2292821  99.9350517  55.8539741  90.2932154  98.9802496
  56.2486104  89.3897329 100.1291023  66.2101669  99.9648080  97.9729739
  66.6532815  99.2155406  97.5748863  65.3328179  99.9558217  97.5903471
  61.3437450 106.5178422  93.4536338  62.0388355 107.1385114  93.6723652
  61.6860600 105.6673773  93.7288716  46.9605259  98.3396223 107.3133155
  46.2186995  98.4878858 107.8997786  46.6398004  98.6004488 106.4499905
  63.2428873 103.9678127  94.9823669  63.7680197 104.3065400  94.2572989
  63.1551226 103.0325143  94.7986803  54.9048922 107.8812201 107.1113545
  55.2136048 107.6361348 107.9836245  55.7024404 108.0858839 106.6232415
  54.9269534 110.0350111  99.3418922  54.4874524 109.5426489 100.0351778
  55.6777651 109.4923078  99.1010997  47.4061873 106.2261651  99.3443550
  48.2319893 105.9265423  98.9642193  47.0555925 105.4569274  99.7933339
  52.3743406 105.5788120 101.4141223  51.7523416 104.9158825 101.1143451
  53.0448273 105.6049252 100.7314871  45.6070478 104.1447978 100.3032483
  44.7702386 103.7170152 100.1216485  45.5794124 104.3380421 101.2403275
  52.4467934  94.0569908 111.0073729  52.4956089  94.9332031 110.6251499
  52.9890448  93.5147301 110.4345373  63.0520654 101.4503497 107.6007595
  63.1018659 101.2853505 108.5423118  62.9434578 100.5830756 107.2105476
  51.9356913 104.1292043  94.8899684  52.0845034 104.8127507  94.2366357
  52.7423357 104.1097133  95.4049140  60.3424417  97.4334425 108.9166902
  61.2434280  97.2940890 108.6250900  60.4172391  97.5988880 109.8565079
  54.6767222  94.8101280 107.7620088  53.8070532  95.1034846 107.4902677
  54.9126703  95.3941725 108.4827352  64.5538851 103.8700439 107.8449617
  64.2623660 104.2330419 108.6813078  63.9410983 103.1567447 107.6662949
  65.7534534 101.4353319 100.3652187  66.5881425 101.8743123 100.5289747
  65.8893662 100.9591972  99.5460433  62.8026040  98.9933053 106.3129675
  63.2780161  99.1860700 105.5048526  61.8791605  99.0492239 106.0673058
  49.6909546 100.1557221  95.8960753  49.4455588  99.2519551  96.0940963
  49.8605461 100.1574371  94.9540231  57.3806256  91.0280897 105.2785509
  57.8988200  91.7641924 104.9531997  57.0261389  91.3344890 106.1132268
  48.9605194  95.8885578  93.3946914  48.2674439  95.9629933  92.7386950
  48.7156946  95.1245922  93.9168431  57.6318850  87.4481180 100.7986405
  57.9120604  86.7804369 101.4246832  58.4169457  87.6410275 100.2861069
  55.4352319 106.6240173  92.3611431  54.8626286 107.2430361  91.9081903
  56.0085112 107.1739535  92.8951353  61.5027709  95.8698814 104.5457980
  62.4545131  95.9696911 104.5670204  61.3331159  95.0777082 105.0556065
  59.5242088  92.9554397 104.7317381  58.9292020  93.2359410 104.0363870
  59.2391785  93.4448298 105.5034122  58.6549578 106.9077324  93.4920014
  59.5880252 106.8422885  93.6952889  58.5672791 107.7433590  93.0334546
  61.2837595 106.2243194  90.4523961  61.2051227 105.8903058  91.3459719
  62.1047262 106.7164962  90.4515434  63.9815786  99.0904933 103.6600280
  63.9492106  98.1520934 103.8459964  64.5916410  99.1688970 102.9266105
  55.8199117  97.9600986  89.7027484  56.7658222  97.8307194  89.7715902
  55.4413362  97.2215648  90.1796912  64.1310275  95.8815977 103.7058563
  63.6149323  95.0974433 103.5188492  65.0150223  95.5534693 103.8705083
  61.7921002  89.6256992  99.6654376  61.5945823  89.3172080 100.5497708
  62.4020707  90.3518631  99.7952306  69.7992336 100.1520940 102.8006317
  70.5295725  99.8906228 103.3614020  69.1899282  99.4149662 102.8408385
  67.8807633  98.2928803 103.3980768  67.1540797  98.1584768 102.7897259
  67.4654920  98.6005631 104.2037486  55.7037810 102.0118732 111.1628141
  56.6240819 102.1897331 111.3568187  55.6687393 101.0674778 111.0107840
  54.0042034  95.8850963  89.6382369  53.0973490  95.5884075  89.7145083
  54.2818015  95.5880781  88.7716655  44.9219975  97.2057326 100.0881416
  44.6022759  96.3522634  99.7955790  44.3753403  97.4205904 100.8439383
  48.6999882  99.9219767 103.8050922  48.9185892 100.8536875 103.8238956
  49.1125656  99.5627741 104.5905726  55.6204100  90.4287852  95.7926610
  54.8104828  90.0834937  96.1681857  56.3088517  90.1195396  96.3814222
  57.5494648  89.5065899  97.4150907  58.1025687  89.9261353  98.0740930
  57.7864735  88.5801647  97.4573863  53.5727748  95.4952973 113.1953671
  53.4724474  96.4447330 113.1265762  53.3549290  95.1671212 112.3229741
  52.7740819  92.7437898  89.7794348  53.6359983  93.0692796  90.0390166
  52.9591163  91.9569394  89.2667414  44.7908235 100.8260238 102.0574537
  44.0971706 100.4114190 101.5444492  45.5381226 100.8680774 101.4607956
  60.9273455  91.6166424  96.9229571  60.3472124  92.2751228  96.5407624
  60.6609388  90.7943769  96.5116989  59.3777022  91.0171482  99.1250892
  59.8776800  91.1288017  98.3165210  60.0212630  90.7132535  99.7651700
  53.4359018  98.9250112 112.0118733  52.9526099  99.7250472 112.2182622
  53.5219957  98.9358056 111.0586177  46.7044977 100.7578491  99.9340552
  46.6815665 100.8566179  98.9822435  47.0145614 101.6043642 100.2557718
  49.3632355 102.8154646 104.0487166  50.3175609 102.7838589 103.9817098
  49.1644879 102.3545270 104.8637392  49.9531737 101.3855762 106.6157964
  50.7724626 101.8799841 106.6392801  50.2268545 100.4687731 106.5875532
  59.7098333  93.7766515  95.9785920  58.8224188  94.0616165  95.7606114
  60.1252323  93.6160278  95.1313196  63.0612870  93.8013036  99.6940259
  63.8373260  94.2909488  99.9664876  62.3361004  94.2271090 100.1512128
  65.4985428  94.5140655 100.7514199  66.0929919  94.2736391 100.0407508
  65.5712012  93.7947785 101.3787736  47.7182584 108.3574266 101.0657364
  47.5837052 107.5974667 100.4995362  47.3014646 109.0815166 100.5986153
  58.8541547 103.5411189  90.0733940  59.5577397 103.7461192  90.6891595
  58.1304196 104.1087951  90.3383023  59.6839357  99.2921051  96.1936210
  59.6274559  99.7489602  95.3543842  60.2367700  98.5311735  96.0159052
  63.4944163  95.0810782  97.0186329  63.2381097  94.6807418  97.8494537
  62.8697031  95.7954576  96.8936468  67.8056501  97.8206856  99.5257621
  67.2456059  97.8900045 100.2989183  67.2000004  97.6447840  98.8057117
  50.8751710 109.2543583 101.2775807  50.7584094 110.1989015 101.1754497
  50.0544156 108.9517144 101.6661606  60.7628244 103.9793719  92.1232400
  61.5973848 103.5474917  91.9409874  60.6012587 103.8075732  93.0509294
  60.4174136 100.4825832  93.4888739  60.3622940 100.3170103  92.5477183
  59.7920192 101.1901865  93.6450929  45.2066651  95.7193896 107.3150161
  45.8525515  95.2092850 107.8037386  44.9983803  96.4562578 107.8893586
  53.7270262  89.9833941  93.0674057  53.7148932  90.9275781  93.2242328
  54.6193684  89.8004086  92.7733519  51.9006224 109.9071845 104.4931735
  52.8033471 109.9395455 104.8098230  51.6743594 108.9772296 104.5078071
  53.6559826 108.6602831 101.1541814  52.7055457 108.6604693 101.0406186
  53.9592312 107.9135566 100.6377849  57.5422381  86.5776718  97.3219994
  56.7754777  86.0235204  97.4676676  57.9533086  86.6498586  98.1834146
  49.5464142  92.8661513 111.4125175  50.4095604  92.5098318 111.6228500
  48.9729553  92.5275408 112.1000580  62.0589041 116.3026274  98.1445992
  61.4953907 116.2116211  97.3762280  61.9441436 115.4826179  98.6248485
  59.6053473 117.7977466 100.9830212  60.3974765 117.4568290 100.5676512
  59.8450123 117.9072441 101.9032366  67.6388600 119.9697242  93.4560457
  66.9876580 120.5551322  93.0694471  68.4332963 120.5003437  93.5155494
  61.5644227 117.0586379  93.8547591  62.3375103 116.5115366  93.7160467
  61.9169626 117.9230628  94.0662053  63.9010505 113.2179045  91.4866041
  64.1536026 112.6960566  90.7249504  62.9635064 113.0545191  91.5892725
  68.9453788 112.2214824  99.2940784  69.7316877 111.8034247  98.9431201
  69.2092492 113.1260916  99.4622433  69.1163865 117.6587674  93.9929441
  68.4809698 117.7322300  94.7050346  68.7861272 118.2481273  93.3148520
  63.6206794 115.1207151  93.6890416  63.5043052 114.4452054  94.3571500
  63.7309054 114.6339525  92.8722569  65.9638335 114.5817298  97.3937105
  65.5996542 114.0547919  98.1050027  66.8205451 114.1915767  97.2203591
  65.6043822 109.6107198  92.3898454  65.7718224 110.4787434  92.7568925
  65.4140991 109.7734480  91.4659743  61.8131636 114.5237974 100.0900989
  60.8882133 114.3914188 100.2978680  62.0616050 115.3032193 100.5870931
  65.5833043 112.0664855  93.3745121  65.4632668 112.5121906  94.2130601
  64.8885631 112.4150173  92.8158659  59.1740447 114.1671247 100.9244778
  59.3032829 114.4205726 101.8384189  58.4937899 114.7598955 100.6049433
  71.2818109 112.5386329  94.2025455  72.1935965 112.7713715  94.0273152
  70.7727756 113.1223373  93.6400533  68.6254084 108.7144365 102.4515316
  67.7638563 109.0125618 102.7432053  68.6516518 108.9314763 101.5196348
  65.4415653 117.2586555  98.8589121  65.9053998 117.5374258  98.0693744
  65.1772451 116.3570000  98.6762212  64.3784539 113.3809708  95.6678686
  65.0808582 113.8330751  96.1352613  64.0465167 112.7393526  96.2958580
  58.1209873 111.6393260 100.9695820  57.3308927 111.8950789 100.4935931
  58.6121120 112.4541598 101.0747861  60.0724618 112.0037839  97.9279297
  59.2755782 112.1156534  98.4462792  59.8450211 112.3424492  97.0620187
  56.4047576 111.8923751 103.4010811  56.6555614 112.7770761 103.6668387
  56.9407124 111.7128352 102.6285903  65.6178304 120.1950650  95.7440792
  65.4823978 121.0402186  96.1725639  66.1588116 120.3969928  94.9806725
  59.0707701 117.7126088  96.3168717  59.5832222 118.5069338  96.4674281
  59.7230414 117.0152379  96.2502318  60.8802586 120.8291844  98.3991470
  61.0569214 121.7509809  98.2112454  61.6759419 120.5150264  98.8285850
  68.9670767 103.7181212 104.2739685  68.6235037 104.6082854 104.1978796
  69.3349730 103.5282870 103.4109270  57.0356618 116.0414742  97.0928287
  57.8731840 116.4511751  96.8761995  57.2134885 115.1014185  97.0628481
  68.9321050 113.7089823  92.7812120  68.4167673 114.4794428  93.0200508
  68.6598358 113.0354959  93.4045182  66.5168161 108.5539524  97.8397359
  65.6609757 108.1646374  97.6602997  66.9295113 108.6331485  96.9797144
  68.0467308 106.0885867 102.2388918  67.5432103 106.0516002 101.4256724
  68.3397914 106.9978610 102.2985575  64.2910193 106.1724597 101.2455100
  65.1563190 105.9767406 100.8860990  64.3587702 105.9434949 102.1724457
  73.9055324 116.4622178  94.7165294  73.1284767 116.1233337  94.2720456
  74.5846805 116.4674801  94.0420259  68.7207353 111.5816915  94.6071901
  68.4157489 111.8963064  95.4582045  69.6737795 111.6598335  94.6499234
  67.1653785 117.7407139  96.2564855  66.6375146 117.0059898  95.9438093
  66.6641288 118.5181815  96.0104824  61.8972513 108.4026805  98.6171467
  62.4716264 108.1801986  97.8844660  62.4843495 108.4715499  99.3700068
  62.2242100 110.4331266  92.6367352  61.3879412 110.7705952  92.9576627
  62.0846869 110.2980246  91.6994489  64.1995180 105.2768054  97.3446536
  63.5459593 104.9617071  96.7203151  64.1575654 104.6543794  98.0706359
  65.3106385 115.5587349  89.2599828  64.4033447 115.3276602  89.4590977
  65.8077417 114.7624968  89.4473810  68.2174464 124.2684856  92.1796515
  67.5436163 124.5716553  92.7881472  68.6040286 125.0713936  91.8301972
  67.4332921 111.7649987 101.6694184  66.5155482 111.9864934 101.5115872
  67.8493064 111.8396298 100.8105891  68.2167968 113.1641403  96.7996864
  68.9639787 113.6762800  96.4903986  68.4859558 112.8425456  97.6601258
  66.4894619 115.6599944  93.7823819  65.5805838 115.3758976  93.8796288
  66.5189702 116.0799022  92.9227125  70.6646806 110.1998519  98.7815654
  69.9269562 109.6875905  99.1125896  70.9173579 109.7598901  97.9698930
  70.7658433 102.9774771  99.3757423  71.0717310 102.1172135  99.0883338
  71.4911038 103.5692391  99.1756417  57.0582789 113.3805458  97.7639021
  56.8607189 112.7874818  97.0390087  56.5029453 113.0757668  98.4814960
  65.0379513 113.2728564  99.8833614  65.0928122 112.3202401  99.8076090
  64.2270715 113.4288003 100.3674912  66.1870706 117.2008687  91.1211897
  65.7490136 116.4844546  90.6617534  66.9281147 117.4284802  90.5596989
  62.9771872 111.8905624  97.6423993  62.1639738 112.1899795  98.0489185
  63.4730867 111.4961313  98.3598475  74.3043821 115.4765884  97.1788216
  74.1661720 115.6667480  96.2509405  73.9480040 116.2385267  97.6356267
  62.4685947 109.4623980 103.2585228  63.1085327 109.3212739 102.5608191
  61.6363478 109.1758493 102.8823830  63.2446251 118.7626410  99.3720220
  64.0386850 118.2676730  99.1702795  62.5337944 118.2344273  99.0087926
  59.5529015 112.9069492  95.4479973  58.6226603 112.8453947  95.6649935
  59.6486487 112.3845444  94.6516614  59.4714564 109.4324305  98.0358215
  59.7321381 110.3469638  97.9267375  60.2931736 108.9648747  98.1854827
  60.9439489 110.8462062 105.2057039  61.6162542 110.6379424 104.5569688
  60.1169276 110.6484148 104.7662271  66.4165679 124.4364528  94.3943594
  66.5917435 123.9652572  95.2089216  65.7298467 125.0630295  94.6224855
  70.3081934 116.0593069  90.7143955  69.6911105 115.3339897  90.6177007
  69.8398422 116.8202429  90.3711029  62.0980480 110.2778493  89.8365259
  61.2209946 110.1567294  89.4727506  62.5738233 109.4864572  89.5844148
  53.6182620 115.0655653  99.9306766  54.3053660 114.7517383  99.3427781
  53.4630749 115.9697018  99.6574018  58.4217342 109.9545850 104.3591790
  58.3375531 109.3471519 103.6242200  57.6000049 110.4454868 104.3601286
  68.5941056 108.4399413  99.7261985  69.0909756 107.6869375  99.4063055
  67.8228038 108.4763730  99.1605194  69.6770837 117.1971100  97.3000408
  68.7427115 117.3172563  97.1305113  69.8547505 116.2943567  97.0360418
  65.1776025 110.5816796  99.4533669  64.8073812 110.0287836 100.1414575
  65.6735117 109.9774930  98.9008670  73.0643388 113.0388420  97.8350442
  73.5303840 113.8716411  97.7610745  73.5150889 112.5733401  98.5395701
  71.1319619 119.3832241  94.8336594  71.4079463 119.2688835  95.7430469
  70.2624118 118.9849726  94.7948768  71.0360051 105.4069007 101.8741344
  70.1223131 105.6373233 102.0423551  71.4653152 105.4907451 102.7255376
  68.1015849 122.5586777  95.7384457  68.6303615 122.0479231  95.1254619
  68.3644068 122.2429307  96.6029990  53.1950596 113.1456246 102.2024233
  53.2334696 112.6119837 102.9961351  52.6890889 112.6191452 101.5835210
  60.5741358 107.9920787 105.6986776  60.6382685 108.8535618 105.2864173
  60.5108479 107.3794789 104.9659134  56.8259174 111.8720349  95.2778165
  57.1212615 110.9631027  95.2245218  55.9247209 111.8508088  94.9559167
  60.3553421 109.9476345 101.2605713  59.6340006 110.5612313 101.1213187
  61.1446676 110.4834110 101.1822359  58.5547015 109.5534446  95.4017490
  58.2259721 108.6731825  95.2192596  58.9086386 109.4982115  96.2893879
  61.6688838 109.8407416  95.7692967  62.0084911 110.3693337  95.0471576
  62.1160959 110.1787822  96.5451534  64.3632279 108.2244467 105.2196036
  64.0229100 107.4252280 105.6216715  63.6571286 108.5246178 104.6472869
  65.0148751 105.3093779 103.6723359  65.8374820 104.8354257 103.5502249
  65.2586815 106.0884263 104.1722045  63.6556986 108.3382038  93.9686260
  64.3765348 108.7163290  93.4649977  63.0322290 109.0570914  94.0721238
  67.7988108 109.0427187  94.9044593  68.0151723 109.9251824  94.6033421
  67.3182176 108.6513400  94.1750235  62.5387330 112.0012900 101.4815337
  62.3931911 112.3153203 102.3739619  62.0612533 112.6197800 100.9286236
  64.3983713 108.9915448 101.5296227  64.3845281 108.0956541 101.1928525
  65.1156141 108.9986111 102.1634513  66.2509843 109.4252788 103.5749354
  65.9927621 110.3469859 103.5733685  65.7194884 109.0283222 104.2649818
  57.0132992 114.5418244 104.4202998  56.4686460 115.3178052 104.5523273
  57.8912342 114.8889049 104.2622120  63.8020609 107.8729828  96.7983797
  63.9236520 106.9446474  96.9974684  63.5122651 107.8868514  95.8862112
  66.6711799 105.5584738  99.9350517  66.6933496 105.6224072  98.9802496
  67.0879858 104.7189247 100.1291023  72.1831205 121.8470339  93.4536338
  72.8782109 122.4677032  93.6723652  72.5254355 120.9965691  93.7288716
  74.0822628 119.2970045  94.9823669  74.6073952 119.6357318  94.2572989
  73.9944980 118.3617060  94.7986803  58.2455628 121.5553569  99.3443550
  59.0713647 121.2557341  98.9642193  57.8949680 120.7861192  99.7933339
  56.4464233 119.4739896 100.3032483  55.6096141 119.0462070 100.1216485
  56.4187878 119.6672339 101.2403275  62.7750668 119.4583961  94.8899684
  62.9238788 120.1419425  94.2366357  63.5817111 119.4389051  95.4049140
  60.5303301 115.4849138  95.8960753  60.2849343 114.5811468  96.0940963
  60.6999215 115.4866289  94.9540231  59.7998948 111.2177496  93.3946914
  59.1068193 111.2921851  92.7386950  59.5550700 110.4537840  93.9168431
  68.4712605 102.7773097 100.7986405  68.7514358 102.1096286 101.4246832
  69.2563212 102.9702193 100.2861069  66.2746073 121.9532091  92.3611431
  65.7020040 122.5722278  91.9081903  66.8478867 122.5031453  92.8951353
  69.4943333 122.2369241  93.4920014  70.4274006 122.1714803  93.6952889
  69.4066546 123.0725508  93.0334546  72.1231350 121.5535112  90.4523961
  72.0444981 121.2194975  91.3459719  72.9441016 122.0456880  90.4515434
  66.6592872 113.2892904  89.7027484  67.6051976 113.1599112  89.7715902
  66.2807117 112.5507566  90.1796912  72.6314756 104.9548910  99.6654376
  72.4339577 104.6463998 100.5497708  73.2414462 105.6810549  99.7952306
  64.8435789 111.2142880  89.6382369  63.9367244 110.9175993  89.7145083
  65.1211770 110.9172698  88.7716655  55.7613729 112.5349244 100.0881416
  55.4416514 111.6814552  99.7955790  55.2147157 112.7497822 100.8439383
  66.4597855 105.7579770  95.7926610  65.6498583 105.4126855  96.1681857
  67.1482271 105.4487314  96.3814222  68.3888403 104.8357817  97.4150907
  68.9419441 105.2553270  98.0740930  68.6258489 103.9093565  97.4573863
  63.6134573 108.0729816  89.7794348  64.4753737 108.3984714  90.0390166
  63.7984918 107.2861311  89.2667414  55.6301989 116.1552155 102.0574537
  54.9365461 115.7406108 101.5444492  56.3774980 116.1972692 101.4607956
  71.7667210 106.9458342  96.9229571  71.1865879 107.6043146  96.5407624
  71.5003143 106.1235687  96.5116989  70.2170776 106.3463400  99.1250892
  70.7170555 106.4579934  98.3165210  70.8606384 106.0424453  99.7651700
  57.5438732 116.0870409  99.9340552  57.5209420 116.1858096  98.9822435
  57.8539368 116.9335560 100.2557718  70.5492088 109.1058432  95.9785920
  69.6617943 109.3908083  95.7606114  70.9646077 108.9452196  95.1313196
  73.9006624 109.1304953  99.6940259  74.6767014 109.6201406  99.9664876
  73.1754758 109.5563008 100.1512128  69.6935301 118.8703107  90.0733940
  70.3971152 119.0753110  90.6891595  68.9697950 119.4379869  90.3383023
  70.5233112 114.6212968  96.1936210  70.4668313 115.0781520  95.3543842
  71.0761454 113.8603653  96.0159052  74.3337918 110.4102700  97.0186329
  74.0774852 110.0099336  97.8494537  73.7090786 111.1246494  96.8936468
  71.6021999 119.3085636  92.1232400  72.4367603 118.8766835  91.9409874
  71.4406342 119.1367650  93.0509294  71.2567891 115.8117750  93.4888739
  71.2016695 115.6462021  92.5477183  70.6313946 116.5193782  93.6450929
  56.0460406 111.0485814 107.3150161  56.6919270 110.5384768 107.8037386
  55.8377557 111.7854496 107.8893586  64.5664016 105.3125859  93.0674057
  64.5542686 106.2567698  93.2242328  65.4587438 105.1296004  92.7733519
  68.3816136 101.9068635  97.3219994  67.6148532 101.3527122  97.4676676
  68.7926841 101.9790504  98.1834146  73.0635854 125.7623184  92.6367352
  72.2273166 126.0997870  92.9576627  72.9240624 125.6272163  91.6994489
  72.9374234 125.6070411  89.8365259  72.0603701 125.4859212  89.4727506
  73.4131987 124.8156489  89.5844148  70.6392703 126.5469414  93.3946914
  69.9461948 126.6213769  92.7386950  70.3944455 125.7829757  93.9168431
  75.6829543 126.5434798  89.6382369  74.7760999 126.2467911  89.7145083
  75.9605524 126.2464616  88.7716655  74.4528328 123.4021733  89.7794348
  75.3147492 123.7276632  90.0390166  74.6378672 122.6153229  89.2667414
  75.4057771 120.6417776  93.0674057  75.3936441 121.5859616  93.2242328
  76.2981193 120.4587922  92.7733519  15.1943748  14.8565904  88.9432883
  15.8322158  14.7372651  88.2396223  15.0764591  15.8046748  89.0020835
   7.8620270  16.6628808  84.8691299   7.2985135  16.5718745  84.1007586
   7.7472665  15.8428713  85.3493791  13.4419829  20.3299776  80.1805764
  12.7907809  20.9153857  79.7939777  14.2364192  20.8605971  80.2400801
   7.3675456  17.4188913  80.5792898   8.1406332  16.8717900  80.4405774
   7.7200855  18.2833163  80.7907359   9.7041734  13.5781579  78.2111348
   9.9567255  13.0563101  77.4494811   8.7666293  13.4147725  78.3138031
  14.7485017  12.5817358  86.0186091  15.5348106  12.1636781  85.6676508
  15.0123721  13.4863450  86.1867739  14.9195094  18.0190208  80.7174748
  14.2840927  18.0924835  81.4295652  14.5892500  18.6083807  80.0393827
  20.1493444  12.5192591  86.9219070  20.8818616  11.9491808  87.1556899
  19.3932800  12.1314191  87.3625575   9.4238023  15.4809685  80.4135723
   9.3074281  14.8054589  81.0816807   9.5340283  14.9942059  79.5967876
  11.7669564  14.9419832  84.1182412  11.4027771  14.4150453  84.8295333
  12.6236679  14.5518301  83.9448897  11.3864271  12.4267390  80.0990427
  11.2663897  12.8724440  80.9375908  10.6916860  12.7752707  79.5403965
   9.1471164  25.1971031  83.7480559   9.0695193  26.1478856  83.8269039
   8.5432807  24.8516904  84.4055485  17.0849338  12.8988863  80.9270761
  17.9967194  13.1316250  80.7518459  16.5758985  13.4825907  80.3645840
  15.6918920  17.8814681  88.3184343  15.0627782  18.0460395  87.6160411
  15.3044582  18.2956291  89.0895307  19.5708152  18.8169119  85.6728707
  18.8859190  19.1968020  85.1225740  19.6552001  19.4264446  86.4060654
  11.2446882  17.6189089  85.5834428  11.7085227  17.8976792  84.7939050
  10.9803680  16.7172534  85.4007519  10.1815768  13.7412242  82.3923993
  10.8839811  14.1933285  82.8597919   9.8496396  13.0996061  83.0203886
  17.9404911  19.3401034  90.4446407  18.7622355  18.9381221  90.1629089
  17.9367314  19.2369268  91.3962523  26.0310904  15.6839782  86.7931379
  25.2774613  15.1147180  86.6375383  26.1658446  15.6502447  87.7402014
  11.4209532  20.5553184  82.4686098  11.2855207  21.4004720  82.8970946
  11.9619345  20.7572462  81.7052032   4.8738930  18.0728622  83.0414023
   5.3863450  18.8671873  83.1919588   5.5261643  17.3754913  82.9747625
   6.6833815  21.1894379  85.1236777   6.8600443  22.1112343  84.9357760
   7.4790648  20.8752798  85.5531156   7.8065130  22.7072552  91.1247119
   8.3572555  22.5789616  90.3524113   6.9676606  23.0067441  90.7742012
  14.7352279  14.0692357  79.5057427  14.2198902  14.8396962  79.7445814
  14.4629587  13.3957493  80.1290488  19.7086553  16.8224712  81.4410600
  18.9315996  16.4835871  80.9965762  20.3878034  16.8277335  80.7665565
  14.5238582  11.9419449  81.3317208  14.2188717  12.2565599  82.1827351
  15.4769024  12.0200869  81.3744541  12.9685014  18.1009673  82.9810162
  12.4406375  17.3662432  82.6683400  12.4672516  18.8784349  82.7350130
  17.9477860  16.2958693  88.0977208  17.2901534  16.9857955  88.1857337
  18.7518259  16.6855125  88.4411195  16.7583319  14.6503066  86.1481150
  17.2715200  15.2833058  86.6502860  17.4084542  14.0504261  85.7824510
  11.1137614  15.9189883  75.9845135  10.2064676  15.6879136  76.1836284
  11.6108646  15.1227502  76.1719117  14.0205693  24.6287390  78.9041821
  13.3467392  24.9319087  79.5126779  14.4071515  25.4316471  78.5547278
  14.0199197  13.5243937  83.5242171  14.7671016  14.0365334  83.2149293
  14.2890787  13.2027990  84.3846564  12.2925847  16.0202478  80.5069125
  11.3837067  15.7361511  80.6041595  12.3220931  16.4401556  79.6472432
  17.5245115  19.6309067  84.2760293  17.0707442  18.7899977  84.3325483
  16.8939081  20.2670466  84.6135073  16.4678034  10.5601053  85.5060960
  15.7300791  10.0478440  85.8371203  16.7204808  10.1201435  84.6944237
  15.9678054  21.4685564  85.2110111  16.2601028  22.0290621  84.4922477
  16.4776675  21.7614125  85.9663270  10.8410741  13.6331098  86.6078921
  10.8959351  12.6804935  86.5321397  10.0301943  13.7890538  87.0920219
  11.9901935  17.5611222  77.8457204  11.5521365  16.8447080  77.3862841
  12.7312376  17.7887336  77.2842295  10.9311679  22.2465915  86.3003564
  10.8887858  22.4726761  85.3712096  11.8474378  22.0129290  86.4489365
  20.1075050  15.8368419  83.9033522  19.9692949  16.0270015  82.9754712
  19.7511269  16.5987801  84.3601573  20.1344430  17.9044946  88.9144794
  20.5680936  17.8120235  89.7627848  20.8476010  17.8802446  88.2764810
   9.0477480  19.1228944  86.0965527   9.8418078  18.6279264  85.8948102
   8.3369172  18.5946807  85.7333232  13.8672324  21.5047040  90.4477894
  13.9209347  22.0737976  91.2155610  12.9987106  21.6748925  90.0831932
  20.9959979  17.9468646  91.4477679  21.1895869  18.8514457  91.6936954
  20.8960597  17.4876065  92.2816264  11.6248756  19.6957966  89.7763364
  11.4859842  19.3276751  90.6489302  10.8363352  20.2105606  89.6047322
  12.2196908  24.7967063  81.1188900  12.3948664  24.3255106  81.9334523
  11.5329696  25.4232829  81.3470161  13.1753971  19.0739569  87.1652202
  12.8403804  19.0340339  88.0609852  12.6757917  18.4084285  86.6922612
  16.1113163  16.4195603  77.4389261  15.4942333  15.6942431  77.3422314
  15.6429651  17.1804963  77.0956336   6.7857993  27.9456425  87.8928761
   7.0254591  28.5774950  88.5707779   5.9427190  27.5944465  88.1794120
  11.2985855  23.7535548  90.2970265  11.2256027  24.5590519  90.8089569
  10.8563248  23.9527514  89.4718286  11.0875635  22.9907318  83.8073086
  10.3043157  23.5328998  83.9011311  11.7868380  23.5081297  84.2067327
  22.2502042  14.5042313  88.0925583  22.2391918  15.3867028  87.7219516
  21.3819422  14.1513864  87.8980120  13.7584539  23.6522382  92.4528423
  14.4712511  24.2869847  92.3804325  13.2674567  23.7486248  91.6368425
  15.4802066  17.5573635  84.0245715  14.5458344  17.6775097  83.8550419
  15.6578734  16.6546101  83.7605725  18.8674617  13.3990954  84.5595749
  19.3335069  14.2318945  84.4856052  19.3182117  12.9335935  85.2641008
  16.9350848  19.7434775  81.5581901  17.2110692  19.6291370  82.4675775
  16.0655347  19.3452260  81.5194074  13.5704912  23.9921126  85.2014715
  13.7527307  23.1742782  85.6642467  14.3937898  24.2088818  84.7639605
  13.9047077  22.9189311  82.4629763  14.4334844  22.4081766  81.8499925
  14.1675297  22.6031841  83.3275296   7.2602825  23.9704428  85.2227539
   6.5913201  24.4550555  84.7391579   7.1215695  24.2173648  86.1370918
  11.4008094  26.0048171  91.8210197  11.9526402  26.1679793  92.5859283
  11.7414287  26.5952609  91.1490222  14.5376481  23.9530147  88.8073880
  14.4127621  23.1519887  88.2984825  15.1955572  24.4476340  88.3187850
  16.6011390  21.7539167  90.4353430  15.6541725  21.6344518  90.3631756
  16.9494163  20.8661665  90.5179691  13.6057823  21.5491883  86.6357782
  13.4582785  20.6208591  86.8165352  14.4311316  21.5711974  86.1514857
  17.2091945  22.3720442  87.7222655  18.1338492  22.1663303  87.5847106
  17.0407248  22.1236843  88.6311996  16.9987261  22.8906109  83.0784746
  17.1724139  22.3252532  82.3258599  17.4916152  23.6907004  82.8964236
  22.8526652  15.6542532  84.6975046  23.2957798  14.9049857  84.2994169
  21.9753162  15.6452669  84.3148778  17.9862434  22.2072874  80.1781644
  18.6813338  22.8279566  80.3968959  18.3285584  21.3568225  80.4534022
  19.8853857  19.6572579  81.7068975  20.4105181  19.9959852  80.9818295
  19.7976209  18.7219595  81.5232110  11.5694517  25.7244562  86.0664228
  11.1299508  25.2320941  86.7597085  12.3202634  25.1817530  85.8256304
   4.0486856  21.9156103  86.0688856   4.8744876  21.6159875  85.6887500
   3.6980908  21.1463726  86.5178645   9.0168390  21.2682572  88.1386530
   8.3948399  20.6053277  87.8388758   9.6873256  21.2943703  87.4560178
   8.5781896  19.8186495  81.6144991   8.7270017  20.5021959  80.9611663
   9.3848340  19.7991585  82.1294446  22.3959517  17.1247771  87.0897493
  23.2306408  17.5637575  87.2535054  22.5318646  16.6486424  86.2705739
   6.3334529  15.8451673  82.6206060   6.0880571  14.9414003  82.8186270
   6.5030444  15.8468823  81.6785538  12.0777302  22.3134625  79.0856738
  11.5051269  22.9324813  78.6327210  12.6510096  22.8633987  79.6196660
  15.2974562  22.5971776  80.2165320  16.2305235  22.5317337  80.4198196
  15.2097775  23.4328042  79.7579853  17.9262578  21.9137646  77.1769268
  17.8476210  21.5797509  78.0705026  18.7472245  22.4059414  77.1760740
  20.6240770  14.7799385  90.3845586  20.5917090  13.8415386  90.5705270
  21.2341393  14.8583422  89.6511411  12.4624100  13.6495438  76.4272791
  13.4083205  13.5201646  76.4961209  12.0838345  12.9110100  76.9042219
  26.4417319  15.8415392  89.5251623  27.1720708  15.5800680  90.0859327
  25.8324265  15.1044114  89.5653691  24.5232617  13.9823255  90.1226074
  23.7965780  13.8479220  89.5142566  24.1079903  14.2900083  90.9282793
  17.5698439   7.3060876  83.6474878  16.9897108   7.9645680  83.2652930
  17.3034371   6.4838221  83.2362295  16.3523317   9.4660967  82.7031226
  15.4649172   9.7510617  82.4851421  16.7677306   9.3054730  81.8558503
  19.7037853   9.4907488  86.4185565  20.4798243   9.9803940  86.6910182
  18.9785987   9.9165542  86.8757435  22.1410411  10.2035107  87.4759506
  22.7354902   9.9630843  86.7652814  22.2136995   9.4842237  88.1033042
   4.3607567  24.0468718  87.7902671   4.2262035  23.2869119  87.2240669
   3.9439629  24.7709618  87.3231460  15.4966530  19.2305641  76.7979246
  16.2002380  19.4355644  77.4136902  14.7729179  19.7982403  77.0628330
  16.3264340  14.9815503  82.9181516  16.2699542  15.4384054  82.0789149
  16.8792683  14.2206187  82.7404359  20.1369146  10.7705234  83.7431636
  19.8806081  10.3701870  84.5739844  19.5122014  11.4849028  83.6181775
  24.4481484  13.5101308  86.2502927  23.8881042  13.5794497  87.0234489
  23.8424988  13.3342292  85.5302424   7.5176693  24.9438035  88.0021114
   7.4009077  25.8883467  87.8999804   6.6969139  24.6411596  88.3906913
  17.4053228  19.6688170  78.8477706  18.2398832  19.2369369  78.6655181
  17.2437571  19.4970184  79.7754601  17.0599120  16.1720284  80.2134046
  17.0047924  16.0064555  79.2722490  16.4345175  16.8796317  80.3696235
   8.5431207  25.5966297  91.2177042   9.4458454  25.6289907  91.5343537
   8.3168577  24.6666748  91.2323378  10.2984809  24.3497283  87.8787121
   9.3480440  24.3499145  87.7651493  10.6017295  23.6030018  87.3623155
  26.0337503  30.1857822  88.9432883  26.6715913  30.0664569  88.2396223
  25.9158346  31.1338666  89.0020835  22.8427209  30.1385250  88.8794408
  22.5045720  30.0226314  87.9914943  23.7116977  29.7376415  88.8595414
  18.7014025  31.9920726  84.8691299  18.1378890  31.9010663  84.1007586
  18.5866420  31.1720631  85.3493791  23.3246992  31.2920101  94.8380613
  23.3135633  30.8972900  93.9661117  23.4867631  30.5586174  95.4314385
  16.2478457  33.4871918  87.7075519  17.0399749  33.1462742  87.2921818
  16.4875107  33.5966893  88.6277672  24.2813583  35.6591694  80.1805764
  23.6301563  36.2445774  79.7939777  25.0757946  36.1897889  80.2400801
  18.2069211  32.7480831  80.5792898  18.9800087  32.2009818  80.4405774
  18.5594609  33.6125080  80.7907359  20.0454253  34.0757213  93.7859797
  19.7544119  34.9802844  93.6706464  20.6811237  34.1173741  94.5003867
  20.9710460  31.4534062  90.3761157  21.5674032  31.2290084  89.6618120
  21.0285431  30.7118807  90.9786605  20.5435488  28.9073497  78.2111348
  20.7961009  28.3855018  77.4494811  19.6060047  28.7439642  78.3138031
  25.5878771  27.9109275  86.0186091  26.3741860  27.4928699  85.6676508
  25.8517476  28.8155368  86.1867739  25.7588849  33.3482126  80.7174748
  25.1234682  33.4216752  81.4295652  25.4286255  33.9375725  80.0393827
  30.9887198  27.8484509  86.9219070  31.7212370  27.2783725  87.1556899
  30.2326554  27.4606109  87.3625575  20.2631777  30.8101603  80.4135723
  20.1468035  30.1346506  81.0816807  20.3734037  30.3233977  79.5967876
  22.6063318  30.2711750  84.1182412  22.2421525  29.7442371  84.8295333
  23.4630434  29.8810219  83.9448897  28.5112619  21.5606083  91.3813678
  28.1795943  22.4301494  91.1574893  27.9158232  21.2442367  92.0607709
  22.2468805  25.3001650  79.1143761  22.4143207  26.1681886  79.4814232
  22.0565974  25.4628932  78.1905050  25.0044138  33.7618629  90.7809591
  24.7044861  34.6643668  90.6725398  24.6595198  33.4950812  91.6330744
  18.4556620  30.2132426  86.8146295  17.5307116  30.0808640  87.0223987
  18.7041033  30.9926645  87.3116238  28.4041282  26.2801169  88.4607028
  27.4958159  26.2116577  88.1665789  28.3528878  26.7573114  89.2888854
  22.2258026  27.7559307  80.0990427  22.1057651  28.2016358  80.9375908
  21.5310614  28.1044625  79.5403965  15.8165431  29.8565699  87.6490084
  15.9457812  30.1100178  88.5629496  15.1362882  30.4493407  87.3294739
  19.9864918  40.5262949  83.7480559  19.9088948  41.4770774  83.8269039
  19.3826562  40.1808822  84.4055485  22.4782148  27.6990814  96.4041925
  21.7015482  28.2584735  96.3944790  23.1172711  28.1847597  96.9256796
  30.2702928  24.4817607  90.2384902  29.6277309  24.7750140  89.5924697
  29.7657857  24.3670528  91.0438099  27.9243092  28.2280780  80.9270761
  28.8360948  28.4608167  80.7518459  27.4152739  28.8117825  80.3645840
  20.7328520  30.5076268  95.9659892  21.4743204  31.0461312  95.6894716
  20.0265506  31.1342557  96.1231444  26.2083860  32.6505408  94.5632054
  26.6167216  32.2087819  93.8186686  25.4861121  32.0758036  94.8166247
  22.5614930  27.5878015  91.9365611  23.4076125  28.0117429  92.0800260
  22.5013567  26.9311639  92.6304174  26.5312674  33.2106599  88.3184343
  25.9021537  33.3752313  87.6160411  26.1438336  33.6248208  89.0895307
  30.4101906  34.1461037  85.6728707  29.7252944  34.5259938  85.1225740
  30.4945756  34.7556363  86.4060654  25.7114375  25.2482383  93.5946785
  25.4675307  26.0024444  93.0581060  25.9874306  25.6267731  94.4294032
  27.6652838  31.7920996  92.2724050  27.8769733  32.4352756  91.5958431
  27.6182586  30.9583312  91.8045980  25.2679067  24.4038816  89.1760622
  24.4063546  24.7020070  89.4677360  25.2941501  24.6209215  88.2441655
  22.0840636  32.9481007  85.5834428  22.5478982  33.2268710  84.7939050
  21.8197434  32.0464452  85.4007519  18.9764717  32.4952489  88.5214191
  19.5466074  32.9239757  87.8831676  19.5672829  32.2135073  89.2198377
  21.0209522  29.0704159  82.3923993  21.7233566  29.5225203  82.8597919
  20.6890151  28.4287978  83.0203886  19.4689884  27.6615916  96.7675202
  18.8388544  28.3432197  97.0010599  19.3625972  27.5498998  95.8228341
  14.7634856  27.3287712  87.6941127  13.9733910  27.5845241  87.2181237
  15.2546104  28.1436050  87.7993167  28.7798666  34.6692951  90.4446407
  29.6016110  34.2673139  90.1629089  28.7761069  34.5661185  91.3962523
  16.7149602  27.6932291  84.6524603  15.9180765  27.8050986  85.1708099
  16.4875194  28.0318944  83.7865494  22.5455269  34.2176995  92.6007118
  22.6099702  34.6797402  93.4365290  21.8366193  33.5874359  92.7289428
  13.0472559  27.5818202  90.1256117  13.2980598  28.4665212  90.3913693
  13.5832108  27.4022804  89.3531209  36.8704659  31.0131700  86.7931379
  36.1168367  30.4439098  86.6375383  37.0052200  30.9794364  87.7402014
  22.2603287  35.8845102  82.4686098  22.1248962  36.7296638  82.8970946
  22.8013099  36.0864380  81.7052032  15.7132684  33.4020540  83.0414023
  16.2257205  34.1963790  83.1919588  16.3655397  32.7046830  82.9747625
  17.5227569  36.5186296  85.1236777  17.6994197  37.4404261  84.9357760
  18.3184403  36.2044716  85.5531156  21.6638588  23.3794561  96.7220710
  22.4048301  23.9801714  96.6425173  21.8956510  22.6372199  96.1638753
  16.8079926  28.5650928  94.9998940  16.6933441  27.6636185  95.3006039
  15.9524443  28.8114625  94.6483756  23.8871763  36.5068669  96.5986440
  23.4435617  35.7205047  96.2807345  24.5488977  36.6947819  95.9330331
  18.6458884  38.0364470  91.1247119  19.1966310  37.9081533  90.3524113
  17.8070360  38.3359359  90.7742012  25.9853001  36.7871468  94.6267842
  25.9671477  37.6080349  94.1348111  26.9072921  36.6625544  94.8517983
  22.4426056  34.3015598  95.4691350  22.9754392  33.5403886  95.2390658
  21.9140137  34.0089250  96.2115505  25.6095750  19.4075664  90.9984992
  25.2660020  20.2977306  90.9224102  25.9774713  19.2177322  90.1354577
  13.6781601  31.7309194  83.8173594  14.5156823  32.1406203  83.6007302
  13.8559869  30.7908637  83.7873788  25.5746033  29.3984275  79.5057427
  25.0592657  30.1688880  79.7445814  25.3023342  28.7249411  80.1290488
  23.1593144  24.2433976  84.5642665  22.3034741  23.8540826  84.3848304
  23.5720096  24.3225937  83.7042451  24.6892291  21.7780319  88.9634225
  24.1857086  21.7410454  88.1502030  24.9822898  22.6873062  89.0230882
  20.9335177  21.8619049  87.9700407  21.7988174  21.6661857  87.6106296
  21.0012686  21.6329401  88.8969764  30.5480307  32.1516630  81.4410600
  29.7709750  31.8127789  80.9965762  31.2271788  32.1569253  80.7665565
  25.3632336  27.2711367  81.3317208  25.0582472  27.5857516  82.1827351
  26.3162778  27.3492787  81.3744541  23.8078768  33.4301590  82.9810162
  23.2800130  32.6954350  82.6683400  23.3066271  34.2076267  82.7350130
  28.7871614  31.6250611  88.0977208  28.1295289  32.3149872  88.1857337
  29.5912013  32.0147043  88.4411195  18.5397496  24.0921257  85.3416774
  19.1141248  23.8696438  84.6089967  19.1268478  24.1609951  86.0945375
  27.5977073  29.9794984  86.1481150  28.1108955  30.6124975  86.6502860
  28.2478297  29.3796179  85.7824510  18.8667083  26.1225718  79.3612659
  18.0304395  26.4600404  79.6821934  18.7271853  25.9874698  78.4239796
  20.8420164  20.9662506  84.0691843  20.1884576  20.6511523  83.4448458
  20.8000638  20.3438246  84.7951666  21.9531368  31.2481801  75.9845135
  21.0458430  31.0171054  76.1836284  22.4502400  30.4519420  76.1719117
  24.8599447  39.9579308  78.9041821  24.1861146  40.2611005  79.5126779
  25.2465269  40.7608388  78.5547278  24.0757904  27.4544439  88.3939491
  23.1580465  27.6759386  88.2361179  24.4918048  27.5290750  87.5351198
  24.8592952  28.8535855  83.5242171  25.6064771  29.3657252  83.2149293
  25.1284541  28.5319908  84.3846564  23.1319602  31.3494396  80.5069125
  22.2230821  31.0653428  80.6041595  23.1614686  31.7693474  79.6472432
  28.3638869  34.9600985  84.2760293  27.9101196  34.1191895  84.3325483
  27.7332836  35.5962383  84.6135073  27.3071789  25.8892971  85.5060960
  26.5694546  25.3770357  85.8371203  27.5598562  25.4493353  84.6944237
  26.8071808  36.7977482  85.2110111  27.0994783  37.3582539  84.4922477
  27.3170429  37.0906043  85.9663270  27.4083416  18.6669223  86.1002729
  27.7142293  17.8066587  85.8128645  28.1336021  19.2586843  85.9001723
  13.7007772  29.0699910  84.4884327  13.5032172  28.4769270  83.7635394
  13.1454436  28.7652120  85.2060266  21.6804496  28.9623016  86.6078921
  21.7353106  28.0096853  86.5321397  20.8695698  29.1182455  87.0920219
  22.8295690  32.8903139  77.8457204  22.3915120  32.1738998  77.3862841
  23.5706131  33.1179254  77.2842295  19.6196856  27.5800076  84.3669299
  18.8064721  27.8794246  84.7734492  20.1155850  27.1855765  85.0843782
  21.7705434  37.5757833  86.3003564  21.7281612  37.8018679  85.3712096
  22.6868133  37.3421207  86.4489365  25.2171067  28.0441900  93.1984193
  25.5720455  28.2713373  94.0578659  25.8643199  28.3760277  92.5761449
  30.9468804  31.1660336  83.9033522  30.8086703  31.3561932  82.9754712
  30.5905023  31.9279719  84.3601573  19.1110931  25.1518431  89.9830534
  19.7510310  25.0107191  89.2853498  18.2788461  24.8652945  89.6069136
  30.9738184  33.2336863  88.9144794  31.4074691  33.1412152  89.7627848
  31.6869765  33.2094364  88.2764810  19.8871234  34.4520862  86.0965527
  20.6811833  33.9571182  85.8948102  19.1762927  33.9238725  85.7333232
  24.7066079  36.8338957  90.4477894  24.7603101  37.4029894  91.2155610
  23.8380860  37.0040842  90.0831932  16.1953998  28.5963944  82.1725279
  15.2651586  28.5348399  82.3895242  16.2911470  28.0739896  81.3761921
  16.1139547  25.1218756  84.7603521  16.3746364  26.0364090  84.6512682
  16.9356719  24.6543199  84.9100134  17.5864472  26.5356514  91.9302346
  18.2587526  26.3273876  91.2814995  16.7594259  26.3378600  91.4907578
  31.8353734  33.2760564  91.4477679  32.0289624  34.1806374  91.6936954
  31.7354352  32.8167983  92.2816264  23.4890044  23.1618454  93.9468007
  22.8417959  23.8608404  93.8532483  24.2591060  23.5954598  94.3144255
  26.8968842  33.4267307  97.0218560  26.7454349  33.1977858  96.1048644
  26.8873522  34.3837908  97.0349905  23.6654179  30.9999219  92.0064826
  24.5946239  31.1510379  91.8333794  23.2445209  31.0883240  91.1513473
  22.4642510  35.0249884  89.7763364  22.3253596  34.6568668  90.6489302
  21.6757107  35.5397523  89.6047322  23.0590662  40.1258980  81.1188900
  23.2342418  39.6547023  81.9334523  22.3723450  40.7524746  81.3470161
  24.0147726  34.4031487  87.1652202  23.6797558  34.3632256  88.0609852
  23.5151671  33.7376202  86.6922612  17.9891970  29.8099117  92.6904783
  17.8511767  29.0779355  93.2916322  18.8996893  29.7208017  92.4088971
  26.9506917  31.7487521  77.4389261  26.3336088  31.0234349  77.3422314
  26.4823406  32.5096881  77.0956336  20.6174270  29.5219076  92.1788463
  21.3273889  28.8812268  92.1375081  20.5743578  29.7731971  93.1014643
  28.6061049  36.4586429  95.0995042  28.5473595  35.7745649  94.4325625
  29.0080567  37.2005419  94.6475668  19.3303204  26.5084294  93.9984102
  18.7940561  26.0575032  94.6505698  18.7419913  26.6430203  93.2554566
  17.6251748  43.2748343  87.8928761  17.8648346  43.9066867  88.5707779
  16.7820944  42.9236383  88.1794120  18.7405463  25.9672945  76.5610566
  17.8634929  25.8461746  76.1972812  19.2163216  25.1759023  76.3089454
  28.6078456  34.4226013  93.3309021  27.7205235  34.0851935  93.4535420
  29.1777007  33.6909044  93.5677787  10.2607603  30.7550105  86.6552073
  10.9478643  30.4411835  86.0673088  10.1055732  31.6591470  86.3819324
  15.0642325  25.6440301  91.0837096  14.9800514  25.0365971  90.3487506
  14.2425032  26.1349320  91.0846593  22.1379610  39.0827465  90.2970265
  22.0649781  39.8882437  90.8089569  21.6957003  39.2819431  89.4718286
  21.9269389  38.3199236  83.8073086  21.1436911  38.8620916  83.9011311
  22.6262134  38.8373215  84.2067327  25.2366039  24.1293865  86.4507292
  25.7334739  23.3763827  86.1308362  24.4653021  24.1658182  85.8850501
  33.0895797  29.8334231  88.0925583  33.0785673  30.7158946  87.7219516
  32.2213176  29.4805781  87.8980120  24.5978293  38.9814300  92.4528423
  25.3106265  39.6161764  92.3804325  24.1068322  39.0778166  91.6368425
  26.3195820  32.8865552  84.0245715  25.3852099  33.0067015  83.8550419
  26.4972488  31.9838019  83.7605725  21.8201008  26.2711248  86.1778976
  21.4498796  25.7182288  86.8659882  22.3160101  25.6669381  85.6253976
  29.7068371  28.7282871  84.5595749  30.1728824  29.5610863  84.4856052
  30.1575872  28.2627853  85.2641008  19.6490207  36.7308743  93.2733994
  20.3499666  37.3645226  93.4263388  19.1785322  37.0723475  92.5129633
  27.7744602  35.0726693  81.5581901  28.0504446  34.9583287  82.4675775
  26.9049101  34.6744178  81.5194074  27.6785034  21.0963458  88.5986650
  26.7648114  21.3267685  88.7668857  28.1078136  21.1801903  89.4500683
  27.4491493  29.2853350  91.0986544  26.7962943  29.5329258  90.4438997
  27.8271872  28.4717489  90.7649022  24.4098666  39.3213044  85.2014715
  24.5921061  38.5034700  85.6642467  25.2331652  39.5380736  84.7639605
  24.7440832  38.2481229  82.4629763  25.2728598  37.7373683  81.8499925
  25.0069052  37.9323759  83.3275296  23.4979066  30.0273161  97.5852582
  22.8219703  29.9267291  98.2554957  24.3206700  29.8712375  98.0488579
  15.2457925  36.2645098  90.2065097  15.8311362  35.5188786  90.3393001
  15.0482763  36.5749055  91.0901761  18.0996580  39.2996345  85.2227539
  17.4306955  39.7842473  84.7391579  17.9609450  39.5465566  86.1370918
   9.8375579  28.8350698  88.9269540   9.8759679  28.3014289  89.7206658
   9.3315872  28.3085904  88.3080517  22.2401848  41.3340089  91.8210197
  22.7920157  41.4971710  92.5859283  22.5808042  41.9244527  91.1490222
  17.2166342  23.6815239  92.4232082  17.2807668  24.5430070  92.0109480
  17.1533462  23.0689240  91.6904441  27.0912723  36.1601346  97.6758852
  27.6352627  36.7731305  97.1813807  26.5099568  36.7180925  98.1925865
  13.4684157  27.5614800  82.0023471  13.7637598  26.6525479  81.9490525
  12.5672193  27.5402540  81.6804474  25.3770236  39.2822064  88.8073880
  25.2521375  38.4811804  88.2984825  26.0349327  39.7768258  88.3187850
  16.9978404  25.6370797  87.9851020  16.2764990  26.2506765  87.8458493
  17.7871660  26.1728562  87.9067666  27.4405144  37.0831085  90.4353430
  26.4935480  36.9636436  90.3631756  27.7887917  36.1953583  90.5179691
  19.8004718  22.9725223  94.2591672  20.3239119  23.2187520  95.0217981
  19.5817051  23.8045258  93.8394809  15.1971999  25.2428898  82.1262796
  14.8684705  24.3626277  81.9437902  15.5511369  25.1876567  83.0139186
  24.4451577  36.8783801  86.6357782  24.2976540  35.9500508  86.8165352
  25.2705071  36.9003891  86.1514857  18.3113822  25.5301868  82.4938274
  18.6509894  26.0587789  81.7716882  18.7585942  25.8682274  83.2696841
  28.0485699  37.7012359  87.7222655  28.9732247  37.4955221  87.5847106
  27.8801003  37.4528761  88.6311996  21.0057263  23.9138919  91.9441342
  20.6654083  23.1146732  92.3462022  20.2996269  24.2140629  91.3718175
  21.6573734  20.9988231  90.3968665  22.4799804  20.5248709  90.2747556
  21.9011798  21.7778715  90.8967351  20.2981969  24.0276489  80.6931567
  21.0190331  24.4057742  80.1895284  19.6747273  24.7465366  80.7966545
  24.4413092  24.7321638  81.6289899  24.6576706  25.6146276  81.3278727
  23.9607159  24.3407852  80.8995541  19.1812313  27.6907352  88.2060644
  19.0356894  28.0047655  89.0984925  18.7037517  28.3092252  87.6531542
  21.0408696  24.6809900  88.2541533  21.0270265  23.7850993  87.9173831
  21.7581124  24.6880563  88.8879819  22.8934827  25.1147240  90.2994661
  22.6352605  26.0364310  90.2978991  22.3619867  24.7177674  90.9895125
  27.8381016  38.2198027  83.0784746  28.0117893  37.6544449  82.3258599
  28.3309907  39.0198922  82.8964236  13.6557975  30.2312696  91.1448305
  13.1111443  31.0072504  91.2768579  14.5337325  30.5783501  90.9867426
  20.4445592  23.5624280  83.5229103  20.5661503  22.6340926  83.7219991
  20.1547634  23.5762966  82.6107419  23.3136782  21.2479190  86.6595823
  23.3358479  21.3118523  85.7047803  23.7304841  20.4083699  86.8536329
  33.6920407  30.9834450  84.6975046  34.1351553  30.2341775  84.2994169
  32.8146917  30.9744586  84.3148778  28.8256188  37.5364791  80.1781644
  29.5207093  38.1571484  80.3968959  29.1679338  36.6860143  80.4534022
  14.4423997  29.3582592  94.0378462  13.7005733  29.5065228  94.6243092
  14.1216741  29.6190858  93.1745211  30.7247611  34.9864497  81.7068975
  31.2498935  35.3251770  80.9818295  30.6369964  34.0511512  81.5232110
  22.3867660  38.8998571  93.8358852  22.6954786  38.6547717  94.7081551
  23.1843142  39.1045209  93.3477722  22.4088272  41.0536480  86.0664228
  21.9693262  40.5612859  86.7597085  23.1596389  40.5109448  85.8256304
  14.8880611  37.2448021  86.0688856  15.7138631  36.9451793  85.6887500
  14.5374663  36.4755643  86.5178645  19.8562144  36.5974489  88.1386530
  19.2342153  35.9345194  87.8388758  20.5267011  36.6235621  87.4560178
  13.0889216  35.1634347  87.0277790  12.2521124  34.7356522  86.8461791
  13.0612861  35.3566791  87.9648581  30.4141517  35.6197401  97.0120173
  29.6237061  35.6021539  96.4724673  30.1774872  36.1585694  97.7669210
  30.5339392  32.4689867  94.3252902  30.5837397  32.3039874  95.2668425
  30.4253316  31.6017126  93.9350782  19.4175651  35.1478413  81.6144991
  19.5663771  35.8313877  80.9611663  20.2242094  35.1283503  82.1294446
  27.8243155  28.4520795  95.6412208  28.7253017  28.3127260  95.3496206
  27.8991129  28.6175250  96.5810386  22.1585960  25.8287650  94.4865395
  21.2889269  26.1221216  94.2147983  22.3945440  26.4128095  95.2072658
  32.0357589  34.8886808  94.5694923  31.7442397  35.2516789  95.4058384
  31.4229720  34.1753817  94.3908255  33.2353271  32.4539688  87.0897493
  34.0700163  32.8929492  87.2535054  33.3712400  31.9778341  86.2705739
  30.2844777  30.0119423  93.0374981  30.7598899  30.2047069  92.2293833
  29.3610343  30.0678609  92.7918365  17.1728284  31.1743590  82.6206060
  16.9274326  30.2705920  82.8186270  17.3424198  31.1760741  81.6785538
  24.8624994  22.0467267  92.0030815  25.3806938  22.7828294  91.6777304
  24.5080127  22.3531260  92.8377574  16.4423931  26.9071948  80.1192221
  15.7493176  26.9816303  79.4632257  16.1975683  26.1432291  80.6413738
  25.1137588  18.4667549  87.5231712  25.3939342  17.7990738  88.1492138
  25.8988195  18.6596645  87.0106376  22.9171056  37.6426543  79.0856738
  22.3445024  38.2616730  78.6327210  23.4903850  38.1925905  79.6196660
  28.9846446  26.8885183  91.2703287  29.9363869  26.9883281  91.2915511
  28.8149897  26.0963452  91.7801371  27.0060826  23.9740766  91.4562688
  26.4110758  24.2545779  90.7609176  26.7210522  24.4634667  92.2279429
  26.1368316  37.9263693  80.2165320  27.0698989  37.8609255  80.4198196
  26.0491529  38.7619960  79.7579853  28.7656333  37.2429564  77.1769268
  28.6869964  36.9089427  78.0705026  29.5866000  37.7351331  77.1760740
  31.4634524  30.1091303  90.3845586  31.4310844  29.1707304  90.5705270
  32.0735148  30.1875340  89.6511411  23.3017855  28.9787356  76.4272791
  24.2476960  28.8493564  76.4961209  22.9232100  28.2402018  76.9042219
  31.6129013  26.9002346  90.4303870  31.0968061  26.1160803  90.2433799
  32.4968961  26.5721063  90.5950389  29.2739739  20.6443362  86.3899682
  29.0764561  20.3358450  87.2743014  29.8839445  21.3705001  86.5197612
  37.2811074  31.1707310  89.5251623  38.0114462  30.9092598  90.0859327
  36.6718019  30.4336032  89.5653691  35.3626371  29.3115172  90.1226074
  34.6359535  29.1771137  89.5142566  34.9473658  29.6192001  90.9282793
  23.1856547  33.0305102  97.8873448  24.1059557  33.2083701  98.0813494
  23.1506131  32.0861147  97.7353147  21.4860772  26.9037332  76.3627676
  20.5792227  26.6070445  76.4390389  21.7636753  26.6067150  75.4961962
  12.4038712  28.2243696  86.8126722  12.0841497  27.3709004  86.5201096
  11.8572141  28.4392274  87.5684689  16.1818620  30.9406137  90.5296229
  16.4004630  31.8723244  90.5484262  16.5944394  30.5814111  91.3151033
  23.1022838  21.4474222  82.5171917  22.2923566  21.1021307  82.8927163
  23.7907255  21.1381766  83.1059529  25.0313386  20.5252269  84.1396214
  25.5844425  20.9447722  84.7986237  25.2683472  19.5988017  84.1819170
  20.2559557  23.7624267  76.5039655  21.1178721  24.0879166  76.7635472
  20.4409901  22.9755763  75.9912721  12.2726972  31.8446607  88.7819844
  11.5790444  31.4300560  88.2689798  13.0199963  31.8867144  88.1853263
  28.4092193  22.6352794  83.6474878  27.8290862  23.2937598  83.2652930
  28.1428126  21.8130138  83.2362295  26.8595760  22.0357852  85.8496198
  27.3595538  22.1474386  85.0410517  27.5031367  21.7318904  86.4897007
  20.9177755  29.9436481  98.7364039  20.4344837  30.7436841  98.9427928
  21.0038694  29.9544426  97.7831483  14.1863715  31.7764861  86.6585859
  14.1634403  31.8752548  85.7067742  14.4964352  32.6230012  86.9803025
  16.8451093  33.8341016  90.7732473  17.7994346  33.8024958  90.7062405
  16.6463616  33.3731640  91.5882699  17.4350475  32.4042132  93.3403271
  18.2543364  32.8986211  93.3638108  17.7087283  31.4874100  93.3120838
  27.1917071  24.7952884  82.7031226  26.3042926  25.0802535  82.4851421
  27.6071060  24.6346648  81.8558503  30.5431607  24.8199405  86.4185565
  31.3191997  25.3095858  86.6910182  29.8179742  25.2457459  86.8757435
  32.9804166  25.5327024  87.4759506  33.5748657  25.2922760  86.7652814
  33.0530750  24.8134155  88.1033042  15.2001322  39.3760635  87.7902671
  15.0655790  38.6161036  87.2240669  14.7833384  40.1001535  87.3231460
  26.3360285  34.5597559  76.7979246  27.0396135  34.7647561  77.4136902
  25.6122933  35.1274321  77.0628330  27.1658095  30.3107420  82.9181516
  27.1093296  30.7675972  82.0789149  27.7186437  29.5498105  82.7404359
  30.9762901  26.0997152  83.7431636  30.7199835  25.6993788  84.5739844
  30.3515769  26.8140946  83.6181775  35.2875239  28.8393225  86.2502927
  34.7274797  28.9086415  87.0234489  34.6818742  28.6634210  85.5302424
  18.3570448  40.2729952  88.0021114  18.2402832  41.2175385  87.8999804
  17.5362894  39.9703514  88.3906913  28.2446982  34.9980088  78.8477706
  29.0792586  34.5661287  78.6655181  28.0831325  34.8262102  79.7754601
  27.8992874  31.5012201  80.2134046  27.8441678  31.3356473  79.2722490
  27.2738930  32.2088234  80.3696235  12.6885389  26.7380266  94.0395468
  13.3344253  26.2279220  94.5282693  12.4802540  27.4748947  94.6138893
  25.2138781  33.8061113  99.5387608  26.0829941  33.9801766  99.1774243
  24.7345533  34.6255530  99.4163338  21.2089000  21.0020310  79.7919364
  21.1967670  21.9462150  79.9487635  22.1012422  20.8190456  79.4978825
  19.3824962  40.9258214  91.2177042  20.2852208  40.9581825  91.5343537
  19.1562332  39.9958665  91.2323378  21.1378564  39.6789201  87.8787121
  20.1874195  39.6791062  87.7651493  21.4411050  38.9321935  87.3623155
  25.0241119  17.5963087  84.0465301  24.2573515  17.0421574  84.1921983
  25.4351824  17.6684956  84.9079452  36.8731257  45.5149739  88.9432883
  37.5109667  45.3956487  88.2396223  36.7552100  46.4630583  89.0020835
  33.6820963  45.4677167  88.8794408  33.3439475  45.3518232  87.9914943
  34.5510732  45.0668332  88.8595414  29.5407779  47.3212644  84.8691299
  28.9772644  47.2302581  84.1007586  29.4260174  46.5012548  85.3493791
  34.1640746  46.6212019  94.8380613  34.1529387  46.2264817  93.9661117
  34.3261386  45.8878092  95.4314385  27.0872211  48.8163835  87.7075519
  27.8793503  48.4754660  87.2921818  27.3268861  48.9258810  88.6277672
  35.1207338  50.9883611  80.1805764  34.4695318  51.5737692  79.7939777
  35.9151701  51.5189806  80.2400801  29.0462965  48.0772749  80.5792898
  29.8193841  47.5301736  80.4405774  29.3988364  48.9416998  80.7907359
  31.8104214  46.7825979  90.3761157  32.4067787  46.5582002  89.6618120
  31.8679186  46.0410725  90.9786605  31.3829243  44.2365415  78.2111348
  31.6354764  43.7146936  77.4494811  30.4453802  44.0731560  78.3138031
  36.4272526  43.2401193  86.0186091  37.2135615  42.8220616  85.6676508
  36.6911230  44.1447285  86.1867739  36.5982603  48.6774043  80.7174748
  35.9628436  48.7508670  81.4295652  36.2680009  49.2667642  80.0393827
  41.8280953  43.1776426  86.9219070  42.5606125  42.6075643  87.1556899
  41.0720309  42.7898027  87.3625575  31.1025532  46.1393521  80.4135723
  30.9861790  45.4638424  81.0816807  31.2127791  45.6525895  79.5967876
  33.4457073  45.6003668  84.1182412  33.0815280  45.0734289  84.8295333
  34.3024188  45.2102137  83.9448897  39.3506373  36.8898000  91.3813678
  39.0189698  37.7593411  91.1574893  38.7551987  36.5734284  92.0607709
  33.0862560  40.6293567  79.1143761  33.2536962  41.4973804  79.4814232
  32.8959729  40.7920849  78.1905050  29.2950374  45.5424343  86.8146295
  28.3700871  45.4100557  87.0223987  29.5434787  46.3218562  87.3116238
  39.2435036  41.6093087  88.4607028  38.3351914  41.5408495  88.1665789
  39.1922632  42.0865031  89.2888854  33.0651780  43.0851225  80.0990427
  32.9451406  43.5308276  80.9375908  32.3704369  43.4336543  79.5403965
  26.6559185  45.1857617  87.6490084  26.7851566  45.4392096  88.5629496
  25.9756637  45.7785325  87.3294739  30.8258672  55.8554867  83.7480559
  30.7482702  56.8062692  83.8269039  30.2220316  55.5100739  84.4055485
  33.3175902  43.0282732  96.4041925  32.5409236  43.5876652  96.3944790
  33.9566465  43.5139515  96.9256796  41.1096683  39.8109525  90.2384902
  40.4671063  40.1042058  89.5924697  40.6051611  39.6962445  91.0438099
  38.7636847  43.5572698  80.9270761  39.6754703  43.7900085  80.7518459
  38.2546494  44.1409742  80.3645840  31.5722275  45.8368186  95.9659892
  32.3136959  46.3753229  95.6894716  30.8659260  46.4634474  96.1231444
  33.4008684  42.9169933  91.9365611  34.2469879  43.3409346  92.0800260
  33.3407322  42.2603557  92.6304174  41.2495661  49.4752954  85.6728707
  40.5646699  49.8551856  85.1225740  41.3339510  50.0848281  86.4060654
  36.5508130  40.5774301  93.5946785  36.3069061  41.3316362  93.0581060
  36.8268060  40.9559649  94.4294032  36.1072821  39.7330734  89.1760622
  35.2457300  40.0311988  89.4677360  36.1335256  39.9501133  88.2441655
  32.9234391  48.2772925  85.5834428  33.3872736  48.5560628  84.7939050
  32.6591189  47.3756369  85.4007519  29.8158472  47.8244406  88.5214191
  30.3859829  48.2531675  87.8831676  30.4066584  47.5426991  89.2198377
  31.8603277  44.3996077  82.3923993  32.5627320  44.8517121  82.8597919
  31.5283905  43.7579896  83.0203886  30.3083638  42.9907834  96.7675202
  29.6782299  43.6724115  97.0010599  30.2019726  42.8790915  95.8228341
  25.6028611  42.6579630  87.6941127  24.8127665  42.9137158  87.2181237
  26.0939858  43.4727968  87.7993167  27.5543356  43.0224209  84.6524603
  26.7574519  43.1342903  85.1708099  27.3268948  43.3610861  83.7865494
  23.8866314  42.9110120  90.1256117  24.1374352  43.7957130  90.3913693
  24.4225862  42.7314722  89.3531209  33.0997041  51.2137020  82.4686098
  32.9642716  52.0588555  82.8970946  33.6406854  51.4156297  81.7052032
  29.5864381  37.2928600  99.1300454  29.1931327  36.7394798  99.8048098
  30.4030521  37.6039178  99.5206971  26.5526439  48.7312458  83.0414023
  27.0650959  49.5255708  83.1919588  27.2049152  48.0338748  82.9747625
  28.3621323  51.8478214  85.1236777  28.5387952  52.7696179  84.9357760
  29.1578157  51.5336633  85.5531156  32.5032342  38.7086479  96.7220710
  33.2442055  39.3093632  96.6425173  32.7350265  37.9664116  96.1638753
  27.6473680  43.8942846  94.9998940  27.5327195  42.9928103  95.3006039
  26.7918198  44.1406543  94.6483756  36.4489505  34.7367582  90.9984992
  36.1053774  35.6269223  90.9224102  36.8168468  34.5469239  90.1354577
  24.5175356  47.0601112  83.8173594  25.3550578  47.4698120  83.6007302
  24.6953623  46.1200554  83.7873788  36.4139788  44.7276193  79.5057427
  35.8986411  45.4980797  79.7445814  36.1417096  44.0541329  80.1290488
  33.9986899  39.5725893  84.5642665  33.1428495  39.1832744  84.3848304
  34.4113850  39.6517854  83.7042451  35.5286045  37.1072237  88.9634225
  35.0250841  37.0702372  88.1502030  35.8216652  38.0164979  89.0230882
  31.7728931  37.1910966  87.9700407  32.6381928  36.9953775  87.6106296
  31.8406440  36.9621318  88.8969764  36.2026091  42.6003285  81.3317208
  35.8976226  42.9149434  82.1827351  37.1556533  42.6784705  81.3744541
  34.6472523  48.7593508  82.9810162  34.1193884  48.0246268  82.6683400
  34.1460025  49.5368184  82.7350130  29.3791250  39.4213174  85.3416774
  29.9535002  39.1988356  84.6089967  29.9662233  39.4901869  86.0945375
  38.4370828  45.3086901  86.1481150  38.9502709  45.9416893  86.6502860
  39.0872051  44.7088097  85.7824510  29.7060837  41.4517635  79.3612659
  28.8698150  41.7892322  79.6821934  29.5665607  41.3166615  78.4239796
  31.6813918  36.2954423  84.0691843  31.0278330  35.9803440  83.4448458
  31.6394392  35.6730164  84.7951666  32.7925123  46.5773718  75.9845135
  31.8852185  46.3462972  76.1836284  33.2896155  45.7811338  76.1719117
  34.9151658  42.7836357  88.3939491  33.9974220  43.0051304  88.2361179
  35.3311802  42.8582667  87.5351198  35.6986706  44.1827772  83.5242171
  36.4458525  44.6949170  83.2149293  35.9678296  43.8611825  84.3846564
  33.9713356  46.6786313  80.5069125  33.0624576  46.3945346  80.6041595
  34.0008440  47.0985392  79.6472432  39.2032624  50.2892903  84.2760293
  38.7494951  49.4483813  84.3325483  38.5726590  50.9254301  84.6135073
  38.1465543  41.2184889  85.5060960  37.4088300  40.7062275  85.8371203
  38.3992317  40.7785270  84.6944237  37.6465563  52.1269399  85.2110111
  37.9388537  52.6874457  84.4922477  38.1564184  52.4197960  85.9663270
  38.2477171  33.9961141  86.1002729  38.5536047  33.1358504  85.8128645
  38.9729775  34.5878761  85.9001723  24.5401527  44.3991827  84.4884327
  24.3425927  43.8061188  83.7635394  23.9848191  44.0944038  85.2060266
  32.5198250  44.2914934  86.6078921  32.5746860  43.3388770  86.5321397
  31.7089452  44.4474373  87.0920219  33.6689444  48.2195057  77.8457204
  33.2308874  47.5030916  77.3862841  34.4099885  48.4471172  77.2842295
  30.4590610  42.9091994  84.3669299  29.6458476  43.2086164  84.7734492
  30.9549604  42.5147682  85.0843782  36.0564822  43.3733818  93.1984193
  36.4114210  43.6005291  94.0578659  36.7036953  43.7052195  92.5761449
  41.7862559  46.4952254  83.9033522  41.6480457  46.6853850  82.9754712
  41.4298778  47.2571637  84.3601573  29.9504685  40.4810349  89.9830534
  30.5904064  40.3399108  89.2853498  29.1182216  40.1944862  89.6069136
  30.7264989  49.7812780  86.0965527  31.5205587  49.2863100  85.8948102
  30.0156681  49.2530643  85.7333232  27.0347752  43.9255861  82.1725279
  26.1045341  43.8640317  82.3895242  27.1305224  43.4031814  81.3761921
  26.9533301  40.4510674  84.7603521  27.2140119  41.3656007  84.6512682
  27.7750474  39.9835117  84.9100134  28.4258227  41.8648431  91.9302346
  29.0981280  41.6565793  91.2814995  27.5988013  41.6670517  91.4907578
  34.3283799  38.4910372  93.9468007  33.6811714  39.1900322  93.8532483
  35.0984814  38.9246516  94.3144255  37.7362597  48.7559224  97.0218560
  37.5848103  48.5269776  96.1048644  37.7267276  49.7129826  97.0349905
  34.5047933  46.3291137  92.0064826  35.4339993  46.4802297  91.8333794
  34.0838963  46.4175158  91.1513473  28.8285724  45.1391034  92.6904783
  28.6905522  44.4071273  93.2916322  29.7390648  45.0499934  92.4088971
  37.7900672  47.0779439  77.4389261  37.1729842  46.3526267  77.3422314
  37.3217160  47.8388799  77.0956336  31.4568025  44.8510994  92.1788463
  32.1667643  44.2104186  92.1375081  31.4137333  45.1023888  93.1014643
  30.1696959  41.8376211  93.9984102  29.6334316  41.3866950  94.6505698
  29.5813667  41.9722120  93.2554566  28.4645502  58.6040261  87.8928761
  28.7042100  59.2358785  88.5707779  27.6214699  58.2528301  88.1794120
  29.5799218  41.2964863  76.5610566  28.7028684  41.1753664  76.1972812
  30.0556971  40.5050941  76.3089454  21.1001358  46.0842023  86.6552073
  21.7872398  45.7703753  86.0673088  20.9449486  46.9883387  86.3819324
  25.9036080  40.9732219  91.0837096  25.8194269  40.3657889  90.3487506
  25.0818786  41.4641237  91.0846593  32.7663144  53.6491153  83.8073086
  31.9830666  54.1912833  83.9011311  33.4655889  54.1665133  84.2067327
  36.0759794  39.4585783  86.4507292  36.5728493  38.7055745  86.1308362
  35.3046775  39.4950099  85.8850501  37.1589574  48.2157470  84.0245715
  36.2245853  48.3358932  83.8550419  37.3366243  47.3129937  83.7605725
  32.6594763  41.6003166  86.1778976  32.2892550  41.0474206  86.8659882
  33.1553855  40.9961299  85.6253976  40.5462126  44.0574789  84.5595749
  41.0122578  44.8902781  84.4856052  40.9969626  43.5919771  85.2641008
  38.5178789  36.4255376  88.5986650  37.6041868  36.6559603  88.7668857
  38.9471890  36.5093820  89.4500683  38.2885247  44.6145268  91.0986544
  37.6356697  44.8621176  90.4438997  38.6665627  43.8009406  90.7649022
  34.3372820  45.3565079  97.5852582  33.6613457  45.2559209  98.2554957
  35.1600454  45.2004293  98.0488579  26.0851679  51.5937016  90.2065097
  26.6705116  50.8480704  90.3393001  25.8876518  51.9040972  91.0901761
  28.9390334  54.6288263  85.2227539  28.2700710  55.1134391  84.7391579
  28.8003204  54.8757484  86.1370918  20.6769334  44.1642616  88.9269540
  20.7153433  43.6306207  89.7206658  20.1709627  43.6377821  88.3080517
  28.0560096  39.0107156  92.4232082  28.1201423  39.8721987  92.0109480
  27.9927216  38.3981158  91.6904441  27.5312369  41.0830289  96.0705116
  28.1584408  40.7007366  96.6842641  26.6740288  40.8644491  96.4360809
  24.3077911  42.8906718  82.0023471  24.6031353  41.9817396  81.9490525
  23.4065947  42.8694458  81.6804474  27.8372158  40.9662715  87.9851020
  27.1158744  41.5798682  87.8458493  28.6265414  41.5020479  87.9067666
  30.6398472  38.3017141  94.2591672  31.1632874  38.5479438  95.0217981
  30.4210805  39.1337176  93.8394809  26.0365753  40.5720816  82.1262796
  25.7078459  39.6918195  81.9437902  26.3905124  40.5168484  83.0139186
  29.1507576  40.8593786  82.4938274  29.4903649  41.3879707  81.7716882
  29.5979697  41.1974192  83.2696841  31.8451017  39.2430836  91.9441342
  31.5047837  38.4438649  92.3462022  31.1390023  39.5432547  91.3718175
  32.4967489  36.3280149  90.3968665  33.3193558  35.8540627  90.2747556
  32.7405552  37.1070632  90.8967351  31.1375723  39.3568407  80.6931567
  31.8584086  39.7349660  80.1895284  30.5141028  40.0757284  80.7966545
  35.2806846  40.0613556  81.6289899  35.4970461  40.9438194  81.3278727
  34.8000913  39.6699770  80.8995541  30.0206068  43.0199269  88.2060644
  29.8750648  43.3339572  89.0984925  29.5431271  43.6384170  87.6531542
  31.8802451  40.0101817  88.2541533  31.8664019  39.1142911  87.9173831
  32.5974879  40.0172481  88.8879819  33.7328581  40.4439158  90.2994661
  33.4746359  41.3656228  90.2978991  33.2013622  40.0469592  90.9895125
  24.4951730  45.5604614  91.1448305  23.9505198  46.3364422  91.2768579
  25.3731080  45.9075418  90.9867426  31.2839346  38.8916198  83.5229103
  31.4055258  37.9632844  83.7219991  30.9941389  38.9054884  82.6107419
  34.1530537  36.5771108  86.6595823  34.1752234  36.6410441  85.7047803
  34.5698596  35.7375617  86.8536329  44.5314161  46.3126368  84.6975046
  44.9745307  45.5633693  84.2994169  43.6540671  46.3036504  84.3148778
  25.2817752  44.6874510  94.0378462  24.5399488  44.8357145  94.6243092
  24.9610496  44.9482776  93.1745211  25.7274365  52.5739939  86.0688856
  26.5532385  52.2743711  85.6887500  25.3768417  51.8047561  86.5178645
  23.9282970  50.4926265  87.0277790  23.0914879  50.0648440  86.8461791
  23.9006616  50.6858709  87.9648581  30.7680426  40.4048195  97.7319036
  30.8168581  41.2810318  97.3496806  31.3102940  39.8625588  97.1590679
  30.2569405  50.4770330  81.6144991  30.4057526  51.1605795  80.9611663
  31.0635849  50.4575420  82.1294446  38.6636909  43.7812713  95.6412208
  39.5646772  43.6419177  95.3496206  38.7384884  43.9467167  96.5810386
  32.9979714  41.1579567  94.4865395  32.1283024  41.4513133  94.2147983
  33.2339195  41.7420012  95.2072658  28.0122038  46.5035508  82.6206060
  27.7668080  45.5997838  82.8186270  28.1817953  46.5052658  81.6785538
  35.7018748  37.3759184  92.0030815  36.2200692  38.1120211  91.6777304
  35.3473881  37.6823178  92.8377574  27.2817686  42.2363865  80.1192221
  26.5886931  42.3108220  79.4632257  27.0369438  41.4724209  80.6413738
  35.9531342  33.7959467  87.5231712  36.2333096  33.1282656  88.1492138
  36.7381949  33.9888562  87.0106376  33.7564811  52.9718461  79.0856738
  33.1838778  53.5908648  78.6327210  34.3297605  53.5217822  79.6196660
  39.8240201  42.2177101  91.2703287  40.7757624  42.3175198  91.2915511
  39.6543651  41.4255369  91.7801371  37.8454580  39.3032684  91.4562688
  37.2504512  39.5837697  90.7609176  37.5604277  39.7926585  92.2279429
  34.1411609  44.3079273  76.4272791  35.0870714  44.1785482  76.4961209
  33.7625854  43.5693935  76.9042219  42.4522767  42.2294264  90.4303870
  41.9361816  41.4452721  90.2433799  43.3362716  41.9012981  90.5950389
  40.1133494  35.9735280  86.3899682  39.9158315  35.6650368  87.2743014
  40.7233200  36.6996918  86.5197612  32.3254527  42.2329250  76.3627676
  31.4185982  41.9362363  76.4390389  32.6030508  41.9359068  75.4961962
  23.2432467  43.5535613  86.8126722  22.9235251  42.7000921  86.5201096
  22.6965895  43.7684191  87.5684689  27.0212375  46.2698054  90.5296229
  27.2398384  47.2015162  90.5484262  27.4338148  45.9106029  91.3151033
  33.9416592  36.7766140  82.5171917  33.1317321  36.4313225  82.8927163
  34.6301009  36.4673683  83.1059529  35.8707141  35.8544186  84.1396214
  36.4238179  36.2739640  84.7986237  36.1077227  34.9279934  84.1819170
  31.8940240  41.8431260  99.9198978  31.7936967  42.7925617  99.8511069
  31.6761782  41.5149499  99.0475048  31.0953311  39.0916185  76.5039655
  31.9572475  39.4171083  76.7635472  31.2803655  38.3047681  75.9912721
  23.1120727  47.1738525  88.7819844  22.4184198  46.7592478  88.2689798
  23.8593718  47.2159061  88.1853263  39.2485948  37.9644712  83.6474878
  38.6684617  38.6229516  83.2652930  38.9821880  37.1422056  83.2362295
  37.6989514  37.3649769  85.8496198  38.1989292  37.4766304  85.0410517
  38.3425122  37.0610822  86.4897007  31.7571510  45.2728399  98.7364039
  31.2738592  46.0728759  98.9427928  31.8432449  45.2836344  97.7831483
  25.0257469  47.1056779  86.6585859  25.0028158  47.2044466  85.7067742
  25.3358106  47.9521929  86.9803025  27.6844847  49.1632934  90.7732473
  28.6388101  49.1316876  90.7062405  27.4857371  48.7023557  91.5882699
  28.2744230  47.7334050  93.3403271  29.0937118  48.2278128  93.3638108
  28.5481037  46.8166018  93.3120838  38.0310826  40.1244802  82.7031226
  37.1436681  40.4094453  82.4851421  38.4464815  39.9638565  81.8558503
  41.3825362  40.1491323  86.4185565  42.1585752  40.6387775  86.6910182
  40.6573496  40.5749377  86.8757435  43.8197920  40.8618942  87.4759506
  44.4142411  40.6214678  86.7652814  43.8924504  40.1426073  88.1033042
  26.0395076  54.7052553  87.7902671  25.9049544  53.9452954  87.2240669
  25.6227138  55.4293453  87.3231460  37.1754039  49.8889477  76.7979246
  37.8789889  50.0939479  77.4136902  36.4516688  50.4566238  77.0628330
  38.0051849  45.6399338  82.9181516  37.9487051  46.0967889  82.0789149
  38.5580192  44.8790022  82.7404359  41.8156655  41.4289070  83.7431636
  41.5593590  41.0285705  84.5739844  41.1909523  42.1432864  83.6181775
  46.1268993  44.1685143  86.2502927  45.5668551  44.2378332  87.0234489
  45.5212497  43.9926128  85.5302424  38.7386629  46.8304119  80.2134046
  38.6835433  46.6648391  79.2722490  38.1132684  47.5380152  80.3696235
  23.5279144  42.0672183  94.0395468  24.1738007  41.5571137  94.5282693
  23.3196295  42.8040865  94.6138893  32.0482754  36.3312228  79.7919364
  32.0361424  37.2754068  79.9487635  32.9406176  36.1482374  79.4978825
  35.8634874  32.9255005  84.0465301  35.0967269  32.3713491  84.1921983
  36.2745579  32.9976874  84.9079452  27.8676635  39.2139801  98.1370482
  28.7308096  38.8576605  98.3473807  27.2942045  38.8753695  98.8245886
  50.1900128  52.2189918  91.3813678  49.8583452  53.0885329  91.1574893
  49.5945741  51.9026202  92.0607709  50.0828791  56.9385004  88.4607028
  49.1745668  56.8700413  88.1665789  50.0316387  57.4156949  89.2888854
  51.9490437  55.1401443  90.2384902  51.3064818  55.4333976  89.5924697
  51.4445366  55.0254363  91.0438099  58.5492168  61.6715535  86.7931379
  57.7955876  61.1022933  86.6375383  58.6839709  61.6378200  87.7402014
  42.6122686  52.5202884  87.9700407  43.4775683  52.3245693  87.6106296
  42.6800195  52.2913236  88.8969764  49.0870925  49.3253058  86.1002729
  49.3929802  48.4650422  85.8128645  49.8123530  49.9170679  85.9001723
  46.8958576  58.7025736  93.1984193  47.2507964  58.9297209  94.0578659
  47.5430708  59.0344113  92.5761449  53.5141243  63.9344399  91.4477679
  53.7077133  64.8390210  91.6936954  53.4141861  63.4751818  92.2816264
  48.5756351  64.0851142  97.0218560  48.4241858  63.8561694  96.1048644
  48.5661031  65.0421743  97.0349905  50.2848558  67.1170265  95.0995042
  50.2261104  66.4329485  94.4325625  50.6868076  67.8589255  94.6475668
  31.9395112  61.4133940  86.6552073  32.6266152  61.0995670  86.0673088
  31.7843241  62.3175305  86.3819324  49.3572543  51.7547294  88.5986650
  48.4435623  51.9851521  88.7668857  49.7865645  51.8385738  89.4500683
  48.7700232  66.8185182  97.6758852  49.3140136  67.4315140  97.1813807
  48.1887077  67.3764760  98.1925865  44.9924291  51.9063026  86.6595823
  45.0145988  51.9702359  85.7047803  45.4092350  51.0667534  86.8536329
  52.0929026  66.2781236  97.0120173  51.3024570  66.2605375  96.4724673
  51.8562381  66.8169530  97.7669210  52.2126901  63.1273702  94.3252902
  52.2624906  62.9623710  95.2668425  52.1040825  62.2600961  93.9350782
  49.5030664  59.1104630  95.6412208  50.4040526  58.9711095  95.3496206
  49.5778638  59.2759085  96.5810386  53.7145098  65.5470644  94.5694923
  53.4229906  65.9100624  95.4058384  53.1017229  64.8337652  94.3908255
  51.9632286  60.6703258  93.0374981  52.4386408  60.8630905  92.2293833
  51.0397852  60.7262444  92.7918365  50.6633955  57.5469018  91.2703287
  51.6151378  57.6467116  91.2915511  50.4937406  56.7547287  91.7801371
  58.9598583  61.8291145  89.5251623  59.6901971  61.5676433  90.0859327
  58.3505528  61.0919867  89.5653691  57.0413880  59.9699008  90.1226074
  56.3147044  59.8354973  89.5142566  56.6261167  60.2775836  90.9282793
  46.7100895  51.1836104  84.1396214  47.2631934  51.6031557  84.7986237
  46.9470981  50.2571852  84.1819170  33.9514481  62.5030442  88.7819844
  33.2577953  62.0884395  88.2689798  34.6987472  62.5450979  88.1853263
  46.7028628  48.2546922  84.0465301  45.9361024  47.7005409  84.1921983
  47.1139333  48.3268791  84.9079452  55.8428255  77.2795854  94.8380613
  55.8316896  76.8848653  93.9661117  56.0048895  76.5461927  95.4314385
  52.5635517  80.0632966  93.7859797  52.2725383  80.9678597  93.6706464
  53.1992501  80.1049494  94.5003867  61.0293882  67.5481836  91.3813678
  60.6977207  68.4177247  91.1574893  60.4339496  67.2318120  92.0607709
  57.5225402  79.7494382  90.7809591  57.2226125  80.6519421  90.6725398
  57.1776461  79.4826565  91.6330744  60.9222545  72.2676922  88.4607028
  60.0139423  72.1992330  88.1665789  60.8710141  72.7448867  89.2888854
  52.5046181  86.5138702  83.7480559  52.4270211  87.4646527  83.8269039
  51.9007825  86.1684575  84.4055485  54.9963411  73.6866568  96.4041925
  54.2196745  74.2460488  96.3944790  55.6353974  74.1723350  96.9256796
  62.7884192  70.4693360  90.2384902  62.1458572  70.7625893  89.5924697
  62.2839120  70.3546281  91.0438099  58.7265123  78.6381161  94.5632054
  59.1348479  78.1963572  93.8186686  58.0042385  78.0633789  94.8166247
  59.0493938  79.1982352  88.3184343  58.4202800  79.3628066  87.6160411
  58.6619600  79.6123962  89.0895307  58.2295639  71.2358136  93.5946785
  57.9856570  71.9900197  93.0581060  58.5055569  71.6143484  94.4294032
  60.1834101  77.7796749  92.2724050  60.3950997  78.4228509  91.5958431
  60.1363850  76.9459065  91.8045980  61.2979929  80.6568704  90.4446407
  62.1197373  80.2548892  90.1629089  61.2942332  80.5536938  91.3962523
  55.0636533  80.2052748  92.6007118  55.1280965  80.6673155  93.4365290
  54.3547457  79.5750112  92.7289428  54.7784550  81.8720855  82.4686098
  54.6430225  82.7172391  82.8970946  55.3194363  82.0740133  81.7052032
  51.2651890  67.9512435  99.1300454  50.8718836  67.3978633  99.8048098
  52.0818030  68.2623013  99.5206971  50.0408832  82.5062049  85.1236777
  50.2175461  83.4280014  84.9357760  50.8365666  82.1920469  85.5531156
  54.1819851  69.3670314  96.7220710  54.9229564  69.9677467  96.6425173
  54.4137774  68.6247952  96.1638753  56.4053027  82.4944422  96.5986440
  55.9616881  81.7080800  96.2807345  57.0670240  82.6823572  95.9330331
  51.1640148  84.0240223  91.1247119  51.7147573  83.8957287  90.3524113
  50.3251624  84.3235112  90.7742012  58.5034265  82.7747221  94.6267842
  58.4852740  83.5956103  94.1348111  59.4254185  82.6501297  94.8517983
  54.9607319  80.2891351  95.4691350  55.4935656  79.5279639  95.2390658
  54.4321400  79.9965003  96.2115505  58.1277014  65.3951417  90.9984992
  57.7841283  66.2853059  90.9224102  58.4955977  65.2053075  90.1354577
  59.9264680  64.6544976  86.1002729  60.2323556  63.7942340  85.8128645
  60.6517284  65.2462596  85.9001723  54.2886697  83.5633586  86.3003564
  54.2462876  83.7894432  85.3712096  55.2049396  83.3296960  86.4489365
  57.7352331  74.0317653  93.1984193  58.0901719  74.2589127  94.0578659
  58.3824462  74.3636030  92.5761449  63.4919447  79.2212616  88.9144794
  63.9255954  79.1287905  89.7627848  64.2051028  79.1970117  88.2764810
  57.2247342  82.8214710  90.4477894  57.2784365  83.3905647  91.2155610
  56.3562124  82.9916595  90.0831932  64.3534997  79.2636317  91.4477679
  64.5470887  80.1682127  91.6936954  64.2535615  78.8043736  92.2816264
  56.0071308  69.1494208  93.9468007  55.3599223  69.8484157  93.8532483
  56.7772323  69.5830351  94.3144255  59.4150106  79.4143060  97.0218560
  59.2635612  79.1853611  96.1048644  59.4054785  80.3713661  97.0349905
  54.9823774  81.0125637  89.7763364  54.8434860  80.6444421  90.6489302
  54.1938370  81.5273276  89.6047322  55.5771926  86.1134733  81.1188900
  55.7523682  85.6422777  81.9334523  54.8904714  86.7400500  81.3470161
  56.5328989  80.3907240  87.1652202  56.1978822  80.3508010  88.0609852
  56.0332935  79.7251955  86.6922612  61.1242312  82.4462182  95.0995042
  61.0654859  81.7621402  94.4325625  61.5261831  83.1881172  94.6475668
  50.1433011  89.2624096  87.8928761  50.3829609  89.8942620  88.5707779
  49.3002208  88.9112136  88.1794120  61.1259720  80.4101766  93.3309021
  60.2386498  80.0727688  93.4535420  61.6958271  79.6784797  93.5677787
  54.6560873  85.0703219  90.2970265  54.5831045  85.8758190  90.8089569
  54.2138266  85.2695184  89.4718286  54.4450653  84.3074989  83.8073086
  53.6618175  84.8496669  83.9011311  55.1443398  84.8248968  84.2067327
  57.1159557  84.9690053  92.4528423  57.8287529  85.6037517  92.3804325
  56.6249585  85.0653919  91.6368425  52.1671470  82.7184496  93.2733994
  52.8680930  83.3520979  93.4263388  51.6966585  83.0599228  92.5129633
  60.1966298  67.0839212  88.5986650  59.2829377  67.3143438  88.7668857
  60.6259399  67.1677656  89.4500683  59.9672756  75.2729103  91.0986544
  59.3144206  75.5205011  90.4438997  60.3453136  74.4593242  90.7649022
  56.9279930  85.3088797  85.2014715  57.1102324  84.4910453  85.6642467
  57.7512916  85.5256489  84.7639605  57.2622095  84.2356982  82.4629763
  57.7909862  83.7249436  81.8499925  57.5250315  83.9199512  83.3275296
  56.0160329  76.0148915  97.5852582  55.3400966  75.9143044  98.2554957
  56.8387963  75.8588128  98.0488579  47.7639188  82.2520851  90.2065097
  48.3492625  81.5064539  90.3393001  47.5664027  82.5624808  91.0901761
  50.6177843  85.2872098  85.2227539  49.9488219  85.7718226  84.7391579
  50.4790713  85.5341319  86.1370918  54.7583112  87.3215842  91.8210197
  55.3101420  87.4847463  92.5859283  55.0989305  87.9120280  91.1490222
  59.6093986  82.1477099  97.6758852  60.1533890  82.7607058  97.1813807
  59.0280831  82.7056678  98.1925865  57.8951499  85.2697818  88.8073880
  57.7702639  84.4687557  88.2984825  58.5530590  85.7644011  88.3187850
  59.9586408  83.0706838  90.4353430  59.0116743  82.9512189  90.3631756
  60.3069181  82.1829336  90.5179691  52.3185981  68.9600977  94.2591672
  52.8420383  69.2063273  95.0217981  52.0998314  69.7921011  93.8394809
  56.9632841  82.8659554  86.6357782  56.8157803  81.9376261  86.8165352
  57.7886334  82.8879645  86.1514857  53.5238526  69.9014672  91.9441342
  53.1835346  69.1022485  92.3462022  52.8177532  70.2016382  91.3718175
  54.1754998  66.9863984  90.3968665  54.9981067  66.5124462  90.2747556
  54.4193061  67.7654468  90.8967351  54.9048923  84.8874324  93.8358852
  55.2136050  84.6423470  94.7081551  55.7024405  85.0920962  93.3477722
  54.9269535  87.0412233  86.0664228  54.4874526  86.5488612  86.7597085
  55.6777652  86.4985201  85.8256304  47.4061874  83.2323774  86.0688856
  48.2319894  82.9327546  85.6887500  47.0555926  82.4631396  86.5178645
  52.3743407  82.5850242  88.1386530  51.7523417  81.9220947  87.8388758
  53.0448274  82.6111374  87.4560178  45.6070479  81.1510101  87.0277790
  44.7702388  80.7232275  86.8461791  45.5794125  81.3442544  87.9648581
  52.4467935  71.0632030  97.7319036  52.4956090  71.9394153  97.3496806
  52.9890449  70.5209423  97.1590679  62.9322781  81.6073154  97.0120173
  62.1418324  81.5897292  96.4724673  62.6956135  82.1461447  97.7669210
  63.0520656  78.4565620  94.3252902  63.1018661  78.2915627  95.2668425
  62.9434579  77.5892879  93.9350782  51.9356914  81.1354166  81.6144991
  52.0845035  81.8189630  80.9611663  52.7423358  81.1159256  82.1294446
  60.3424418  74.4396548  95.6412208  61.2434281  74.3003013  95.3496206
  60.4172393  74.6051003  96.5810386  54.6767223  71.8163403  94.4865395
  53.8070533  72.1096969  94.2147983  54.9126704  72.4003848  95.2072658
  64.5538853  80.8762561  94.5694923  64.2623661  81.2392542  95.4058384
  63.9410984  80.1629570  94.3908255  62.8026041  75.9995176  93.0374981
  63.2780162  76.1922822  92.2293833  61.8791606  76.0554362  92.7918365
  57.3806257  68.0343020  92.0030815  57.8988201  68.7704047  91.6777304
  57.0261390  68.3407013  92.8377574  61.5027710  72.8760936  91.2703287
  62.4545133  72.9759034  91.2915511  61.3331160  72.0839205  91.7801371
  59.5242089  69.9616519  91.4562688  58.9292021  70.2421532  90.7609176
  59.2391786  70.4510420  92.2279429  63.9815788  76.0967056  90.3845586
  63.9492108  75.1583057  90.5705270  64.5916411  76.1751093  89.6511411
  64.1310276  72.8878099  90.4303870  63.6149325  72.1036556  90.2433799
  65.0150225  72.5596816  90.5950389  61.7921003  66.6319115  86.3899682
  61.5945824  66.3234203  87.2743014  62.4020709  67.3580754  86.5197612
  69.7992337  77.1583063  89.5251623  70.5295726  76.8968351  90.0859327
  69.1899283  76.4211785  89.5653691  55.7037811  79.0180855  97.8873448
  56.6240820  79.1959454  98.0813494  55.6687394  78.0736900  97.7353147
  53.5727749  72.5015095  99.9198978  53.4724476  73.4509452  99.8511069
  53.3549291  72.1733334  99.0475048  60.9273457  68.6228547  83.6474878
  60.3472126  69.2813351  83.2652930  60.6609389  67.8005891  83.2362295
  59.3777023  68.0233605  85.8496198  59.8776801  68.1350139  85.0410517
  60.0212631  67.7194657  86.4897007  53.4359019  75.9312234  98.7364039
  52.9526101  76.7312594  98.9427928  53.5219958  75.9420179  97.7831483
  59.7098335  70.7828637  82.7031226  58.8224190  71.0678288  82.4851421
  60.1252324  70.6222401  81.8558503  63.0612871  70.8075158  86.4185565
  63.8373261  71.2971611  86.6910182  62.3361005  71.2333212  86.8757435
  47.7182585  85.3636388  87.7902671  47.5837053  84.6036789  87.2240669
  47.3014647  86.0877288  87.3231460  50.8751711  86.2605705  88.0021114
  50.7584095  87.2051138  87.8999804  50.0544157  85.9579267  88.3906913
  57.7320045  79.7936866  99.5387608  58.6011205  79.9677519  99.1774243
  57.2526796  80.6131283  99.4163338  51.9006225  86.9133967  91.2177042
  52.8033472  86.9457578  91.5343537  51.6743595  85.9834418  91.2323378
  53.6559827  85.6664954  87.8787121  52.7055458  85.6666815  87.7651493
  53.9592313  84.9197688  87.3623155  69.3912521  91.5025492  88.9432883
  70.0290931  91.3832240  88.2396223  69.2733364  92.4506336  89.0020835
  66.2002227  91.4552920  88.8794408  65.8620738  91.3393985  87.9914943
  67.0691995  91.0544085  88.8595414  62.0589043  93.3088397  84.8691299
  61.4953908  93.2178334  84.1007586  61.9441438  92.4888301  85.3493791
  66.6822010  92.6087772  94.8380613  66.6710651  92.2140570  93.9661117
  66.8442649  91.8753845  95.4314385  59.6053475  94.8039588  87.7075519
  60.3974766  94.4630413  87.2921818  59.8450125  94.9134563  88.6277672
  67.6388601  96.9759364  80.1805764  66.9876581  97.5613445  79.7939777
  68.4332964  97.5065559  80.2400801  61.5644228  94.0648502  80.5792898
  62.3375104  93.5177489  80.4405774  61.9169627  94.9292751  80.7907359
  63.4029271  95.3924884  93.7859797  63.1119137  96.2970515  93.6706464
  64.0386255  95.4341412  94.5003867  64.3285478  92.7701732  90.3761157
  64.9249050  92.5457755  89.6618120  64.3860449  92.0286478  90.9786605
  63.9010506  90.2241168  78.2111348  64.1536027  89.7022689  77.4494811
  62.9635065  90.0607313  78.3138031  68.9453789  89.2276946  86.0186091
  69.7316878  88.8096369  85.6676508  69.2092493  90.1323038  86.1867739
  69.1163866  94.6649796  80.7174748  68.4809699  94.7384423  81.4295652
  68.7861273  95.2543395  80.0393827  74.3462216  89.1652179  86.9219070
  75.0787388  88.5951396  87.1556899  73.5901572  88.7773780  87.3625575
  63.6206795  92.1269274  80.4135723  63.5043053  91.4514177  81.0816807
  63.7309055  91.6401648  79.5967876  65.9638336  91.5879421  84.1182412
  65.5996543  91.0610042  84.8295333  66.8205452  91.1977890  83.9448897
  71.8687637  82.8773753  91.3813678  71.5370961  83.7469164  91.1574893
  71.2733250  82.5610037  92.0607709  68.3619156  95.0786299  90.7809591
  68.0619879  95.9811338  90.6725398  68.0170216  94.8118483  91.6330744
  61.8131638  91.5300096  86.8146295  60.8882134  91.3976310  87.0223987
  62.0616051  92.3094315  87.3116238  71.7616300  87.5968840  88.4607028
  70.8533177  87.5284248  88.1665789  71.7103896  88.0740785  89.2888854
  65.5833044  89.0726978  80.0990427  65.4632669  89.5184029  80.9375908
  64.8885632  89.4212296  79.5403965  59.1740449  91.1733370  87.6490084
  59.3032830  91.4267849  88.5629496  58.4937900  91.7661078  87.3294739
  63.3439936 101.8430620  83.7480559  63.2663966 102.7938445  83.8269039
  62.7401580 101.4976492  84.4055485  65.8357166  89.0158485  96.4041925
  65.0590500  89.5752405  96.3944790  66.4747729  89.5015268  96.9256796
  73.6277946  85.7985278  90.2384902  72.9852327  86.0917811  89.5924697
  73.1232875  85.6838198  91.0438099  71.2818110  89.5448451  80.9270761
  72.1935966  89.7775838  80.7518459  70.7727757  90.1285495  80.3645840
  64.0903538  91.8243939  95.9659892  64.8318222  92.3628983  95.6894716
  63.3840523  92.4510227  96.1231444  69.5658878  93.9673079  94.5632054
  69.9742234  93.5255490  93.8186686  68.8436139  93.3925707  94.8166247
  65.9189948  88.9045686  91.9365611  66.7651143  89.3285099  92.0800260
  65.8588585  88.2479310  92.6304174  69.8887692  94.5274270  88.3184343
  69.2596555  94.6919984  87.6160411  69.5013354  94.9415879  89.0895307
  73.7676924  95.4628707  85.6728707  73.0827962  95.8427609  85.1225740
  73.8520774  96.0724034  86.4060654  69.0689393  86.5650054  93.5946785
  68.8250325  87.3192115  93.0581060  69.3449324  86.9435402  94.4294032
  71.0227856  93.1088667  92.2724050  71.2344751  93.7520426  91.5958431
  70.9757604  92.2750983  91.8045980  68.6254085  85.7206487  89.1760622
  67.7638564  86.0187741  89.4677360  68.6516519  85.9376886  88.2441655
  65.4415654  94.2648678  85.5834428  65.9054000  94.5436381  84.7939050
  65.1772452  93.3632122  85.4007519  62.3339735  93.8120159  88.5214191
  62.9041092  94.2407428  87.8831676  62.9247847  93.5302744  89.2198377
  64.3784540  90.3871830  82.3923993  65.0808584  90.8392874  82.8597919
  64.0465169  89.7455649  83.0203886  62.8264902  88.9783587  96.7675202
  62.1963562  89.6599868  97.0010599  62.7200990  88.8666668  95.8228341
  58.1209874  88.6455383  87.6941127  57.3308928  88.9012911  87.2181237
  58.6121122  89.4603721  87.7993167  72.1373684  95.9860622  90.4446407
  72.9591127  95.5840809  90.1629089  72.1336087  95.8828856  91.3962523
  60.0724620  89.0099962  84.6524603  59.2755783  89.1218656  85.1708099
  59.8450212  89.3486614  83.7865494  65.9030287  95.5344665  92.6007118
  65.9674720  95.9965072  93.4365290  65.1941211  94.9042030  92.7289428
  56.4047577  88.8985873  90.1256117  56.6555616  89.7832883  90.3913693
  56.9407126  88.7190475  89.3531209  80.2279677  92.3299370  86.7931379
  79.4743385  91.7606768  86.6375383  80.3627218  92.2962035  87.7402014
  65.6178305  97.2012773  82.4686098  65.4823980  98.0464308  82.8970946
  66.1588117  97.4032050  81.7052032  62.1045645  83.2804353  99.1300454
  61.7112590  82.7270551  99.8048098  62.9211785  83.5914931  99.5206971
  59.0707702  94.7188211  83.0414023  59.5832223  95.5131461  83.1919588
  59.7230415  94.0214501  82.9747625  60.8802587  97.8353967  85.1236777
  61.0569215  98.7571932  84.9357760  61.6759420  97.5212386  85.5531156
  65.0213605  84.6962232  96.7220710  65.7623319  85.2969385  96.6425173
  65.2531528  83.9539869  96.1638753  60.1654944  89.8818599  94.9998940
  60.0508459  88.9803856  95.3006039  59.3099461  90.1282296  94.6483756
  67.2446781  97.8236339  96.5986440  66.8010635  97.0372718  96.2807345
  67.9063995  98.0115490  95.9330331  62.0033902  99.3532141  91.1247119
  62.5541328  99.2249204  90.3524113  61.1645378  99.6527030  90.7742012
  69.3428019  98.1039139  94.6267842  69.3246495  98.9248020  94.1348111
  70.2647939  97.9793214  94.8517983  65.8001073  95.6183269  95.4691350
  66.3329410  94.8571557  95.2390658  65.2715155  95.3256920  96.2115505
  68.9670768  80.7243335  90.9984992  68.6235038  81.6144976  90.9224102
  69.3349731  80.5344992  90.1354577  57.0356619  93.0476865  83.8173594
  57.8731841  93.4573873  83.6007302  57.2134887  92.1076307  83.7873788
  68.9321051  90.7151946  79.5057427  68.4167675  91.4856550  79.7445814
  68.6598360  90.0417082  80.1290488  66.5168162  85.5601646  84.5642665
  65.6609759  85.1708497  84.3848304  66.9295114  85.6393607  83.7042451
  68.0467309  83.0947990  88.9634225  67.5432104  83.0578125  88.1502030
  68.3397916  84.0040732  89.0230882  64.2910195  83.1786719  87.9700407
  65.1563191  82.9829528  87.6106296  64.3587704  82.9497071  88.8969764
  73.9055325  93.4684300  81.4410600  73.1284768  93.1295460  80.9965762
  74.5846806  93.4736924  80.7665565  68.7207354  88.5879038  81.3317208
  68.4157490  88.9025187  82.1827351  69.6737796  88.6660458  81.3744541
  67.1653786  94.7469261  82.9810162  66.6375148  94.0122021  82.6683400
  66.6641289  95.5243937  82.7350130  72.1446632  92.9418282  88.0977208
  71.4870307  93.6317543  88.1857337  72.9487031  93.3314714  88.4411195
  70.9552091  91.2962654  86.1481150  71.4683973  91.9292646  86.6502860
  71.6053315  90.6963850  85.7824510  65.3106386  92.5649471  75.9845135
  64.4033448  92.3338725  76.1836284  65.8077418  91.7687091  76.1719117
  68.2174465 101.2746979  78.9041821  67.5436164 101.5778675  79.5126779
  68.6040287 102.0776059  78.5547278  67.4332922  88.7712110  88.3939491
  66.5155483  88.9927057  88.2361179  67.8493065  88.8458420  87.5351198
  68.2167970  90.1703526  83.5242171  68.9639789  90.6824923  83.2149293
  68.4859559  89.8487578  84.3846564  66.4894620  92.6662066  80.5069125
  65.5805839  92.3821099  80.6041595  66.5189704  93.0861145  79.6472432
  71.7213887  96.2768656  84.2760293  71.2676214  95.4359566  84.3325483
  71.0907854  96.9130054  84.6135073  70.6646807  87.2060642  85.5060960
  69.9269564  86.6938028  85.8371203  70.9173580  86.7661023  84.6944237
  70.1646826  98.1145152  85.2110111  70.4569801  98.6750210  84.4922477
  70.6745447  98.4073713  85.9663270  70.7658434  79.9836894  86.1002729
  71.0717311  79.1234257  85.8128645  71.4911039  80.5754514  85.9001723
  57.0582790  90.3867580  84.4884327  56.8607190  89.7936941  83.7635394
  56.5029454  90.0819791  85.2060266  65.0379514  90.2790687  86.6078921
  65.0928124  89.3264523  86.5321397  64.2270716  90.4350126  87.0920219
  66.1870708  94.2070810  77.8457204  65.7490138  93.4906669  77.3862841
  66.9281148  94.4346925  77.2842295  62.9771874  88.8967747  84.3669299
  62.1639739  89.1961917  84.7734492  63.4730868  88.5023435  85.0843782
  65.1280452  98.8925504  86.3003564  65.0856630  99.1186350  85.3712096
  66.0443151  98.6588878  86.4489365  68.5746085  89.3609571  93.1984193
  68.9295473  89.5881044  94.0578659  69.2218217  89.6927948  92.5761449
  74.3043822  92.4828007  83.9033522  74.1661721  92.6729603  82.9754712
  73.9480041  93.2447390  84.3601573  62.4685949  86.4686102  89.9830534
  63.1085328  86.3274861  89.2853498  61.6363479  86.1820616  89.6069136
  74.3313202  94.5504534  88.9144794  74.7649709  94.4579823  89.7627848
  75.0444783  94.5262034  88.2764810  63.2446252  95.7688533  86.0965527
  64.0386851  95.2738853  85.8948102  62.5337945  95.2406396  85.7333232
  68.0641097  98.1506628  90.4477894  68.1178119  98.7197564  91.2155610
  67.1955878  98.3208513  90.0831932  59.5529016  89.9131614  82.1725279
  58.6226604  89.8516070  82.3895242  59.6486488  89.3907567  81.3761921
  59.4714565  86.4386427  84.7603521  59.7321382  87.3531760  84.6512682
  60.2931737  85.9710870  84.9100134  60.9439490  87.8524184  91.9302346
  61.6162544  87.6441546  91.2814995  60.1169277  87.6546270  91.4907578
  75.1928752  94.5928235  91.4477679  75.3864642  95.4974045  91.6936954
  75.0929370  94.1335654  92.2816264  66.8465062  84.4786125  93.9468007
  66.1992977  85.1776075  93.8532483  67.6166078  84.9122269  94.3144255
  70.2543860  94.7434977  97.0218560  70.1029367  94.5145529  96.1048644
  70.2448540  95.7005579  97.0349905  67.0229197  92.3166890  92.0064826
  67.9521257  92.4678050  91.8333794  66.6020227  92.4050911  91.1513473
  65.8217528  96.3417555  89.7763364  65.6828614  95.9736339  90.6489302
  65.0332125  96.8565194  89.6047322  66.4165680 101.4426651  81.1188900
  66.5917436 100.9714694  81.9334523  65.7298468 102.0692417  81.3470161
  67.3722744  95.7199157  87.1652202  67.0372576  95.6799927  88.0609852
  66.8726689  95.0543873  86.6922612  61.3466988  91.1266787  92.6904783
  61.2086785  90.3947026  93.2916322  62.2571911  91.0375687  92.4088971
  70.3081935  93.0655192  77.4389261  69.6911106  92.3402020  77.3422314
  69.8398424  93.8264552  77.0956336  63.9749288  90.8386747  92.1788463
  64.6848907  90.1979939  92.1375081  63.9318596  91.0899641  93.1014643
  71.9636067  97.7754100  95.0995042  71.9048613  97.0913320  94.4325625
  72.3655585  98.5173090  94.6475668  62.6878222  87.8251964  93.9984102
  62.1515579  87.3742703  94.6505698  62.0994931  87.9597873  93.2554566
  60.9826766 104.5916014  87.8928761  61.2223364 105.2234538  88.5707779
  60.1395962 104.2404054  88.1794120  71.9653474  95.7393684  93.3309021
  71.0780253  95.4019606  93.4535420  72.5352025  95.0076715  93.5677787
  53.6182621  92.0717776  86.6552073  54.3053661  91.7579506  86.0673088
  53.4630750  92.9759140  86.3819324  58.4217343  86.9607972  91.0837096
  58.3375532  86.3533642  90.3487506  57.6000050  87.4516990  91.0846593
  65.4954628 100.3995136  90.2970265  65.4224799 101.2050108  90.8089569
  65.0532021 100.5987102  89.4718286  65.2844407  99.6366906  83.8073086
  64.5011929 100.1788586  83.9011311  65.9837152 100.1540886  84.2067327
  68.5941057  85.4461536  86.4507292  69.0909757  84.6931498  86.1308362
  67.8228039  85.4825852  85.8850501  76.4470815  91.1501901  88.0925583
  76.4360691  92.0326617  87.7219516  75.5788194  90.7973452  87.8980120
  67.9553311 100.2981970  92.4528423  68.6681283 100.9329435  92.3804325
  67.4643340 100.3945836  91.6368425  69.6770838  94.2033223  84.0245715
  68.7427117  94.3234685  83.8550419  69.8547506  93.3005690  83.7605725
  65.1776026  87.5878919  86.1778976  64.8073814  87.0349959  86.8659882
  65.6735118  86.9837052  85.6253976  73.0643389  90.0450542  84.5595749
  73.5303842  90.8778534  84.4856052  73.5150890  89.5795524  85.2641008
  63.0065225  98.0476414  93.2733994  63.7074684  98.6812897  93.4263388
  62.5360340  98.3891145  92.5129633  71.1319620  96.3894363  81.5581901
  71.4079464  96.2750958  82.4675775  70.2624119  95.9911848  81.5194074
  71.0360052  82.4131129  88.5986650  70.1223132  82.6435356  88.7668857
  71.4653154  82.4969573  89.4500683  70.8066511  90.6021021  91.0986544
  70.1537961  90.8496929  90.4438997  71.1846890  89.7885159  90.7649022
  67.7673684 100.6380714  85.2014715  67.9496079  99.8202370  85.6642467
  68.5906670 100.8548407  84.7639605  68.1015850  99.5648899  82.4629763
  68.6303616  99.0541354  81.8499925  68.3644070  99.2491430  83.3275296
  66.8554084  91.3440832  97.5852582  66.1794721  91.2434962  98.2554957
  67.6781717  91.1880046  98.0488579  58.6032943  97.5812769  90.2065097
  59.1886379  96.8356457  90.3393001  58.4057781  97.8916725  91.0901761
  61.4571598 100.6164016  85.2227539  60.7881973 101.1010144  84.7391579
  61.3184468 100.8633237  86.1370918  53.1950597  90.1518369  88.9269540
  53.2334697  89.6181960  89.7206658  52.6890890  89.6253574  88.3080517
  65.5976866 102.6507760  91.8210197  66.1495174 102.8139381  92.5859283
  65.9383060 103.2412197  91.1490222  60.5741360  84.9982909  92.4232082
  60.6382686  85.8597740  92.0109480  60.5108480  84.3856911  91.6904441
  60.0493632  87.0706042  96.0705116  60.6765671  86.6883119  96.6842641
  59.1921551  86.8520244  96.4360809  70.4487741  97.4769017  97.6758852
  70.9927645  98.0898975  97.1813807  69.8674586  98.0348596  98.1925865
  56.8259175  88.8782471  82.0023471  57.1212616  87.9693150  81.9490525
  55.9247211  88.8570211  81.6804474  68.7345254 100.5989735  88.8073880
  68.6096393  99.7979475  88.2984825  69.3924345 101.0935929  88.3187850
  60.3553422  86.9538468  87.9851020  59.6340008  87.5674435  87.8458493
  61.1446678  87.4896233  87.9067666  70.7980162  98.3998755  90.4353430
  69.8510498  98.2804106  90.3631756  71.1462935  97.5121253  90.5179691
  63.1579735  84.2892894  94.2591672  63.6814137  84.5355191  95.0217981
  62.9392069  85.1212929  93.8394809  58.5547017  86.5596569  82.1262796
  58.2259723  85.6793948  81.9437902  58.9086387  86.5044237  83.0139186
  67.8026595  98.1951471  86.6357782  67.6551558  97.2668179  86.8165352
  68.6280089  98.2171562  86.1514857  61.6688840  86.8469539  82.4938274
  62.0084912  87.3755460  81.7716882  62.1160960  87.1849945  83.2696841
  71.4060717  99.0180030  87.7222655  72.3307265  98.8122892  87.5847106
  71.2376021  98.7696431  88.6311996  64.3632281  85.2306589  91.9441342
  64.0229101  84.4314402  92.3462022  63.6571287  85.5308300  91.3718175
  65.0148752  82.3155902  90.3968665  65.8374822  81.8416380  90.2747556
  65.2586816  83.0946385  90.8967351  62.5387331  89.0075022  88.2060644
  62.3931912  89.3215325  89.0984925  62.0612535  89.6259923  87.6531542
  64.3983714  85.9977570  88.2541533  64.3845283  85.1018664  87.9173831
  65.1156142  86.0048234  88.8879819  66.2509845  86.4314911  90.2994661
  65.9927623  87.3531981  90.2978991  65.7194885  86.0345345  90.9895125
  71.1956033  99.5365698  83.0784746  71.3692911  98.9712120  82.3258599
  71.6884925 100.3366593  82.8964236  57.0132993  91.5480367  91.1448305
  56.4686461  92.3240175  91.2768579  57.8912343  91.8951171  90.9867426
  66.6711800  82.5646861  86.6595823  66.6933497  82.6286194  85.7047803
  67.0879859  81.7251370  86.8536329  77.0495425  92.3002121  84.6975046
  77.4926571  91.5509446  84.2994169  76.1721935  92.2912257  84.3148778
  72.1831206  98.8532462  80.1781644  72.8782111  99.4739155  80.3968959
  72.5254356  98.0027813  80.4534022  57.7999015  90.6750263  94.0378462
  57.0580751  90.8232898  94.6243092  57.4791759  90.9358529  93.1745211
  74.0822629  96.3032168  81.7068975  74.6073953  96.6419440  80.9818295
  73.9944982  95.3679183  81.5232110  65.7442678 100.2166241  93.8358852
  66.0529804  99.9715388  94.7081551  66.5418160 100.4212880  93.3477722
  65.7663290 102.3704151  86.0664228  65.3268280 101.8780530  86.7597085
  66.5171407 101.8277119  85.8256304  58.2455629  98.5615692  86.0688856
  59.0713649  98.2619464  85.6887500  57.8949681  97.7923314  86.5178645
  63.2137162  97.9142160  88.1386530  62.5917171  97.2512865  87.8388758
  63.8842029  97.9403292  87.4560178  56.4464234  96.4802018  87.0277790
  55.6096142  96.0524193  86.8461791  56.4187879  96.6734462  87.9648581
  63.2861689  86.3923948  97.7319036  63.3349845  87.2686071  97.3496806
  63.8284204  85.8501341  97.1590679  73.7716535  96.9365071  97.0120173
  72.9812079  96.9189210  96.4724673  73.5349890  97.4753365  97.7669210
  73.8914410  93.7857538  94.3252902  73.9412415  93.6207545  95.2668425
  73.7828334  92.9184797  93.9350782  62.7750669  96.4646083  81.6144991
  62.9238789  97.1481548  80.9611663  63.5817112  96.4451173  82.1294446
  71.1818173  89.7688466  95.6412208  72.0828035  89.6294930  95.3496206
  71.2566147  89.9342920  96.5810386  65.5160978  87.1455320  94.4865395
  64.6464287  87.4388886  94.2147983  65.7520458  87.7295765  95.2072658
  75.3932607  96.2054479  94.5694923  75.1017415  96.5684460  95.4058384
  74.7804738  95.4921487  94.3908255  76.5928289  93.7707359  87.0897493
  77.4275181  94.2097163  87.2535054  76.7287418  93.2946012  86.2705739
  73.6419795  91.3287094  93.0374981  74.1173917  91.5214740  92.2293833
  72.7185361  91.3846280  92.7918365  60.5303302  92.4911261  82.6206060
  60.2849344  91.5873591  82.8186270  60.6999216  92.4928411  81.6785538
  68.2200012  83.3634937  92.0030815  68.7381956  84.0995964  91.6777304
  67.8655145  83.6698931  92.8377574  59.7998949  88.2239619  80.1192221
  59.1068194  88.2983974  79.4632257  59.5550701  87.4599962  80.6413738
  68.4712606  79.7835220  87.5231712  68.7514360  79.1158409  88.1492138
  69.2563213  79.9764315  87.0106376  66.2746074  98.9594214  79.0856738
  65.7020041  99.5784401  78.6327210  66.8478868  99.5093575  79.6196660
  72.3421464  88.2052854  91.2703287  73.2938887  88.3050952  91.2915511
  72.1724915  87.4131122  91.7801371  70.3635844  85.2908437  91.4562688
  69.7685776  85.5713450  90.7609176  70.0785540  85.7802338  92.2279429
  69.4943334  99.2431364  80.2165320  70.4274007  99.1776926  80.4198196
  69.4066547 100.0787631  79.7579853  72.1231351  98.5597234  77.1769268
  72.0444982  98.2257098  78.0705026  72.9441018  99.0519002  77.1760740
  74.8209542  91.4258974  90.3845586  74.7885862  90.4874974  90.5705270
  75.4310166  91.5043010  89.6511411  66.6592873  90.2955027  76.4272791
  67.6051978  90.1661235  76.4961209  66.2807118  89.5569688  76.9042219
  74.9704031  88.2170017  90.4303870  74.4543079  87.4328474  90.2433799
  75.8543979  87.8888734  90.5950389  72.6314757  81.9611033  86.3899682
  72.4339579  81.6526121  87.2743014  73.2414463  82.6872671  86.5197612
  80.6386092  92.4874980  89.5251623  81.3689480  92.2260269  90.0859327
  80.0293037  91.7503702  89.5653691  78.7201389  90.6282843  90.1226074
  77.9934553  90.4938808  89.5142566  78.3048676  90.9359672  90.9282793
  66.5431565  94.3472773  97.8873448  67.4634575  94.5251372  98.0813494
  66.5081148  93.4028818  97.7353147  55.7613730  89.5411366  86.8126722
  55.4416515  88.6876674  86.5201096  55.2147159  89.7559944  87.5684689
  59.5393638  92.2573807  90.5296229  59.7579648  93.1890915  90.5484262
  59.9519412  91.8981782  91.3151033  64.4121503  87.8307013  99.9198978
  64.3118230  88.7801370  99.8511069  64.1943045  87.5025252  99.0475048
  55.6301990  93.1614278  88.7819844  54.9365462  92.7468231  88.2689798
  56.3774981  93.2034814  88.1853263  71.7667211  83.9520465  83.6474878
  71.1865880  84.6105269  83.2652930  71.5003144  83.1297809  83.2362295
  70.2170778  83.3525522  85.8496198  70.7170556  83.4642057  85.0410517
  70.8606385  83.0486575  86.4897007  64.2752773  91.2604152  98.7364039
  63.7919855  92.0604512  98.9427928  64.3613712  91.2712097  97.7831483
  57.5438733  93.0932532  86.6585859  57.5209421  93.1920219  85.7067742
  57.8539369  93.9397682  86.9803025  60.2026111  95.1508687  90.7732473
  61.1569364  95.1192629  90.7062405  60.0038634  94.6899310  91.5882699
  60.7925493  93.7209803  93.3403271  61.6118382  94.2153881  93.3638108
  61.0662301  92.8041771  93.3120838  70.5492089  86.1120555  82.7031226
  69.6617944  86.3970206  82.4851421  70.9646078  85.9514318  81.8558503
  73.9006625  86.1367076  86.4185565  74.6767015  86.6263528  86.6910182
  73.1754759  86.5625130  86.8757435  76.3379184  86.8494695  87.4759506
  76.9323675  86.6090431  86.7652814  76.4105768  86.1301826  88.1033042
  58.5576340 100.6928306  87.7902671  58.4230808  99.9328707  87.2240669
  58.1408402 101.4169206  87.3231460  69.6935303  95.8765230  76.7979246
  70.3971153  96.0815232  77.4136902  68.9697951  96.4441992  77.0628330
  70.5233113  91.6275091  82.9181516  70.4668314  92.0843642  82.0789149
  71.0761455  90.8665775  82.7404359  74.3337919  87.4164823  83.7431636
  74.0774853  87.0161458  84.5739844  73.7090787  88.1308617  83.6181775
  78.6450257  90.1560896  86.2502927  78.0849815  90.2254085  87.0234489
  78.0393760  89.9801881  85.5302424  61.7145466 101.5897623  88.0021114
  61.5977850 102.5343056  87.8999804  60.8937912 101.2871185  88.3906913
  71.6022000  96.3147759  78.8477706  72.4367604  95.8828957  78.6655181
  71.4406343  96.1429773  79.7754601  71.2567892  92.8179872  80.2134046
  71.2016696  92.6524144  79.2722490  70.6313948  93.5255905  80.3696235
  56.0460407  88.0547937  94.0395468  56.6919271  87.5446890  94.5282693
  55.8377558  88.7916618  94.6138893  68.5713799  95.1228784  99.5387608
  69.4404959  95.2969436  99.1774243  68.0920551  95.9423201  99.4163338
  62.7399980 102.2425885  91.2177042  63.6427226 102.2749495  91.5343537
  62.5137350 101.3126336  91.2323378  64.4953582 100.9956872  87.8787121
  63.5449213 100.9958733  87.7651493  64.7986068 100.2489606  87.3623155
  60.3857898  85.2015554  98.1370482  61.2489360  84.8452358  98.3473807
  59.8123309  84.8629448  98.8245886  80.2306275 106.8317410  88.9432883
  80.8684685 106.7124157  88.2396223  80.1127118 107.7798254  89.0020835
  77.0395981 106.7844838  88.8794408  76.7014493 106.6685903  87.9914943
  77.9085750 106.3836003  88.8595414  72.8982797 108.6380314  84.8691299
  72.3347662 108.5470251  84.1007586  72.7835192 107.8180219  85.3493791
  77.5215764 107.9379690  94.8380613  77.5104405 107.5432488  93.9661117
  77.6836404 107.2045762  95.4314385  70.4447229 110.1331506  87.7075519
  71.2368521 109.7922331  87.2921818  70.6843879 110.2426481  88.6277672
  78.4782356 112.3051282  80.1805764  77.8270336 112.8905363  79.7939777
  79.2726719 112.8357477  80.2400801  72.4037983 109.3940419  80.5792898
  73.1768859 108.8469406  80.4405774  72.7563382 110.2584669  80.7907359
  74.2423026 110.7216802  93.7859797  73.9512892 111.6262432  93.6706464
  74.8780010 110.7633329  94.5003867  75.1679232 108.0993650  90.3761157
  75.7642805 107.8749672  89.6618120  75.2254204 107.3578396  90.9786605
  74.7404261 105.5533085  78.2111348  74.9929781 105.0314607  77.4494811
  73.8028820 105.3899231  78.3138031  79.7847544 104.5568864  86.0186091
  80.5710633 104.1388287  85.6676508  80.0486248 105.4614956  86.1867739
  79.9557621 109.9941714  80.7174748  79.3203454 110.0676341  81.4295652
  79.6255027 110.5835313  80.0393827  85.1855971 104.4944097  86.9219070
  85.9181143 103.9243314  87.1556899  84.4295326 104.1065697  87.3625575
  74.4600550 107.4561191  80.4135723  74.3436808 106.7806095  81.0816807
  74.5702809 106.9693565  79.5967876  76.8032090 106.9171338  84.1182412
  76.4390298 106.3901959  84.8295333  77.6599206 106.5269808  83.9448897
  82.7081391  98.2065671  91.3813678  82.3764716  99.0761082  91.1574893
  82.1127004  97.8901955  92.0607709  76.4437577 101.9461238  79.1143761
  76.6111980 102.8141475  79.4814232  76.2534747 102.1088520  78.1905050
  79.2012911 110.4078217  90.7809591  78.9013634 111.3103256  90.6725398
  78.8563970 110.1410400  91.6330744  72.6525392 106.8592014  86.8146295
  71.7275889 106.7268228  87.0223987  72.9009805 107.6386233  87.3116238
  82.6010054 102.9260757  88.4607028  81.6926932 102.8576166  88.1665789
  82.5497650 103.4032702  89.2888854  76.4226798 104.4018896  80.0990427
  76.3026424 104.8475946  80.9375908  75.7279387 104.7504213  79.5403965
  70.0134203 106.5025287  87.6490084  70.1426584 106.7559766  88.5629496
  69.3331654 107.0952995  87.3294739  74.1833690 117.1722537  83.7480559
  74.1057720 118.1230363  83.8269039  73.5795334 116.8268410  84.4055485
  76.6750920 104.3450403  96.4041925  75.8984254 104.9044323  96.3944790
  77.3141483 104.8307186  96.9256796  84.4671701 101.1277196  90.2384902
  83.8246081 101.4209729  89.5924697  83.9626629 101.0130116  91.0438099
  82.1211864 104.8740369  80.9270761  83.0329721 105.1067756  80.7518459
  81.6121512 105.4577413  80.3645840  74.9297293 107.1535856  95.9659892
  75.6711977 107.6920900  95.6894716  74.2234278 107.7802145  96.1231444
  80.4052632 109.2964997  94.5632054  80.8135988 108.8547407  93.8186686
  79.6829894 108.7217624  94.8166247  76.7583702 104.2337603  91.9365611
  77.6044897 104.6577017  92.0800260  76.6982340 103.5771228  92.6304174
  80.7281447 109.8566187  88.3184343  80.0990309 110.0211901  87.6160411
  80.3407109 110.2707797  89.0895307  84.6070679 110.7920625  85.6728707
  83.9221717 111.1719527  85.1225740  84.6914528 111.4015952  86.4060654
  79.9083148 101.8941972  93.5946785  79.6644079 102.6484032  93.0581060
  80.1843078 102.2727319  94.4294032  81.8621610 108.4380584  92.2724050
  82.0738506 109.0812344  91.5958431  81.8151359 107.6042901  91.8045980
  79.4647839 101.0498405  89.1760622  78.6032318 101.3479658  89.4677360
  79.4910274 101.2668804  88.2441655  76.2809409 109.5940595  85.5834428
  76.7447754 109.8728298  84.7939050  76.0166207 108.6924040  85.4007519
  73.1733490 109.1412077  88.5214191  73.7434847 109.5699345  87.8831676
  73.7641602 108.8594662  89.2198377  75.2178295 105.7163748  82.3923993
  75.9202338 106.1684791  82.8597919  74.8858923 105.0747567  83.0203886
  73.6658656 104.3075504  96.7675202  73.0357317 104.9891785  97.0010599
  73.5594744 104.1958586  95.8228341  68.9603629 103.9747300  87.6941127
  68.1702683 104.2304829  87.2181237  69.4514876 104.7895638  87.7993167
  82.9767438 111.3152540  90.4446407  83.7984882 110.9132727  90.1629089
  82.9729841 111.2120774  91.3962523  70.9118374 104.3391880  84.6524603
  70.1149537 104.4510574  85.1708099  70.6843966 104.6778532  83.7865494
  76.7424042 110.8636583  92.6007118  76.8068474 111.3256990  93.4365290
  76.0334966 110.2333948  92.7289428  67.2441332 104.2277791  90.1256117
  67.4949370 105.1124801  90.3913693  67.7800880 104.0482392  89.3531209
  91.0673431 107.6591288  86.7931379  90.3137140 107.0898686  86.6375383
  91.2020973 107.6253953  87.7402014  76.4572059 112.5304690  82.4686098
  76.3217734 113.3756226  82.8970946  76.9981872 112.7323968  81.7052032
  72.9439399  98.6096270  99.1300454  72.5506345  98.0562469  99.8048098
  73.7605539  98.9206849  99.5206971  69.9101457 110.0480128  83.0414023
  70.4225977 110.8423379  83.1919588  70.5624170 109.3506419  82.9747625
  71.7196341 113.1645885  85.1236777  71.8962970 114.0863849  84.9357760
  72.5153175 112.8504304  85.5531156  75.8607360 100.0254149  96.7220710
  76.6017073 100.6261302  96.6425173  76.0925283  99.2831787  96.1638753
  71.0048698 105.2110517  94.9998940  70.8902213 104.3095774  95.3006039
  70.1493216 105.4574213  94.6483756  78.0840536 113.1528257  96.5986440
  77.6404390 112.3664635  96.2807345  78.7457749 113.3407407  95.9330331
  72.8427657 114.6824058  91.1247119  73.3935082 114.5541122  90.3524113
  72.0039133 114.9818948  90.7742012  80.1821774 113.4331057  94.6267842
  80.1640249 114.2539938  94.1348111  81.1041694 113.3085132  94.8517983
  76.6394828 110.9475186  95.4691350  77.1723165 110.1863474  95.2390658
  76.1108909 110.6548838  96.2115505  79.8064523  96.0535252  90.9984992
  79.4628792  96.9436894  90.9224102  80.1743486  95.8636910  90.1354577
  67.8750374 108.3768783  83.8173594  68.7125596 108.7865791  83.6007302
  68.0528641 107.4368225  83.7873788  79.7714806 106.0443863  79.5057427
  79.2561429 106.8148468  79.7445814  79.4992114 105.3709000  80.1290488
  77.3561917 100.8893564  84.5642665  76.5003513 100.5000415  84.3848304
  77.7688868 100.9685525  83.7042451  78.8861063  98.4239907  88.9634225
  78.3825859  98.3870043  88.1502030  79.1791670  99.3332650  89.0230882
  75.1303949  98.5078637  87.9700407  75.9956946  98.3121446  87.6106296
  75.1981458  98.2788989  88.8969764  84.7449080 108.7976218  81.4410600
  83.9678523 108.4587378  80.9965762  85.4240561 108.8028841  80.7665565
  79.5601109 103.9170955  81.3317208  79.2551244 104.2317105  82.1827351
  80.5131551 103.9952375  81.3744541  78.0047541 110.0761179  82.9810162
  77.4768902 109.3413938  82.6683400  77.5035043 110.8535855  82.7350130
  82.9840387 108.2710199  88.0977208  82.3264061 108.9609461  88.1857337
  83.7880786 108.6606631  88.4411195  72.7366268 100.7380845  85.3416774
  73.3110020 100.5156027  84.6089967  73.3237251 100.8069540  86.0945375
  81.7945845 106.6254572  86.1481150  82.3077727 107.2584564  86.6502860
  82.4447069 106.0255767  85.7824510  73.0635855 102.7685306  79.3612659
  72.2273168 103.1059993  79.6821934  72.9240625 102.6334286  78.4239796
  75.0388936  97.6122094  84.0691843  74.3853348  97.2971111  83.4448458
  74.9969410  96.9897834  84.7951666  76.1500141 107.8941389  75.9845135
  75.2427203 107.6630643  76.1836284  76.6471173 107.0979008  76.1719117
  79.0568220 116.6038896  78.9041821  78.3829918 116.9070593  79.5126779
  79.4434042 117.4067977  78.5547278  78.2726676 104.1004028  88.3939491
  77.3549238 104.3218975  88.2361179  78.6886820 104.1750338  87.5351198
  79.0561724 105.4995443  83.5242171  79.8033543 106.0116840  83.2149293
  79.3253314 105.1779496  84.3846564  77.3288374 107.9953984  80.5069125
  76.4199594 107.7113017  80.6041595  77.3583458 108.4153062  79.6472432
  82.5607642 111.6060573  84.2760293  82.1069969 110.7651483  84.3325483
  81.9301608 112.2421972  84.6135073  81.5040561 102.5352559  85.5060960
  80.7663318 102.0229946  85.8371203  81.7567335 102.0952941  84.6944237
  81.0040581 113.4437070  85.2110111  81.2963555 114.0042127  84.4922477
  81.5139202 113.7365631  85.9663270  81.6052189  95.3128811  86.1002729
  81.9111065  94.4526175  85.8128645  82.3304793  95.9046432  85.9001723
  67.8976545 105.7159498  84.4884327  67.7000944 105.1228859  83.7635394
  67.3423209 105.4111708  85.2060266  75.8773268 105.6082605  86.6078921
  75.9321878 104.6556441  86.5321397  75.0664470 105.7642044  87.0920219
  77.0264462 109.5362728  77.8457204  76.5883892 108.8198587  77.3862841
  77.7674903 109.7638842  77.2842295  73.8165628 104.2259664  84.3669299
  73.0033494 104.5253835  84.7734492  74.3124622 103.8315353  85.0843782
  75.9674206 114.2217421  86.3003564  75.9250385 114.4478268  85.3712096
  76.8836905 113.9880796  86.4489365  79.4139840 104.6901489  93.1984193
  79.7689228 104.9172962  94.0578659  80.0611971 105.0219866  92.5761449
  85.1437577 107.8119925  83.9033522  85.0055475 108.0021521  82.9754712
  84.7873796 108.5739307  84.3601573  73.3079703 101.7978020  89.9830534
  73.9479082 101.6566779  89.2853498  72.4757234 101.5112533  89.6069136
  85.1706956 109.8796452  88.9144794  85.6043463 109.7871741  89.7627848
  85.8838537 109.8553952  88.2764810  74.0840007 111.0980450  86.0965527
  74.8780605 110.6030770  85.8948102  73.3731699 110.5698313  85.7333232
  78.9034851 113.4798546  90.4477894  78.9571874 114.0489482  91.2155610
  78.0349633 113.6500431  90.0831932  70.3922770 105.2423532  82.1725279
  69.4620358 105.1807987  82.3895242  70.4880242 104.7199485  81.3761921
  70.3108319 101.7678345  84.7603521  70.5715137 102.6823678  84.6512682
  71.1325492 101.3002787  84.9100134  71.7833245 103.1816102  91.9302346
  72.4556298 102.9733464  91.2814995  70.9563031 102.9838188  91.4907578
  86.0322506 109.9220152  91.4477679  86.2258396 110.8265963  91.6936954
  85.9323124 109.4627571  92.2816264  77.6858817  99.8078043  93.9468007
  77.0386732 100.5067993  93.8532483  78.4559832 100.2414187  94.3144255
  81.0937615 110.0726895  97.0218560  80.9423121 109.8437447  96.1048644
  81.0842294 111.0297496  97.0349905  77.8622951 107.6458808  92.0064826
  78.7915011 107.7969967  91.8333794  77.4413981 107.7342829  91.1513473
  76.6611283 111.6709472  89.7763364  76.5222369 111.3028257  90.6489302
  75.8725879 112.1857112  89.6047322  77.2559435 116.7718569  81.1188900
  77.4311191 116.3006612  81.9334523  76.5692223 117.3984335  81.3470161
  78.2116498 111.0491075  87.1652202  77.8766331 111.0091845  88.0609852
  77.7120444 110.3835791  86.6922612  72.1860742 106.4558705  92.6904783
  72.0480540 105.7238944  93.2916322  73.0965665 106.3667605  92.4088971
  81.1475690 108.3947109  77.4389261  80.5304860 107.6693937  77.3422314
  80.6792178 109.1556470  77.0956336  74.8143043 106.1678664  92.1788463
  75.5242661 105.5271856  92.1375081  74.7712351 106.4191559  93.1014643
  82.8029821 113.1046018  95.0995042  82.7442368 112.4205238  94.4325625
  83.2049340 113.8465008  94.6475668  73.5271977 103.1543882  93.9984102
  72.9909334 102.7034621  94.6505698  72.9388685 103.2889791  93.2554566
  71.8220520 119.9207931  87.8928761  72.0617118 120.5526456  88.5707779
  70.9789717 119.5695971  88.1794120  72.9374236 102.6132534  76.5610566
  72.0603702 102.4921334  76.1972812  73.4131989 101.8218612  76.3089454
  82.8047229 111.0685602  93.3309021  81.9174007 110.7311523  93.4535420
  83.3745780 110.3368633  93.5677787  64.4576376 107.4009693  86.6552073
  65.1447416 107.0871423  86.0673088  64.3024504 108.3051058  86.3819324
  69.2611098 102.2899890  91.0837096  69.1769287 101.6825559  90.3487506
  68.4393804 102.7808908  91.0846593  76.3348382 115.7287054  90.2970265
  76.2618554 116.5342025  90.8089569  75.8925775 115.9279020  89.4718286
  76.1238162 114.9658824  83.8073086  75.3405684 115.5080504  83.9011311
  76.8230907 115.4832804  84.2067327  79.4334812 100.7753453  86.4507292
  79.9303511 100.0223416  86.1308362  78.6621793 100.8117770  85.8850501
  87.2864569 106.4793819  88.0925583  87.2754445 107.3618534  87.7219516
  86.4181949 106.1265370  87.8980120  78.7947066 115.6273888  92.4528423
  79.5075038 116.2621353  92.3804325  78.3037094 115.7237754  91.6368425
  80.5164592 109.5325141  84.0245715  79.5820871 109.6526603  83.8550419
  80.6941261 108.6297607  83.7605725  76.0169781 102.9170836  86.1778976
  75.6467568 102.3641877  86.8659882  76.5128873 102.3128970  85.6253976
  83.9037144 105.3742460  84.5595749  84.3697596 106.2070451  84.4856052
  84.3544644 104.9087441  85.2641008  73.8458979 113.3768331  93.2733994
  74.5468439 114.0104814  93.4263388  73.3754094 113.7183063  92.5129633
  81.9713375 111.7186281  81.5581901  82.2473219 111.6042876  82.4675775
  81.1017874 111.3203766  81.5194074  81.8753807  97.7423047  88.5986650
  80.9616886  97.9727274  88.7668857  82.3046908  97.8261491  89.4500683
  81.6460265 105.9312939  91.0986544  80.9931715 106.1788846  90.4438997
  82.0240645 105.1177077  90.7649022  78.6067439 115.9672632  85.2014715
  78.7889833 115.1494288  85.6642467  79.4300425 116.1840324  84.7639605
  78.9409604 114.8940817  82.4629763  79.4697371 114.3833272  81.8499925
  79.2037824 114.5783347  83.3275296  77.6947838 106.6732750  97.5852582
  77.0188475 106.5726879  98.2554957  78.5175472 106.5171964  98.0488579
  69.4426697 112.9104686  90.2065097  70.0280134 112.1648374  90.3393001
  69.2451536 113.2208643  91.0901761  72.2965352 115.9455934  85.2227539
  71.6275728 116.4302061  84.7391579  72.1578222 116.1925154  86.1370918
  64.0344352 105.4810287  88.9269540  64.0728451 104.9473877  89.7206658
  63.5284645 104.9545492  88.3080517  76.4370621 117.9799677  91.8210197
  76.9888929 118.1431299  92.5859283  76.7776814 118.5704115  91.1490222
  71.4135114 100.3274827  92.4232082  71.4776441 101.1889658  92.0109480
  71.3502234  99.7148829  91.6904441  70.8887387 102.3997960  96.0705116
  71.5159426 102.0175037  96.6842641  70.0315306 102.1812162  96.4360809
  67.6652929 104.2074389  82.0023471  67.9606371 103.2985067  81.9490525
  66.7640965 104.1862128  81.6804474  79.5739008 115.9281653  88.8073880
  79.4490148 115.1271393  88.2984825  80.2318099 116.4227846  88.3187850
  71.1947176 102.2830385  87.9851020  70.4733762 102.8966353  87.8458493
  71.9840432 102.8188150  87.9067666  81.6373917 113.7290673  90.4353430
  80.6904252 113.6096024  90.3631756  81.9856690 112.8413171  90.5179691
  73.9973490  99.6184812  94.2591672  74.5207892  99.8647108  95.0217981
  73.7785823 100.4504847  93.8394809  69.3940771 101.8888486  82.1262796
  69.0653477 101.0085865  81.9437902  69.7480142 101.8336155  83.0139186
  78.6420350 113.5243389  86.6357782  78.4945312 112.5960097  86.8165352
  79.4673843 113.5463480  86.1514857  72.5082594 102.1761456  82.4938274
  72.8478667 102.7047377  81.7716882  72.9554715 102.5141862  83.2696841
  82.2454472 114.3471948  87.7222655  83.1701019 114.1414809  87.5847106
  82.0769775 114.0988349  88.6311996  75.2026035 100.5598507  91.9441342
  74.8622855  99.7606320  92.3462022  74.4965041 100.8600218  91.3718175
  75.8542507  97.6447819  90.3968665  76.6768576  97.1708298  90.2747556
  76.0980570  98.4238303  90.8967351  74.4950741 100.6736078  80.6931567
  75.2159104 101.0517331  80.1895284  73.8716045 101.3924955  80.7966545
  78.6381864 101.3781227  81.6289899  78.8545479 102.2605865  81.3278727
  78.1575931 100.9867440  80.8995541  73.3781086 104.3366940  88.2060644
  73.2325666 104.6507243  89.0984925  72.9006289 104.9551840  87.6531542
  75.2377468 101.3269488  88.2541533  75.2239037 100.4310581  87.9173831
  75.9549897 101.3340152  88.8879819  77.0903599 101.7606828  90.2994661
  76.8321377 102.6823899  90.2978991  76.5588640 101.3637263  90.9895125
  82.0349788 114.8657615  83.0784746  82.2086665 114.3004038  82.3258599
  82.5278679 115.6658510  82.8964236  67.8526748 106.8772284  91.1448305
  67.3080216 107.6532092  91.2768579  68.7306098 107.2243089  90.9867426
  74.6414364 100.2083868  83.5229103  74.7630276  99.2800514  83.7219991
  74.3516407 100.2222554  82.6107419  77.5105555  97.8938779  86.6595823
  77.5327252  97.9578112  85.7047803  77.9273614  97.0543287  86.8536329
  87.8889179 107.6294038  84.6975046  88.3320325 106.8801363  84.2994169
  87.0115689 107.6204175  84.3148778  83.0224960 114.1824380  80.1781644
  83.7175865 114.8031072  80.3968959  83.3648111 113.3319731  80.4534022
  68.6392770 106.0042181  94.0378462  67.8974506 106.1524816  94.6243092
  68.3185514 106.2650446  93.1745211  84.9216384 111.6324085  81.7068975
  85.4467708 111.9711358  80.9818295  84.8338736 110.6971101  81.5232110
  76.5836432 115.5458159  93.8358852  76.8923559 115.3007306  94.7081551
  77.3811914 115.7504797  93.3477722  76.6057044 117.6996069  86.0664228
  76.1662035 117.2072447  86.7597085  77.3565161 117.1569036  85.8256304
  69.0849383 113.8907609  86.0688856  69.9107403 113.5911381  85.6887500
  68.7343435 113.1215232  86.5178645  74.0530916 113.2434078  88.1386530
  73.4310926 112.5804783  87.8388758  74.7235783 113.2695210  87.4560178
  67.2857988 111.8093936  87.0277790  66.4489897 111.3816110  86.8461791
  67.2581634 112.0026379  87.9648581  74.1255444 101.7215866  97.7319036
  74.1743599 102.5977988  97.3496806  74.6677958 101.1793259  97.1590679
  84.7308165 109.1149455  94.3252902  84.7806170 108.9499463  95.2668425
  84.6222088 108.2476714  93.9350782  73.6144423 111.7938001  81.6144991
  73.7632544 112.4773465  80.9611663  74.4210867 111.7743091  82.1294446
  82.0211927 105.0980383  95.6412208  82.9221790 104.9586848  95.3496206
  82.0959902 105.2634838  96.5810386  76.3554732 102.4747238  94.4865395
  75.4858042 102.7680804  94.2147983  76.5914213 103.0587683  95.2072658
  86.2326362 111.5346397  94.5694923  85.9411170 111.8976377  95.4058384
  85.6198493 110.8213405  94.3908255  87.4322044 109.0999277  87.0897493
  88.2668935 109.5389081  87.2535054  87.5681173 108.6237930  86.2705739
  84.4813550 106.6579011  93.0374981  84.9567671 106.8506658  92.2293833
  83.5579115 106.7138197  92.7918365  71.3697056 107.8203179  82.6206060
  71.1243098 106.9165509  82.8186270  71.5392971 107.8220329  81.6785538
  79.0593766  98.6926855  92.0030815  79.5775710  99.4287882  91.6777304
  78.7048899  98.9990848  92.8377574  70.6392704 103.5531536  80.1192221
  69.9461949 103.6275891  79.4632257  70.3944456 102.7891880  80.6413738
  79.3106360  95.1127138  87.5231712  79.5908114  94.4450327  88.1492138
  80.0956967  95.3056233  87.0106376  77.1139829 114.2886131  79.0856738
  76.5413796 114.9076319  78.6327210  77.6872623 114.8385493  79.6196660
  83.1815219 103.5344772  91.2703287  84.1332642 103.6342869  91.2915511
  83.0118669 102.7423040  91.7801371  81.2029598 100.6200355  91.4562688
  80.6079530 100.9005367  90.7609176  80.9179295 101.1094256  92.2279429
  80.3337089 114.5723282  80.2165320  81.2667762 114.5068843  80.4198196
  80.2460302 115.4079548  79.7579853  82.9625105 113.8889152  77.1769268
  82.8838737 113.5549016  78.0705026  83.7834772 114.3810920  77.1760740
  85.6603297 106.7550891  90.3845586  85.6279617 105.8166892  90.5705270
  86.2703920 106.8334928  89.6511411  77.4986627 105.6246944  76.4272791
  78.4445732 105.4953152  76.4961209  77.1200872 104.8861606  76.9042219
  85.8097785 103.5461935  90.4303870  85.2936834 102.7620391  90.2433799
  86.6937734 103.2180651  90.5950389  83.4708512  97.2902950  86.3899682
  83.2733333  96.9818038  87.2743014  84.0808218  98.0164589  86.5197612
  91.4779846 107.8166898  89.5251623  92.2083235 107.5552186  90.0859327
  90.8686792 107.0795620  89.5653691  89.5595144 105.9574761  90.1226074
  88.8328307 105.8230726  89.5142566  89.1442430 106.2651589  90.9282793
  77.3825320 109.6764690  97.8873448  78.3028329 109.8543289  98.0813494
  77.3474903 108.7320736  97.7353147  75.6829545 103.5496921  76.3627676
  74.7761000 103.2530033  76.4390389  75.9605526 103.2526739  75.4961962
  66.6007485 104.8703284  86.8126722  66.2810269 104.0168592  86.5201096
  66.0540913 105.0851862  87.5684689  70.3787392 107.5865725  90.5296229
  70.5973402 108.5182833  90.5484262  70.7913166 107.2273699  91.3151033
  77.2991610  98.0933810  82.5171917  76.4892339  97.7480895  82.8927163
  77.9876027  97.7841354  83.1059529  79.2282159  97.1711857  84.1396214
  79.7813197  97.5907311  84.7986237  79.4652245  96.2447605  84.1819170
  75.2515258 103.1598931  99.9198978  75.1511985 104.1093288  99.8511069
  75.0336800 102.8317170  99.0475048  74.4528329 100.4083856  76.5039655
  75.3147493 100.7338754  76.7635472  74.6378673  99.6215352  75.9912721
  66.4695745 108.4906195  88.7819844  65.7759216 108.0760148  88.2689798
  67.2168736 108.5326732  88.1853263  82.6060966  99.2812382  83.6474878
  82.0259635  99.9397186  83.2652930  82.3396898  98.4589727  83.2362295
  81.0564532  98.6817440  85.8496198  81.5564310  98.7933974  85.0410517
  81.7000140  98.3778493  86.4897007  75.1146528 106.5896070  98.7364039
  74.6313610 107.3896430  98.9427928  75.2007467 106.6004014  97.7831483
  68.3832487 108.4224449  86.6585859  68.3603176 108.5212137  85.7067742
  68.6933124 109.2689600  86.9803025  71.0419865 110.4800604  90.7732473
  71.9963119 110.4484547  90.7062405  70.8432389 110.0191228  91.5882699
  71.6319247 109.0501720  93.3403271  72.4512136 109.5445799  93.3638108
  71.9056055 108.1333688  93.3120838  81.3885844 101.4412473  82.7031226
  80.5011699 101.7262123  82.4851421  81.8039833 101.2806236  81.8558503
  84.7400380 101.4658994  86.4185565  85.5160770 101.9555446  86.6910182
  84.0148514 101.8917048  86.8757435  87.1772938 102.1786613  87.4759506
  87.7717429 101.9382349  86.7652814  87.2499522 101.4593743  88.1033042
  69.3970094 116.0220224  87.7902671  69.2624562 115.2620625  87.2240669
  68.9802156 116.7461124  87.3231460  80.5329057 111.2057147  76.7979246
  81.2364907 111.4107150  77.4136902  79.8091706 111.7733909  77.0628330
  81.3626867 106.9567009  82.9181516  81.3062069 107.4135560  82.0789149
  81.9155210 106.1957693  82.7404359  85.1731673 102.7456740  83.7431636
  84.9168608 102.3453376  84.5739844  84.5484541 103.4600534  83.6181775
  89.4844011 105.4852814  86.2502927  88.9243569 105.5546003  87.0234489
  88.8787515 105.3093798  85.5302424  72.5539220 116.9189541  88.0021114
  72.4371604 117.8634973  87.8999804  71.7331666 116.6163102  88.3906913
  82.4415755 111.6439677  78.8477706  83.2761358 111.2120875  78.6655181
  82.2800097 111.4721690  79.7754601  82.0961647 108.1471790  80.2134046
  82.0410451 107.9816061  79.2722490  81.4707702 108.8547823  80.3696235
  66.8854162 103.3839854  94.0395468  67.5313025 102.8738808  94.5282693
  66.6771313 104.1208536  94.6138893  75.4057772  97.6479899  79.7919364
  75.3936442  98.5921739  79.9487635  76.2981194  97.4650044  79.4978825
  73.5793734 117.5717803  91.2177042  74.4820981 117.6041413  91.5343537
  73.3531104 116.6418254  91.2323378  75.3347336 116.3248789  87.8787121
  74.3842967 116.3250651  87.7651493  75.6379822 115.5781524  87.3623155
  79.2209892  94.2422675  84.0465301  78.4542287  93.6881162  84.1921983
  79.6320597  94.3144544  84.9079452  71.2251653 100.5307471  98.1370482
  72.0883114 100.1744276  98.3473807  70.6517063 100.1921366  98.8245886
  83.7376552 123.9672232  84.8691299  83.1741417 123.8762169  84.1007586
  83.6228947 123.1472137  85.3493791  81.2840984 125.4623424  87.7075519
  82.0762275 125.1214248  87.2921818  81.5237634 125.5718399  88.6277672
  83.2431737 124.7232337  80.5792898  84.0162613 124.1761324  80.4405774
  83.5957136 125.5876586  80.7907359  85.5798015 120.8825003  78.2111348
  85.8323536 120.3606524  77.4494811  84.6422574 120.7191149  78.3138031
  90.6241298 119.8860781  86.0186091  91.4104387 119.4680205  85.6676508
  90.8880002 120.7906874  86.1867739  85.2994304 122.7853109  80.4135723
  85.1830562 122.1098012  81.0816807  85.4096564 122.2985483  79.5967876
  87.6425845 122.2463256  84.1182412  87.2784052 121.7193877  84.8295333
  88.4992961 121.8561725  83.9448897  87.2831332 117.2753156  79.1143761
  87.4505734 118.1433392  79.4814232  87.0928501 117.4380438  78.1905050
  83.4919147 122.1883932  86.8146295  82.5669643 122.0560146  87.0223987
  83.7403560 122.9678151  87.3116238  87.2620553 119.7310813  80.0990427
  87.1420178 120.1767864  80.9375908  86.5673141 120.0796131  79.5403965
  80.8527958 121.8317205  87.6490084  80.9820339 122.0851684  88.5629496
  80.1725409 122.4244913  87.3294739  92.9605619 120.2032287  80.9270761
  93.8723475 120.4359673  80.7518459  92.4515266 120.7869331  80.3645840
  90.3041594 116.3790323  89.1760622  89.4426073 116.6771576  89.4677360
  90.3304028 116.5960721  88.2441655  87.1203163 124.9232513  85.5834428
  87.5841509 125.2020216  84.7939050  86.8559961 124.0215958  85.4007519
  86.0572049 121.0455665  82.3923993  86.7596093 121.4976709  82.8597919
  85.7252678 120.4039484  83.0203886  79.7997383 119.3039218  87.6941127
  79.0096437 119.5596747  87.2181237  80.2908631 120.1187556  87.7993167
  81.7512129 119.6683797  84.6524603  80.9543292 119.7802492  85.1708099
  81.5237721 120.0070450  83.7865494  78.0835086 119.5569709  90.1256117
  78.3343125 120.4416718  90.3913693  78.6194635 119.3774310  89.3531209
  80.7495211 125.3772046  83.0414023  81.2619732 126.1715296  83.1919588
  81.4017924 124.6798337  82.9747625  82.5590096 128.4937802  85.1236777
  82.7356724 129.4155767  84.9357760  83.3546929 128.1796222  85.5531156
  90.6458277 111.3827170  90.9984992  90.3022547 112.2728812  90.9224102
  91.0137240 111.1928828  90.1354577  78.7144128 123.7060700  83.8173594
  79.5519350 124.1157709  83.6007302  78.8922396 122.7660143  83.7873788
  90.6108560 121.3735781  79.5057427  90.0955184 122.1440386  79.7445814
  90.3385869 120.7000917  80.1290488  88.1955671 116.2185482  84.5642665
  87.3397268 115.8292332  84.3848304  88.6082623 116.2977443  83.7042451
  89.7254818 113.7531825  88.9634225  89.2219613 113.7161960  88.1502030
  90.0185425 114.6624568  89.0230882  85.9697704 113.8370555  87.9700407
  86.8350700 113.6413364  87.6106296  86.0375213 113.6080907  88.8969764
  90.3994863 119.2462873  81.3317208  90.0944999 119.5609022  82.1827351
  91.3525305 119.3244293  81.3744541  88.8441295 125.4053096  82.9810162
  88.3162657 124.6705856  82.6683400  88.3428798 126.1827773  82.7350130
  83.5760023 116.0672763  85.3416774  84.1503775 115.8447944  84.6089967
  84.1631005 116.1361457  86.0945375  83.9029610 118.0977224  79.3612659
  83.0666922 118.4351910  79.6821934  83.7634380 117.9626204  78.4239796
  85.8782690 112.9414012  84.0691843  85.2247103 112.6263029  83.4448458
  85.8363165 112.3189752  84.7951666  86.9893895 123.2233307  75.9845135
  86.0820957 122.9922560  76.1836284  87.4864927 122.4270926  76.1719117
  89.1120431 119.4295945  88.3939491  88.1942992 119.6510892  88.2361179
  89.5280574 119.5042256  87.5351198  89.8955479 120.8287361  83.5242171
  90.6427298 121.3408758  83.2149293  90.1647068 120.5071414  84.3846564
  88.1682129 123.3245902  80.5069125  87.2593348 123.0404934  80.6041595
  88.1977213 123.7444980  79.6472432  92.3434316 117.8644477  85.5060960
  91.6057073 117.3521863  85.8371203  92.5961089 117.4244859  84.6944237
  92.4445943 110.6420729  86.1002729  92.7504820 109.7818093  85.8128645
  93.1698548 111.2338349  85.9001723  78.7370299 121.0451416  84.4884327
  78.5394699 120.4520776  83.7635394  78.1816963 120.7403626  85.2060266
  86.7167023 120.9374522  86.6078921  86.7715633 119.9848359  86.5321397
  85.9058225 121.0933961  87.0920219  87.8658217 124.8654645  77.8457204
  87.4277647 124.1490504  77.3862841  88.6068657 125.0930760  77.2842295
  84.6559383 119.5551582  84.3669299  83.8427248 119.8545753  84.7734492
  85.1518377 119.1607271  85.0843782  84.1473457 117.1269937  89.9830534
  84.7872837 116.9858697  89.2853498  83.3150988 116.8404451  89.6069136
  84.9233761 126.4272368  86.0965527  85.7174360 125.9322688  85.8948102
  84.2125454 125.8990231  85.7333232  81.2316525 120.5715450  82.1725279
  80.3014113 120.5099905  82.3895242  81.3273997 120.0491402  81.3761921
  81.1502074 117.0970262  84.7603521  81.4108891 118.0115596  84.6512682
  81.9719246 116.6294705  84.9100134  82.6226999 118.5108020  91.9302346
  83.2950053 118.3025382  91.2814995  81.7956786 118.3130106  91.4907578
  91.9869444 123.7239027  77.4389261  91.3698615 122.9985855  77.3422314
  91.5185933 124.4848387  77.0956336  83.7767990 117.9424451  76.5610566
  82.8997456 117.8213252  76.1972812  84.2525743 117.1510530  76.3089454
  75.2970130 122.7301611  86.6552073  75.9841170 122.4163341  86.0673088
  75.1418259 123.6342976  86.3819324  80.1004852 117.6191808  91.0837096
  80.0163041 117.0117477  90.3487506  79.2787559 118.1100826  91.0846593
  90.2728566 116.1045371  86.4507292  90.7697266 115.3515333  86.1308362
  89.5015548 116.1409688  85.8850501  91.3558347 124.8617058  84.0245715
  90.4214626 124.9818521  83.8550419  91.5335015 123.9589525  83.7605725
  86.8563535 118.2462754  86.1778976  86.4861323 117.6933794  86.8659882
  87.3522627 117.6420888  85.6253976  94.7430898 120.7034378  84.5595749
  95.2091350 121.5362369  84.4856052  95.1938399 120.2379359  85.2641008
  92.7147561 113.0714965  88.5986650  91.8010641 113.3019191  88.7668857
  93.1440663 113.1553409  89.4500683  74.8738106 120.8102204  88.9269540
  74.9122206 120.2765795  89.7206658  74.3678399 120.2837410  88.3080517
  82.2528869 115.6566745  92.4232082  82.3170195 116.5181576  92.0109480
  82.1895989 115.0440746  91.6904441  78.5046684 119.5366306  82.0023471
  78.8000125 118.6276985  81.9490525  77.6034720 119.5154046  81.6804474
  82.0340931 117.6122303  87.9851020  81.3127517 118.2258271  87.8458493
  82.8234187 118.1480068  87.9067666  80.2334526 117.2180404  82.1262796
  79.9047232 116.3377783  81.9437902  80.5873896 117.1628073  83.0139186
  83.3476349 117.5053374  82.4938274  83.6872421 118.0339295  81.7716882
  83.7948469 117.8433780  83.2696841  86.0419790 115.8890425  91.9441342
  85.7016610 115.0898238  92.3462022  85.3358796 116.1892135  91.3718175
  86.6936261 112.9739737  90.3968665  87.5162331 112.5000215  90.2747556
  86.9374325 113.7530221  90.8967351  85.3344496 116.0027996  80.6931567
  86.0552858 116.3809248  80.1895284  84.7109800 116.7216872  80.7966545
  89.4775619 116.7073144  81.6289899  89.6939233 117.5897782  81.3278727
  88.9969686 116.3159358  80.8995541  84.2174840 119.6658858  88.2060644
  84.0719421 119.9799161  89.0984925  83.7400044 120.2843758  87.6531542
  86.0771223 116.6561406  88.2541533  86.0632792 115.7602499  87.9173831
  86.7943651 116.6632069  88.8879819  87.9297354 117.0898746  90.2994661
  87.6715132 118.0115817  90.2978991  87.3982394 116.6929180  90.9895125
  78.6920502 122.2064202  91.1448305  78.1473970 122.9824010  91.2768579
  79.5699852 122.5535007  90.9867426  85.4808119 115.5375786  83.5229103
  85.6024030 114.6092432  83.7219991  85.1910161 115.5514472  82.6107419
  88.3499309 113.2230696  86.6595823  88.3721006 113.2870029  85.7047803
  88.7667368 112.3835205  86.8536329  79.9243138 129.2199527  86.0688856
  80.7501158 128.9203299  85.6887500  79.5737190 128.4507150  86.5178645
  78.1251743 127.1385854  87.0277790  77.2883651 126.7108028  86.8461791
  78.0975388 127.3318297  87.9648581  84.4538178 127.1229919  81.6144991
  84.6026298 127.8065383  80.9611663  85.2604621 127.1035009  82.1294446
  82.2090811 123.1495096  82.6206060  81.9636853 122.2457426  82.8186270
  82.3786725 123.1512247  81.6785538  81.4786458 118.8823454  80.1192221
  80.7855703 118.9567809  79.4632257  81.2338210 118.1183798  80.6413738
  90.1500115 110.4419055  87.5231712  90.4301869 109.7742244  88.1492138
  90.9350722 110.6348151  87.0106376  88.3380382 120.9538862  76.4272791
  89.2839487 120.8245070  76.4961209  87.9594627 120.2153524  76.9042219
  94.3102266 112.6194868  86.3899682  94.1127088 112.3109956  87.2743014
  94.9201972 113.3456507  86.5197612  86.5223299 118.8788838  76.3627676
  85.6154754 118.5821951  76.4390389  86.7999280 118.5818656  75.4961962
  77.4401239 120.1995202  86.8126722  77.1204024 119.3460510  86.5201096
  76.8934668 120.4143780  87.5684689  88.1385365 113.4225728  82.5171917
  87.3286093 113.0772813  82.8927163  88.8269782 113.1133272  83.1059529
  90.0675913 112.5003775  84.1396214  90.6206952 112.9199228  84.7986237
  90.3045999 111.5739523  84.1819170  85.2922084 115.7375773  76.5039655
  86.1541248 116.0630672  76.7635472  85.4772428 114.9507269  75.9912721
  77.3089499 123.8198113  88.7819844  76.6152971 123.4052066  88.2689798
  78.0562490 123.8618650  88.1853263  93.4454720 114.6104300  83.6474878
  92.8653389 115.2689104  83.2652930  93.1790653 113.7881645  83.2362295
  91.8958287 114.0109358  85.8496198  92.3958065 114.1225892  85.0410517
  92.5393894 113.7070410  86.4897007  79.2226242 123.7516367  86.6585859
  79.1996930 123.8504054  85.7067742  79.5326878 124.5981518  86.9803025
  92.2279598 116.7704390  82.7031226  91.3405453 117.0554041  82.4851421
  92.6433587 116.6098154  81.8558503  95.5794134 116.7950911  86.4185565
  96.3554524 117.2847364  86.6910182  94.8542268 117.2208965  86.8757435
  92.2020622 122.2858926  82.9181516  92.1455823 122.7427478  82.0789149
  92.7548964 121.5249611  82.7404359  96.0125428 118.0748658  83.7431636
  95.7562362 117.6745294  84.5739844  95.3878296 118.7892452  83.6181775
  92.9355401 123.4763707  80.2134046  92.8804205 123.3107979  79.2722490
  92.3101456 124.1839740  80.3696235  77.7247916 118.7131772  94.0395468
  78.3706780 118.2030726  94.5282693  77.5165067 119.4500454  94.6138893
  86.2451527 112.9771816  79.7919364  86.2330197 113.9213656  79.9487635
  87.1374949 112.7941962  79.4978825  90.0603646 109.5714593  84.0465301
  89.2936042 109.0173080  84.1921983  90.4714351 109.6436462  84.9079452
  26.0337504   7.1919944  75.6678190  26.6715914   7.0726692  74.9641530
  25.9158347   8.1400788  75.7266142  22.8427210   7.1447372  75.6039714
  22.5045722   7.0288437  74.7160249  23.7116978   6.7438537  75.5840720
  18.7014026   8.9982849  71.5936605  18.1378891   8.9072786  70.8252893
  18.5866421   8.1782753  72.0739098  23.3246993   8.2982224  81.5625920
  23.3135634   7.9035022  80.6906424  23.4867633   7.5648297  82.1559691
  16.2478458  10.4934040  74.4320826  17.0399750  10.1524865  74.0167125
  16.4875108  10.6029015  75.3522979  24.2813585  12.6653816  66.9051070
  23.6301564  13.2507897  66.5185084  25.0757947  13.1960011  66.9646108
  18.2069212   9.7542954  67.3038205  18.9800088   9.2071941  67.1651080
  18.5594611  10.6187203  67.5152666  20.0454254  11.0819336  80.5105104
  19.7544120  11.9864967  80.3951770  20.6811239  11.1235863  81.2249173
  20.9710461   8.4596184  77.1006463  21.5674033   8.2352207  76.3863426
  21.0285433   7.7180930  77.7031911  20.5435490   5.9135620  64.9356654
  20.7961010   5.3917141  64.1740117  19.6060049   5.7501765  65.0383338
  25.5878772   4.9171398  72.7431398  26.3741862   4.4990821  72.3921815
  25.8517477   5.8217490  72.9113046  25.7588850  10.3544248  67.4420055
  25.1234683  10.4278875  68.1540959  25.4286256  10.9437847  66.7639134
  30.9887200   4.8546631  73.6464376  31.7212372   4.2845848  73.8802206
  30.2326555   4.4668232  74.0870882  20.2631778   7.8163726  67.1381029
  20.1468036   7.1408629  67.8062114  20.3734038   7.3296100  66.3213182
  22.6063319   7.2773873  70.8427719  22.2421527   6.7504494  71.5540640
  23.4630435   6.8872342  70.6694204  25.0044139  10.7680751  77.5054898
  24.7044863  11.6705790  77.3970705  24.6595199  10.5012935  78.3576050
  18.4556621   7.2194548  73.5391602  17.5307117   7.0870762  73.7469294
  18.7041034   7.9988767  74.0361544  28.4041283   3.2863291  75.1852335
  27.4958161   3.2178700  74.8911096  28.3528879   3.7635236  76.0134160
  22.2258027   4.7621430  66.8235734  22.1057652   5.2078481  67.6621214
  21.5310616   5.1106748  66.2649272  19.9864919  17.5325072  70.4725865
  19.9088949  18.4832897  70.5514346  19.3826563  17.1870944  71.1300792
  22.4782149   4.7052937  83.1287232  21.7015483   5.2646857  83.1190097
  23.1172712   5.1909720  83.6502102  30.2702930   1.4879730  76.9630209
  29.6277310   1.7812263  76.3170003  29.7657858   1.3732650  77.7683405
  27.9243093   5.2342903  67.6516068  28.8360949   5.4670290  67.4763766
  27.4152740   5.8179947  67.0891147  20.7328521   7.5138390  82.6905199
  21.4743206   8.0523434  82.4140023  20.0265507   8.1404679  82.8476751
  26.2083861   9.6567531  81.2877361  26.6167217   9.2149941  80.5431993
  25.4861122   9.0820158  81.5411554  22.5614931   4.5940138  78.6610918
  23.4076126   5.0179551  78.8045567  22.5013569   3.9373762  79.3549481
  26.5312676  10.2168722  75.0429650  25.9021538  10.3814436  74.3405717
  26.1438338  10.6310331  75.8140614  30.4101908  11.1523159  72.3974013
  29.7252946  11.5322061  71.8471047  30.4945757  11.7618486  73.1305961
  25.7114376   2.2544506  80.3192091  25.4675308   3.0086567  79.7826367
  25.9874307   2.6329854  81.1539338  27.6652839   8.7983118  78.9969357
  27.8769734   9.4414878  78.3203738  27.6182587   7.9645435  78.5291287
  25.2679068   1.4100939  75.9005929  24.4063547   1.7082193  76.1922667
  25.2941503   1.6271338  74.9686962  22.0840637   9.9543130  72.3079735
  22.5478983  10.2330833  71.5184357  21.8197436   9.0526574  72.1252825
  18.9764719   9.5014611  75.2459498  19.5466076   9.9301880  74.6076982
  19.5672830   9.2197196  75.9443684  21.0209524   6.0766282  69.1169300
  21.7233567   6.5287326  69.5843226  20.6890152   5.4350101  69.7449193
  28.7798667  11.6755074  77.1691714  29.6016111  11.2735261  76.8874396
  28.7761070  11.5723308  78.1207830  22.5455271  11.2239117  79.3252425
  22.6099703  11.6859524  80.1610596  21.8366194  10.5936482  79.4534734
  36.8704660   8.0193822  73.5176686  36.1168368   7.4501220  73.3620690
  37.0052201   7.9856487  74.4647320  22.2603288  12.8907225  69.1931405
  22.1248963  13.7358760  69.6216253  22.8013101  13.0926502  68.4297339
  15.7132686  10.4082663  69.7659330  16.2257206  11.2025913  69.9164895
  16.3655398   9.7108953  69.6992932  17.5227570  13.5248419  71.8482083
  17.6994199  14.4466384  71.6603067  18.3184404  13.2106838  72.2776463
  23.8871765  13.5130791  83.3231747  23.4435619  12.7267170  83.0052652
  24.5488978  13.7009942  82.6575638  18.6458886  15.0426593  77.8492426
  19.1966311  14.9143656  77.0769419  17.8070362  15.3421482  77.4987318
  25.9853003  13.7933591  81.3513148  25.9671478  14.6142472  80.8593417
  26.9072923  13.6687666  81.5763289  22.4426057  11.3077721  82.1936657
  22.9754394  10.5466009  81.9635965  21.9140138  11.0151372  82.9360811
  25.5746034   6.4046398  66.2302734  25.0592658   7.1751002  66.4691121
  25.3023343   5.7311534  66.8535795  30.5480309   9.1578752  68.1655907
  29.7709751   8.8189912  67.7211069  31.2271790   9.1631375  67.4910872
  25.3632338   4.2773490  68.0562515  25.0582473   4.5919639  68.9072658
  26.3162780   4.3554910  68.0989848  23.8078769  10.4363713  69.7055469
  23.2800131   9.7016473  69.3928706  23.3066272  11.2138389  69.4595437
  28.7871615   8.6312733  74.8222515  28.1295290   9.3211995  74.9102644
  29.5912015   9.0209165  75.1656501  27.5977074   6.9857106  72.8726457
  28.1108956   7.6187098  73.3748166  28.2478298   6.3858302  72.5069817
  21.9531370   8.2543923  62.7090442  21.0458431   8.0233177  62.9081591
  22.4502402   7.4581543  62.8964423  24.8599449  16.9641430  65.6287128
  24.1861147  17.2673127  66.2372086  25.2465270  17.7670511  65.2792585
  24.0757905   4.4606562  75.1184797  23.1580467   4.6821509  74.9606485
  24.4918049   4.5352872  74.2596505  24.8592953   5.8597977  70.2487478
  25.6064772   6.3719375  69.9394600  25.1284542   5.5382030  71.1091871
  23.1319603   8.3556518  67.2314432  22.2230822   8.0715551  67.3286902
  23.1614687   8.7755597  66.3717739  28.3638871  11.9663108  71.0005599
  27.9101198  11.1254018  71.0570790  27.7332837  12.6024506  71.3380380
  27.3071790   2.8955094  72.2306267  26.5694547   2.3832480  72.5616509
  27.5598564   2.4555475  71.4189544  26.8071810  13.8039604  71.9355418
  27.0994784  14.3644661  71.2167783  27.3170430  14.0968165  72.6908577
  21.6804497   5.9685139  73.3324227  21.7353107   5.0158975  73.2566704
  20.8695699   6.1244578  73.8165526  22.8295691   9.8965262  64.5702510
  22.3915121   9.1801121  64.1108148  23.5706132  10.1241377  64.0087602
  21.7705435  14.5819955  73.0248871  21.7281614  14.8080802  72.0957403
  22.6868134  14.3483330  73.1734672  25.2171069   5.0504023  79.9229500
  25.5720456   5.2775496  80.7823966  25.8643200   5.3822400  79.3006755
  30.9468806   8.1722459  70.6278829  30.8086704   8.3624055  69.7000018
  30.5905024   8.9341842  71.0846880  30.9738185  10.2398986  75.6390100
  31.4074692  10.1474275  76.4873155  31.6869766  10.2156486  75.0010116
  19.8871236  11.4582984  72.8210833  20.6811834  10.9633305  72.6193408
  19.1762928  10.9300848  72.4578539  24.7066080  13.8401080  77.1723201
  24.7603102  14.4092016  77.9400917  23.8380862  14.0102965  76.8077238
  31.8353735  10.2822687  78.1722986  32.0289625  11.1868497  78.4182261
  31.7354353   9.8230106  79.0061571  26.8968844  10.4329429  83.7463866
  26.7454350  10.2039981  82.8293950  26.8873523  11.3900031  83.7595211
  23.6654180   8.0061342  78.7310133  24.5946240   8.1572502  78.5579100
  23.2445210   8.0945363  77.8758779  22.4642512  12.0312006  76.5008671
  22.3253597  11.6630791  77.3734609  21.6757108  12.5459646  76.3292628
  23.0590664  17.1321103  67.8434207  23.2342419  16.6609146  68.6579830
  22.3723452  17.7586869  68.0715468  24.0147727  11.4093609  73.8897508
  23.6797559  11.3694379  74.7855158  23.5151673  10.7438325  73.4167919
  17.9891971   6.8161239  79.4150089  17.8511769   6.0841478  80.0161629
  18.8996894   6.7270139  79.1334277  26.9506919   8.7549643  64.1634568
  26.3336089   8.0296472  64.0667621  26.4823407   9.5159004  63.8201642
  20.6174271   6.5281198  78.9033769  21.3273890   5.8874391  78.8620388
  20.5743580   6.7794093  79.8259950  28.6061050  13.4648552  81.8240348
  28.5473596  12.7807772  81.1570931  29.0080569  14.2067542  81.3720974
  17.6251749  20.2810466  74.6174067  17.8648347  20.9128990  75.2953086
  16.7820945  19.9298506  74.9039426  28.6078457  11.4288136  80.0554328
  27.7205236  11.0914058  80.1780727  29.1777008  10.6971167  80.2923093
  22.1379611  16.0889588  77.0215571  22.0649782  16.8944560  77.5334876
  21.6957004  16.2881554  76.1963593  21.9269390  15.3261358  70.5318393
  21.1436912  15.8683038  70.6256617  22.6262136  15.8435338  70.9312634
  25.2366041   1.1355988  73.1752598  25.7334740   0.3825950  72.8553668
  24.4653022   1.1720304  72.6095807  33.0895798   6.8396353  74.8170890
  33.0785674   7.7221069  74.4464823  32.2213177   6.4867904  74.6225427
  24.5978294  15.9876422  79.1773730  25.3106267  16.6223887  79.1049631
  24.1068323  16.0840288  78.3613732  26.3195821   9.8927675  70.7491022
  25.3852100  10.0129137  70.5795726  26.4972490   8.9900142  70.4851031
  29.7068373   5.7344994  71.2841056  30.1728825   6.5672986  71.2101358
  30.1575873   5.2689976  71.9886314  19.6490208  13.7370866  79.9979301
  20.3499667  14.3707349  80.1508695  19.1785323  14.0785597  79.2374940
  27.7744604  12.0788815  68.2827208  28.0504448  11.9645410  69.1921082
  26.9049102  11.6806300  68.2439381  27.4491494   6.2915473  77.8231851
  26.7962944   6.5391380  77.1684304  27.8271874   5.4779611  77.4894328
  24.4098668  16.3275166  71.9260021  24.5921062  15.5096822  72.3887774
  25.2331654  16.5442858  71.4884911  24.7440833  15.2543351  69.1875070
  25.2728600  14.7435806  68.5745232  25.0069053  14.9385882  70.0520603
  23.4979067   7.0335284  84.3097888  22.8219704   6.9329413  84.9800263
  24.3206701   6.8774498  84.7733885  15.2457926  13.2707221  76.9310403
  15.8311363  12.5250909  77.0638308  15.0482764  13.5811177  77.8147067
  18.0996581  16.3058468  71.9472846  17.4306956  16.7904596  71.4636886
  17.9609451  16.5527688  72.8616224  22.2401850  18.3402212  78.5455504
  22.7920158  18.5033833  79.3104589  22.5808043  18.9306649  77.8735529
  27.0912724  13.1663469  84.4004159  27.6352628  13.7793427  83.9059113
  26.5099569  13.7243047  84.9171172  25.3770237  16.2884187  75.5319186
  25.2521376  15.4873927  75.0230132  26.0349328  16.7830380  75.0433156
  27.4405145  14.0893207  77.1598736  26.4935481  13.9698558  77.0877063
  27.7887919  13.2015705  77.2424998  24.4451579  13.8845923  73.3603089
  24.2976541  12.9562631  73.5410659  25.2705072  13.9066014  72.8760164
  28.0485701  14.7074482  74.4467961  28.9732248  14.5017343  74.3092412
  27.8801004  14.4590883  75.3557303  27.8381017  15.2260150  69.8030053
  28.0117894  14.6606572  69.0503905  28.3309908  16.0261044  69.6209543
  33.6920408   7.9896572  71.4220353  34.1351554   7.2403898  71.0239476
  32.8146918   7.9806709  71.0394085  28.8256189  14.5426914  66.9026951
  29.5207094  15.1633607  67.1214266  29.1679339  13.6922265  67.1779329
  30.7247612  11.9926619  68.4314282  31.2498936  12.3313892  67.7063602
  30.6369965  11.0573635  68.2477416  22.3867661  15.9060693  80.5604158
  22.6954788  15.6609840  81.4326858  23.1843143  16.1107332  80.0723029
  22.4088273  18.0598603  72.7909535  21.9693263  17.5674981  73.4842392
  23.1596390  17.5171570  72.5501610  14.8880612  14.2510144  72.7934163
  15.7138632  13.9513915  72.4132807  14.5374664  13.4817766  73.2423952
  19.8562145  13.6036612  74.8631837  19.2342155  12.9407317  74.5634065
  20.5267012  13.6297744  74.1805484  13.0889217  12.1696470  73.7523097
  12.2521125  11.7418644  73.5707098  13.0612863  12.3628913  74.6893888
  30.4141518  12.6259523  83.7365480  29.6237062  12.6083662  83.1969979
  30.1774873  13.1647817  84.4914516  30.5339393   9.4751990  81.0498208
  30.5837398   9.3101997  81.9913731  30.4253317   8.6079249  80.6596089
  19.4175652  12.1540535  68.3390297  19.5663773  12.8376000  67.6856970
  20.2242096  12.1345625  68.8539753  27.8243156   5.4582918  82.3657515
  28.7253019   5.3189382  82.0741513  27.8991130   5.6237372  83.3055693
  32.0357590  11.8948931  81.2940230  31.7442399  12.2578912  82.1303691
  31.4229722  11.1815939  81.1153562  33.2353273   9.4601811  73.8142800
  34.0700164   9.8991615  73.9780360  33.3712401   8.9840464  72.9951046
  30.2844779   7.0181546  79.7620288  30.7598900   7.2109192  78.9539139
  29.3610344   7.0740731  79.5163672  17.1728285   8.1805713  69.3451366
  16.9274327   7.2768043  69.5431576  17.3424200   8.1822863  68.4030844
  22.9171058  14.6488666  65.8102045  22.3445025  15.2678853  65.3572517
  23.4903851  15.1988027  66.3441967  28.9846448   3.8947306  77.9948593
  29.9363870   3.9945403  78.0160818  28.8149898   3.1025574  78.5046678
  27.0060827   0.9802889  78.1807994  26.4110759   1.2607902  77.4854483
  26.7210524   1.4696790  78.9524736  26.1368317  14.9325816  66.9410627
  27.0698991  14.8671377  67.1443502  26.0491530  15.7682083  66.4825160
  28.7656334  14.2491686  63.9014575  28.6869966  13.9151550  64.7950332
  29.5866001  14.7413454  63.9006047  31.4634525   7.1153425  77.1090893
  31.4310845   6.1769426  77.2950577  32.0735149   7.1937462  76.3756718
  23.3017856   5.9849478  63.1518097  24.2476961   5.8555687  63.2206515
  22.9232101   5.2464140  63.6287525  31.6129014   3.9064469  77.1549176
  31.0968062   3.1222925  76.9679105  32.4968962   3.5783185  77.3195696
  37.2811075   8.1769432  76.2496930  38.0114464   7.9154720  76.8104633
  36.6718021   7.4398154  76.2898998  35.3626372   6.3177295  76.8471381
  34.6359536   6.1833260  76.2387873  34.9473659   6.6254123  77.6528099
  23.1856549  10.0367225  84.6118754  24.1059558  10.2145824  84.8058801
  23.1506132   9.0923270  84.4598453  16.1818621   7.9468259  77.2541535
  16.4004631   8.8785367  77.2729569  16.5944395   7.5876234  78.0396339
  28.4092194  -0.3585084  70.3720185  27.8290864   0.2999720  69.9898237
  28.1428127  -1.1807739  69.9607602  20.9177757   6.9498604  85.4609346
  20.4344838   7.7498964  85.6673235  21.0038696   6.9606549  84.5076790
  14.1863716   8.7826983  73.3831165  14.1634404   8.8814671  72.4313048
  14.4964353   9.6292134  73.7048331  16.8451094  10.8403138  77.4977780
  17.7994348  10.8087081  77.4307711  16.6463618  10.3793762  78.3128006
  17.4350476   9.4104255  80.0648577  18.2543365   9.9048333  80.0883415
  17.7087284   8.4936223  80.0366145  27.1917072   1.8015007  69.4276533
  26.3042928   2.0864657  69.2096728  27.6071062   1.6408770  68.5803810
  30.5431609   1.8261528  73.1430872  31.3191999   2.3157980  73.4155489
  29.8179743   2.2519582  73.6002742  32.9804167   2.5389147  74.2004813
  33.5748658   2.2984883  73.4898121  33.0530751   1.8196278  74.8278349
  15.2001323  16.3822758  74.5147978  15.0655791  15.6223159  73.9485976
  14.7833385  17.1063658  74.0476766  26.3360286  11.5659682  63.5224553
  27.0396136  11.7709684  64.1382208  25.6122935  12.1336443  63.7873636
  27.1658096   7.3169543  69.6426823  27.1093298   7.7738094  68.8034455
  27.7186439   6.5560227  69.4649666  30.9762902   3.1059275  70.4676943
  30.7199836   2.7055910  71.2985150  30.3515770   3.8203069  70.3427082
  35.2875240   5.8455348  72.9748234  34.7274798   5.9148537  73.7479796
  34.6818743   5.6696333  72.2547730  18.3570449  17.2792075  74.7266420
  18.2402833  18.2237507  74.6245110  17.5362895  16.9765637  75.1152219
  28.2446983  12.0042211  65.5723013  29.0792587  11.5723409  65.3900488
  28.0831326  11.8324224  66.4999907  27.8992876   8.5074324  66.9379352
  27.8441679   8.3418595  65.9967796  27.2738931   9.2150357  67.0941542
  25.2138783  10.8123236  86.2632915  26.0829942  10.9863888  85.9019550
  24.7345534  11.6317653  86.1408644  19.3824963  17.9320337  77.9422349
  20.2852210  17.9643947  78.2588844  19.1562333  17.0020788  77.9568684
  21.1378565  16.6851323  74.6032427  20.1874196  16.6853185  74.4896800
  21.4411051  15.9384058  74.0868462  36.8731258  22.5211862  75.6678190
  37.5109668  22.4018609  74.9641530  36.7552101  23.4692706  75.7266142
  33.6820965  22.4739290  75.6039714  33.3439476  22.3580355  74.7160249
  34.5510733  22.0730455  75.5840720  29.5407780  24.3274766  71.5936605
  28.9772646  24.2364703  70.8252893  29.4260175  23.5074671  72.0739098
  34.1640748  23.6274142  81.5625920  34.1529388  23.2326940  80.6906424
  34.3261387  22.8940214  82.1559691  27.0872212  25.8225958  74.4320826
  27.8793504  25.4816783  74.0167125  27.3268863  25.9320933  75.3522979
  35.1207339  27.9945734  66.9051070  34.4695319  28.5799814  66.5185084
  35.9151702  28.5251929  66.9646108  29.0462966  25.0834871  67.3038205
  29.8193842  24.5363858  67.1651080  29.3988365  25.9479121  67.5152666
  30.8848009  26.4111253  80.5105104  30.5937875  27.3156884  80.3951770
  31.5204993  26.4527781  81.2249173  31.8104216  23.7888102  77.1006463
  32.4067788  23.5644124  76.3863426  31.8679187  23.0472847  77.7031911
  31.3829244  21.2427537  64.9356654  31.6354765  20.7209059  64.1740117
  30.4453803  21.0793683  65.0383338  36.4272527  20.2463316  72.7431398
  37.2135616  19.8282739  72.3921815  36.6911231  21.1509408  72.9113046
  36.5982604  25.6836166  67.4420055  35.9628437  25.7570793  68.1540959
  36.2680011  26.2729765  66.7639134  41.8280954  20.1838549  73.6464376
  42.5606126  19.6137766  73.8802206  41.0720310  19.7960149  74.0870882
  31.1025533  23.1455643  67.1381029  30.9861791  22.4700547  67.8062114
  31.2127793  22.6588017  66.3213182  33.4457074  22.6065790  70.8427719
  33.0815281  22.0796411  71.5540640  34.3024190  22.2164259  70.6694204
  39.3506374  13.8960123  78.1058985  39.0189699  14.7655534  77.8820200
  38.7551988  13.5796407  78.7853015  33.0862561  17.6355690  65.8389067
  33.2536963  18.5035926  66.2059538  32.8959730  17.7982972  64.9150356
  35.8437894  26.0972669  77.5054898  35.5438617  26.9997708  77.3970705
  35.4988953  25.8304852  78.3576050  29.2950375  22.5486466  73.5391602
  28.3700872  22.4162680  73.7469294  29.5434789  23.3280685  74.0361544
  39.2435038  18.6155209  75.1852335  38.3351915  18.5470618  74.8911096
  39.1922634  19.0927154  76.0134160  33.0651782  20.0913348  66.8235734
  32.9451407  20.5370398  67.6621214  32.3704370  20.4398665  66.2649272
  26.6559186  22.1919739  74.3735391  26.7851568  22.4454218  75.2874803
  25.9756638  22.7847447  74.0540046  30.8258674  32.8616989  70.4725865
  30.7482703  33.8124814  70.5514346  30.2220317  32.5162862  71.1300792
  33.3175904  20.0344855  83.1287232  32.5409238  20.5938775  83.1190097
  33.9566467  20.5201638  83.6502102  41.1096684  16.8171648  76.9630209
  40.4671064  17.1104181  76.3170003  40.6051613  16.7024568  77.7683405
  38.7636848  20.5634821  67.6516068  39.6754704  20.7962208  67.4763766
  38.2546495  21.1471865  67.0891147  31.5722276  22.8430308  82.6905199
  32.3136960  23.3815352  82.4140023  30.8659261  23.4696597  82.8476751
  37.0477615  24.9859449  81.2877361  37.4560971  24.5441859  80.5431993
  36.3254877  24.4112076  81.5411554  33.4008686  19.9232055  78.6610918
  34.2469881  20.3471469  78.8045567  33.3407323  19.2665680  79.3549481
  37.3706430  25.5460639  75.0429650  36.7415293  25.7106353  74.3405717
  36.9832092  25.9602249  75.8140614  41.2495662  26.4815077  72.3974013
  40.5646700  26.8613978  71.8471047  41.3339511  27.0910404  73.1305961
  36.5508131  17.5836424  80.3192091  36.3069063  18.3378484  79.7826367
  36.8268061  17.9621771  81.1539338  38.5046594  24.1275036  78.9969357
  38.7163489  24.7706796  78.3203738  38.4576342  23.2937353  78.5291287
  36.1072823  16.7392857  75.9005929  35.2457302  17.0374110  76.1922667
  36.1335257  16.9563256  74.9686962  32.9234392  25.2835047  72.3079735
  33.3872738  25.5622750  71.5184357  32.6591190  24.3818492  72.1252825
  29.8158473  24.8306529  75.2459498  30.3859830  25.2593797  74.6076982
  30.4066585  24.5489114  75.9443684  31.8603278  21.4058200  69.1169300
  32.5627321  21.8579243  69.5843226  31.5283907  20.7642019  69.7449193
  30.3083640  19.9969956  83.4920509  29.6782300  20.6786237  83.7255906
  30.2019727  19.8853038  82.5473647  25.6028612  19.6641752  74.4186433
  24.8127666  19.9199281  73.9426544  26.0939859  20.4790090  74.5238474
  39.6192422  27.0046992  77.1691714  40.4409865  26.6027179  76.8874396
  39.6154824  26.9015226  78.1207830  27.5543357  20.0286332  71.3769910
  26.7574521  20.1405026  71.8953406  27.3268950  20.3672984  70.5110801
  33.3849025  26.5531035  79.3252425  33.4493458  27.0151442  80.1610596
  32.6759949  25.9228400  79.4534734  23.8866315  19.9172243  76.8501424
  24.1374353  20.8019253  77.1159000  24.4225863  19.7376844  76.0776516
  47.7098415  23.3485740  73.5176686  46.9562123  22.7793138  73.3620690
  47.8445956  23.3148404  74.4647320  33.0997043  28.2199142  69.1931405
  32.9642717  29.0650678  69.6216253  33.6406855  28.4218420  68.4297339
  29.5864382  14.2990722  85.8545760  29.1931328  13.7456921  86.5293404
  30.4030523  14.6101301  86.2452278  26.5526440  25.7374580  69.7659330
  27.0650961  26.5317831  69.9164895  27.2049153  25.0400871  69.6992932
  28.3621325  28.8540337  71.8482083  28.5387953  29.7758301  71.6603067
  29.1578158  28.5398756  72.2776463  32.5032343  15.7148601  83.4466017
  33.2442057  16.3155754  83.3670479  32.7350266  14.9726239  82.8884059
  27.6473681  20.9004968  81.7244246  27.5327196  19.9990226  82.0251345
  26.7918199  21.1468665  81.3729063  34.7265519  28.8422709  83.3231747
  34.2829373  28.0559087  83.0052652  35.3882733  29.0301859  82.6575638
  29.4852640  30.3718510  77.8492426  30.0360065  30.2435574  77.0769419
  28.6464116  30.6713399  77.4987318  36.8246757  29.1225509  81.3513148
  36.8065232  29.9434390  80.8593417  37.7466677  28.9979584  81.5763289
  33.2819811  26.6369638  82.1936657  33.8148148  25.8757926  81.9635965
  32.7533892  26.3443290  82.9360811  36.4489506  11.7429704  77.7230298
  36.1053776  12.6331346  77.6469409  36.8168469  11.5531362  76.8599883
  24.5175357  24.0663235  70.5418901  25.3550579  24.4760243  70.3252608
  24.6953625  23.1262677  70.5119094  36.4139789  21.7338315  66.2302734
  35.8986412  22.5042920  66.4691121  36.1417097  21.0603451  66.8535795
  33.9986900  16.5788016  71.2887972  33.1428496  16.1894866  71.1093611
  34.4113852  16.6579977  70.4287757  35.5286047  14.1134359  75.6879532
  35.0250842  14.0764494  74.8747337  35.8216653  15.0227102  75.7476188
  31.7728932  14.1973089  74.6945713  32.6381929  14.0015898  74.3351603
  31.8406441  13.9683441  75.6215070  41.3874063  24.4870670  68.1655907
  40.6103506  24.1481829  67.7211069  42.0665544  24.4923293  67.4910872
  36.2026092  19.6065407  68.0562515  35.8976228  19.9211557  68.9072658
  37.1556534  19.6846827  68.0989848  34.6472524  25.7655631  69.7055469
  34.1193886  25.0308390  69.3928706  34.1460027  26.5430307  69.4595437
  39.6265370  23.9604651  74.8222515  38.9689044  24.6503913  74.9102644
  40.4305769  24.3501083  75.1656501  29.3791252  16.4275297  72.0662080
  29.9535003  16.2050478  71.3335273  29.9662234  16.4963991  72.8190682
  38.4370829  22.3149024  72.8726457  38.9502711  22.9479016  73.3748166
  39.0872053  21.7150219  72.5069817  29.7060839  18.4579758  66.0857965
  28.8698151  18.7954445  66.4067240  29.5665608  18.3228738  65.1485102
  31.6813919  13.3016546  70.7937150  31.0278332  12.9865563  70.1693764
  31.6394393  12.6792286  71.5196973  32.7925124  23.5835841  62.7090442
  31.8852186  23.3525094  62.9081591  33.2896156  22.7873460  62.8964423
  35.6993203  32.2933348  65.6287128  35.0254902  32.5965045  66.2372086
  36.0859025  33.0962428  65.2792585  34.9151660  19.7898479  75.1184797
  33.9974221  20.0113426  74.9606485  35.3311803  19.8644790  74.2596505
  35.6986707  21.1889895  70.2487478  36.4458526  21.7011292  69.9394600
  35.9678297  20.8673948  71.1091871  33.9713358  23.6848436  67.2314432
  33.0624577  23.4007469  67.3286902  34.0008441  24.1047514  66.3717739
  39.2032625  27.2955025  71.0005599  38.7494952  26.4545935  71.0570790
  38.5726592  27.9316424  71.3380380  38.1465545  18.2247011  72.2306267
  37.4088301  17.7124398  72.5616509  38.3992318  17.7847393  71.4189544
  37.6465564  29.1331522  71.9355418  37.9388539  29.6936579  71.2167783
  38.1564185  29.4260083  72.6908577  38.2477172  11.0023263  72.8248036
  38.5536049  10.1420627  72.5373951  38.9729777  11.5940884  72.6247030
  24.5401528  21.4053950  71.2129634  24.3425928  20.8123311  70.4880701
  23.9848192  21.1006160  71.9305573  32.5198252  21.2977056  73.3324227
  32.5746861  20.3450893  73.2566704  31.7089454  21.4536496  73.8165526
  33.6689445  25.2257179  64.5702510  33.2308875  24.5093038  64.1108148
  34.4099886  25.4533294  64.0087602  30.4590612  19.9154116  71.0914606
  29.6458477  20.2148287  71.4979798  30.9549606  19.5209805  71.8089088
  32.6099189  29.9111873  73.0248871  32.5675368  30.1372719  72.0957403
  33.5261888  29.6775248  73.1734672  36.0564823  20.3795941  79.9229500
  36.4114211  20.6067414  80.7823966  36.7036954  20.7114317  79.3006755
  41.7862560  23.5014377  70.6278829  41.6480459  23.6915972  69.7000018
  41.4298779  24.2633759  71.0846880  29.9504686  17.4872472  76.7075841
  30.5904066  17.3461231  76.0098804  29.1182217  17.2006985  76.3314443
  41.8131940  25.5690904  75.6390100  42.2468446  25.4766193  76.4873155
  42.5263520  25.5448404  75.0010116  30.7264990  26.7874902  72.8210833
  31.5205589  26.2925222  72.6193408  30.0156683  26.2592765  72.4578539
  35.5459835  29.1692998  77.1723201  35.5996857  29.7383934  77.9400917
  34.6774616  29.3394883  76.8077238  27.0347754  20.9317984  68.8970586
  26.1045342  20.8702439  69.1140548  27.1305226  20.4093937  68.1007227
  26.9533303  17.4572797  71.4848828  27.2140120  18.3718130  71.3757988
  27.7750475  16.9897239  71.6345441  28.4258228  18.8710554  78.6547652
  29.0981281  18.6627916  78.0060301  27.5988015  18.6732640  78.2152885
  42.6747489  25.6114604  78.1722986  42.8683379  26.5160415  78.4182261
  42.5748107  25.1522023  79.0061571  34.3283800  15.4972495  80.6713313
  33.6811715  16.1962444  80.5777790  35.0984815  15.9308639  81.0389561
  37.7362598  25.7621347  83.7463866  37.5848104  25.5331899  82.8293950
  37.7267277  26.7191948  83.7595211  34.5047934  23.3353260  78.7310133
  35.4339994  23.4864419  78.5579100  34.0838964  23.4237280  77.8758779
  33.3036266  27.3603924  76.5008671  33.1647352  26.9922708  77.3734609
  32.5150862  27.8751564  76.3292628  33.8984418  32.4613021  67.8434207
  34.0736174  31.9901064  68.6579830  33.2117206  33.0878787  68.0715468
  34.8541481  26.7385527  73.8897508  34.5191314  26.6986297  74.7855158
  34.3545427  26.0730243  73.4167919  28.8285725  22.1453157  79.4150089
  28.6905523  21.4133396  80.0161629  29.7390649  22.0562057  79.1334277
  37.7900673  24.0841561  64.1634568  37.1729844  23.3588389  64.0667621
  37.3217161  24.8450921  63.8201642  31.4568026  21.8573116  78.9033769
  32.1667644  21.2166308  78.8620388  31.4137334  22.1086011  79.8259950
  39.4454805  28.7940469  81.8240348  39.3867351  28.1099690  81.1570931
  39.8474323  29.5359459  81.3720974  30.1696960  18.8438334  80.7229409
  29.6334317  18.3929072  81.3751005  29.5813668  18.9784243  79.9799873
  28.4645503  35.6102383  74.6174067  28.7042102  36.2420907  75.2953086
  27.6214700  35.2590423  74.9039426  29.5799219  18.3026985  63.2855872
  28.7028685  18.1815786  62.9218119  30.0556972  17.5113064  63.0334761
  39.4472212  26.7580053  80.0554328  38.5598991  26.4205975  80.1780727
  40.0170763  26.0263085  80.2923093  21.1001359  23.0904145  73.3797379
  21.7872399  22.7765875  72.7918395  20.9449488  23.9945510  73.1064631
  25.9036081  17.9794342  77.8082403  25.8194270  17.3720011  77.0732813
  25.0818788  18.4703360  77.8091899  32.9773365  31.4181506  77.0215571
  32.9043537  32.2236477  77.5334876  32.5350758  31.6173472  76.1963593
  32.7663145  30.6553276  70.5318393  31.9830667  31.1974956  70.6256617
  33.4655890  31.1727255  70.9312634  36.0759795  16.4647905  73.1752598
  36.5728495  15.7117868  72.8553668  35.3046777  16.5012222  72.6095807
  43.9289552  22.1688271  74.8170890  43.9179429  23.0512986  74.4464823
  43.0606932  21.8159822  74.6225427  35.4372049  31.3168340  79.1773730
  36.1500021  31.9515805  79.1049631  34.9462077  31.4132206  78.3613732
  37.1589576  25.2219592  70.7491022  36.2245854  25.3421055  70.5795726
  37.3366244  24.3192059  70.4851031  32.6594764  18.6065288  72.9024283
  32.2892551  18.0536329  73.5905188  33.1553856  18.0023422  72.3499283
  40.5462127  21.0636912  71.2841056  41.0122579  21.8964903  71.2101358
  40.9969628  20.5981893  71.9886314  30.4883962  29.0662783  79.9979301
  31.1893422  29.6999266  80.1508695  30.0179077  29.4077515  79.2374940
  38.6138358  27.4080733  68.2827208  38.8898202  27.2937328  69.1921082
  37.7442857  27.0098218  68.2439381  38.5178790  13.4317499  75.3231957
  37.6041870  13.6621726  75.4914164  38.9471891  13.5155943  76.1745989
  38.2885248  21.6207391  77.8231851  37.6356699  21.8683298  77.1684304
  38.6665628  20.8071529  77.4894328  35.2492422  31.6567084  71.9260021
  35.4314817  30.8388740  72.3887774  36.0725408  31.8734776  71.4884911
  35.5834588  30.5835269  69.1875070  36.1122354  30.0727724  68.5745232
  35.8462807  30.2677799  70.0520603  34.3372821  22.3627202  84.3097888
  33.6613458  22.2621331  84.9800263  35.1600455  22.2066416  84.7733885
  26.0851680  28.5999138  76.9310403  26.6705117  27.8542826  77.0638308
  25.8876519  28.9103095  77.8147067  28.9390336  31.6350386  71.9472846
  28.2700711  32.1196513  71.4636886  28.8003205  31.8819606  72.8616224
  20.6769335  21.1704739  75.6514847  20.7153435  20.6368329  76.4451965
  20.1709628  20.6439944  75.0325824  33.0795604  33.6694129  78.5455504
  33.6313912  33.8325751  79.3104589  33.4201798  34.2598567  77.8735529
  28.0560097  16.0169279  79.1477389  28.1201424  16.8784110  78.7354787
  27.9927218  15.4043281  78.4149747  27.5312370  18.0892412  82.7950423
  28.1584409  17.7069489  83.4087947  26.6740289  17.8706614  83.1606116
  37.9306479  28.4955387  84.4004159  38.4746383  29.1085345  83.9059113
  37.3493323  29.0534965  84.9171172  24.3077913  19.8968841  68.7268778
  24.6031354  18.9879519  68.6735832  23.4065949  19.8756580  68.4049780
  36.2163992  31.6176105  75.5319186  36.0915131  30.8165845  75.0230132
  36.8743083  32.1122298  75.0433156  27.8372160  17.9724837  74.7096327
  27.1158746  18.5860805  74.5703800  28.6265416  18.5082602  74.6312972
  38.2798900  29.4185125  77.1598736  37.3329235  29.2990476  77.0877063
  38.6281673  28.5307623  77.2424998  30.6398473  15.3079264  80.9836978
  31.1632875  15.5541560  81.7463288  30.4210807  16.1399299  80.5640116
  26.0365754  17.5782938  68.8508103  25.7078460  16.6980317  68.6683209
  26.3905125  17.5230607  69.7384492  35.2845333  29.2137841  73.3603089
  35.1370296  28.2854548  73.5410659  36.1098827  29.2357932  72.8760164
  29.1507577  17.8655908  69.2183581  29.4903650  18.3941829  68.4962189
  29.5979698  18.2036314  69.9942147  38.8879455  30.0366400  74.4467961
  39.8126003  29.8309261  74.3092412  38.7194758  29.7882801  75.3557303
  31.8451018  16.2492959  78.6686649  31.5047839  15.4500772  79.0707329
  31.1390025  16.5494670  78.0963482  32.4967490  13.3342271  77.1213972
  33.3193559  12.8602749  76.9992862  32.7405554  14.1132755  77.6212658
  31.1375725  16.3630530  67.4176874  31.8584087  16.7411783  66.9140590
  30.5141029  17.0819407  67.5211851  35.2806848  17.0675679  68.3535206
  35.4970462  17.9500317  68.0524034  34.8000915  16.6761892  67.6240848
  30.0206069  20.0261392  74.9305950  29.8750650  20.3401695  75.8230232
  29.5431273  20.6446292  74.3776849  31.8802452  17.0163940  74.9786840
  31.8664021  16.1205033  74.6419138  32.5974880  17.0234604  75.6125126
  33.7328582  17.4501280  77.0239967  33.4746360  18.3718351  77.0224298
  33.2013623  17.0531715  77.7140432  38.6774771  30.5552067  69.8030053
  38.8511649  29.9898490  69.0503905  39.1703662  31.3552962  69.6209543
  24.4951731  22.5666736  77.8693612  23.9505199  23.3426544  78.0013886
  25.3731081  22.9137541  77.7112733  31.2839348  15.8978320  70.2474410
  31.4055259  14.9694966  70.4465298  30.9941390  15.9117006  69.3352726
  34.1530538  13.5833231  73.3841130  34.1752235  13.6472564  72.4293110
  34.5698597  12.7437739  73.5781636  44.5314162  23.3188490  71.4220353
  44.9745308  22.5695815  71.0239476  43.6540673  23.3098627  71.0394085
  39.6649944  29.8718832  66.9026951  40.3600848  30.4925524  67.1214266
  40.0073094  29.0214183  67.1779329  25.2817753  21.6936633  80.7623768
  24.5399489  21.8419268  81.3488399  24.9610497  21.9544898  79.8990518
  41.5641367  27.3218537  68.4314282  42.0892691  27.6605810  67.7063602
  41.4763719  26.3865552  68.2477416  33.2261416  31.2352611  80.5604158
  33.5348542  30.9901758  81.4326858  34.0236898  31.4399249  80.0723029
  33.2482028  33.3890520  72.7909535  32.8087018  32.8966899  73.4842392
  33.9990145  32.8463488  72.5501610  25.7274367  29.5802061  72.7934163
  26.5532387  29.2805833  72.4132807  25.3768419  28.8109684  73.2423952
  30.6955900  28.9328530  74.8631837  30.0735909  28.2699235  74.5634065
  31.3660767  28.9589661  74.1805484  23.9282972  27.4988388  73.7523097
  23.0914880  27.0710562  73.5707098  23.9006617  27.6920831  74.6893888
  30.7680427  17.4110318  84.4564343  30.8168583  18.2872440  84.0742112
  31.3102941  16.8687711  83.8835986  41.2535273  27.9551441  83.7365480
  40.4630817  27.9375580  83.1969979  41.0168627  28.4939734  84.4914516
  41.3733148  24.8043907  81.0498208  41.4231153  24.6393915  81.9913731
  41.2647071  23.9371166  80.6596089  30.2569407  27.4832453  68.3390297
  30.4057527  28.1667917  67.6856970  31.0635850  27.4637543  68.8539753
  38.6636910  20.7874835  82.3657515  39.5646773  20.6481300  82.0741513
  38.7384885  20.9529290  83.3055693  32.9979716  18.1641690  81.2110701
  32.1283025  18.4575256  80.9393290  33.2339196  18.7482135  81.9317965
  42.8751345  27.2240849  81.2940230  42.5836153  27.5870829  82.1303691
  42.2623476  26.5107857  81.1153562  44.0747027  24.7893728  73.8142800
  44.9093919  25.2283533  73.9780360  44.2106156  24.3132382  72.9951046
  41.1238533  22.3473463  79.7620288  41.5992655  22.5401110  78.9539139
  40.2004098  22.4032649  79.5163672  28.0122040  23.5097631  69.3451366
  27.7668082  22.6059961  69.5431576  28.1817954  23.5114781  68.4030844
  35.7018750  14.3821307  78.7276122  36.2200693  15.1182334  78.4022610
  35.3473882  14.6885300  79.5622881  27.2817687  19.2425988  66.8437528
  26.5886932  19.3170343  66.1877564  27.0369439  18.4786332  67.3659045
  35.9531344  10.8021589  74.2477018  36.2333097  10.1344778  74.8737445
  36.7381951  10.9950685  73.7351682  33.7564812  29.9780583  65.8102045
  33.1838779  30.5970770  65.3572517  34.3297606  30.5279945  66.3441967
  39.8240202  19.2239223  77.9948593  40.7757625  19.3237321  78.0160818
  39.6543652  18.4317492  78.5046678  37.8454582  16.3094807  78.1807994
  37.2504514  16.5899819  77.4854483  37.5604278  16.7988708  78.9524736
  36.9762072  30.2617733  66.9410627  37.9092745  30.1963295  67.1443502
  36.8885285  31.0974000  66.4825160  39.6050089  29.5783604  63.9014575
  39.5263720  29.2443467  64.7950332  40.4259755  30.0705372  63.9006047
  42.3028280  22.4445343  77.1090893  42.2704600  21.5061344  77.2950577
  42.9128903  22.5229380  76.3756718  34.1411611  21.3141396  63.1518097
  35.0870715  21.1847604  63.2206515  33.7625856  20.5756058  63.6287525
  42.4522768  19.2356387  77.1549176  41.9361817  18.4514843  76.9679105
  43.3362717  18.9075103  77.3195696  40.1133495  12.9797402  73.1144989
  39.9158316  12.6712490  73.9988321  40.7233201  13.7059041  73.2442919
  48.1204830  23.5061350  76.2496930  48.8508218  23.2446638  76.8104633
  47.5111775  22.7690072  76.2898998  46.2020127  21.6469213  76.8471381
  45.4753290  21.5125177  76.2387873  45.7867414  21.9546041  77.6528099
  34.0250303  25.3659142  84.6118754  34.9453313  25.5437741  84.8058801
  33.9899886  24.4215188  84.4598453  32.3254528  19.2391372  63.0872982
  31.4185983  18.9424485  63.1635696  32.6030509  18.9421191  62.2207269
  23.2432468  20.5597736  73.5372029  22.9235253  19.7063044  73.2446403
  22.6965896  20.7746314  74.2929996  27.0212376  23.2760177  77.2541535
  27.2398386  24.2077285  77.2729569  27.4338150  22.9168151  78.0396339
  33.9416594  13.7828262  69.2417224  33.1317322  13.4375347  69.6172470
  34.6301011  13.4735806  69.8304835  35.8707142  12.8606309  70.8641520
  36.4238180  13.2801762  71.5231543  36.1077228  11.9342057  70.9064476
  31.8940241  18.8493383  86.6444284  31.7936968  19.7987740  86.5756375
  31.6761783  18.5211622  85.7720354  31.0953312  16.0978308  63.2284962
  31.9572476  16.4233206  63.4880779  31.2803657  15.3109804  62.7158027
  23.1120728  24.1800647  75.5065150  22.4184200  23.7654600  74.9935105
  23.8593719  24.2221184  74.9098569  39.2485949  14.9706834  70.3720185
  38.6684618  15.6291638  69.9898237  38.9821882  14.1484179  69.9607602
  37.6989515  14.3711892  72.5741505  38.1989294  14.4828426  71.7655824
  38.3425123  14.0672945  73.2142313  31.7571511  22.2790521  85.4609346
  31.2738593  23.0790882  85.6673235  31.8432450  22.2898466  84.5076790
  25.0257471  24.1118901  73.3831165  25.0028159  24.2106588  72.4313048
  25.3358107  24.9584052  73.7048331  27.6844849  26.1695056  77.4977780
  28.6388102  26.1378999  77.4307711  27.4857372  25.7085680  78.3128006
  28.2744231  24.7396172  80.0648577  29.0937120  25.2340251  80.0883415
  28.5481038  23.8228140  80.0366145  38.0310827  17.1306925  69.4276533
  37.1436682  17.4156575  69.2096728  38.4464816  16.9700688  68.5803810
  41.3825363  17.1553446  73.1430872  42.1585753  17.6449898  73.4155489
  40.6573497  17.5811500  73.6002742  43.8197922  17.8681065  74.2004813
  44.4142413  17.6276801  73.4898121  43.8924505  17.1488195  74.8278349
  26.0395077  31.7114676  74.5147978  25.9049545  30.9515077  73.9485976
  25.6227140  32.4355576  74.0476766  37.1754040  26.8951599  63.5224553
  37.8789891  27.1001602  64.1382208  36.4516689  27.4628361  63.7873636
  38.0051851  22.6461460  69.6426823  37.9487052  23.1030012  68.8034455
  38.5580193  21.8852145  69.4649666  41.8156657  18.4351192  70.4676943
  41.5593591  18.0347828  71.2985150  41.1909525  19.1494986  70.3427082
  46.1268994  21.1747266  72.9748234  45.5668552  21.2440455  73.7479796
  45.5212498  20.9988250  72.2547730  29.1964203  32.6083993  74.7266420
  29.0796587  33.5529425  74.6245110  28.3756650  32.3057554  75.1152219
  39.0840738  27.3334128  65.5723013  39.9186342  26.9015327  65.3900488
  38.9225081  27.1616142  66.4999907  38.7386630  23.8366242  66.9379352
  38.6835434  23.6710513  65.9967796  38.1132685  24.5442275  67.0941542
  23.5279145  19.0734306  80.7640774  24.1738009  18.5633260  81.2528000
  23.3196296  19.8102988  81.3384200  36.0532537  26.1415154  86.2632915
  36.9223697  26.3155806  85.9019550  35.5739289  26.9609570  86.1408644
  32.0482755  13.3374351  66.5164671  32.0361425  14.2816191  66.6732941
  32.9406177  13.1544496  66.2224132  30.2218717  33.2612255  77.9422349
  31.1245964  33.2935865  78.2588844  29.9956087  32.3312706  77.9568684
  31.9772319  32.0143241  74.6032427  31.0267950  32.0145103  74.4896800
  32.2804806  31.2675976  74.0868462  35.8634875   9.9317127  70.7710607
  35.0967271   9.3775614  70.9167290  36.2745580  10.0038996  71.6324759
  27.8676636  16.2201923  84.8615789  28.7308098  15.8638728  85.0719113
  27.2942047  15.8815818  85.5491193  47.7125013  37.8503780  75.6678190
  48.3503423  37.7310527  74.9641530  47.5945856  38.7984623  75.7266142
  44.5214719  37.8031208  75.6039714  44.1833231  37.6872272  74.7160249
  45.3904487  37.4022373  75.5840720  40.3801535  39.6566684  71.5936605
  39.8166400  39.5656621  70.8252893  40.2653930  38.8366588  72.0739098
  45.0034502  38.9566059  81.5625920  44.9923143  38.5618858  80.6906424
  45.1655142  38.2232132  82.1559691  37.9265967  41.1517876  74.4320826
  38.7187259  40.8108700  74.0167125  38.1662617  41.2612851  75.3522979
  39.8856721  40.4126789  67.3038205  40.6587597  39.8655776  67.1651080
  40.2382120  41.2771038  67.5152666  41.7241763  41.7403171  80.5105104
  41.4331629  42.6448802  80.3951770  42.3598748  41.7819699  81.2249173
  42.6497970  39.1180020  77.1006463  43.2461542  38.8936042  76.3863426
  42.7072942  38.3764765  77.7031911  42.2222999  36.5719455  64.9356654
  42.4748519  36.0500976  64.1740117  41.2847558  36.4085600  65.0383338
  47.2666281  35.5755233  72.7431398  48.0529371  35.1574657  72.3921815
  47.5304986  36.4801326  72.9113046  52.6674709  35.5130467  73.6464376
  53.3999880  34.9429683  73.8802206  51.9114064  35.1252067  74.0870882
  41.9419287  38.4747561  67.1381029  41.8255545  37.7992464  67.8062114
  42.0521547  37.9879935  66.3213182  44.2850828  37.9357708  70.8427719
  43.9209035  37.4088329  71.5540640  45.1417944  37.5456177  70.6694204
  50.1900129  29.2252041  78.1058985  49.8583454  30.0947452  77.8820200
  49.5945742  28.9088325  78.7853015  43.9256315  32.9647608  65.8389067
  44.0930718  33.8327844  66.2059538  43.7353484  33.1274889  64.9150356
  46.6831648  41.4264587  77.5054898  46.3832372  42.3289625  77.3970705
  46.3382708  41.1596770  78.3576050  40.1344130  37.8778383  73.5391602
  39.2094626  37.7454598  73.7469294  40.3828543  38.6572603  74.0361544
  50.0828792  33.9447127  75.1852335  49.1745670  33.8762535  74.8911096
  50.0316388  34.4219072  76.0134160  43.9045536  35.4205265  66.8235734
  43.7845161  35.8662316  67.6621214  43.2098125  35.7690583  66.2649272
  37.4952941  37.5211657  74.3735391  37.6245322  37.7746136  75.2874803
  36.8150392  38.1139365  74.0540046  44.1569658  35.3636772  83.1287232
  43.3802992  35.9230693  83.1190097  44.7960221  35.8493555  83.6502102
  51.9490439  32.1463565  76.9630209  51.3064819  32.4396098  76.3170003
  51.4445367  32.0316486  77.7683405  49.6030602  35.8926738  67.6516068
  50.5148458  36.1254125  67.4763766  49.0940249  36.4763783  67.0891147
  42.4116030  38.1722226  82.6905199  43.1530715  38.7107270  82.4140023
  41.7053016  38.7988515  82.8476751  47.8871370  40.3151366  81.2877361
  48.2954726  39.8733777  80.5431993  47.1648631  39.7403994  81.5411554
  44.2402440  35.2523973  78.6610918  45.0863635  35.6763387  78.8045567
  44.1801078  34.5957597  79.3549481  48.2100185  40.8752557  75.0429650
  47.5809047  41.0398271  74.3405717  47.8225847  41.2894166  75.8140614
  52.0889416  41.8106995  72.3974013  51.4040455  42.1905896  71.8471047
  52.1733266  42.4202321  73.1305961  47.3901885  32.9128341  80.3192091
  47.1462817  33.6670402  79.7826367  47.6661816  33.2913689  81.1539338
  49.3440348  39.4566954  78.9969357  49.5557243  40.0998714  78.3203738
  49.2970096  38.6229270  78.5291287  46.9466577  32.0684774  75.9005929
  46.0851056  32.3666028  76.1922667  46.9729012  32.2855173  74.9686962
  43.7628146  40.6126965  72.3079735  44.2266492  40.8914668  71.5184357
  43.4984945  39.7110410  72.1252825  40.6552228  40.1598447  75.2459498
  41.2253585  40.5885715  74.6076982  41.2460339  39.8781031  75.9443684
  42.6997033  36.7350117  69.1169300  43.4021076  37.1871161  69.5843226
  42.3677661  36.0933936  69.7449193  41.1477394  35.3261874  83.4920509
  40.5176055  36.0078155  83.7255906  41.0413482  35.2144956  82.5473647
  36.4422366  34.9933670  74.4186433  35.6521420  35.2491199  73.9426544
  36.9333614  35.8082008  74.5238474  50.4586176  42.3338909  77.1691714
  51.2803620  41.9319096  76.8874396  50.4548579  42.2307143  78.1207830
  38.3937112  35.3578249  71.3769910  37.5968275  35.4696943  71.8953406
  38.1662704  35.6964901  70.5110801  44.2242779  41.8822952  79.3252425
  44.2887212  42.3443360  80.1610596  43.5153703  41.2520317  79.4534734
  34.7260069  35.2464160  76.8501424  34.9768108  36.1311170  77.1159000
  35.2619618  35.0668762  76.0776516  58.5492169  38.6777658  73.5176686
  57.7955877  38.1085056  73.3620690  58.6839710  38.6440322  74.4647320
  40.4258137  29.6282640  85.8545760  40.0325082  29.0748838  86.5293404
  41.2424277  29.9393218  86.2452278  37.3920195  41.0666498  69.7659330
  37.9044715  41.8609748  69.9164895  38.0442907  40.3692788  69.6992932
  39.2015079  44.1832254  71.8482083  39.3781708  45.1050219  71.6603067
  39.9971913  43.8690673  72.2776463  43.3426098  31.0440519  83.4466017
  44.0835811  31.6447672  83.3670479  43.5744021  30.3018157  82.8884059
  38.4867436  36.2296886  81.7244246  38.3720951  35.3282143  82.0251345
  37.6311954  36.4760583  81.3729063  45.5659274  44.1714626  83.3231747
  45.1223128  43.3851005  83.0052652  46.2276487  44.3593777  82.6575638
  40.3246395  45.7010428  77.8492426  40.8753820  45.5727491  77.0769419
  39.4857871  46.0005317  77.4987318  47.6640512  44.4517426  81.3513148
  47.6458987  45.2726307  80.8593417  48.5860432  44.3271502  81.5763289
  44.1213566  41.9661556  82.1936657  44.6541903  41.2049844  81.9635965
  43.5927647  41.6735208  82.9360811  47.2883261  27.0721622  77.7230298
  46.9447530  27.9623264  77.6469409  47.6562223  26.8823279  76.8599883
  35.3569111  39.3955152  70.5418901  36.1944333  39.8052161  70.3252608
  35.5347379  38.4554594  70.5119094  44.8380654  31.9079934  71.2887972
  43.9822251  31.5186784  71.1093611  45.2507606  31.9871895  70.4287757
  46.3679801  29.4426277  75.6879532  45.8644597  29.4056412  74.8747337
  46.6610408  30.3519020  75.7476188  42.6122687  29.5265007  74.6945713
  43.4775684  29.3307815  74.3351603  42.6800196  29.2975358  75.6215070
  47.0419847  34.9357325  68.0562515  46.7369982  35.2503474  68.9072658
  47.9950289  35.0138745  68.0989848  50.4659124  39.2896569  74.8222515
  49.8082799  39.9795830  74.9102644  51.2699524  39.6793001  75.1656501
  40.2185006  31.7567215  72.0662080  40.7928758  31.5342396  71.3335273
  40.8055989  31.8255909  72.8190682  49.2764583  37.6440942  72.8726457
  49.7896465  38.2770933  73.3748166  49.9265807  37.0442137  72.5069817
  40.5454593  33.7871676  66.0857965  39.7091905  34.1246362  66.4067240
  40.4059363  33.6520655  65.1485102  42.5207674  28.6308464  70.7937150
  41.8672086  28.3157481  70.1693764  42.4788148  28.0084204  71.5196973
  45.7545414  35.1190397  75.1184797  44.8367976  35.3405344  74.9606485
  46.1705558  35.1936708  74.2596505  46.5380462  36.5181813  70.2487478
  47.2852281  37.0303210  69.9394600  46.8072051  36.1965865  71.1091871
  50.0426379  42.6246943  71.0005599  49.5888707  41.7837853  71.0570790
  49.4120346  43.2608341  71.3380380  48.9859299  33.5538929  72.2306267
  48.2482056  33.0416315  72.5616509  49.2386073  33.1139311  71.4189544
  48.4859319  44.4623440  71.9355418  48.7782293  45.0228497  71.2167783
  48.9957939  44.7552001  72.6908577  49.0870926  26.3315181  72.8248036
  49.3929803  25.4712544  72.5373951  49.8123531  26.9232801  72.6247030
  35.3795282  36.7345868  71.2129634  35.1819682  36.1415228  70.4880701
  34.8241946  36.4298078  71.9305573  43.3592006  36.6268974  73.3324227
  43.4140616  35.6742810  73.2566704  42.5483208  36.7828413  73.8165526
  41.2984366  35.2446034  71.0914606  40.4852232  35.5440204  71.4979798
  41.7943360  34.8501723  71.8089088  46.8958578  35.7087858  79.9229500
  47.2507965  35.9359331  80.7823966  47.5430709  36.0406235  79.3006755
  52.6256315  38.8306294  70.6278829  52.4874213  39.0207890  69.7000018
  52.2692533  39.5925677  71.0846880  40.7898441  32.8164389  76.7075841
  41.4297820  32.6753148  76.0098804  39.9575971  32.5298903  76.3314443
  52.6525694  40.8982821  75.6390100  53.0862201  40.8058110  76.4873155
  53.3657275  40.8740322  75.0010116  37.8741508  36.2609902  68.8970586
  36.9439096  36.1994357  69.1140548  37.9698980  35.7385854  68.1007227
  37.7927057  32.7864714  71.4848828  38.0533875  33.7010048  71.3757988
  38.6144230  32.3189157  71.6345441  39.2651983  34.2002472  78.6547652
  39.9375036  33.9919834  78.0060301  38.4381769  34.0024558  78.2152885
  53.5141244  40.9406522  78.1722986  53.7077134  41.8452332  78.4182261
  53.4141862  40.4813941  79.0061571  45.1677555  30.8264412  80.6713313
  44.5205470  31.5254362  80.5777790  45.9378570  31.2600556  81.0389561
  48.5756352  41.0913265  83.7463866  48.4241859  40.8623816  82.8293950
  48.5661032  42.0483866  83.7595211  45.3441689  38.6645177  78.7310133
  46.2733749  38.8156337  78.5579100  44.9232719  38.7529198  77.8758779
  39.6679480  37.4745074  79.4150089  39.5299278  36.7425313  80.0161629
  40.5784403  37.3853975  79.1334277  42.2961780  37.1865034  78.9033769
  43.0061399  36.5458226  78.8620388  42.2531089  37.4377929  79.8259950
  50.2848559  44.1232387  81.8240348  50.2261105  43.4391607  81.1570931
  50.6868078  44.8651377  81.3720974  41.0090714  34.1730252  80.7229409
  40.4728071  33.7220990  81.3751005  40.4207423  34.3076161  79.9799873
  40.4192973  33.6318903  63.2855872  39.5422440  33.5107704  62.9218119
  40.8950726  32.8404981  63.0334761  50.2865966  42.0871971  80.0554328
  49.3992745  41.7497893  80.1780727  50.8564517  41.3555002  80.2923093
  31.9395114  38.4196063  73.3797379  32.6266153  38.1057793  72.7918395
  31.7843242  39.3237427  73.1064631  36.7429836  33.3086259  77.8082403
  36.6588024  32.7011929  77.0732813  35.9212542  33.7995278  77.8091899
  46.9153550  31.7939823  73.1752598  47.4122249  31.0409785  72.8553668
  46.1440531  31.8304140  72.6095807  54.7683307  37.4980188  74.8170890
  54.7573183  38.3804904  74.4464823  53.9000686  37.1451739  74.6225427
  43.4988518  33.9357206  72.9024283  43.1286306  33.3828246  73.5905188
  43.9947611  33.3315339  72.3499283  51.3855882  36.3928829  71.2841056
  51.8516334  37.2256821  71.2101358  51.8363382  35.9273811  71.9886314
  41.3277717  44.3954701  79.9979301  42.0287176  45.0291184  80.1508695
  40.8572832  44.7369432  79.2374940  49.3572544  28.7609416  75.3231957
  48.4435624  28.9913643  75.4914164  49.7865646  28.8447860  76.1745989
  49.1279003  36.9499308  77.8231851  48.4750453  37.1975216  77.1684304
  49.5059383  36.1363447  77.4894328  45.1766576  37.6919119  84.3097888
  44.5007213  37.5913249  84.9800263  45.9994210  37.5358333  84.7733885
  36.9245435  43.9291056  76.9310403  37.5098872  43.1834744  77.0638308
  36.7270273  44.2395013  77.8147067  31.5163090  36.4996656  75.6514847
  31.5547189  35.9660247  76.4451965  31.0103382  35.9731862  75.0325824
  38.8953852  31.3461197  79.1477389  38.9595178  32.2076028  78.7354787
  38.8320972  30.7335198  78.4149747  38.3706124  33.4184329  82.7950423
  38.9978163  33.0361407  83.4087947  37.5134043  33.1998531  83.1606116
  48.7700233  43.8247304  84.4004159  49.3140137  44.4377263  83.9059113
  48.1887078  44.3826883  84.9171172  35.1471667  35.2260758  68.7268778
  35.4425108  34.3171437  68.6735832  34.2459703  35.2048498  68.4049780
  38.6765914  33.3016755  74.7096327  37.9552500  33.9152723  74.5703800
  39.4659170  33.8374520  74.6312972  49.1192654  44.7477043  77.1598736
  48.1722990  44.6282394  77.0877063  49.4675428  43.8599541  77.2424998
  41.4792228  30.6371181  80.9836978  42.0026630  30.8833478  81.7463288
  41.2604561  31.4691216  80.5640116  36.8759509  32.9074856  68.8508103
  36.5472215  32.0272235  68.6683209  37.2298880  32.8522525  69.7384492
  39.9901332  33.1947826  69.2183581  40.3297404  33.7233747  68.4962189
  40.4373452  33.5328232  69.9942147  49.7273210  45.3658317  74.4467961
  50.6519757  45.1601179  74.3092412  49.5588513  45.1174719  75.3557303
  42.6844773  31.5784877  78.6686649  42.3441593  30.7792690  79.0707329
  41.9783779  31.8786587  78.0963482  43.3361245  28.6634189  77.1213972
  44.1587314  28.1894667  76.9992862  43.5799308  29.4424673  77.6212658
  41.9769479  31.6922447  67.4176874  42.6977842  32.0703700  66.9140590
  41.3534783  32.4111324  67.5211851  46.1200602  32.3967596  68.3535206
  46.3364216  33.2792234  68.0524034  45.6394669  32.0053810  67.6240848
  40.8599823  35.3553310  74.9305950  40.7144404  35.6693613  75.8230232
  40.3825027  35.9738210  74.3776849  42.7196206  32.3455858  74.9786840
  42.7057775  31.4496951  74.6419138  43.4368634  32.3526521  75.6125126
  44.5722337  32.7793198  77.0239967  44.3140115  33.7010268  77.0224298
  44.0407377  32.3823632  77.7140432  35.3345486  37.8958654  77.8693612
  34.7898954  38.6718462  78.0013886  36.2124835  38.2429458  77.7112733
  42.1233102  31.2270238  70.2474410  42.2449013  30.2986884  70.4465298
  41.8335145  31.2408924  69.3352726  44.9924293  28.9125148  73.3841130
  45.0145989  28.9764481  72.4293110  45.4092352  28.0729657  73.5781636
  55.3707917  38.6480408  71.4220353  55.8139063  37.8987733  71.0239476
  54.4934427  38.6390544  71.0394085  36.1211507  37.0228550  80.7623768
  35.3793243  37.1711186  81.3488399  35.8004252  37.2836816  79.8990518
  44.0655170  46.5644528  80.5604158  44.3742296  46.3193675  81.4326858
  44.8630652  46.7691167  80.0723029  36.5668121  44.9093979  72.7934163
  37.3926141  44.6097751  72.4132807  36.2162173  44.1401601  73.2423952
  34.7676726  42.8280305  73.7523097  33.9308634  42.4002480  73.5707098
  34.7400372  43.0212749  74.6893888  41.6074182  32.7402235  84.4564343
  41.6562337  33.6164358  84.0742112  42.1496696  32.1979628  83.8835986
  52.0929027  43.2843358  83.7365480  51.3024571  43.2667497  83.1969979
  51.8562382  43.8231652  84.4914516  52.2126902  40.1335825  81.0498208
  52.2624907  39.9685832  81.9913731  52.1040826  39.2663084  80.6596089
  41.0963161  42.8124371  68.3390297  41.2451282  43.4959835  67.6856970
  41.9029605  42.7929461  68.8539753  49.5030665  36.1166753  82.3657515
  50.4040528  35.9773218  82.0741513  49.5778639  36.2821208  83.3055693
  43.8373470  33.4933608  81.2110701  42.9676780  33.7867174  80.9393290
  44.0732951  34.0774053  81.9317965  53.7145099  42.5532766  81.2940230
  53.4229908  42.9162747  82.1303691  53.1017231  41.8399775  81.1153562
  54.9140782  40.1185646  73.8142800  55.7487673  40.5575450  73.9780360
  55.0499910  39.6424299  72.9951046  51.9632288  37.6765381  79.7620288
  52.4386409  37.8693027  78.9539139  51.0397853  37.7324567  79.5163672
  38.8515794  38.8389548  69.3451366  38.6061836  37.9351878  69.5431576
  39.0211709  38.8406699  68.4030844  46.5412504  29.7113225  78.7276122
  47.0594448  30.4474251  78.4022610  46.1867637  30.0177218  79.5622881
  38.1211442  34.5717906  66.8437528  37.4280687  34.6462261  66.1877564
  37.8763194  33.8078249  67.3659045  46.7925098  26.1313507  74.2477018
  47.0726852  25.4636696  74.8737445  47.5775705  26.3242603  73.7351682
  50.6633957  34.5531141  77.9948593  51.6151379  34.6529239  78.0160818
  50.4937407  33.7609410  78.5046678  48.6848336  31.6386724  78.1807994
  48.0898268  31.9191737  77.4854483  48.3998033  32.1280625  78.9524736
  53.1422034  37.7737261  77.1090893  53.1098354  36.8353262  77.2950577
  53.7522658  37.8521297  76.3756718  44.9805365  36.6433314  63.1518097
  45.9264470  36.5139522  63.2206515  44.6019610  35.9047976  63.6287525
  53.2916523  34.5648304  77.1549176  52.7755571  33.7806761  76.9679105
  54.1756471  34.2367021  77.3195696  50.9527250  28.3089320  73.1144989
  50.7552071  28.0004408  73.9988321  51.5626955  29.0350959  73.2442919
  58.9598584  38.8353268  76.2496930  59.6901973  38.5738556  76.8104633
  58.3505530  38.0981990  76.2898998  57.0413881  36.9761130  76.8471381
  56.3147045  36.8417095  76.2387873  56.6261168  37.2837959  77.6528099
  44.8644058  40.6951060  84.6118754  45.7847067  40.8729659  84.8058801
  44.8293641  39.7507105  84.4598453  43.1648282  34.5683290  63.0872982
  42.2579738  34.2716403  63.1635696  43.4424263  34.2713108  62.2207269
  34.0826223  35.8889654  73.5372029  33.7629007  35.0354962  73.2446403
  33.5359651  36.1038232  74.2929996  37.8606130  38.6052095  77.2541535
  38.0792140  39.5369202  77.2729569  38.2731904  38.2460069  78.0396339
  44.7810348  29.1120180  69.2417224  43.9711076  28.7667265  69.6172470
  45.4694765  28.8027724  69.8304835  46.7100896  28.1898227  70.8641520
  47.2631935  28.6093680  71.5231543  46.9470983  27.2633975  70.9064476
  42.7333996  34.1785300  86.6444284  42.6330722  35.1279657  86.5756375
  42.5155538  33.8503539  85.7720354  41.9347067  31.4270225  63.2284962
  42.7966231  31.7525124  63.4880779  42.1197411  30.6401721  62.7158027
  33.9514483  39.5092565  75.5065150  33.2577954  39.0946518  74.9935105
  34.6987474  39.5513102  74.9098569  50.0879703  30.2998752  70.3720185
  49.5078372  30.9583556  69.9898237  49.8215636  29.4776096  69.9607602
  48.5383270  29.7003810  72.5741505  49.0383048  29.8120344  71.7655824
  49.1818878  29.3964862  73.2142313  42.5965266  37.6082439  85.4609346
  42.1132347  38.4082799  85.6673235  42.6826205  37.6190384  84.5076790
  35.8651225  39.4410819  73.3831165  35.8421913  39.5398506  72.4313048
  36.1751862  40.2875970  73.7048331  38.5238603  41.4986974  77.4977780
  39.4781857  41.4670916  77.4307711  38.3251127  41.0377598  78.3128006
  39.1137985  40.0688090  80.0648577  39.9330874  40.5632169  80.0883415
  39.3874793  39.1520058  80.0366145  48.8704581  32.4598842  69.4276533
  47.9830436  32.7448493  69.2096728  49.2858571  32.2992606  68.5803810
  52.2219118  32.4845363  73.1430872  52.9979508  32.9741816  73.4155489
  51.4967252  32.9103417  73.6002742  54.6591676  33.1972982  74.2004813
  55.2536167  32.9568718  73.4898121  54.7318260  32.4780113  74.8278349
  36.8788832  47.0406593  74.5147978  36.7443300  46.2806994  73.9485976
  36.4620894  47.7647493  74.0476766  48.8445605  37.9753378  69.6426823
  48.7880807  38.4321930  68.8034455  49.3973948  37.2144063  69.4649666
  52.6550411  33.7643110  70.4676943  52.3987345  33.3639746  71.2985150
  52.0303279  34.4786904  70.3427082  56.9662749  36.5039183  72.9748234
  56.4062307  36.5732373  73.7479796  56.3606252  36.3280168  72.2547730
  34.3672899  34.4026224  80.7640774  35.0131763  33.8925178  81.2528000
  34.1590051  35.1394905  81.3384200  46.8926292  41.4707071  86.2632915
  47.7617451  41.6447724  85.9019550  46.4133043  42.2901488  86.1408644
  42.8876510  28.6666268  66.5164671  42.8755180  29.6108108  66.6732941
  43.7799932  28.4836414  66.2224132  46.7028629  25.2609045  70.7710607
  45.9361025  24.7067532  70.9167290  47.1139334  25.3330914  71.6324759
  38.7070390  31.5493841  84.8615789  39.5701852  31.1930646  85.0719113
  38.1335801  31.2107736  85.5491193  63.5068463  50.8422384  73.6464376
  64.2393635  50.2721601  73.8802206  62.7507819  50.4543985  74.0870882
  61.0293883  44.5543958  78.1058985  60.6977208  45.4239369  77.8820200
  60.4339497  44.2380242  78.7853015  57.5225403  56.7556504  77.5054898
  57.2226126  57.6581543  77.3970705  57.1776462  56.4888688  78.3576050
  60.9222547  49.2739045  75.1852335  60.0139424  49.2054453  74.8911096
  60.8710142  49.7510989  76.0134160  48.3346695  52.8503575  74.3735391
  48.4639077  53.1038054  75.2874803  47.6544147  53.4431283  74.0540046
  62.7884193  47.4755483  76.9630209  62.1458573  47.7688016  76.3170003
  62.2839122  47.3608403  77.7683405  58.7265124  55.6443284  81.2877361
  59.1348480  55.2025694  80.5431993  58.0042386  55.0695911  81.5411554
  59.0493939  56.2044475  75.0429650  58.4202802  56.3690189  74.3405717
  58.6619601  56.6186084  75.8140614  58.2295640  48.2420259  80.3192091
  57.9856572  48.9962320  79.7826367  58.5055570  48.6205607  81.1539338
  60.1834103  54.7858871  78.9969357  60.3950998  55.4290631  78.3203738
  60.1363851  53.9521188  78.5291287  57.7860332  47.3976692  75.9005929
  56.9244811  47.6957946  76.1922667  57.8122766  47.6147091  74.9686962
  61.2979931  57.6630827  77.1691714  62.1197374  57.2611014  76.8874396
  61.2942333  57.5599061  78.1207830  51.2651891  44.9574557  85.8545760
  50.8718837  44.4040756  86.5293404  52.0818032  45.2685136  86.2452278
  54.1819852  46.3732437  83.4466017  54.9229566  46.9739590  83.3670479
  54.4137775  45.6310074  82.8884059  58.5034266  59.7809344  81.3513148
  58.4852741  60.6018225  80.8593417  59.4254186  59.6563419  81.5763289
  58.1277015  42.4013540  77.7230298  57.7841285  43.2915181  77.6469409
  58.4955978  42.2115197  76.8599883  57.2073556  44.7718195  75.6879532
  56.7038351  44.7348330  74.8747337  57.5004162  45.6810937  75.7476188
  53.4516441  44.8556924  74.6945713  54.3169438  44.6599733  74.3351603
  53.5193950  44.6267276  75.6215070  61.3052879  54.6188487  74.8222515
  60.6476553  55.3087748  74.9102644  62.1093278  55.0084918  75.1656501
  59.9264681  41.6607099  72.8248036  60.2323558  40.8004462  72.5373951
  60.6517286  42.2524719  72.6247030  57.7352332  51.0379776  79.9229500
  58.0901720  51.2651249  80.7823966  58.3824463  51.3698153  79.3006755
  51.6292195  48.1456307  76.7075841  52.2691575  48.0045066  76.0098804
  50.7969726  47.8590820  76.3314443  63.4919449  56.2274739  75.6390100
  63.9255955  56.1350028  76.4873155  64.2051029  56.2032239  75.0010116
  57.2247344  59.8276833  77.1723201  57.2784366  60.3967769  77.9400917
  56.3562125  59.9978718  76.8077238  64.3534998  56.2698440  78.1722986
  64.5470888  57.1744250  78.4182261  64.2535616  55.8105859  79.0061571
  56.0071309  46.1556330  80.6713313  55.3599224  46.8546280  80.5777790
  56.7772324  46.5892474  81.0389561  59.4150107  56.4205182  83.7463866
  59.2635613  56.1915734  82.8293950  59.4054786  57.3775784  83.7595211
  61.1242314  59.4524305  81.8240348  61.0654860  58.7683525  81.1570931
  61.5261832  60.1943295  81.3720974  61.1259721  57.4163889  80.0554328
  60.2386500  57.0789811  80.1780727  61.6958272  56.6846920  80.2923093
  65.6077061  52.8272106  74.8170890  65.5966938  53.7096822  74.4464823
  64.7394441  52.4743657  74.6225427  60.1966299  44.0901334  75.3231957
  59.2829379  44.3205561  75.4914164  60.6259400  44.1739778  76.1745989
  59.9672757  52.2791226  77.8231851  59.3144208  52.5267134  77.1684304
  60.3453137  51.4655364  77.4894328  59.6093988  59.1539222  84.4004159
  60.1533892  59.7669180  83.9059113  59.0280832  59.7118800  84.9171172
  52.3185982  45.9663099  80.9836978  52.8420384  46.2125396  81.7463288
  52.0998316  46.7983134  80.5640116  53.5238527  46.9076794  78.6686649
  53.1835348  46.1084607  79.0707329  52.8177534  47.2078505  78.0963482
  54.1754999  43.9926107  77.1213972  54.9981068  43.5186585  76.9992862
  54.4193063  44.7716590  77.6212658  55.4116091  48.1085115  77.0239967
  55.1533869  49.0302186  77.0224298  54.8801132  47.7115550  77.7140432
  52.4467936  48.0694153  84.4564343  52.4956092  48.9456276  84.0742112
  52.9890450  47.5271546  83.8835986  62.9322782  58.6135276  83.7365480
  62.1418326  58.5959415  83.1969979  62.6956136  59.1523570  84.4914516
  63.0520657  55.4627743  81.0498208  63.1018662  55.2977750  81.9913731
  62.9434580  54.5955002  80.6596089  60.3424419  51.4458671  82.3657515
  61.2434282  51.3065135  82.0741513  60.4172394  51.6113125  83.3055693
  54.6767225  48.8225525  81.2110701  53.8070534  49.1159091  80.9393290
  54.9126705  49.4065970  81.9317965  64.5538854  57.8824684  81.2940230
  64.2623662  58.2454665  82.1303691  63.9410985  57.1691692  81.1153562
  65.7534536  55.4477564  73.8142800  66.5881427  55.8867368  73.9780360
  65.8893665  54.9716217  72.9951046  62.8026042  53.0057299  79.7620288
  63.2780164  53.1984945  78.9539139  61.8791607  53.0616485  79.5163672
  57.3806259  45.0405142  78.7276122  57.8988202  45.7766169  78.4022610
  57.0261391  45.3469136  79.5622881  57.6318853  41.4605425  74.2477018
  57.9120606  40.7928614  74.8737445  58.4169460  41.6534520  73.7351682
  61.5027711  49.8823059  77.9948593  62.4545134  49.9821156  78.0160818
  61.3331161  49.0901327  78.5046678  59.5242090  46.9678642  78.1807994
  58.9292023  47.2483655  77.4854483  59.2391787  47.4572543  78.9524736
  63.9815789  53.1029178  77.1090893  63.9492109  52.1645179  77.2950577
  64.5916412  53.1813215  76.3756718  64.1310277  49.8940222  77.1549176
  63.6149326  49.1098679  76.9679105  65.0150226  49.5658939  77.3195696
  61.7921004  43.6381237  73.1144989  61.5945825  43.3296326  73.9988321
  62.4020710  44.3642876  73.2442919  69.7992339  54.1645185  76.2496930
  70.5295727  53.9030473  76.8104633  69.1899284  53.4273907  76.2898998
  67.8807636  52.3053048  76.8471381  67.1540799  52.1709013  76.2387873
  67.4654923  52.6129876  77.6528099  53.5727750  49.5077218  86.6444284
  53.4724477  50.4571575  86.5756375  53.3549292  49.1795457  85.7720354
  60.9273458  45.6290669  70.3720185  60.3472127  46.2875474  69.9898237
  60.6609391  44.8068014  69.9607602  63.0612872  47.8137281  73.1430872
  63.8373262  48.3033733  73.4155489  62.3361006  48.2395335  73.6002742
  65.4985431  48.5264900  74.2004813  66.0929922  48.2860636  73.4898121
  65.5712014  47.8072031  74.8278349  67.8056503  51.8331101  72.9748234
  67.2456061  51.9024290  73.7479796  67.2000007  51.6572086  72.2547730
  57.7320046  56.7998989  86.2632915  58.6011206  56.9739641  85.9019550
  57.2526798  57.6193406  86.1408644  57.5422384  40.5900963  70.7710607
  56.7754780  40.0359449  70.9167290  57.9533089  40.6622831  71.6324759
  49.5464145  46.8785759  84.8615789  50.4095607  46.5222563  85.0719113
  48.9729556  46.5399653  85.5491193  62.1045646  60.2866475  85.8545760
  61.7112591  59.7332674  86.5293404  62.9211786  60.5977054  86.2452278
  65.0213607  61.7024354  83.4466017  65.7623320  62.3031507  83.3670479
  65.2531530  60.9601992  82.8884059  60.1654945  66.8880722  81.7244246
  60.0508460  65.9865979  82.0251345  59.3099463  67.1344418  81.3729063
  66.8465064  61.4848248  80.6713313  66.1992979  62.1838197  80.5777790
  67.6166079  61.9184392  81.0389561  62.6878223  64.8314087  80.7229409
  62.1515580  64.3804826  81.3751005  62.0994932  64.9659996  79.9799873
  60.5741361  62.0045032  79.1477389  60.6382687  62.8659863  78.7354787
  60.5108481  61.3919034  78.4149747  63.1579737  61.2955017  80.9836978
  63.6814139  61.5417313  81.7463288  62.9392070  62.1275052  80.5640116
  65.0148754  59.3218024  77.1213972  65.8374823  58.8478503  76.9992862
  65.2586817  60.1008508  77.6212658  63.2861691  63.3986071  84.4564343
  63.3349846  64.2748193  84.0742112  63.8284205  62.8563464  83.8835986
  73.7716536  73.9427194  83.7365480  72.9812080  73.9251333  83.1969979
  73.5349891  74.4815488  84.4914516  73.8914411  70.7919660  81.0498208
  73.9412416  70.6269668  81.9913731  73.7828335  69.9246919  80.6596089
  75.3932608  73.2116602  81.2940230  75.1017417  73.5746582  82.1303691
  74.7804740  72.4983610  81.1153562  64.4121505  64.8369136  86.6444284
  64.3118231  65.7863493  86.5756375  64.1943047  64.5087375  85.7720354
  60.3857899  62.2077676  84.8615789  61.2489361  61.8514481  85.0719113
  59.8123310  61.8691571  85.5491193  80.2306276  83.8379533  75.6678190
  80.8684686  83.7186280  74.9641530  80.1127119  84.7860376  75.7266142
  77.0395983  83.7906961  75.6039714  76.7014494  83.6748025  74.7160249
  77.9085751  83.3898126  75.5840720  77.5215766  84.9441812  81.5625920
  77.5104406  84.5494611  80.6906424  77.6836405  84.2107885  82.1559691
  78.4782357  89.3113405  66.9051070  77.8270337  89.8967485  66.5185084
  79.2726720  89.8419600  66.9646108  74.2423027  87.7278924  80.5105104
  73.9512893  88.6324555  80.3951770  74.8780011  87.7695452  81.2249173
  75.1679234  85.1055773  77.1006463  75.7642806  84.8811795  76.3863426
  75.2254205  84.3640518  77.7031911  79.7847545  81.5630986  72.7431398
  80.5710634  81.1450410  72.3921815  80.0486249  82.4677079  72.9113046
  79.9557622  87.0003837  67.4420055  79.3203455  87.0738463  68.1540959
  79.6255029  87.5897436  66.7639134  85.1855972  81.5006220  73.6464376
  85.9181144  80.9305436  73.8802206  84.4295328  81.1127820  74.0870882
  82.7081392  75.2127794  78.1058985  82.3764717  76.0823205  77.8820200
  82.1127006  74.8964078  78.7853015  79.2012912  87.4140340  77.5054898
  78.9013635  88.3165378  77.3970705  78.8563971  87.1472523  78.3576050
  82.6010056  79.9322880  75.1852335  81.6926933  79.8638288  74.8911096
  82.5497651  80.4094825  76.0134160  74.1833692  94.1784660  70.4725865
  74.1057721  95.1292485  70.5514346  73.5795335  93.8330533  71.1300792
  76.6750921  81.3512525  83.1287232  75.8984256  81.9106446  83.1190097
  77.3141485  81.8369308  83.6502102  84.4671702  78.1339318  76.9630209
  83.8246082  78.4271851  76.3170003  83.9626631  78.0192239  77.7683405
  82.1211866  81.8802491  67.6516068  83.0329722  82.1129878  67.4763766
  81.6121513  82.4639536  67.0891147  74.9297294  84.1597979  82.6905199
  75.6711978  84.6983023  82.4140023  74.2234279  84.7864268  82.8476751
  80.4052633  86.3027119  81.2877361  80.8135989  85.8609530  80.5431993
  79.6829895  85.7279747  81.5411554  76.7583703  81.2399726  78.6610918
  77.6044899  81.6639140  78.8045567  76.6982341  80.5833350  79.3549481
  80.7281448  86.8628310  75.0429650  80.0990311  87.0274024  74.3405717
  80.3407110  87.2769919  75.8140614  84.6070680  87.7982748  72.3974013
  83.9221718  88.1781649  71.8471047  84.6914529  88.4078074  73.1305961
  79.9083149  78.9004094  80.3192091  79.6644081  79.6546155  79.7826367
  80.1843079  79.2789442  81.1539338  81.8621612  85.4442707  78.9969357
  82.0738507  86.0874467  78.3203738  81.8151360  84.6105023  78.5291287
  73.6658658  81.3137627  83.4920509  73.0357318  81.9953908  83.7255906
  73.5594745  81.2020709  82.5473647  82.9767440  88.3214662  77.1691714
  83.7984883  87.9194849  76.8874396  82.9729842  88.2182896  78.1207830
  76.7424043  87.8698705  79.3252425  76.8068475  88.3319113  80.1610596
  76.0334967  87.2396070  79.4534734  91.0673433  84.6653411  73.5176686
  90.3137141  84.0960809  73.3620690  91.2020974  84.6316075  74.4647320
  76.4572061  89.5366813  69.1931405  76.3217735  90.3818349  69.6216253
  76.9981873  89.7386091  68.4297339  72.9439400  75.6158393  85.8545760
  72.5506346  75.0624591  86.5293404  73.7605541  75.9268971  86.2452278
  75.8607361  77.0316272  83.4466017  76.6017075  77.6323425  83.3670479
  76.0925284  76.2893910  82.8884059  78.0840537  90.1590379  83.3231747
  77.6404391  89.3726758  83.0052652  78.7457751  90.3469530  82.6575638
  72.8427658  91.6886181  77.8492426  73.3935083  91.5603244  77.0769419
  72.0039134  91.9881070  77.4987318  80.1821775  90.4393179  81.3513148
  80.1640250  91.2602060  80.8593417  81.1041695  90.3147255  81.5763289
  76.6394829  87.9537309  82.1936657  77.1723166  87.1925597  81.9635965
  76.1108910  87.6610961  82.9360811  79.7714807  83.0505986  66.2302734
  79.2561430  83.8210591  66.4691121  79.4992115  82.3771122  66.8535795
  77.3561918  77.8955687  71.2887972  76.5003514  77.5062537  71.1093611
  77.7688870  77.9747648  70.4287757  84.7449081  85.8038341  68.1655907
  83.9678524  85.4649500  67.7211069  85.4240562  85.8090964  67.4910872
  79.5601110  80.9233078  68.0562515  79.2551246  81.2379227  68.9072658
  80.5131552  81.0014498  68.0989848  82.9840388  85.2772322  74.8222515
  82.3264062  85.9671583  74.9102644  83.7880787  85.6668754  75.1656501
  81.7945847  83.6316695  72.8726457  82.3077728  84.2646686  73.3748166
  82.4447071  83.0317890  72.5069817  79.0568221  93.6101019  65.6287128
  78.3829920  93.9132716  66.2372086  79.4434043  94.4130099  65.2792585
  78.2726678  81.1066150  75.1184797  77.3549239  81.3281097  74.9606485
  78.6886821  81.1812461  74.2596505  79.0561725  82.5057566  70.2487478
  79.8033544  83.0178963  69.9394600  79.3253315  82.1841619  71.1091871
  82.5607643  88.6122696  71.0005599  82.1069970  87.7713606  71.0570790
  81.9301610  89.2484094  71.3380380  81.5040563  79.5414682  72.2306267
  80.7663319  79.0292068  72.5616509  81.7567336  79.1015064  71.4189544
  81.0040582  90.4499193  71.9355418  81.2963557  91.0104250  71.2167783
  81.5139203  90.7427754  72.6908577  77.0264463  86.5424850  64.5702510
  76.5883893  85.8260709  64.1108148  77.7674904  86.7700965  64.0087602
  75.9674207  91.2279544  73.0248871  75.9250386  91.4540390  72.0957403
  76.8836906  90.9942918  73.1734672  79.4139841  81.6963611  79.9229500
  79.7689229  81.9235084  80.7823966  80.0611972  82.0281988  79.3006755
  85.1437578  84.8182047  70.6278829  85.0055477  85.0083643  69.7000018
  84.7873797  85.5801430  71.0846880  85.1706958  86.8858574  75.6390100
  85.6043464  86.7933863  76.4873155  85.8838538  86.8616075  75.0010116
  78.9034853  90.4860668  77.1723201  78.9571875  91.0551605  77.9400917
  78.0349634  90.6562553  76.8077238  86.0322507  86.9282275  78.1722986
  86.2258397  87.8328085  78.4182261  85.9323125  86.4689694  79.0061571
  77.6858818  76.8140165  80.6713313  77.0386733  77.5130115  80.5777790
  78.4559833  77.2476309  81.0389561  81.0937616  87.0789018  83.7463866
  80.9423122  86.8499569  82.8293950  81.0842295  88.0359619  83.7595211
  77.8622952  84.6520930  78.7310133  78.7915012  84.8032090  78.5579100
  77.4413982  84.7404951  77.8758779  76.6611284  88.6771595  76.5008671
  76.5222370  88.3090379  77.3734609  75.8725880  89.1919234  76.3292628
  77.2559436  93.7780691  67.8434207  77.4311192  93.3068734  68.6579830
  76.5692224  94.4046457  68.0715468  78.2116499  88.0553197  73.8897508
  77.8766332  88.0153967  74.7855158  77.7120445  87.3897913  73.4167919
  81.1475691  85.4009232  64.1634568  80.5304862  84.6756060  64.0667621
  80.6792179  86.1618592  63.8201642  74.8143044  83.1740787  78.9033769
  75.5242662  82.5333979  78.8620388  74.7712352  83.4253682  79.8259950
  82.8029823  90.1108140  81.8240348  82.7442369  89.4267360  81.1570931
  83.2049341  90.8527130  81.3720974  71.8220521  96.9270054  74.6174067
  72.0617120  97.5588578  75.2953086  70.9789718  96.5758094  74.9039426
  82.8047230  88.0747724  80.0554328  81.9174009  87.7373646  80.1780727
  83.3745781  87.3430755  80.2923093  76.3348383  92.7349176  77.0215571
  76.2618555  93.5404148  77.5334876  75.8925776  92.9341142  76.1963593
  76.1238163  91.9720947  70.5318393  75.3405685  92.5142627  70.6256617
  76.8230908  92.4894926  70.9312634  87.2864570  83.4855941  74.8170890
  87.2754447  84.3680657  74.4464823  86.4181950  83.1327492  74.6225427
  78.7947067  92.6336011  79.1773730  79.5075039  93.2683475  79.1049631
  78.3037095  92.7299876  78.3613732  80.5164594  86.5387263  70.7491022
  79.5820872  86.6588726  70.5795726  80.6941262  85.6359730  70.4851031
  83.9037145  82.3804582  71.2841056  84.3697597  83.2132574  71.2101358
  84.3544646  81.9149564  71.9886314  73.8458980  90.3830454  79.9979301
  74.5468440  91.0166937  80.1508695  73.3754095  90.7245186  79.2374940
  81.9713376  88.7248404  68.2827208  82.2473220  88.6104998  69.1921082
  81.1017875  88.3265889  68.2439381  81.6460266  82.9375061  77.8231851
  80.9931717  83.1850969  77.1684304  82.0240646  82.1239200  77.4894328
  78.6067440  92.9734755  71.9260021  78.7889835  92.1556411  72.3887774
  79.4300426  93.1902447  71.4884911  78.9409606  91.9002940  69.1875070
  79.4697372  91.3895394  68.5745232  79.2037825  91.5845470  70.0520603
  77.6947839  83.6794872  84.3097888  77.0188476  83.5789002  84.9800263
  78.5175473  83.5234086  84.7733885  72.2965354  92.9518056  71.9472846
  71.6275729  93.4364184  71.4636886  72.1578223  93.1987277  72.8616224
  76.4370622  94.9861800  78.5455504  76.9888930  95.1493421  79.3104589
  76.7776816  95.5766238  77.8735529  81.2881497  89.8123057  84.4004159
  81.8321401  90.4253016  83.9059113  80.7068341  90.3702636  84.9171172
  79.5739009  92.9343775  75.5319186  79.4490149  92.1333515  75.0230132
  80.2318101  93.4289969  75.0433156  81.6373918  90.7352796  77.1598736
  80.6904253  90.6158147  77.0877063  81.9856691  89.8475294  77.2424998
  73.9973491  76.6246934  80.9836978  74.5207893  76.8709231  81.7463288
  73.7785825  77.4566969  80.5640116  78.6420351  90.5305512  73.3603089
  78.4945314  89.6022219  73.5410659  79.4673845  90.5525602  72.8760164
  82.2454473  91.3534070  74.4467961  83.1701020  91.1476932  74.3092412
  82.0769776  91.1050472  75.3557303  75.2026036  77.5660630  78.6686649
  74.8622857  76.7668443  79.0707329  74.4965043  77.8662340  78.0963482
  78.6381865  78.3843349  68.3535206  78.8545480  79.2667987  68.0524034
  78.1575933  77.9929563  67.6240848  75.2377470  78.3331611  74.9786840
  75.2239038  77.4372704  74.6419138  75.9549898  78.3402274  75.6125126
  77.0903600  78.7668951  77.0239967  76.8321378  79.6886021  77.0224298
  76.5588641  78.3699385  77.7140432  82.0349789  91.8719738  69.8030053
  82.2086667  91.3066160  69.0503905  82.5278680  92.6720633  69.6209543
  87.8889180  84.6356161  71.4220353  88.3320326  83.8863486  71.0239476
  87.0115691  84.6266297  71.0394085  83.0224962  91.1886502  66.9026951
  83.7175866  91.8093195  67.1214266  83.3648112  90.3381854  67.1779329
  84.9216385  88.6386208  68.4314282  85.4467709  88.9773481  67.7063602
  84.8338737  87.7033223  68.2477416  76.5836434  92.5520282  80.5604158
  76.8923560  92.3069428  81.4326858  77.3811916  92.7566920  80.0723029
  76.6057046  94.7058191  72.7909535  76.1662036  94.2134570  73.4842392
  77.3565163  94.1631159  72.5501610  74.0530918  90.2496200  74.8631837
  73.4310927  89.5866905  74.5634065  74.7235785  90.2757332  74.1805484
  74.1255445  78.7277988  84.4564343  74.1743601  79.6040111  84.0742112
  74.6677959  78.1855381  83.8835986  84.6110291  89.2719112  83.7365480
  83.8205835  89.2543250  83.1969979  84.3743645  89.8107405  84.4914516
  84.7308166  86.1211578  81.0498208  84.7806171  85.9561585  81.9913731
  84.6222089  85.2538837  80.6596089  82.0211928  82.1042506  82.3657515
  82.9221791  81.9648971  82.0741513  82.0959903  82.2696961  83.3055693
  76.3554734  79.4809361  81.2110701  75.4858043  79.7742927  80.9393290
  76.5914214  80.0649806  81.9317965  86.2326363  88.5408519  81.2940230
  85.9411171  88.9038500  82.1303691  85.6198494  87.8275528  81.1153562
  87.4322045  86.1061399  73.8142800  88.2668936  86.5451203  73.9780360
  87.5681174  85.6300052  72.9951046  84.4813551  83.6641134  79.7620288
  84.9567673  83.8568780  78.9539139  83.5579116  83.7200320  79.5163672
  79.0593767  75.6988978  78.7276122  79.5775711  76.4350005  78.4022610
  78.7048900  76.0052971  79.5622881  77.1139830  91.2948254  65.8102045
  76.5413797  91.9138441  65.3572517  77.6872624  91.8447616  66.3441967
  83.1815220  80.5406894  77.9948593  84.1332643  80.6404992  78.0160818
  83.0118670  79.7485163  78.5046678  81.2029599  77.6262477  78.1807994
  80.6079532  77.9067490  77.4854483  80.9179296  78.1156378  78.9524736
  80.3337090  91.5785404  66.9410627  81.2667763  91.5130966  67.1443502
  80.2460303  92.4141671  66.4825160  82.9625107  90.8951275  63.9014575
  82.8838738  90.5611138  64.7950332  83.7834773  91.3873042  63.9006047
  85.6603298  83.7613014  77.1090893  85.6279618  82.8229015  77.2950577
  86.2703921  83.8397051  76.3756718  85.8097786  80.5524057  77.1549176
  85.2936835  79.7682514  76.9679105  86.6937735  80.2242774  77.3195696
  83.4708513  74.2965073  73.1144989  83.2733334  73.9880161  73.9988321
  84.0808219  75.0226712  73.2442919  91.4779848  84.8229021  76.2496930
  92.2083236  84.5614309  76.8104633  90.8686793  84.0857743  76.2898998
  89.5595145  82.9636883  76.8471381  88.8328308  82.8292848  76.2387873
  89.1442432  83.2713712  77.6528099  77.3825321  86.6826813  84.6118754
  78.3028331  86.8605412  84.8058801  77.3474904  85.7382858  84.4598453
  77.2991612  75.0995933  69.2417224  76.4892340  74.7543018  69.6172470
  77.9876028  74.7903477  69.8304835  75.2515259  80.1661053  86.6444284
  75.1511986  81.1155410  86.5756375  75.0336801  79.8379292  85.7720354
  82.6060967  76.2874505  70.3720185  82.0259636  76.9459309  69.9898237
  82.3396900  75.4651849  69.9607602  75.1146529  83.5958192  85.4609346
  74.6313611  84.3958552  85.6673235  75.2007468  83.6066137  84.5076790
  81.3885845  78.4474595  69.4276533  80.5011700  78.7324246  69.2096728
  81.8039834  78.2868359  68.5803810  84.7400381  78.4721116  73.1430872
  85.5160771  78.9617569  73.4155489  84.0148515  78.8979170  73.6002742
  87.1772940  79.1848735  74.2004813  87.7717430  78.9444471  73.4898121
  87.2499523  78.4655866  74.8278349  69.3970095  93.0282346  74.5147978
  69.2624563  92.2682747  73.9485976  68.9802158  93.7523246  74.0476766
  80.5329058  88.2119270  63.5224553  81.2364909  88.4169272  64.1382208
  79.8091707  88.7796032  63.7873636  81.3626869  83.9629131  69.6426823
  81.3062070  84.4197683  68.8034455  81.9155211  83.2019816  69.4649666
  85.1731675  79.7518863  70.4676943  84.9168609  79.3515499  71.2985150
  84.5484543  80.4662657  70.3427082  89.4844012  82.4914936  72.9748234
  88.9243570  82.5608126  73.7479796  88.8787516  82.3155921  72.2547730
  72.5539221  93.9251663  74.7266420  72.4371605  94.8697096  74.6245110
  71.7331668  93.6225225  75.1152219  82.4415756  88.6501799  65.5723013
  83.2761360  88.2182998  65.3900488  82.2800099  88.4783813  66.4999907
  82.0961648  85.1533912  66.9379352  82.0410452  84.9878184  65.9967796
  81.4707703  85.8609945  67.0941542  79.4107555  87.4582824  86.2632915
  80.2798715  87.6323477  85.9019550  78.9314307  88.2777241  86.1408644
  73.5793735  94.5779925  77.9422349  74.4820982  94.6103536  78.2588844
  73.3531105  93.6480376  77.9568684  75.3347337  93.3310912  74.6032427
  74.3842968  93.3312773  74.4896800  75.6379824  92.5843646  74.0868462
  91.0700031  99.1671450  75.6678190  91.7078441  99.0478198  74.9641530
  90.9520874 100.1152294  75.7266142  87.8789737  99.1198878  75.6039714
  87.5408249  99.0039943  74.7160249  88.7479505  98.7190043  75.5840720
  83.7376553 100.9734355  71.5936605  83.1741418 100.8824292  70.8252893
  83.6228948 100.1534259  72.0739098  88.3609520 100.2733730  81.5625920
  88.3498161  99.8786528  80.6906424  88.5230160  99.5399803  82.1559691
  81.2840985 102.4685546  74.4320826  82.0762277 102.1276371  74.0167125
  81.5237635 102.5780521  75.3522979  89.3176112 104.6405322  66.9051070
  88.6664091 105.2259403  66.5185084  90.1120474 105.1711517  66.9646108
  83.2431739 101.7294460  67.3038205  84.0162615 101.1823447  67.1651080
  83.5957138 102.5938709  67.5152666  85.0816781 103.0570842  80.5105104
  84.7906647 103.9616473  80.3951770  85.7173766 103.0987369  81.2249173
  86.0072988 100.4347690  77.1006463  86.6036560 100.2103713  76.3863426
  86.0647960  99.6932436  77.7031911  85.5798017  97.8887126  64.9356654
  85.8323537  97.3668647  64.1740117  84.6422576  97.7253271  65.0383338
  90.6241299  96.8922904  72.7431398  91.4104389  96.4742327  72.3921815
  90.8880004  97.7968996  72.9113046  90.7951377 102.3295754  67.4420055
  90.1597210 102.4030381  68.1540959  90.4648783 102.9189353  66.7639134
  96.0249727  96.8298137  73.6464376  96.7574898  96.2597354  73.8802206
  95.2689082  96.4419738  74.0870882  85.2994305  99.7915232  67.1381029
  85.1830563  99.1160135  67.8062114  85.4096565  99.3047606  66.3213182
  87.6425846  99.2525379  70.8427719  87.2784053  98.7256000  71.5540640
  88.4992962  98.8623848  70.6694204  93.5475147  90.5419711  78.1058985
  93.2158472  91.4115122  77.8820200  92.9520760  90.2255995  78.7853015
  87.2831333  94.2815278  65.8389067  87.4505736  95.1495515  66.2059538
  87.0928502  94.4442560  64.9150356  90.0406666 102.7432257  77.5054898
  89.7407389 103.6457296  77.3970705  89.6957726 102.4764441  78.3576050
  83.4919148  99.1946054  73.5391602  82.5669644  99.0622268  73.7469294
  83.7403561  99.9740273  74.0361544  93.4403810  95.2614798  75.1852335
  92.5320688  95.1930206  74.8911096  93.3891406  95.7386742  76.0134160
  87.2620554  96.7372936  66.8235734  87.1420179  97.1829987  67.6621214
  86.5673142  97.0858254  66.2649272  80.8527959  98.8379328  74.3735391
  80.9820340  99.0913807  75.2874803  80.1725410  99.4307036  74.0540046
  85.0227446 109.5076578  70.4725865  84.9451476 110.4584403  70.5514346
  84.4189090 109.1622450  71.1300792  87.5144676  96.6804443  83.1287232
  86.7378010  97.2398363  83.1190097  88.1535239  97.1661226  83.6502102
  95.3065457  93.4631236  76.9630209  94.6639837  93.7563769  76.3170003
  94.8020385  93.3484156  77.7683405  92.9605620  97.2094409  67.6516068
  93.8723476  97.4421796  67.4763766  92.4515267  97.7931453  67.0891147
  85.7691048  99.4889896  82.6905199  86.5105733 100.0274940  82.4140023
  85.0628034 100.1156185  82.8476751  91.2446388 101.6319037  81.2877361
  91.6529744 101.1901447  80.5431993  90.5223649 101.0571664  81.5411554
  87.5977458  96.5691644  78.6610918  88.4438653  96.9931057  78.8045567
  87.5376096  95.9125268  79.3549481  91.5675203 102.1920228  75.0429650
  90.9384065 102.3565942  74.3405717  91.1800865 102.6061837  75.8140614
  95.4464434 103.1274665  72.3974013  94.7615473 103.5073567  71.8471047
  95.5308284 103.7369992  73.1305961  90.7476903  94.2296012  80.3192091
  90.5037835  94.9838073  79.7826367  91.0236834  94.6081360  81.1539338
  92.7015366 100.7734624  78.9969357  92.9132261 101.4166384  78.3203738
  92.6545114  99.9396941  78.5291287  90.3041595  93.3852445  75.9005929
  89.4426074  93.6833699  76.1922667  90.3304030  93.6022844  74.9686962
  87.1203164 101.9294636  72.3079735  87.5841510 102.2082339  71.5184357
  86.8559963 101.0278080  72.1252825  84.0127245 101.4766117  75.2459498
  84.5828603 101.9053386  74.6076982  84.6035357 101.1948702  75.9443684
  86.0572050  98.0517788  69.1169300  86.7596094  98.5038832  69.5843226
  85.7252679  97.4101607  69.7449193  84.5052412  96.6429545  83.4920509
  83.8751073  97.3245826  83.7255906  84.3988500  96.5312626  82.5473647
  79.7997384  96.3101341  74.4186433  79.0096438  96.5658869  73.9426544
  80.2908632  97.1249679  74.5238474  93.8161194 103.6506580  77.1691714
  94.6378638 103.2486767  76.8874396  93.8123597 103.5474814  78.1207830
  81.7512130  96.6745920  71.3769910  80.9543293  96.7864614  71.8953406
  81.5237722  97.0132572  70.5110801  87.5817797 103.1990623  79.3252425
  87.6462230 103.6611030  80.1610596  86.8728721 102.5687988  79.4534734
  78.0835087  96.5631831  76.8501424  78.3343126  97.4478841  77.1159000
  78.6194636  96.3836433  76.0776516 101.9067187  99.9945328  73.5176686
 101.1530895  99.4252726  73.3620690 102.0414728  99.9607993  74.4647320
  87.2965815 104.8658731  69.1931405  87.1611490 105.7110266  69.6216253
  87.8375628 105.0678008  68.4297339  83.7833155  90.9450311  85.8545760
  83.3900100  90.3916509  86.5293404  84.5999295  91.2560889  86.2452278
  80.7495212 102.3834169  69.7659330  81.2619733 103.1777419  69.9164895
  81.4017925 101.6860459  69.6992932  82.5590097 105.4999925  71.8482083
  82.7356726 106.4217890  71.6603067  83.3546931 105.1858344  72.2776463
  86.7001116  92.3608190  83.4466017  87.4410829  92.9615343  83.3670479
  86.9319039  91.6185827  82.8884059  81.8442454  97.5464557  81.7244246
  81.7295969  96.6449814  82.0251345  80.9886971  97.7928254  81.3729063
  88.9234291 105.4882297  83.3231747  88.4798146 104.7018676  83.0052652
  89.5851505 105.6761448  82.6575638  83.6821413 107.0178099  77.8492426
  84.2328838 106.8895162  77.0769419  82.8432889 107.3172988  77.4987318
  91.0215530 105.7685097  81.3513148  91.0034005 106.5893978  80.8593417
  91.9435450 105.6439172  81.5763289  87.4788584 103.2829227  82.1936657
  88.0116921 102.5217515  81.9635965  86.9502665 102.9902878  82.9360811
  90.6458279  88.3889293  77.7230298  90.3022548  89.2790934  77.6469409
  91.0137241  88.1990950  76.8599883  78.7144129 100.7122823  70.5418901
  79.5519351 101.1219831  70.3252608  78.8922397  99.7722265  70.5119094
  90.6108561  98.3797904  66.2302734  90.0955185  99.1502508  66.4691121
  90.3385870  97.7063040  66.8535795  88.1955672  93.2247604  71.2887972
  87.3397269  92.8354455  71.1093611  88.6082624  93.3039565  70.4287757
  89.7254819  90.7593948  75.6879532  89.2219615  90.7224083  74.8747337
  90.0185426  91.6686690  75.7476188  85.9697705  90.8432677  74.6945713
  86.8350702  90.6475486  74.3351603  86.0375214  90.6143029  75.6215070
  95.5842836 101.1330258  68.1655907  94.8072278 100.7941418  67.7211069
  96.2634317 101.1382881  67.4910872  90.3994865  96.2524996  68.0562515
  90.0945000  96.5671145  68.9072658  91.3525307  96.3306416  68.0989848
  88.8441296 102.4115219  69.7055469  88.3162658 101.6767979  69.3928706
  88.3428799 103.1889895  69.4595437  93.8234142 100.6064240  74.8222515
  93.1657817 101.2963501  74.9102644  94.6274542 100.9960671  75.1656501
  83.5760024  93.0734885  72.0662080  84.1503776  92.8510067  71.3335273
  84.1631006  93.1423580  72.8190682  92.6339601  98.9608612  72.8726457
  93.1471483  99.5938604  73.3748166  93.2840825  98.3609808  72.5069817
  83.9029611  95.1039346  66.0857965  83.0666923  95.4414033  66.4067240
  83.7634381  94.9688326  65.1485102  85.8782692  89.9476134  70.7937150
  85.2247104  89.6325151  70.1693764  85.8363166  89.3251875  71.5196973
  86.9893897 100.2295429  62.7090442  86.0820958  99.9984683  62.9081591
  87.4864929  99.4333049  62.8964423  89.8961975 108.9392937  65.6287128
  89.2223674 109.2424633  66.2372086  90.2827797 109.7422017  65.2792585
  89.1120432  96.4358068  75.1184797  88.1942993  96.6573015  74.9606485
  89.5280576  96.5104378  74.2596505  89.8955480  97.8349483  70.2487478
  90.6427299  98.3470881  69.9394600  90.1647069  97.5133536  71.1091871
  88.1682130 100.3308024  67.2314432  87.2593349 100.0467057  67.3286902
  88.1977214 100.7507103  66.3717739  93.4001397 103.9414614  71.0005599
  92.9463725 103.1005524  71.0570790  92.7695364 104.5776012  71.3380380
  92.3434317  94.8706600  72.2306267  91.6057074  94.3583986  72.5616509
  92.5961091  94.4306981  71.4189544  91.8434337 105.7791110  71.9355418
  92.1357311 106.3396167  71.2167783  92.3532957 106.0719671  72.6908577
  92.4445944  87.6482852  72.8248036  92.7504821  86.7880215  72.5373951
  93.1698549  88.2400472  72.6247030  78.7370300  98.0513538  71.2129634
  78.5394700  97.4582899  70.4880701  78.1816964  97.7465749  71.9305573
  86.7167024  97.9436645  73.3324227  86.7715634  96.9910481  73.2566704
  85.9058226  98.0996084  73.8165526  87.8658218 101.8716768  64.5702510
  87.4277648 101.1552627  64.1108148  88.6068659 102.0992883  64.0087602
  84.6559384  96.5613705  71.0914606  83.8427250  96.8607875  71.4979798
  85.1518378  96.1669393  71.8089088  86.8067962 106.5571461  73.0248871
  86.7644141 106.7832308  72.0957403  87.7230661 106.3234836  73.1734672
  90.2533596  97.0255529  79.9229500  90.6082983  97.2527002  80.7823966
  90.9005727  97.3573906  79.3006755  95.9831333 100.1473965  70.6278829
  95.8449231 100.3375561  69.7000018  95.6267551 100.9093348  71.0846880
  84.1473459  94.1332060  76.7075841  84.7872838  93.9920819  76.0098804
  83.3150989  93.8466573  76.3314443  96.0100712 102.2150492  75.6390100
  96.4437219 102.1225781  76.4873155  96.7232293 102.1907992  75.0010116
  84.9233763 103.4334490  72.8210833  85.7174361 102.9384811  72.6193408
  84.2125455 102.9052354  72.4578539  89.7428607 105.8152586  77.1723201
  89.7965629 106.3843522  77.9400917  88.8743388 105.9854471  76.8077238
  81.2316526  97.5777572  68.8970586  80.3014114  97.5162028  69.1140548
  81.3273998  97.0553525  68.1007227  81.1502075  94.1032385  71.4848828
  81.4108892  95.0177718  71.3757988  81.9719247  93.6356828  71.6345441
  82.6227001  95.5170142  78.6547652  83.2950054  95.3087504  78.0060301
  81.7956787  95.3192228  78.2152885  96.8716262 102.2574193  78.1722986
  97.0652152 103.1620003  78.4182261  96.7716880 101.7981612  79.0061571
  88.5252573  92.1432083  80.6713313  87.8780488  92.8422033  80.5777790
  89.2953588  92.5768227  81.0389561  91.9331370 102.4080935  83.7463866
  91.7816877 102.1791487  82.8293950  91.9236050 103.3651537  83.7595211
  88.7016707  99.9812848  78.7310133  89.6308767 100.1324008  78.5579100
  88.2807737 100.0696869  77.8758779  87.5005039 104.0063512  76.5008671
  87.3616124 103.6382297  77.3734609  86.7119635 104.5211152  76.3292628
  88.0953191 109.1072609  67.8434207  88.2704946 108.6360652  68.6579830
  87.4085979 109.7338375  68.0715468  89.0510254 103.3845115  73.8897508
  88.7160086 103.3445885  74.7855158  88.5514199 102.7189831  73.4167919
  83.0254498  98.7912745  79.4150089  82.8874296  98.0592984  80.0161629
  83.9359421  98.7021645  79.1334277  91.9869445 100.7301150  64.1634568
  91.3698616 100.0047978  64.0667621  91.5185934 101.4910510  63.8201642
  85.6536798  98.5032705  78.9033769  86.3636417  97.8625897  78.8620388
  85.6106107  98.7545599  79.8259950  93.6423577 105.4400058  81.8240348
  93.5836123 104.7559278  81.1570931  94.0443095 106.1819048  81.3720974
  84.3665732  95.4897922  80.7229409  83.8303089  95.0388661  81.3751005
  83.7782441  95.6243831  79.9799873  82.6614276 112.2561972  74.6174067
  82.9010874 112.8880496  75.2953086  81.8183472 111.9050012  74.9039426
  83.7767991  94.9486574  63.2855872  82.8997458  94.8275375  62.9218119
  84.2525744  94.1572652  63.0334761  93.6440984 103.4039642  80.0554328
  92.7567763 103.0665564  80.1780727  94.2139535 102.6722673  80.2923093
  75.2970131  99.7363734  73.3797379  75.9841171  99.4225464  72.7918395
  75.1418260 100.6405098  73.1064631  80.1004854  94.6253930  77.8082403
  80.0163042  94.0179600  77.0732813  79.2787560  95.1162948  77.8091899
  87.1742138 108.0641094  77.0215571  87.1012309 108.8696066  77.5334876
  86.7319531 108.2633060  76.1963593  86.9631917 107.3012864  70.5318393
  86.1799439 107.8434544  70.6256617  87.6624663 107.8186844  70.9312634
  90.2728568  93.1107494  73.1752598  90.7697267  92.3577456  72.8553668
  89.5015549  93.1471810  72.6095807  98.1258325  98.8147859  74.8170890
  98.1148201  99.6972575  74.4464823  97.2575704  98.4619410  74.6225427
  89.6340821 107.9627928  79.1773730  90.3468793 108.5975393  79.1049631
  89.1430850 108.0591794  78.3613732  91.3558348 101.8679181  70.7491022
  90.4214627 101.9880643  70.5795726  91.5335017 100.9651648  70.4851031
  86.8563536  95.2524877  72.9024283  86.4861324  94.6995917  73.5905188
  87.3522629  94.6483010  72.3499283  94.7430900  97.7096500  71.2841056
  95.2091352  98.5424492  71.2101358  95.1938400  97.2441482  71.9886314
  84.6852735 105.7122372  79.9979301  85.3862194 106.3458855  80.1508695
  84.2147850 106.0537103  79.2374940  92.8107131 104.0540321  68.2827208
  93.0866975 103.9396916  69.1921082  91.9411629 103.6557806  68.2439381
  92.7147562  90.0777087  75.3231957  91.8010642  90.3081314  75.4914164
  93.1440664  90.1615531  76.1745989  92.4854021  98.2666979  77.8231851
  91.8325471  98.5142887  77.1684304  92.8634401  97.4531117  77.4894328
  89.4461195 108.3026672  71.9260021  89.6283589 107.4848328  72.3887774
  90.2694181 108.5194365  71.4884911  89.7803360 107.2294857  69.1875070
  90.3091127 106.7187312  68.5745232  90.0431580 106.9137388  70.0520603
  88.5341594  99.0086790  84.3097888  87.8582231  98.9080919  84.9800263
  89.3569228  98.8526004  84.7733885  80.2820453 105.2458727  76.9310403
  80.8673890 104.5002415  77.0638308  80.0845291 105.5562683  77.8147067
  83.1359108 108.2809974  71.9472846  82.4669483 108.7656102  71.4636886
  82.9971978 108.5279195  72.8616224  74.8738108  97.8164327  75.6514847
  74.9122207  97.2827918  76.4451965  74.3678400  97.2899532  75.0325824
  87.2764377 110.3153718  78.5455504  87.8282685 110.4785339  79.3104589
  87.6170570 110.9058155  77.8735529  82.2528870  92.6628867  79.1477389
  82.3170196  93.5243698  78.7354787  82.1895990  92.0502869  78.4149747
  81.7281142  94.7352000  82.7950423  82.3553181  94.3529077  83.4087947
  80.8709061  94.5166202  83.1606116  92.1275251 105.1414975  84.4004159
  92.6715155 105.7544933  83.9059113  91.5462096 105.6994554  84.9171172
  78.5046685  96.5428429  68.7268778  78.8000126  95.6339107  68.6735832
  77.6034721  96.5216169  68.4049780  90.4132764 108.2635693  75.5319186
  90.2883903 107.4625433  75.0230132  91.0711855 108.7581886  75.0433156
  82.0340932  94.6184426  74.7096327  81.3127518  95.2320393  74.5703800
  82.8234188  95.1542190  74.6312972  92.4767672 106.0644713  77.1598736
  91.5298008 105.9450064  77.0877063  92.8250445 105.1767211  77.2424998
  84.8367246  91.9538852  80.9836978  85.3601648  92.2001149  81.7463288
  84.6179579  92.7858887  80.5640116  80.2334527  94.2242527  68.8508103
  79.9047233  93.3439906  68.6683209  80.5873897  94.1690195  69.7384492
  89.4814106 105.8597429  73.3603089  89.3339068 104.9314137  73.5410659
  90.3067599 105.8817520  72.8760164  83.3476350  94.5115497  69.2183581
  83.6872422  95.0401418  68.4962189  83.7948470  94.8495903  69.9942147
  93.0848227 106.6825988  74.4467961  94.0094775 106.4768850  74.3092412
  92.9163531 106.4342389  75.3557303  86.0419791  92.8952547  78.6686649
  85.7016611  92.0960360  79.0707329  85.3358797  93.1954258  78.0963482
  86.6936263  89.9801860  77.1213972  87.5162332  89.5062338  76.9992862
  86.9374326  90.7592343  77.6212658  85.3344497  93.0090118  67.4176874
  86.0552860  93.3871371  66.9140590  84.7109801  93.7278995  67.5211851
  89.4775620  93.7135267  68.3535206  89.6939234  94.5959905  68.0524034
  88.9969687  93.3221480  67.6240848  84.2174841  96.6720980  74.9305950
  84.0719422  96.9861283  75.8230232  83.7400045  97.2905881  74.3776849
  86.0771224  93.6623528  74.9786840  86.0632793  92.7664622  74.6419138
  86.7943652  93.6694192  75.6125126  87.9297355  94.0960868  77.0239967
  87.6715133  95.0177939  77.0224298  87.3982395  93.6991303  77.7140432
  92.8743544 107.2011656  69.8030053  93.0480421 106.6358078  69.0503905
  93.3672435 108.0012550  69.6209543  78.6920504  99.2126325  77.8693612
  78.1473972  99.9886133  78.0013886  79.5699853  99.5597129  77.7112733
  85.4808120  92.5437909  70.2474410  85.6024031  91.6154555  70.4465298
  85.1910163  92.5576595  69.3352726  88.3499311  90.2292819  73.3841130
  88.3721007  90.2932152  72.4293110  88.7667370  89.3897328  73.5781636
  98.7282935  99.9648079  71.4220353  99.1714081  99.2155404  71.0239476
  97.8509445  99.9558215  71.0394085  93.8618716 106.5178420  66.9026951
  94.5569621 107.1385113  67.1214266  94.2041866 105.6673771  67.1779329
  79.4786525  98.3396221  80.7623768  78.7368261  98.4878856  81.3488399
  79.1579270  98.6004487  79.8990518  95.7610139 103.9678126  68.4314282
  96.2861463 104.3065398  67.7063602  95.6732492 103.0325141  68.2477416
  87.4230188 107.8812199  80.5604158  87.7317314 107.6361346  81.4326858
  88.2205670 108.0858838  80.0723029  87.4450800 110.0350109  72.7909535
  87.0055790 109.5426488  73.4842392  88.1958917 109.4923076  72.5501610
  79.9243139 106.2261650  72.7934163  80.7501159 105.9265422  72.4132807
  79.5737191 105.4569272  73.2423952  84.8924672 105.5788118  74.8631837
  84.2704681 104.9158823  74.5634065  85.5629539 105.6049250  74.1805484
  78.1251744 104.1447976  73.7523097  77.2883652 103.7170151  73.5707098
  78.0975390 104.3380419  74.6893888  84.9649200  94.0569906  84.4564343
  85.0137355  94.9332029  84.0742112  85.5071714  93.5147299  83.8835986
  95.4504045 104.6011029  83.7365480  94.6599589 104.5835168  83.1969979
  95.2137400 105.1399323  84.4914516  95.5701920 101.4503496  81.0498208
  95.6199925 101.2853503  81.9913731  95.4615844 100.5830755  80.6596089
  84.4538179 104.1292041  68.3390297  84.6026299 104.8127506  67.6856970
  85.2604623 104.1097131  68.8539753  92.8605683  97.4334424  82.3657515
  93.7615546  97.2940888  82.0741513  92.9353657  97.5988878  83.3055693
  87.1948488  94.8101278  81.2110701  86.3251798  95.1034844  80.9393290
  87.4307969  95.3941723  81.9317965  97.0720117 103.8700437  81.2940230
  96.7804926 104.2330418  82.1303691  96.4592249 103.1567445  81.1153562
  98.2715800 101.4353317  73.8142800  99.1062691 101.8743121  73.9780360
  98.4074928 100.9591970  72.9951046  95.3207306  98.9933052  79.7620288
  95.7961427  99.1860698  78.9539139  94.3972871  99.0492238  79.5163672
  82.2090812 100.1557219  69.3451366  81.9636854  99.2519549  69.5431576
  82.3786727 100.1574369  68.4030844  89.8987522  91.0280895  78.7276122
  90.4169466  91.7641922  78.4022610  89.5442655  91.3344889  79.5622881
  81.4786460  95.8885576  66.8437528  80.7855705  95.9629931  66.1877564
  81.2338212  95.1245920  67.3659045  90.1500116  87.4481178  74.2477018
  90.4301870  86.7804367  74.8737445  90.9350723  87.6410273  73.7351682
  87.9533585 106.6240172  65.8102045  87.3807552 107.2430359  65.3572517
  88.5266378 107.1739533  66.3441967  94.0208974  95.8698812  77.9948593
  94.9726397  95.9696909  78.0160818  93.8512425  95.0777080  78.5046678
  92.0423354  92.9554395  78.1807994  91.4473286  93.2359408  77.4854483
  91.7573051  93.4448296  78.9524736  91.1730844 106.9077322  66.9410627
  92.1061518 106.8422884  67.1443502  91.0854057 107.7433589  66.4825160
  93.8018861 106.2243192  63.9014575  93.7232493 105.8903056  64.7950332
  94.6228528 106.7164960  63.9006047  96.4997052  99.0904931  77.1090893
  96.4673372  98.1520932  77.2950577  97.1097676  99.1688968  76.3756718
  88.3380383  97.9600984  63.1518097  89.2839488  97.8307193  63.2206515
  87.9594628  97.2215646  63.6287525  96.6491541  95.8815975  77.1549176
  96.1330589  95.0974432  76.9679105  97.5331489  95.5534692  77.3195696
  94.3102268  89.6256990  73.1144989  94.1127089  89.3172079  73.9988321
  94.9201973  90.3518629  73.2442919 102.3173602 100.1520938  76.2496930
 103.0476991  99.8906226  76.8104633 101.7080548  99.4149660  76.2898998
 100.3988899  98.2928801  76.8471381  99.6722063  98.1584766  76.2387873
  99.9836186  98.6005630  77.6528099  88.2219076 102.0118731  84.6118754
  89.1422085 102.1897330  84.8058801  88.1868659 101.0674776  84.4598453
  86.5223300  95.8850961  63.0872982  85.6154756  95.5884074  63.1635696
  86.7999281  95.5880779  62.2207269  77.4401241  97.2057324  73.5372029
  77.1204025  96.3522632  73.2446403  76.8934669  97.4205902  74.2929996
  81.2181148  99.9219765  77.2541535  81.4367158 100.8536873  77.2729569
  81.6306922  99.5627740  78.0396339  88.1385366  90.4287851  69.2417224
  87.3286094  90.0834936  69.6172470  88.8269783  90.1195394  69.8304835
  90.0675914  89.5065897  70.8641520  90.6206953  89.9261351  71.5231543
  90.3046001  88.5801645  70.9064476  86.0909014  95.4952971  86.6444284
  85.9905740  96.4447328  86.5756375  85.8730556  95.1671210  85.7720354
  85.2922085  92.7437896  63.2284962  86.1541249  93.0692794  63.4880779
  85.4772429  91.9569392  62.7158027  77.3089501 100.8260236  75.5065150
  76.6152972 100.4114189  74.9935105  78.0562492 100.8680772  74.9098569
  93.4454721  91.6166423  70.3720185  92.8653390  92.2751227  69.9898237
  93.1790654  90.7943767  69.9607602  91.8958288  91.0171480  72.5741505
  92.3958066  91.1288015  71.7655824  92.5393896  90.7132533  73.2142313
  85.9540284  98.9250110  85.4609346  85.4707365  99.7250470  85.6673235
  86.0401223  98.9358055  84.5076790  79.2226243 100.7578490  73.3831165
  79.1996931 100.8566177  72.4313048  79.5326880 101.6043640  73.7048331
  81.8813621 102.8154645  77.4977780  82.8356875 102.7838587  77.4307711
  81.6826145 102.3545268  78.3128006  82.4713003 101.3855761  80.0648577
  83.2905892 101.8799839  80.0883415  82.7449811 100.4687729  80.0366145
  92.2279599  93.7766513  69.4276533  91.3405454  94.0616164  69.2096728
  92.6433588  93.6160276  68.5803810  95.5794136  93.8013034  73.1430872
  96.3554526  94.2909486  73.4155489  94.8542270  94.2271088  73.6002742
  98.0166694  94.5140653  74.2004813  98.6111185  94.2736389  73.4898121
  98.0893278  93.7947784  74.8278349  80.2363850 108.3574264  74.5147978
  80.1018318 107.5974665  73.9485976  79.8195912 109.0815164  74.0476766
  91.3722813 103.5411188  63.5224553  92.0758663 103.7461190  64.1382208
  90.6485462 104.1087949  63.7873636  92.2020623  99.2921049  69.6426823
  92.1455825  99.7489600  68.8034455  92.7548966  98.5311733  69.4649666
  96.0125429  95.0810781  70.4676943  95.7562363  94.6807416  71.2985150
  95.3878297  95.7954575  70.3427082 100.3237767  97.8206854  72.9748234
  99.7637325  97.8900043  73.7479796  99.7181270  97.6447839  72.2547730
  83.3932976 109.2543581  74.7266420  83.2765360 110.1989014  74.6245110
  82.5725422 108.9517143  75.1152219  93.2809510 103.9793717  65.5723013
  94.1155114 103.5474915  65.3900488  93.1193853 103.8075730  66.4999907
  92.9355402 100.4825830  66.9379352  92.8804206 100.3170102  65.9967796
  92.3101458 101.1901863  67.0941542  77.7247917  95.7193894  80.7640774
  78.3706781  95.2092848  81.2528000  77.5165069  96.4562576  81.3384200
  90.2501310 102.7874742  86.2632915  91.1192469 102.9615394  85.9019550
  89.7708061 103.6069159  86.1408644  86.2451528  89.9833939  66.5164671
  86.2330198  90.9275779  66.6732941  87.1374950  89.8004085  66.2224132
  84.4187490 109.9071843  77.9422349  85.3214737 109.9395453  78.2588844
  84.1924860 108.9772294  77.9568684  86.1741092 108.6602830  74.6032427
  85.2236723 108.6604691  74.4896800  86.4773578 107.9135564  74.0868462
  90.0603647  86.5776716  70.7710607  89.2936043  86.0235202  70.9167290
  90.4714352  86.6498584  71.6324759  82.0645408  92.8661512  84.8615789
  82.9276870  92.5098316  85.0719113  81.4910819  92.5275406  85.5491193
 101.9093785 114.4963368  75.6678190 102.5472195 114.3770115  74.9641530
 101.7914628 115.4444212  75.7266142  98.7183492 114.4490796  75.6039714
  98.3802003 114.3331861  74.7160249  99.5873260 114.0481961  75.5840720
  94.5770307 116.3026272  71.5936605  94.0135172 116.2116209  70.8252893
  94.4622702 115.4826177  72.0739098  99.2003275 115.6025648  81.5625920
  99.1891915 115.2078446  80.6906424  99.3623914 114.8691720  82.1559691
  92.1234739 117.7977464  74.4320826  92.9156031 117.4568289  74.0167125
  92.3631389 117.9072439  75.3522979  94.0825493 117.0586377  67.3038205
  94.8556369 116.5115364  67.1651080  94.4350892 117.9230627  67.5152666
  95.9210536 118.3862760  80.5105104  95.6300402 119.2908390  80.3951770
  96.5567520 118.4279287  81.2249173  96.8466743 115.7639608  77.1006463
  97.4430315 115.5395630  76.3863426  96.9041714 115.0224354  77.7031911
  96.4191771 113.2179043  64.9356654  96.6717292 112.6960565  64.1740117
  95.4816330 113.0545189  65.0383338 101.4635054 112.2214822  72.7431398
 102.2498143 111.8034245  72.3921815 101.7273758 113.1260914  72.9113046
 106.8643481 112.1590055  73.6464376 107.5968653 111.5889272  73.8802206
 106.1082837 111.7711655  74.0870882  96.1388060 115.1207149  67.1381029
  96.0224318 114.4452053  67.8062114  96.2490320 114.6339523  66.3213182
  98.4819601 114.5817296  70.8427719  98.1177808 114.0547917  71.5540640
  99.3386717 114.1915765  70.6694204 104.3868901 105.8711629  78.1058985
 104.0552226 106.7407040  77.8820200 103.7914515 105.5547913  78.7853015
  98.1225088 109.6107196  65.8389067  98.2899490 110.4787433  66.2059538
  97.9322257 109.7734478  64.9150356  94.3312902 114.5237972  73.5391602
  93.4063399 114.3914186  73.7469294  94.5797316 115.3032191  74.0361544
 104.2797565 110.5906715  75.1852335 103.3714442 110.5222124  74.8911096
 104.2285160 111.0678660  76.0134160  98.1014309 112.0664854  66.8235734
  97.9813934 112.5121904  67.6621214  97.4066897 112.4150171  66.2649272
  91.6921713 114.1671245  74.3735391  91.8214095 114.4205724  75.2874803
  91.0119165 114.7598953  74.0540046  98.3538430 112.0096361  83.1287232
  97.5771765 112.5690281  83.1190097  98.9928994 112.4953144  83.6502102
 106.1459211 108.7923154  76.9630209 105.5033591 109.0855687  76.3170003
 105.6414140 108.6776074  77.7683405 103.7999375 112.5386327  67.6516068
 104.7117231 112.7713714  67.4763766 103.2909022 113.1223371  67.0891147
  96.6084803 114.8181814  82.6905199  97.3499487 115.3566858  82.4140023
  95.9021788 115.4448103  82.8476751 102.0840142 116.9610955  81.2877361
 102.4923498 116.5193365  80.5431993 101.3617404 116.3863582  81.5411554
  98.4371212 111.8983561  78.6610918  99.2832408 112.3222975  78.8045567
  98.3769850 111.2417186  79.3549481 101.5870658 109.5587930  80.3192091
 101.3431590 110.3129990  79.7826367 101.8630588 109.9373277  81.1539338
 101.1435350 108.7144363  75.9005929 100.2819829 109.0125616  76.1922667
 101.1697784 108.9314762  74.9686962  97.9596919 117.2586553  72.3079735
  98.4235264 117.5374256  71.5184357  97.6953717 116.3569998  72.1252825
  94.8521000 116.8058035  75.2459498  95.4222357 117.2345303  74.6076982
  95.4429112 116.5240620  75.9443684  96.8965805 113.3809706  69.1169300
  97.5989848 113.8330749  69.5843226  96.5646433 112.7393525  69.7449193
  95.3446167 111.9721462  83.4920509  94.7144827 112.6537743  83.7255906
  95.2382254 111.8604544  82.5473647  90.6391139 111.6393258  74.4186433
  89.8490193 111.8950787  73.9426544  91.1302386 112.4541596  74.5238474
  92.5905884 112.0037838  71.3769910  91.7937048 112.1156532  71.8953406
  92.3631477 112.3424490  70.5110801  98.4211552 118.5282541  79.3252425
  98.4855984 118.9902948  80.1610596  97.7122476 117.8979906  79.4534734
  88.9228842 111.8923749  76.8501424  89.1736880 112.7770759  77.1159000
  89.4588390 111.7128350  76.0776516  94.6226909 106.2742228  85.8545760
  94.2293855 105.7208427  86.5293404  95.4393050 106.5852807  86.2452278
  91.5888967 117.7126086  69.7659330  92.1013488 118.5069337  69.9164895
  92.2411680 117.0152377  69.6992932  93.3983852 120.8291843  71.8482083
  93.5750480 121.7509807  71.6603067  94.1940685 120.5150262  72.2776463
  97.5394870 107.6900107  83.4466017  98.2804584 108.2907260  83.3670479
  97.7712793 106.9477745  82.8884059  92.6836208 112.8756475  81.7244246
  92.5689723 111.9741732  82.0251345  91.8280726 113.1220171  81.3729063
  94.5215167 122.3470016  77.8492426  95.0722592 122.2187080  77.0769419
  93.6826643 122.6464905  77.4987318  98.3182338 118.6121144  82.1936657
  98.8510675 117.8509432  81.9635965  97.7896419 118.3194796  82.9360811
 101.4852033 103.7181210  77.7230298 101.1416303 104.6082852  77.6469409
 101.8530996 103.5282868  76.8599883  89.5537884 116.0414741  70.5418901
  90.3913106 116.4511749  70.3252608  89.7316151 115.1014183  70.5119094
 101.4502316 113.7089821  66.2302734 100.9348939 114.4794426  66.4691121
 101.1779624 113.0354957  66.8535795  99.0349427 108.5539522  71.2887972
  98.1791023 108.1646373  71.1093611  99.4476379 108.6331483  70.4287757
 100.5648574 106.0885865  75.6879532 100.0613369 106.0516001  74.8747337
 100.8579180 106.9978608  75.7476188  96.8091459 106.1724595  74.6945713
  97.6744456 105.9767404  74.3351603  96.8768968 105.9434947  75.6215070
 101.2388619 111.5816913  68.0562515 100.9338755 111.8963063  68.9072658
 102.1919061 111.6598333  68.0989848  99.6835051 117.7407137  69.7055469
  99.1556412 117.0059896  69.3928706  99.1822554 118.5181813  69.4595437
  94.4153779 108.4026803  72.0662080  94.9897530 108.1801985  71.3335273
  95.0024761 108.4715498  72.8190682 103.4733356 114.2900530  72.8726457
 103.9865237 114.9230522  73.3748166 104.1234580 113.6901725  72.5069817
  94.7423366 110.4331264  66.0857965  93.9060678 110.7705951  66.4067240
  94.6028135 110.2980244  65.1485102  96.7176446 105.2768052  70.7937150
  96.0640859 104.9617069  70.1693764  96.6756920 104.6543792  71.5196973
  97.8287651 115.5587347  62.7090442  96.9214713 115.3276600  62.9081591
  98.3258683 114.7624966  62.8964423  99.9514187 111.7649985  75.1184797
  99.0336748 111.9864932  74.9606485 100.3674330 111.8396296  74.2596505
 100.7349234 113.1641401  70.2487478 101.4821053 113.6762798  69.9394600
 101.0040824 112.8425454  71.1091871  99.0075885 115.6599942  67.2314432
  98.0987104 115.3758975  67.3286902  99.0370968 116.0799020  66.3717739
 103.1828071 110.1998517  72.2306267 102.4450828 109.6875904  72.5616509
 103.4354845 109.7598899  71.4189544 103.2839699 102.9774769  72.8248036
 103.5898576 102.1172133  72.5373951 104.0092304 103.5692390  72.6247030
  89.5764055 113.3805456  71.2129634  89.3788455 112.7874817  70.4880701
  89.0210719 113.0757666  71.9305573  97.5560779 113.2728562  73.3324227
  97.6109388 112.3202399  73.2566704  96.7451981 113.4288002  73.8165526
  98.7051972 117.2008686  64.5702510  98.2671402 116.4844544  64.1108148
  99.4462413 117.4284800  64.0087602  95.4953138 111.8905622  71.0914606
  94.6821004 112.1899793  71.4979798  95.9912133 111.4961311  71.8089088
 101.0927350 112.3547447  79.9229500 101.4476738 112.5818920  80.7823966
 101.7399481 112.6865823  79.3006755  94.9867213 109.4623978  76.7075841
  95.6266593 109.3212737  76.0098804  94.1544744 109.1758491  76.3314443
  95.7627517 118.7626408  72.8210833  96.5568116 118.2676728  72.6193408
  95.0519210 118.2344271  72.4578539  92.0710281 112.9069490  68.8970586
  91.1407869 112.8453945  69.1140548  92.1667753 112.3845443  68.1007227
  91.9895830 109.4324303  71.4848828  92.2502647 110.3469636  71.3757988
  92.8113002 108.9648745  71.6345441  93.4620755 110.8462060  78.6547652
  94.1343808 110.6379422  78.0060301  92.6350542 110.6484146  78.2152885
  99.3646327 107.4724001  80.6713313  98.7174242 108.1713950  80.5777790
 100.1347342 107.9060145  81.0389561  99.5410461 115.3104766  78.7310133
 100.4702521 115.4615925  78.5579100  99.1201491 115.3988787  77.8758779
  98.3398793 119.3355430  76.5008671  98.2009879 118.9674215  77.3734609
  97.5513389 119.8503070  76.3292628  99.8904008 118.7137033  73.8897508
  99.5553841 118.6737803  74.7855158  99.3907954 118.0481749  73.4167919
  93.8648252 114.1204663  79.4150089  93.7268050 113.3884902  80.0161629
  94.7753176 114.0313563  79.1334277 102.8263200 116.0593067  64.1634568
 102.2092371 115.3339895  64.0667621 102.3579688 116.8202427  63.8201642
  96.4930553 113.8324622  78.9033769  97.2030171 113.1917814  78.8620388
  96.4499861 114.0837517  79.8259950  95.2059487 110.8189840  80.7229409
  94.6696844 110.3680579  81.3751005  94.6176195 110.9535749  79.9799873
  94.6161746 110.2778491  63.2855872  93.7391212 110.1567292  62.9218119
  95.0919499 109.4864570  63.0334761  86.1363886 115.0655651  73.3797379
  86.8234926 114.7517381  72.7918395  85.9812015 115.9697016  73.1064631
  90.9398608 109.9545848  77.8082403  90.8556797 109.3471517  77.0732813
  90.1181315 110.4454866  77.8091899 101.1122322 108.4399411  73.1752598
 101.6091022 107.6869374  72.8553668 100.3409304 108.4763728  72.6095807
 102.1952103 117.1971099  70.7491022 101.2608381 117.3172561  70.5795726
 102.3728771 116.2943565  70.4851031  97.6957291 110.5816794  72.9024283
  97.3255078 110.0287835  73.5905188  98.1916383 109.9774928  72.3499283
 105.5824654 113.0388418  71.2841056 106.0485106 113.8716409  71.2101358
 106.0332155 112.5733399  71.9886314  95.5246489 121.0414289  79.9979301
  96.2255949 121.6750772  80.1508695  95.0541604 121.3829021  79.2374940
 103.5541317 105.4069005  75.3231957 102.6404397 105.6373232  75.4914164
 103.9834418 105.4907449  76.1745989 103.3247775 113.5958897  77.8231851
 102.6719226 113.8434804  77.1684304 103.7028155 112.7823035  77.4894328
  99.3735348 114.3378708  84.3097888  98.6975985 114.2372837  84.9800263
 100.1962982 114.1817922  84.7733885  91.1214207 120.5750644  76.9310403
  91.7067644 119.8294332  77.0638308  90.9239046 120.8854601  77.8147067
  85.7131862 113.1456245  75.6514847  85.7515962 112.6119835  76.4451965
  85.2072155 112.6191450  75.0325824  93.0922624 107.9920785  79.1477389
  93.1563951 108.8535616  78.7354787  93.0289745 107.3794787  78.4149747
  92.5674897 110.0643918  82.7950423  93.1946936 109.6820995  83.4087947
  91.7102816 109.8458120  83.1606116  89.3440440 111.8720347  68.7268778
  89.6393881 110.9631025  68.6735832  88.4428475 111.8508086  68.4049780
  92.8734687 109.9476343  74.7096327  92.1521272 110.5612311  74.5703800
  93.6627942 110.4834108  74.6312972  95.6761000 107.2830770  80.9836978
  96.1995402 107.5293066  81.7463288  95.4573333 108.1150805  80.5640116
  91.0728281 109.5534444  68.8508103  90.7440987 108.6731823  68.6683209
  91.4267652 109.4982113  69.7384492  94.1870104 109.8407414  69.2183581
  94.5266177 110.3693335  68.4962189  94.6342225 110.1787820  69.9942147
  96.8813545 108.2244465  78.6686649  96.5410366 107.4252278  79.0707329
  96.1752552 108.5246176  78.0963482  97.5330017 105.3093777  77.1213972
  98.3556086 104.8354256  76.9992862  97.7768081 106.0884261  77.6212658
  96.1738252 108.3382036  67.4176874  96.8946614 108.7163289  66.9140590
  95.5503556 109.0570913  67.5211851 100.3169374 109.0427185  68.3535206
 100.5332989 109.9251823  68.0524034  99.8363442 108.6513398  67.6240848
  95.0568596 112.0012898  74.9305950  94.9113177 112.3153201  75.8230232
  94.5793799 112.6197798  74.3776849  96.9164979 108.9915446  74.9786840
  96.9026547 108.0956539  74.6419138  97.6337407 108.9986110  75.6125126
  98.7691109 109.4252786  77.0239967  98.5108887 110.3469857  77.0224298
  98.2376150 109.0283221  77.7140432  89.5314258 114.5418242  77.8693612
  88.9867726 115.3178050  78.0013886  90.4093608 114.8889047  77.7112733
  96.3201875 107.8729826  70.2474410  96.4417786 106.9446472  70.4465298
  96.0303917 107.8868512  69.3352726  99.1893065 105.5584737  73.3841130
  99.2114762 105.6224070  72.4293110  99.6061124 104.7189245  73.5781636
  90.3180280 113.6688139  80.7623768  89.5762016 113.8170774  81.3488399
  89.9973024 113.9296404  79.8990518  90.7636894 121.5553567  72.7934163
  91.5894913 121.2557339  72.4132807  90.4130946 120.7861190  73.2423952
  95.7318427 120.9080036  74.8631837  95.1098436 120.2450741  74.5634065
  96.4023294 120.9341167  74.1805484  88.9645499 119.4739894  73.7523097
  88.1277407 119.0462068  73.5707098  88.9369144 119.6672337  74.6893888
  95.8042954 109.3861824  84.4564343  95.8531110 110.2623946  84.0742112
  96.3465468 108.8439217  83.8835986  95.2931934 119.4583959  68.3390297
  95.4420054 120.1419423  67.6856970  96.0998377 119.4389049  68.8539753
 103.6999437 112.7626341  82.3657515 104.6009300 112.6232806  82.0741513
 103.7747412 112.9280796  83.3055693  98.0342243 110.1393196  81.2110701
  97.1645552 110.4326762  80.9393290  98.2701723 110.7233641  81.9317965
  93.0484567 115.4849137  69.3451366  92.8030609 114.5811467  69.5431576
  93.2180481 115.4866287  68.4030844 100.7381276 106.3572813  78.7276122
 101.2563220 107.0933840  78.4022610 100.3836409 106.6636806  79.5622881
  92.3180214 111.2177494  66.8437528  91.6249459 111.2921849  66.1877564
  92.0731966 110.4537838  67.3659045 100.9893871 102.7773095  74.2477018
 101.2695624 102.1096285  74.8737445 101.7744478 102.9702191  73.7351682
 104.8602729 111.1990729  77.9948593 105.8120152 111.2988827  78.0160818
 104.6906179 110.4068998  78.5046678 102.8817108 108.2846313  78.1807994
 102.2867041 108.5651325  77.4854483 102.5966805 108.7740214  78.9524736
  99.1774138 113.2892902  63.1518097 100.1233242 113.1599110  63.2206515
  98.7988383 112.5507564  63.6287525 107.4885295 111.2107893  77.1549176
 106.9724344 110.4266349  76.9679105 108.3725244 110.8826609  77.3195696
 105.1496022 104.9548908  73.1144989 104.9520843 104.6463996  73.9988321
 105.7595728 105.6810547  73.2442919  99.0612830 117.3410648  84.6118754
  99.9815840 117.5189247  84.8058801  99.0262413 116.3966694  84.4598453
  97.3617055 111.2142879  63.0872982  96.4548510 110.9175991  63.1635696
  97.6393036 110.9172697  62.2207269  88.2794995 112.5349242  73.5372029
  87.9597780 111.6814550  73.2446403  87.7328423 112.7497820  74.2929996
  92.0574903 115.2511683  77.2541535  92.2760912 116.1828791  77.2729569
  92.4700677 114.8919657  78.0396339  98.9779121 105.7579768  69.2417224
  98.1679849 105.4126853  69.6172470  99.6663537 105.4487312  69.8304835
 100.9069669 104.8357815  70.8641520 101.4600707 105.2553268  71.5231543
 101.1439755 103.9093563  70.9064476  96.9302768 110.8244889  86.6444284
  96.8299495 111.7739246  86.5756375  96.7124310 110.4963128  85.7720354
  96.1315839 108.0729814  63.2284962  96.9935003 108.3984712  63.4880779
  96.3166184 107.2861310  62.7158027  88.1483255 116.1552153  75.5065150
  87.4546727 115.7406106  74.9935105  88.8956246 116.1972690  74.9098569
 104.2848476 106.9458340  70.3720185 103.7047145 107.6043144  69.9898237
 104.0184409 106.1235685  69.9607602 102.7352042 106.3463398  72.5741505
 103.2351821 106.4579932  71.7655824 103.3787650 106.0424451  73.2142313
  96.7934038 114.2542028  85.4609346  96.3101120 115.0542388  85.6673235
  96.8794977 114.2649972  84.5076790  90.0619998 116.0870407  73.3831165
  90.0390686 116.1858094  72.4313048  90.3720634 116.9335558  73.7048331
  92.7207376 118.1446562  77.4977780  93.6750629 118.1130505  77.4307711
  92.5219899 117.6837186  78.3128006  93.3106758 116.7147678  80.0648577
  94.1299647 117.2091757  80.0883415  93.5843565 115.7979646  80.0366145
 103.0673354 109.1058431  69.4276533 102.1799209 109.3908081  69.2096728
 103.4827343 108.9452194  68.5803810 106.4187890 109.1304952  73.1430872
 107.1948280 109.6201404  73.4155489 105.6936024 109.5563006  73.6002742
 108.8560449 109.8432571  74.2004813 109.4504939 109.6028307  73.4898121
 108.9287032 109.1239701  74.8278349  91.0757604 123.6866182  74.5147978
  90.9412072 122.9266583  73.9485976  90.6589667 124.4107082  74.0476766
 103.0414378 114.6212967  69.6426823 102.9849579 115.0781518  68.8034455
 103.5942720 113.8603651  69.4649666 106.8519184 110.4102698  70.4676943
 106.5956118 110.0099334  71.2985150 106.2272052 111.1246492  70.3427082
 103.7749157 115.8117748  66.9379352 103.7197961 115.6462019  65.9967796
 103.1495212 116.5193781  67.0941542  88.5641672 111.0485812  80.7640774
  89.2100536 110.5384766  81.2528000  88.3558823 111.7854494  81.3384200
  97.0845282 105.3125857  66.5164671  97.0723952 106.2567697  66.6732941
  97.9768704 105.1296002  66.2224132 100.8997402 101.9068633  70.7710607
 100.1329798 101.3527120  70.9167290 101.3108107 101.9790502  71.6324759
  92.9039163 108.1953429  84.8615789  93.7670625 107.8390234  85.0719113
  92.3304574 107.8567324  85.5491193  36.8731260  -0.4726016  62.3923496
  37.5109670  -0.5919268  61.6886836  36.7552103   0.4754828  62.4511448
  33.6820966  -0.5198587  62.3285021  33.3439478  -0.6357523  61.4405556
  34.5510734  -0.9207422  62.3086027  29.5407782   1.3336889  58.3181912
  28.9772647   1.2426826  57.5498200  29.4260177   0.5136793  58.7984404
  34.1640749   0.6336264  68.2871226  34.1529390   0.2389063  67.4151730
  34.3261388  -0.0997663  68.8804998  27.0872214   2.8288081  61.1566132
  27.8793506   2.4878905  60.7412432  27.3268864   2.9383056  62.0768286
  35.1207340   5.0007857  53.6296377  34.4695320   5.5861937  53.2430391
  35.9151703   5.5314052  53.6891414  29.0462968   2.0896994  54.0283511
  29.8193844   1.5425981  53.8896387  29.3988366   2.9541243  54.2397973
  30.8848010   3.4173376  67.2350410  30.5937876   4.3219007  67.1197077
  31.5204994   3.4589904  67.9494480  31.8104217   0.7950225  63.8251770
  32.4067789   0.5706247  63.1108733  31.8679188   0.0534970  64.4277218
  31.3829245  -1.7510340  51.6601961  31.6354766  -2.2728819  50.8985424
  30.4453804  -1.9144195  51.7628645  36.4272528  -2.7474562  59.4676704
  37.2135617  -3.1655139  59.1167121  36.6911233  -1.8428470  59.6358353
  36.5982606   2.6898289  54.1665361  35.9628439   2.7632915  54.8786266
  36.2680012   3.2791887  53.4884440  41.8280955  -2.8099329  60.3709683
  42.5606127  -3.3800112  60.6047512  41.0720311  -3.1977728  60.8116188
  31.1025534   0.1517766  53.8626336  30.9861792  -0.5237331  54.5307420
  31.2127794  -0.3349860  53.0458489  33.4457075  -0.3872087  57.5673025
  33.0815282  -0.9141466  58.2785947  34.3024191  -0.7773618  57.3939511
  35.8437895   3.1034792  64.2300204  35.5438618   4.0059830  64.1216011
  35.4988955   2.8366975  65.0821357  29.2950377  -0.4451412  60.2636909
  28.3700873  -0.5775197  60.4714600  29.5434790   0.3342808  60.7606851
  39.2435039  -4.3782668  61.9097641  38.3351916  -4.4467260  61.6156402
  39.1922635  -3.9010723  62.7379467  33.0651783  -2.9024530  53.5481041
  32.9451408  -2.4567479  54.3866521  32.3704371  -2.5539212  52.9894579
  30.8258675   9.8679112  57.1971172  30.7482705  10.8186937  57.2759652
  30.2220319   9.5224984  57.8546098  33.3175905  -2.9593023  69.8532539
  32.5409239  -2.3999103  69.8435403  33.9566468  -2.4736240  70.3747409
  41.1096685  -6.1766230  63.6875515  40.4671066  -5.8833697  63.0415310
  40.6051614  -6.2913310  64.4928712  38.7636849  -2.4303057  54.3761375
  39.6754705  -2.1975670  54.2009072  38.2546496  -1.8466012  53.8136453
  31.5722277  -0.1507569  69.4150506  32.3136961   0.3877475  69.1385329
  30.8659263   0.4758719  69.5722058  37.0477617   1.9921571  68.0122667
  37.4560973   1.5503982  67.2677300  36.3254878   1.4174199  68.2656860
  33.4008687  -3.0705822  65.3856224  34.2469882  -2.6466408  65.5290873
  33.3407324  -3.7272198  66.0794787  37.3706431   2.5522762  61.7674956
  36.7415294   2.7168476  61.0651024  36.9832093   2.9664371  62.5385920
  41.2495663   3.4877200  59.1219320  40.5646701   3.8676101  58.5716353
  41.3339513   4.0972526  59.8551268  36.5508132  -5.4101454  67.0437398
  36.3069064  -4.6559393  66.5071674  36.8268063  -5.0316106  67.8784645
  38.5046595   1.1337159  65.7214663  38.7163490   1.7768919  65.0449044
  38.4576343   0.2999475  65.2536593  36.1072824  -6.2545021  62.6251236
  35.2457303  -5.9563767  62.9167973  36.1335258  -6.0374622  61.6932268
  32.9234393   2.2897170  59.0325041  33.3872739   2.5684873  58.2429664
  32.6591191   1.3880614  58.8498132  29.8158474   1.8368651  61.9704804
  30.3859831   2.2655920  61.3322289  30.4066586   1.5551236  62.6688990
  31.8603279  -1.5879678  55.8414606  32.5627323  -1.1358634  56.3088533
  31.5283908  -2.2295859  56.4694499  39.6192423   4.0109114  63.8937021
  40.4409867   3.6089301  63.6119702  39.6154826   3.9077348  64.8453137
  33.3849026   3.5593157  66.0497731  33.4493459   4.0213565  66.8855903
  32.6759950   2.9290522  66.1780041  47.7098416   0.3547863  60.2421992
  46.9562124  -0.2144739  60.0865997  47.8445957   0.3210527  61.1892627
  33.0997044   5.2261265  55.9176712  32.9642719   6.0712801  56.3461559
  33.6406856   5.4280543  55.1542645  26.5526441   2.7436703  56.4904637
  27.0650962   3.5379953  56.6410201  27.2049154   2.0462993  56.4238238
  28.3621326   5.8602459  58.5727390  28.5387954   6.7820424  58.3848374
  29.1578160   5.5460878  59.0021770  34.7265520   5.8484831  70.0477054
  34.2829374   5.0621210  69.7297958  35.3882734   6.0363982  69.3820944
  29.4852641   7.3780633  64.5737732  30.0360067   7.2497696  63.8014726
  28.6464117   7.6775522  64.2232625  36.8246758   6.1287631  68.0758455
  36.8065234   6.9496512  67.5838724  37.7466678   6.0041707  68.3008596
  33.2819813   3.6431761  68.9181963  33.8148149   2.8820049  68.6881271
  32.7533894   3.3505413  69.6606118  36.4139790  -1.2599562  52.9548040
  35.8986414  -0.4894957  53.1936428  36.1417099  -1.9334426  53.5781102
  41.3874064   1.4932793  54.8901214  40.6103507   1.1543952  54.4456376
  42.0665545   1.4985416  54.2156179  36.2026093  -3.3872470  54.7807821
  35.8976229  -3.0726321  55.6317965  37.1556535  -3.3091050  54.8235154
  34.6472525   2.7717753  56.4300775  34.1193887   2.0370513  56.1174013
  34.1460028   3.5492430  56.1840744  39.6265371   0.9666774  61.5467822
  38.9689046   1.6566035  61.6347950  40.4305770   1.3563206  61.8901808
  38.4370830  -0.6788854  59.5971763  38.9502712  -0.0458862  60.0993473
  39.0872054  -1.2787658  59.2315123  32.7925125   0.5897964  49.4335748
  31.8852187   0.3587217  49.6326897  33.2896157  -0.2064417  49.6209730
  35.6993204   9.2995471  52.3532435  35.0254903   9.6027167  52.9617392
  36.0859026  10.1024551  52.0037892  34.9151661  -3.2039398  61.8430104
  33.9974222  -2.9824451  61.6851792  35.3311805  -3.1293088  60.9841811
  35.6986709  -1.8047982  56.9732784  36.4458528  -1.2926585  56.6639906
  35.9678298  -2.1263930  57.8337178  33.9713359   0.6910558  53.9559738
  33.0624578   0.4069591  54.0532208  34.0008443   1.1109637  53.0963045
  39.2032626   4.3017148  57.7250906  38.7494953   3.4608058  57.7816096
  38.5726593   4.9378546  58.0625686  38.1465546  -4.7690866  58.9551573
  37.4088303  -5.2813480  59.2861816  38.3992319  -5.2090484  58.1434850
  37.6465565   6.1393645  58.6600724  37.9388540   6.6998702  57.9413090
  38.1564186   6.4322206  59.4153883  32.5198253  -1.6960821  60.0569534
  32.5746863  -2.6486985  59.9812010  31.7089455  -1.5401382  60.5410832
  33.6689447   2.2319302  51.2947817  33.2308877   1.5155161  50.8353454
  34.4099888   2.4595417  50.7332908  32.6099191   6.9173996  59.7494177
  32.5675369   7.1434842  58.8202709  33.5261890   6.6837370  59.8979979
  36.0564824  -2.6141937  66.6474807  36.4114212  -2.3870464  67.5069272
  36.7036956  -2.2823560  66.0252062  41.7862561   0.5076499  57.3524136
  41.6480460   0.6978095  56.4245325  41.4298780   1.2695882  57.8092187
  41.8131941   2.5753026  62.3635407  42.2468448   2.4828315  63.2118461
  42.5263522   2.5510527  61.7255423  30.7264991   3.7937025  59.5456140
  31.5205590   3.2987345  59.3438715  30.0156684   3.2654888  59.1823846
  35.5459836   6.1755120  63.8968508  35.5996858   6.7446057  64.6646224
  34.6774617   6.3457005  63.5322545  42.6747491   2.6176727  64.8968293
  42.8683381   3.5222537  65.1427567  42.5748109   2.1584146  65.7306878
  37.7362599   2.7683470  70.4709173  37.5848106   2.5394021  69.5539257
  37.7267279   3.7254071  70.4840518  34.5047936   0.3415382  65.4555440
  35.4339996   0.4926542  65.2824407  34.0838966   0.4299403  64.6004086
  33.3036267   4.3666047  63.2253977  33.1647353   3.9984831  64.0979915
  32.5150864   4.8813686  63.0537935  33.8984419   9.4675143  54.5679514
  34.0736175   8.9963186  55.3825136  33.2117207  10.0940909  54.7960774
  34.8541483   3.7447649  60.6142815  34.5191315   3.7048419  61.5100465
  34.3545428   3.0792365  60.1413225  28.8285727  -0.8484721  66.1395396
  28.6905525  -1.5804482  66.7406935  29.7390650  -0.9375820  65.8579584
  37.7900674   1.0903684  50.8879875  37.1729845   0.3650512  50.7912927
  37.3217163   1.8513044  50.5446949  31.4568027  -1.1364761  65.6279076
  32.1667646  -1.7771569  65.5865694  31.4137335  -0.8851866  66.5505257
  39.4454806   5.8002592  68.5485655  39.3867352   5.1161812  67.8816238
  39.8474324   6.5421582  68.0966281  28.4645505  12.6164506  61.3419374
  28.7042103  13.2483030  62.0198392  27.6214701  12.2652546  61.6284733
  39.4472213   3.7642176  66.7799635  38.5598992   3.4268098  66.9026034
  40.0170764   3.0325207  67.0168400  32.9773367   8.4243628  63.7460878
  32.9043538   9.2298600  64.2580182  32.5350760   8.6235594  62.9208899
  32.7663146   7.6615398  57.2563699  31.9830668   8.2037079  57.3501924
  33.4655891   8.1789378  57.6557941  36.0759796  -6.5289972  59.8997905
  36.5728496  -7.2820010  59.5798975  35.3046778  -6.4925655  59.3341114
  43.9289554  -0.8249607  61.5416196  43.9179430   0.0575109  61.1710129
  43.0606933  -1.1778056  61.3470733  35.4372050   8.3230462  65.9019037
  36.1500022   8.9577927  65.8294938  34.9462079   8.4194328  65.0859038
  37.1589577   2.2281715  57.4736328  36.2245856   2.3483178  57.3041033
  37.3366245   1.3254182  57.2096338  40.5462128  -1.9300966  58.0086362
  41.0122581  -1.0972974  57.9346665  40.9969629  -2.3955984  58.7131621
  30.4883964   6.0724906  66.7224607  31.1893423   6.7061389  66.8754002
  30.0179079   6.4139637  65.9620247  38.6138359   4.4142856  55.0072514
  38.8898203   4.2999450  55.9166388  37.7442858   4.0160341  54.9684687
  38.2885250  -1.3730487  64.5477158  37.6356700  -1.1254579  63.8929610
  38.6665629  -2.1866348  64.2139635  35.2492423   8.6629206  58.6505328
  35.4314818   7.8450862  59.1133080  36.0725409   8.8796899  58.2130218
  35.5834589   7.5897392  55.9120376  36.1122355   7.0789846  55.2990539
  35.8462809   7.2739922  56.7765909  34.3372823  -0.6310676  71.0343195
  33.6613460  -0.7316546  71.7045570  35.1600457  -0.7871462  71.4979192
  26.0851682   5.6061261  63.6555710  26.6705119   4.8604949  63.7883614
  25.8876520   5.9165218  64.5392374  28.9390337   8.6412508  58.6718152
  28.2700712   9.1258636  58.1882192  28.8003207   8.8881729  59.5861531
  33.0795606  10.6756252  65.2700811  33.6313914  10.8387873  66.0349896
  33.4201799  11.2660690  64.5980836  37.9306480   5.5017509  71.1249465
  38.4746384   6.1147468  70.6304420  37.3493325   6.0597088  71.6416478
  36.2163993   8.6238227  62.2564493  36.0915132   7.8227967  61.7475438
  36.8743084   9.1184421  61.7678463  38.2798901   6.4247247  63.8844043
  37.3329237   6.3052599  63.8122370  38.6281674   5.5369745  63.9670304
  35.2845334   6.2199964  60.0848395  35.1370297   5.2916671  60.2655965
  36.1098828   6.2420054  59.6005470  38.8879456   7.0428522  61.1713268
  39.8126004   6.8371384  61.0337719  38.7194760   6.7944924  62.0802609
  38.6774773   7.5614190  56.5275359  38.8511650   6.9960612  55.7749212
  39.1703664   8.3615085  56.3454849  44.5314164   0.3250613  58.1465659
  44.9745310  -0.4242062  57.7484782  43.6540674   0.3160749  57.7639391
  39.6649945   6.8780954  53.6272258  40.3600850   7.4987647  53.8459572
  40.0073095   6.0276305  53.9024636  41.5641368   4.3280660  55.1559588
  42.0892692   4.6667933  54.4308909  41.4763721   3.3927675  54.9722723
  33.2261417   8.2414733  67.2849465  33.5348543   7.9963880  68.1572165
  34.0236899   8.4461372  66.7968335  33.2482029  10.3952643  59.5154842
  32.8087019   9.9029022  60.2087698  33.9990146   9.8525611  59.2746917
  25.7274368   6.5864184  59.5179470  26.5532388   6.2867956  59.1378113
  25.3768420   5.8171806  59.9669258  30.6955901   5.9390652  61.5877143
  30.0735910   5.2761357  61.2879371  31.3660768   5.9651784  60.9050791
  23.9282973   4.5050510  60.4768403  23.0914881   4.0772685  60.2952405
  23.9006618   4.6982954  61.4139195  41.2535274   4.9613563  70.4610786
  40.4630818   4.9437702  69.9215286  41.0168629   5.5001857  71.2159823
  41.3733149   1.8106030  67.7743515  41.4231154   1.6456037  68.7159038
  41.2647073   0.9433289  67.3841396  30.2569408   4.4894575  55.0635604
  30.4057528   5.1730040  54.4102277  31.0635851   4.4699666  55.5785060
  38.6636912  -2.2063042  69.0902822  39.5646774  -2.3456577  68.7986819
  38.7384886  -2.0408587  70.0300999  42.8751346   4.2302971  68.0185537
  42.5836154   4.5932952  68.8548997  42.2623477   3.5169980  67.8398869
  44.0747028   1.7955851  60.5388107  44.9093920   2.2345655  60.7025667
  44.2106157   1.3194504  59.7196353  41.1238534  -0.6464414  66.4865595
  41.5992656  -0.4536768  65.6784446  40.2004100  -0.5905228  66.2408978
  28.0122041   0.5159753  56.0696673  27.7668083  -0.3877917  56.2676883
  28.1817955   0.5176904  55.1276151  33.7564813   6.9842706  52.5347351
  33.1838781   7.6032893  52.0817823  34.3297607   7.5342068  53.0687273
  39.8240203  -3.7698654  64.7193900  40.7757626  -3.6700556  64.7406124
  39.6543654  -4.5620385  65.2291984  37.8454583  -6.6843071  64.9053301
  37.2504515  -6.4038058  64.2099790  37.5604279  -6.1949170  65.6770042
  36.9762073   7.2679856  53.6655934  37.9092746   7.2025418  53.8688809
  36.8885286   8.1036123  53.2070466  39.6050090   6.5845726  50.6259881
  39.5263721   6.2505590  51.5195639  40.4259757   7.0767494  50.6251354
  42.3028281  -0.5492534  63.8336200  42.2704601  -1.4876534  64.0195884
  42.9128905  -0.4708498  63.1002025  34.1411612  -1.6796481  49.8763404
  35.0870717  -1.8090273  49.9451822  33.7625857  -2.4181819  50.3532832
  42.4522770  -3.7581491  63.8794483  41.9361818  -4.5423034  63.6924412
  43.3362718  -4.0862774  64.0441002  48.1204831   0.5123473  62.9742237
  48.8508219   0.2508761  63.5349940  47.5111776  -0.2247806  63.0144305
  46.2020128  -1.3468665  63.5716688  45.4753292  -1.4812700  62.9633179
  45.7867415  -1.0391836  64.3773406  34.0250304   2.3721265  71.3364061
  34.9453314   2.5499864  71.5304107  33.9899888   1.4277310  71.1843760
  27.0212377   0.2822299  63.9786842  27.2398387   1.2139407  63.9974876
  27.4338151  -0.0769726  64.7641646  39.2485950  -8.0231043  57.0965491
  38.6684619  -7.3646239  56.7143544  38.9821883  -8.8453699  56.6852909
  31.7571512  -0.7147356  72.1854653  31.2738594   0.0853004  72.3918542
  31.8432451  -0.7039411  71.2322097  25.0257472   1.1181024  60.1076472
  25.0028160   1.2168711  59.1558355  25.3358109   1.9646175  60.4293638
  27.6844850   3.1757179  64.2223086  28.6388103   3.1441121  64.1553018
  27.4857373   2.7147803  65.0373312  28.2744232   1.7458295  66.7893884
  29.0937121   2.2402373  66.8128721  28.5481040   0.8290263  66.7611451
  38.0310828  -5.8630953  56.1521840  37.1436683  -5.5781302  55.9342034
  38.4464817  -6.0237190  55.3049116  41.3825364  -5.8384432  59.8676179
  42.1585754  -5.3487979  60.1400796  40.6573499  -5.4126378  60.3248048
  43.8197923  -5.1256813  60.9250119  44.4142414  -5.3661077  60.2143428
  43.8924507  -5.8449682  61.5523656  26.0395079   8.7176798  61.2393284
  25.9049547   7.9577199  60.6731282  25.6227141   9.4417698  60.7722073
  37.1754042   3.9013722  50.2469859  37.8789892   4.1063724  50.8627515
  36.4516690   4.4690484  50.5118943  38.0051852  -0.3476417  56.3672130
  37.9487053   0.1092134  55.5279762  38.5580194  -1.1085732  56.1894972
  41.8156658  -4.5586685  57.1922249  41.5593592  -4.9590049  58.0230457
  41.1909526  -3.8442891  57.0672388  46.1268996  -1.8190612  59.6993541
  45.5668554  -1.7497423  60.4725103  45.5212499  -1.9949627  58.9793037
  29.1964205   9.6146115  61.4511727  29.0796589  10.5591548  61.3490417
  28.3756651   9.3119677  61.8397526  39.0840739   4.3396251  52.2968320
  39.9186343   3.9077449  52.1145794  38.9225082   4.1678265  53.2245214
  38.7386631   0.8428364  53.6624659  38.6835435   0.6772636  52.7213103
  38.1132687   1.5504397  53.8186849  36.0532538   3.1477276  72.9878222
  36.9223698   3.3217928  72.6264857  35.5739290   3.9671693  72.8653951
  30.2218719  10.2674377  64.6667655  31.1245965  10.2997987  64.9834150
  29.9956089   9.3374828  64.6813991  31.9772321   9.0205364  61.3277734
  31.0267952   9.0207225  61.2142106  32.2804807   8.2738098  60.8113769
  47.7125014  14.8565902  62.3923496  48.3503424  14.7372649  61.6886836
  47.5945857  15.8046746  62.4511448  44.5214720  14.8093330  62.3285021
  44.1833232  14.6934395  61.4405556  45.3904489  14.4084495  62.3086027
  40.3801536  16.6628807  58.3181912  39.8166401  16.5718744  57.5498200
  40.2653931  15.8428711  58.7984404  45.0034503  15.9628182  68.2871226
  44.9923144  15.5680980  67.4151730  45.1655143  15.2294255  68.8804998
  37.9265968  18.1579998  61.1566132  38.7187260  17.8170823  60.7412432
  38.1662618  18.2674973  62.0768286  45.9601095  20.3299774  53.6296377
  45.3089075  20.9153855  53.2430391  46.7545458  20.8605969  53.6891414
  39.8856722  17.4188911  54.0283511  40.6587598  16.8717899  53.8896387
  40.2382121  18.2833161  54.2397973  41.7241765  18.7465294  67.2350410
  41.4331631  19.6510925  67.1197077  42.3598749  18.7881821  67.9494480
  42.6497971  16.1242142  63.8251770  43.2461544  15.8998165  63.1108733
  42.7072943  15.3826888  64.4277218  42.2223000  13.5781578  51.6601961
  42.4748521  13.0563099  50.8985424  41.2847559  13.4147723  51.7628645
  47.2666283  12.5817356  59.4676704  48.0529372  12.1636779  59.1167121
  47.5304987  13.4863448  59.6358353  47.4376360  18.0190206  54.1665361
  46.8022193  18.0924833  54.8786266  47.1073766  18.6083805  53.4884440
  52.6674710  12.5192589  60.3709683  53.3999882  11.9491806  60.6047512
  51.9114066  12.1314190  60.8116188  41.9419289  15.4809684  53.8626336
  41.8255547  14.8054587  54.5307420  42.0521548  14.9942057  53.0458489
  44.2850830  14.9419831  57.5673025  43.9209037  14.4150452  58.2785947
  45.1417945  14.5518300  57.3939511  50.1900130   6.2314163  64.8304291
  49.8583455   7.1009574  64.6065506  49.5945744   5.9150447  65.5098322
  43.9256317   9.9709730  52.5634374  44.0930719  10.8389967  52.9304845
  43.7353486  10.1337012  51.6395663  46.6831650  18.4326709  64.2300204
  46.3832373  19.3351748  64.1216011  46.3382709  18.1658892  65.0821357
  40.1344131  14.8840506  60.2636909  39.2094628  14.7516720  60.4714600
  40.3828544  15.6634725  60.7606851  50.0828793  10.9509249  61.9097641
  49.1745671  10.8824658  61.6156402  50.0316389  11.4281194  62.7379467
  43.9045537  12.4267388  53.5481041  43.7845163  12.8724439  54.3866521
  43.2098126  12.7752706  52.9894579  37.4952942  14.5273780  61.0980698
  37.6245323  14.7808259  62.0120109  36.8150394  15.1201488  60.7785353
  41.6652429  25.1971030  57.1971172  41.5876459  26.1478855  57.2759652
  41.0614073  24.8516902  57.8546098  44.1569659  12.3698895  69.8532539
  43.3802993  12.9292815  69.8435403  44.7960222  12.8555678  70.3747409
  51.9490440   9.1525688  63.6875515  51.3064820   9.4458221  63.0415310
  51.4445368   9.0378608  64.4928712  49.6030604  12.8988861  54.3761375
  50.5148460  13.1316248  54.2009072  49.0940251  13.4825905  53.8136453
  42.4116032  15.1784348  69.4150506  43.1530716  15.7169392  69.1385329
  41.7053017  15.8050637  69.5722058  47.8871371  17.3213489  68.0122667
  48.2954727  16.8795899  67.2677300  47.1648633  16.7466116  68.2656860
  44.2402441  12.2586096  65.3856224  45.0863636  12.6825509  65.5290873
  44.1801079  11.6019720  66.0794787  48.2100186  17.8814679  61.7674956
  47.5809048  18.0460394  61.0651024  47.8225848  18.2956289  62.5385920
  52.0889418  18.8169117  59.1219320  51.4040456  19.1968019  58.5716353
  52.1733267  19.4264444  59.8551268  47.3901887   9.9190464  67.0437398
  47.1462818  10.6732525  66.5071674  47.6661817  10.2975812  67.8784645
  49.3440349  16.4629076  65.7214663  49.5557245  17.1060836  65.0449044
  49.2970098  15.6291393  65.2536593  46.9466578   9.0746897  62.6251236
  46.0851057   9.3728151  62.9167973  46.9729013   9.2917296  61.6932268
  43.7628148  17.6189088  59.0325041  44.2266493  17.8976791  58.2429664
  43.4984946  16.7172532  58.8498132  40.6552229  17.1660569  61.9704804
  41.2253586  17.5947837  61.3322289  41.2460341  16.8843154  62.6688990
  42.6997034  13.7412240  55.8414606  43.4021077  14.1933284  56.3088533
  42.3677662  13.0996059  56.4694499  41.1477395  12.3323997  70.2165816
  40.5176056  13.0140277  70.4501213  41.0413483  12.2207078  69.2718954
  36.4422368  11.9995793  61.1431740  35.6521422  12.2553321  60.6671851
  36.9333615  12.8144130  61.2483780  50.4586177  19.3401032  63.8937021
  51.2803621  18.9381219  63.6119702  50.4548580  19.2369266  64.8453137
  38.3937113  12.3640372  58.1015217  37.5968276  12.4759066  58.6198712
  38.1662705  12.7027024  57.2356107  44.2242781  18.8885075  66.0497731
  44.2887213  19.3505482  66.8855903  43.5153705  18.2582440  66.1780041
  34.7260071  12.2526283  63.5746731  34.9768109  13.1373293  63.8404307
  35.2619619  12.0730885  62.8021823  58.5492170  15.6839780  60.2421992
  57.7955879  15.1147178  60.0865997  58.6839712  15.6502445  61.1892627
  43.9390798  20.5553183  55.9176712  43.8036473  21.4004718  56.3461559
  44.4800611  20.7572460  55.1542645  40.4258138   6.6344762  72.5791067
  40.0325084   6.0810961  73.2538711  41.2424278   6.9455341  72.9697584
  37.3920196  18.0728621  56.4904637  37.9044716  18.8671871  56.6410201
  38.0442909  17.3754911  56.4238238  39.2015080  21.1894377  58.5727390
  39.3781709  22.1112342  58.3848374  39.9971914  20.8752796  59.0021770
  43.3426099   8.0502641  70.1711323  44.0835812   8.6509795  70.0915786
  43.5744022   7.3080279  69.6129366  38.4867437  13.2359009  68.4489553
  38.3720952  12.3344266  68.7496652  37.6311955  13.4822706  68.0974370
  45.5659275  21.1776749  70.0477054  45.1223129  20.3913128  69.7297958
  46.2276488  21.3655900  69.3820944  40.3246396  22.7072551  64.5737732
  40.8753821  22.5789614  63.8014726  39.4857872  23.0067440  64.2232625
  47.6640513  21.4579549  68.0758455  47.6458988  22.2788430  67.5838724
  48.5860433  21.3333624  68.3008596  44.1213567  18.9723678  68.9181963
  44.6541904  18.2111967  68.6881271  43.5927648  18.6797330  69.6606118
  47.2883262   4.0783744  64.4475605  46.9447531   4.9685386  64.3714716
  47.6562225   3.8885402  63.5845190  35.3569113  16.4017275  57.2664207
  36.1944335  16.8114283  57.0497915  35.5347380  15.4616717  57.2364401
  47.2533545  14.0692356  52.9548040  46.7380168  14.8396960  53.1936428
  46.9810853  13.3957492  53.5781102  44.8380656   8.9142056  58.0133279
  43.9822252   8.5248907  57.8338917  45.2507607   8.9934017  57.1533064
  46.3679802   6.4488400  62.4124838  45.8644598   6.4118535  61.5992644
  46.6610409   7.3581142  62.4721495  42.6122688   6.5327129  61.4191020
  43.4775685   6.3369938  61.0596910  42.6800197   6.3037481  62.3460377
  52.2267819  16.8224710  54.8901214  51.4497262  16.4835870  54.4456376
  52.9059300  16.8277333  54.2156179  47.0419848  11.9419448  54.7807821
  46.7369983  12.2565597  55.6317965  47.9950290  12.0200868  54.8235154
  45.4866280  18.1009671  56.4300775  44.9587641  17.3662431  56.1174013
  44.9853782  18.8784347  56.1840744  50.4659126  16.2958691  61.5467822
  49.8082800  16.9857953  61.6347950  51.2699525  16.6855123  61.8901808
  40.2185007   8.7629337  58.7907387  40.7928759   8.5404519  58.0580580
  40.8055990   8.8318032  59.5435988  49.2764585  14.6503064  59.5971763
  49.7896466  15.2833056  60.0993473  49.9265808  14.0504260  59.2315123
  40.5454594  10.7933798  52.8103272  39.7091907  11.1308485  53.1312547
  40.4059364  10.6582778  51.8730409  42.5207675   5.6370586  57.5182456
  41.8672087   5.3219603  56.8939071  42.4788149   5.0146327  58.2442279
  43.6318880  15.9189881  49.4335748  42.7245942  15.6879135  49.6326897
  44.1289912  15.1227500  49.6209730  46.5386959  24.6287388  52.3532435
  45.8648658  24.9319085  52.9617392  46.9252781  25.4316469  52.0037892
  45.7545415  12.1252520  61.8430104  44.8367977  12.3467467  61.6851792
  46.1705559  12.1998830  60.9841811  46.5380463  13.5243935  56.9732784
  47.2852282  14.0365333  56.6639906  46.8072053  13.2027988  57.8337178
  44.8107113  16.0202476  53.9559738  43.9018333  15.7361509  54.0532208
  44.8402197  16.4401555  53.0963045  50.0426381  19.6309066  57.7250906
  49.5888708  18.7899975  57.7816096  49.4120347  20.2670464  58.0625686
  48.9859300  10.5601052  58.9551573  48.2482057  10.0478438  59.2861816
  49.2386074  10.1201433  58.1434850  48.4859320  21.4685562  58.6600724
  48.7782294  22.0290619  57.9413090  48.9957941  21.7614123  59.4153883
  49.0870928   3.3377304  59.5493343  49.3929804   2.4774667  59.2619258
  49.8123532   3.9294924  59.3492337  35.3795284  13.7407990  57.9374941
  35.1819684  13.1477351  57.2126007  34.8241948  13.4360200  58.6550879
  43.3592007  13.6331097  60.0569534  43.4140617  12.6804933  59.9812010
  42.5483209  13.7890536  60.5410832  44.5083201  17.5611220  51.2947817
  44.0702631  16.8447079  50.8353454  45.2493642  17.7887335  50.7332908
  41.2984367  12.2508156  57.8159913  40.4852233  12.5502327  58.2225105
  41.7943361  11.8563845  58.5334395  43.4492945  22.2465913  59.7494177
  43.4069124  22.4726760  58.8202709  44.3655644  22.0129288  59.8979979
  46.8958579  12.7149981  66.6474807  47.2507967  12.9421454  67.5069272
  47.5430710  13.0468358  66.0252062  52.6256316  15.8368417  57.3524136
  52.4874215  16.0270013  56.4245325  52.2692535  16.5987800  57.8092187
  40.7898442   9.8226512  63.4321148  41.4297821   9.6815271  62.7344111
  39.9575973   9.5361025  63.0559750  52.6525696  17.9044944  62.3635407
  53.0862202  17.8120233  63.2118461  53.3657276  17.8802444  61.7255423
  41.5658746  19.1228942  59.5456140  42.3599344  18.6279263  59.3438715
  40.8550438  18.5946806  59.1823846  46.3853590  21.5047038  63.8968508
  46.4390613  22.0737974  64.6646224  45.5168372  21.6748923  63.5322545
  37.8741509  13.2672024  55.6215893  36.9439098  13.2056480  55.8385855
  37.9698981  12.7447977  54.8252534  37.7927058   9.7926837  58.2094134
  38.0533876  10.7072170  58.1003295  38.6144231   9.3251280  58.3590747
  39.2651984  11.2064594  65.3792959  39.9375037  10.9981956  64.7305608
  38.4381770  11.0086680  64.9398191  53.5141245  17.9468644  64.8968293
  53.7077135  18.8514455  65.1427567  53.4141863  17.4876064  65.7306878
  45.1677556   7.8326535  67.3958620  44.5205471   8.5316485  67.3023096
  45.9378571   8.2662679  67.7634868  48.5756354  18.0975387  70.4709173
  48.4241860  17.8685939  69.5539257  48.5661033  19.0545989  70.4840518
  45.3441690  15.6707300  65.4555440  46.2733750  15.8218460  65.2824407
  44.9232720  15.7591321  64.6004086  44.1430022  19.6957964  63.2253977
  44.0041108  19.3276749  64.0979915  43.3544618  20.2105604  63.0537935
  44.7378174  24.7967061  54.5679514  44.9129930  24.3255104  55.3825136
  44.0510962  25.4232827  54.7960774  45.6935237  19.0739567  60.6142815
  45.3585070  19.0340337  61.5100465  45.1939183  18.4084283  60.1413225
  39.6679481  14.4807197  66.1395396  39.5299279  13.7487436  66.7406935
  40.5784405  14.3916097  65.8579584  48.6294429  16.4195601  50.8879875
  48.0123599  15.6942430  50.7912927  48.1610917  17.1804962  50.5446949
  42.2961782  14.1927156  65.6279076  43.0061400  13.5520349  65.5865694
  42.2531090  14.4440051  66.5505257  50.2848560  21.1294510  68.5485655
  50.2261107  20.4453730  67.8816238  50.6868079  21.8713500  68.0966281
  41.0090716  11.1792374  67.4474715  40.4728073  10.7283113  68.0996312
  40.4207424  11.3138283  66.7045180  39.3039259  27.9456424  61.3419374
  39.5435857  28.5774948  62.0198392  38.4608456  27.5944464  61.6284733
  40.4192975  10.6381026  50.0101179  39.5422441  10.5169826  49.6463426
  40.8950728   9.8467104  49.7580068  50.2865968  19.0934094  66.7799635
  49.3992746  18.7560015  66.9026034  50.8564519  18.3617125  67.0168400
  31.9395115  15.4258185  60.1042686  32.6266155  15.1119915  59.5163701
  31.7843243  16.3299550  59.8309937  36.7429837  10.3148382  64.5327710
  36.6588026   9.7074052  63.7978120  35.9212543  10.8057400  64.5337206
  43.8167121  23.7535546  63.7460878  43.7437293  24.5590518  64.2580182
  43.3744514  23.9527512  62.9208899  43.6056901  22.9907316  57.2563699
  42.8224423  23.5328996  57.3501924  44.3049646  23.5081296  57.6557941
  46.9153551   8.8001946  59.8997905  47.4122250   8.0471908  59.5798975
  46.1440532   8.8366262  59.3341114  54.7683308  14.5042311  61.5416196
  54.7573184  15.3867026  61.1710129  53.9000688  14.1513862  61.3470733
  46.2765805  23.6522380  65.9019037  46.9893777  24.2869845  65.8294938
  45.7855833  23.7486246  65.0859038  47.9983331  17.5573633  57.4736328
  47.0639610  17.6775095  57.3041033  48.1760000  16.6546100  57.2096338
  43.4988520  10.9419329  59.6269589  43.1286307  10.3890369  60.3150495
  43.9947612  10.3377462  59.0744589  51.3855883  13.3990952  58.0086362
  51.8516335  14.2318944  57.9346665  51.8363383  12.9335934  58.7131621
  41.3277718  21.4016824  66.7224607  42.0287178  22.0353307  66.8754002
  40.8572833  21.7431555  65.9620247  49.4532114  19.7434773  55.0072514
  49.7291958  19.6291368  55.9166388  48.5836613  19.3452258  54.9684687
  49.3572546   5.7671539  62.0477264  48.4435625   5.9975766  62.2159471
  49.7865647   5.8509983  62.8991296  49.1279004  13.9561431  64.5477158
  48.4750454  14.2037338  63.8929610  49.5059384  13.1425569  64.2139635
  46.0886178  23.9921124  58.6505328  46.2708572  23.1742780  59.1133080
  46.9119164  24.2088816  58.2130218  46.4228343  22.9189309  55.9120376
  46.9516110  22.4081764  55.2990539  46.6856563  22.6031840  56.7765909
  45.1766577  14.6981242  71.0343195  44.5007214  14.5975371  71.7045570
  45.9994211  14.5420456  71.4979192  36.9245436  20.9353179  63.6555710
  37.5098873  20.1896866  63.7883614  36.7270275  21.2457135  64.5392374
  39.7784091  23.9704426  58.6718152  39.1094467  24.4550554  58.1882192
  39.6396961  24.2173646  59.5861531  31.5163091  13.5058779  62.3760153
  31.5547190  12.9722369  63.1697271  31.0103384  12.9793984  61.7571130
  43.9189360  26.0048169  65.2700811  44.4707668  26.1679791  66.0349896
  44.2595553  26.5952607  64.5980836  38.8953853   8.3523319  65.8722695
  38.9595180   9.2138150  65.4600093  38.8320973   7.7397321  65.1395054
  38.3706126  10.4246452  69.5195730  38.9978165  10.0423529  70.1333254
  37.5134045  10.2060654  69.8851422  48.7700234  20.8309427  71.1249465
  49.3140138  21.4439385  70.6304420  48.1887079  21.3889005  71.6416478
  35.1471669  12.2322881  55.4514085  35.4425110  11.3233559  55.3981138
  34.2459704  12.2110620  55.1295087  47.0557747  23.9530145  62.2564493
  46.9308887  23.1519885  61.7475438  47.7136838  24.4476338  61.7678463
  38.6765916  10.3078878  61.4341633  37.9552501  10.9214845  61.2949106
  39.4659171  10.8436642  61.3558279  49.1192656  21.7539165  63.8844043
  48.1722991  21.6344516  63.8122370  49.4675429  20.8661663  63.9670304
  41.4792229   7.6433304  67.7082285  42.0026631   7.8895601  68.4708594
  41.2604562   8.4753339  67.2885422  36.8759510   9.9136979  55.5753410
  36.5472216   9.0334358  55.3928516  37.2298881   9.8584647  56.4629799
  46.1239089  21.5491881  60.0848395  45.9764051  20.6208589  60.2655965
  46.9492582  21.5711972  59.6005470  39.9901333  10.2009948  55.9428887
  40.3297406  10.7295870  55.2207496  40.4373454  10.5390355  56.7187454
  49.7273211  22.3720440  61.1713268  50.6519758  22.1663301  61.0337719
  49.5588514  22.1236841  62.0802609  42.6844774   8.5846999  65.3931955
  42.3441594   7.7854812  65.7952635  41.9783780   8.8848710  64.8208789
  43.3361246   5.6696312  63.8459278  44.1587315   5.1956790  63.7238169
  43.5799309   6.4486795  64.3457965  41.9769480   8.6984570  54.1422180
  42.6977843   9.0765823  53.6385897  41.3534785   9.4173447  54.2457158
  46.1200603   9.4029719  55.0780512  46.3364218  10.2854357  54.7769341
  45.6394670   9.0115932  54.3486154  40.8599825  12.3615432  61.6551257
  40.7144405  12.6755735  62.5475539  40.3825028  12.9800333  61.1022156
  42.7196208   9.3517980  61.7032147  42.7057776   8.4559073  61.3664445
  43.4368636   9.3588644  62.3370433  44.5722338   9.7855320  63.7485274
  44.3140116  10.7072391  63.7469604  44.0407379   9.3885755  64.4385738
  49.5168527  22.8906107  56.5275359  49.6905405  22.3252530  55.7749212
  50.0097418  23.6907002  56.3454849  35.3345487  14.9020777  64.5938918
  34.7898955  15.6780585  64.7259193  36.2124837  15.2491581  64.4358040
  42.1233103   8.2332360  56.9719717  42.2449015   7.3049007  57.1710604
  41.8335146   8.2471046  56.0598032  44.9924294   5.9187271  60.1086437
  45.0145991   5.9826604  59.1538416  45.4092353   5.0791780  60.3026943
  55.3707918  15.6542530  58.1465659  55.8139064  14.9049856  57.7484782
  54.4934428  15.6452667  57.7639391  50.5043699  22.2072872  53.6272258
  51.1994604  22.8279565  53.8459572  50.8466850  21.3568223  53.9024636
  36.1211509  14.0290673  67.4869075  35.3793245  14.1773308  68.0733706
  35.8004253  14.2898938  66.6235825  52.4035123  19.6572577  55.1559588
  52.9286447  19.9959850  54.4308909  52.3157475  18.7219593  54.9722723
  44.0655171  23.5706651  67.2849465  44.3742298  23.3255798  68.1572165
  44.8630653  23.7753290  66.7968335  44.0875783  25.7244561  59.5154842
  43.6480774  25.2320939  60.2087698  44.8383900  25.1817528  59.2746917
  36.5668122  21.9156102  59.5179470  37.3926142  21.6159873  59.1378113
  36.2162174  21.1463724  59.9669258  41.5349656  21.2682570  61.5877143
  40.9129665  20.6053275  61.2879371  42.2054522  21.2943702  60.9050791
  34.7676727  19.8342428  60.4768403  33.9308636  19.4064602  60.2952405
  34.7400373  20.0274871  61.4139195  41.6074183   9.7464358  71.1809649
  41.6562338  10.6226481  70.7987419  42.1496697   9.2041751  70.6081293
  52.0929029  20.2905481  70.4610786  51.3024572  20.2729620  69.9215286
  51.8562383  20.8293775  71.2159823  52.2126904  17.1397947  67.7743515
  52.2624909  16.9747955  68.7159038  52.1040827  16.2725206  67.3841396
  41.0963162  19.8186493  55.0635604  41.2451283  20.5021958  54.4102277
  41.9029606  19.7991583  55.5785060  49.5030666  13.1228875  69.0902822
  50.4040529  12.9835340  68.7986819  49.5778641  13.2883330  70.0300999
  43.8373471  10.4995730  67.9356008  42.9676781  10.7929296  67.6638597
  44.0732952  11.0836175  68.6563272  53.7145101  19.5594889  68.0185537
  53.4229909  19.9224870  68.8548997  53.1017232  18.8461897  67.8398869
  54.9140783  17.1247769  60.5388107  55.7487674  17.5637573  60.7025667
  55.0499912  16.6486422  59.7196353  51.9632289  14.6827504  66.4865595
  52.4386410  14.8755150  65.6784446  51.0397854  14.7386689  66.2408978
  38.8515795  15.8451671  56.0696673  38.6061837  14.9414001  56.2676883
  39.0211710  15.8468821  55.1276151  46.5412505   6.7175347  65.4521428
  47.0594449   7.4536374  65.1267917  46.1867638   7.0239340  66.2868188
  38.1211443  11.5780028  53.5682834  37.4280688  11.6524383  52.9122870
  37.8763195  10.8140372  54.0904351  46.7925099   3.1375630  60.9722325
  47.0726853   2.4698819  61.5982752  47.5775706   3.3304725  60.4596989
  44.5958568  22.3134624  52.5347351  44.0232535  22.9324811  52.0817823
  45.1691362  22.8633985  53.0687273  50.6633958  11.5593264  64.7193900
  51.6151381  11.6591361  64.7406124  50.4937408  10.7671532  65.2291984
  48.6848337   8.6448847  64.9053301  48.0898269   8.9253860  64.2099790
  48.3998034   9.1342748  65.6770042  47.8155828  22.5971774  53.6655934
  48.7486501  22.5317335  53.8688809  47.7279041  23.4328041  53.2070466
  50.4443844  21.9137644  50.6259881  50.3657476  21.5797508  51.5195639
  51.2653511  22.4059412  50.6251354  53.1422036  14.7799383  63.8336200
  53.1098356  13.8415384  64.0195884  53.7522659  14.8583420  63.1002025
  44.9805366  13.6495436  49.8763404  45.9264471  13.5201644  49.9451822
  44.6019611  12.9110098  50.3532832  53.2916524  11.5710427  63.8794483
  52.7755573  10.7868883  63.6924412  54.1756473  11.2429143  64.0441002
  50.9527251   5.3151442  59.8390296  50.7552072   5.0066531  60.7233628
  51.5626957   6.0413081  59.9688225  58.9598585  15.8415390  62.9742237
  59.6901974  15.5800678  63.5349940  58.3505531  15.1044112  63.0144305
  57.0413883  13.9823253  63.5716688  56.3147046  13.8479218  62.9633179
  56.6261169  14.2900081  64.3773406  44.8644059  17.7013182  71.3364061
  45.7847068  17.8791781  71.5304107  44.8293642  16.7569228  71.1843760
  43.1648284  11.5745413  49.8118289  42.2579739  11.2778525  49.8881003
  43.4424265  11.2775231  48.9452575  34.0826224  12.8951776  60.2617335
  33.7629008  12.0417084  59.9691709  33.5359652  13.1100354  61.0175303
  37.8606132  15.6114217  63.9786842  38.0792141  16.5431325  63.9974876
  38.2731905  15.2522192  64.7641646  44.7810349   6.1182302  55.9662530
  43.9711078   5.7729387  56.3417776  45.4694766   5.8089846  56.5550142
  46.7100898   5.1960349  57.5886827  47.2631936   5.6155803  58.2476850
  46.9470984   4.2696097  57.6309783  42.7333997  11.1847423  73.3689591
  42.6330724  12.1341780  73.3001682  42.5155539  10.8565662  72.4965661
  41.9347068   8.4332348  49.9530268  42.7966232   8.7587246  50.2126086
  42.1197412   7.6463844  49.4403334  33.9514484  16.5154688  62.2310457
  33.2577955  16.1008640  61.7180411  34.6987475  16.5575224  61.6343876
  50.0879705   7.3060874  57.0965491  49.5078374   7.9645678  56.7143544
  49.8215637   6.4838219  56.6852909  48.5383271   6.7065932  59.2986812
  49.0383049   6.8182467  58.4901130  49.1818879   6.4026985  59.9387620
  42.5965267  14.6144562  72.1854653  42.1132349  15.4144922  72.3918542
  42.6826206  14.6252507  71.2322097  35.8651227  16.4472941  60.1076472
  35.8421915  16.5460629  59.1558355  36.1751863  17.2938092  60.4293638
  38.5238604  18.5049096  64.2223086  39.4781858  18.4733039  64.1553018
  38.3251128  18.0439720  65.0373312  39.1137987  17.0750212  66.7893884
  39.9330876  17.5694291  66.8128721  39.3874794  16.1582181  66.7611451
  48.8704583   9.4660965  56.1521840  47.9830438   9.7510615  55.9342034
  49.2858572   9.3054728  55.3049116  52.2219119   9.4907486  59.8676179
  52.9979509   9.9803938  60.1400796  51.4967253   9.9165540  60.3248048
  54.6591677  10.2035105  60.9250119  55.2536168   9.9630841  60.2143428
  54.7318261   9.4842236  61.5523656  36.8788833  24.0468716  61.2393284
  36.7443301  23.2869117  60.6731282  36.4620895  24.7709616  60.7722073
  48.0147796  19.2305639  50.2469859  48.7183646  19.4355642  50.8627515
  47.2910445  19.7982401  50.5118943  48.8445606  14.9815501  56.3672130
  48.7880808  15.4384052  55.5279762  49.3973949  14.2206185  56.1894972
  52.6550412  10.7705233  57.1922249  52.3987347  10.3701868  58.0230457
  52.0303280  11.4849027  57.0672388  56.9662750  13.5101306  59.6993541
  56.4062308  13.5794495  60.4725103  56.3606254  13.3342290  58.9793037
  40.0357959  24.9438033  61.4511727  39.9190343  25.8883465  61.3490417
  39.2150405  24.6411595  61.8397526  49.9234494  19.6688169  52.2968320
  50.7580098  19.2369367  52.1145794  49.7618837  19.4970182  53.2245214
  49.5780386  16.1720282  53.6624659  49.5229190  16.0064553  52.7213103
  48.9526441  16.8796315  53.8186849  34.3672901  11.4088346  67.4886081
  35.0131764  10.8987300  67.9773306  34.1590052  12.1457028  68.0629506
  46.8926293  18.4769194  72.9878222  47.7617453  18.6509846  72.6264857
  46.4133044  19.2963611  72.8653951  42.8876511   5.6728391  53.2409977
  42.8755181   6.6170231  53.3978248  43.7799933   5.4898536  52.9469438
  41.0612473  25.5966295  64.6667655  41.9639720  25.6289905  64.9834150
  40.8349843  24.6666746  64.6813991  42.8166075  24.3497281  61.3277734
  41.8661706  24.3499143  61.2142106  43.1198561  23.6030016  60.8113769
  46.7028631   2.2671168  57.4955914  45.9361026   1.7129654  57.6412596
  47.1139336   2.3393036  58.3570066  38.7070392   8.5555963  71.5861095
  39.5701853   8.1992768  71.7964420  38.1335802   8.2169858  72.2736500
  58.5518769  30.1857820  62.3923496  59.1897179  30.0664567  61.6886836
  58.4339612  31.1338664  62.4511448  55.3608475  30.1385248  62.3285021
  55.0226986  30.0226313  61.4405556  56.2298243  29.7376413  62.3086027
  51.2195291  31.9920724  58.3181912  50.6560156  31.9010661  57.5498200
  51.1047686  31.1720629  58.7984404  55.8428258  31.2920100  68.2871226
  55.8316899  30.8972898  67.4151730  56.0048897  30.5586172  68.8804998
  56.7994849  35.6591692  53.6296377  56.1482829  36.2445772  53.2430391
  57.5939212  36.1897887  53.6891414  52.5635519  34.0757211  67.2350410
  52.2725385  34.9802842  67.1197077  53.1992503  34.1173739  67.9494480
  53.4891726  31.4534060  63.8251770  54.0855298  31.2290082  63.1108733
  53.5466697  30.7118805  64.4277218  53.0616754  28.9073495  51.6601961
  53.3142275  28.3855017  50.8985424  52.1241313  28.7439641  51.7628645
  58.1060037  27.9109274  59.4676704  58.8923126  27.4928697  59.1167121
  58.3698741  28.8155366  59.6358353  58.2770115  33.3482124  54.1665361
  57.6415947  33.4216750  54.8786266  57.9467521  33.9375723  53.4884440
  63.5068464  27.8484507  60.3709683  64.2393636  27.2783724  60.6047512
  62.7507820  27.4606107  60.8116188  52.7813043  30.8101601  53.8626336
  52.6649301  30.1346505  54.5307420  52.8915303  30.3233975  53.0458489
  55.1244584  30.2711748  57.5673025  54.7602791  29.7442369  58.2785947
  55.9811700  29.8810217  57.3939511  61.0293885  21.5606081  64.8304291
  60.6977209  22.4301492  64.6065506  60.4339498  21.2442365  65.5098322
  54.7650071  25.3001648  52.5634374  54.9324473  26.1681884  52.9304845
  54.5747240  25.4628930  51.6395663  57.5225404  33.7618627  64.2300204
  57.2226127  34.6643666  64.1216011  57.1776464  33.4950810  65.0821357
  50.9737886  30.2132424  60.2636909  50.0488382  30.0808638  60.4714600
  51.2222299  30.9926643  60.7606851  60.9222548  26.2801167  61.9097641
  60.0139425  26.2116576  61.6156402  60.8710144  26.7573112  62.7379467
  54.7439292  27.7559306  53.5481041  54.6238917  28.2016356  54.3866521
  54.0491880  28.1044623  52.9894579  48.3346697  29.8565697  61.0980698
  48.4639078  30.1100176  62.0120109  47.6544148  30.4493405  60.7785353
  54.9963414  27.6990813  69.8532539  54.2196748  28.2584733  69.8435403
  55.6353977  28.1847596  70.3747409  62.7884194  24.4817606  63.6875515
  62.1458575  24.7750139  63.0415310  62.2839123  24.3670526  64.4928712
  60.4424358  28.2280779  54.3761375  61.3542214  28.4608165  54.2009072
  59.9334005  28.8117823  53.8136453  53.2509786  30.5076266  69.4150506
  53.9924470  31.0461310  69.1385329  52.5446772  31.1342555  69.5722058
  58.7265126  32.6505407  68.0122667  59.1348482  32.2087817  67.2677300
  58.0042387  32.0758034  68.2656860  55.0796196  27.5878013  65.3856224
  55.9257391  28.0117427  65.5290873  55.0194833  26.9311638  66.0794787
  59.0493940  33.2106597  61.7674956  58.4202803  33.3752311  61.0651024
  58.6619602  33.6248207  62.5385920  62.9283172  34.1461035  59.1219320
  62.2434210  34.5259936  58.5716353  63.0127022  34.7556362  59.8551268
  58.2295641  25.2482382  67.0437398  57.9856573  26.0024442  66.5071674
  58.5055572  25.6267729  67.8784645  60.1834104  31.7920994  65.7214663
  60.3950999  32.4352754  65.0449044  60.1363852  30.9583311  65.2536593
  57.7860333  24.4038815  62.6251236  56.9244812  24.7020068  62.9167973
  57.8122767  24.6209214  61.6932268  54.6021902  32.9481005  59.0325041
  55.0660248  33.2268708  58.2429664  54.3378700  32.0464450  58.8498132
  53.5390788  29.0704158  55.8414606  54.2414832  29.5225201  56.3088533
  53.2071417  28.4287976  56.4694499  51.9871150  27.6615914  70.2165816
  51.3569810  28.3432195  70.4501213  51.8807238  27.5498996  69.2718954
  47.2816122  27.3287710  61.1431740  46.4915176  27.5845239  60.6671851
  47.7727370  28.1436048  61.2483780  61.2979932  34.6692949  63.8937021
  62.1197376  34.2673137  63.6119702  61.2942335  34.5661184  64.8453137
  49.2330868  27.6932290  58.1015217  48.4362031  27.8050984  58.6198712
  49.0056460  28.0318942  57.2356107  55.0636535  34.2176993  66.0497731
  55.1280968  34.6797400  66.8855903  54.3547459  33.5874358  66.1780041
  45.5653825  27.5818201  63.5746731  45.8161864  28.4665211  63.8404307
  46.1013374  27.4022802  62.8021823  69.3885925  31.0131698  60.2421992
  68.6349633  30.4439096  60.0865997  69.5233466  30.9794362  61.1892627
  51.2651893  21.9636680  72.5791067  50.8718838  21.4102879  73.2538711
  52.0818033  22.2747259  72.9697584  54.1819854  23.3794559  70.1711323
  54.9229567  23.9801712  70.0915786  54.4137776  22.6372197  69.6129366
  49.3261192  28.5650926  68.4489553  49.2114707  27.6636184  68.7496652
  48.4705709  28.8114623  68.0974370  56.4053029  36.5068667  70.0477054
  55.9616883  35.7205045  69.7297958  57.0670243  36.6947817  69.3820944
  58.5034267  36.7871467  68.0758455  58.4852743  37.6080348  67.5838724
  59.4254187  36.6625542  68.3008596  54.9607322  34.3015596  68.9181963
  55.4935658  33.5403884  68.6881271  54.4321403  34.0089248  69.6606118
  58.1277016  19.4075662  64.4475605  57.7841286  20.2977304  64.3714716
  58.4955979  19.2177320  63.5845190  58.0927299  29.3984273  52.9548040
  57.5773923  30.1688878  53.1936428  57.8204608  28.7249409  53.5781102
  55.6774410  24.2433974  58.0133279  54.8216007  23.8540824  57.8338917
  56.0901362  24.3225935  57.1533064  57.2073557  21.7780317  62.4124838
  56.7038352  21.7410452  61.5992644  57.5004164  22.6873060  62.4721495
  53.4516443  21.8619047  61.4191020  54.3169440  21.6661856  61.0596910
  53.5193952  21.6329399  62.3460377  63.0661573  32.1516628  54.8901214
  62.2891016  31.8127787  54.4456376  63.7453054  32.1569251  54.2156179
  57.8813602  27.2711365  54.7807821  57.5763738  27.5857514  55.6317965
  58.8344044  27.3492785  54.8235154  56.3260034  33.4301589  56.4300775
  55.7981396  32.6954348  56.1174013  55.8247537  34.2076265  56.1840744
  61.3052880  31.6250609  61.5467822  60.6476555  32.3149871  61.6347950
  62.1093279  32.0147041  61.8901808  51.0578762  24.0921255  58.7907387
  51.6322514  23.8696436  58.0580580  51.6449744  24.1609949  59.5435988
  60.1158339  29.9794982  59.5971763  60.6290221  30.6124974  60.0993473
  60.7659563  29.3796177  59.2315123  51.3848349  26.1225716  52.8103272
  50.5485661  26.4600402  53.1312547  51.2453119  25.9874696  51.8730409
  53.3601430  20.9662504  57.5182456  52.7065842  20.6511521  56.8939071
  53.3181904  20.3438244  58.2442279  54.4712634  31.2481799  49.4335748
  53.5639696  31.0171052  49.6326897  54.9683666  30.4519418  49.6209730
  57.3780713  39.9579306  52.3532435  56.7042412  40.2611003  52.9617392
  57.7646535  40.7608386  52.0037892  56.5939170  27.4544437  61.8430104
  55.6761731  27.6759384  61.6851792  57.0099314  27.5290748  60.9841811
  57.3774218  28.8535853  56.9732784  58.1246037  29.3657250  56.6639906
  57.6465807  28.5319906  57.8337178  55.6500868  31.3494394  53.9559738
  54.7412087  31.0653427  54.0532208  55.6795952  31.7693472  53.0963045
  60.8820135  34.9600983  57.7250906  60.4282462  34.1191893  57.7816096
  60.2514102  35.5962382  58.0625686  59.8253055  25.8892969  58.9551573
  59.0875812  25.3770356  59.2861816  60.0779828  25.4493351  58.1434850
  59.3253074  36.7977480  58.6600724  59.6176049  37.3582537  57.9413090
  59.8351695  37.0906041  59.4153883  59.9264682  18.6669221  59.5493343
  60.2323559  17.8066585  59.2619258  60.6517287  19.2586841  59.3492337
  46.2189038  29.0699908  57.9374941  46.0213438  28.4769269  57.2126007
  45.6635702  28.7652118  58.6550879  54.1985762  28.9623014  60.0569534
  54.2534372  28.0096851  59.9812010  53.3876964  29.1182453  60.5410832
  55.3476956  32.8903137  51.2947817  54.9096386  32.1738996  50.8353454
  56.0887396  33.1179252  50.7332908  52.1378122  27.5800074  57.8159913
  51.3245987  27.8794245  58.2225105  52.6337116  27.1855763  58.5334395
  57.7352333  28.0441899  66.6474807  58.0901721  28.2713372  67.5069272
  58.3824465  28.3760275  66.0252062  63.4650070  31.1660334  57.3524136
  63.3267969  31.3561930  56.4245325  63.1086289  31.9279717  57.8092187
  51.6292197  25.1518430  63.4321148  52.2691576  25.0107189  62.7344111
  50.7969727  24.8652943  63.0559750  63.4919450  33.2336861  62.3635407
  63.9255957  33.1412151  63.2118461  64.2051031  33.2094362  61.7255423
  57.2247345  36.8338956  63.8968508  57.2784367  37.4029892  64.6646224
  56.3562126  37.0040841  63.5322545  48.7135264  28.5963942  55.6215893
  47.7832852  28.5348397  55.8385855  48.8092736  28.0739895  54.8252534
  48.6320813  25.1218755  58.2094134  48.8927630  26.0364088  58.1003295
  49.4537985  24.6543197  58.3590747  50.1045738  26.5356512  65.3792959
  50.7768792  26.3273874  64.7305608  49.2775525  26.3378598  64.9398191
  64.3535000  33.2760562  64.8968293  64.5470890  34.1806373  65.1427567
  64.2535618  32.8167981  65.7306878  56.0071310  23.1618453  67.3958620
  55.3599225  23.8608402  67.3023096  56.7772326  23.5954597  67.7634868
  59.4150108  33.4267305  70.4709173  59.2635615  33.1977857  69.5539257
  59.4054788  34.3837906  70.4840518  56.1835445  30.9999218  65.4555440
  57.1127505  31.1510377  65.2824407  55.7626475  31.0883238  64.6004086
  54.9823776  35.0249882  63.2253977  54.8434862  34.6568666  64.0979915
  54.1938373  35.5397521  63.0537935  56.5328992  34.4031485  60.6142815
  56.1978824  34.3632255  61.5100465  56.0332937  33.7376201  60.1413225
  50.5073236  29.8099115  66.1395396  50.3693033  29.0779354  66.7406935
  51.4178159  29.7208015  65.8579584  59.4688183  31.7487519  50.8879875
  58.8517354  31.0234347  50.7912927  59.0004672  32.5096879  50.5446949
  53.1355536  29.5219074  65.6279076  53.8455155  28.8812266  65.5865694
  53.0924844  29.7731969  66.5505257  61.1242315  36.4586427  68.5485655
  61.0654861  35.7745648  67.8816238  61.5261833  37.2005417  68.0966281
  51.8484470  26.5084292  67.4474715  51.3121827  26.0575030  68.0996312
  51.2601179  26.6430201  66.7045180  51.2586729  25.9672943  50.0101179
  50.3816195  25.8461744  49.6463426  51.7344482  25.1759022  49.7580068
  61.1259722  34.4226011  66.7799635  60.2386501  34.0851933  66.9026034
  61.6958273  33.6909043  67.0168400  42.7788869  30.7550103  60.1042686
  43.4659909  30.4411833  59.5163701  42.6236998  31.6591468  59.8309937
  47.5823591  25.6440300  64.5327710  47.4981780  25.0365969  63.7978120
  46.7606298  26.1349318  64.5337206  57.7547305  24.1293863  59.8997905
  58.2516005  23.3763826  59.5798975  56.9834287  24.1658180  59.3341114
  65.6077063  29.8334229  61.5416196  65.5966939  30.7158944  61.1710129
  64.7394442  29.4805780  61.3470733  57.1159559  38.9814298  65.9019037
  57.8287531  39.6161763  65.8294938  56.6249588  39.0778164  65.0859038
  58.8377086  32.8865550  57.4736328  57.9033365  33.0067013  57.3041033
  59.0153754  31.9838017  57.2096338  54.3382274  26.2711246  59.6269589
  53.9680062  25.7182287  60.3150495  54.8341367  25.6669380  59.0744589
  62.2249637  28.7282870  58.0086362  62.6910090  29.5610861  57.9346665
  62.6757138  28.2627851  58.7131621  52.1671473  36.7308741  66.7224607
  52.8680932  37.3645224  66.8754002  51.6966588  37.0723473  65.9620247
  60.2925868  35.0726691  55.0072514  60.5685712  34.9583286  55.9166388
  59.4230367  34.6744176  54.9684687  60.1966300  21.0963457  62.0477264
  59.2829380  21.3267684  62.2159471  60.6259402  21.1801901  62.8991296
  59.9672759  29.2853349  64.5477158  59.3144209  29.5329256  63.8929610
  60.3453138  28.4717487  64.2139635  57.2622098  38.2481227  55.9120376
  57.7909864  37.7373682  55.2990539  57.5250318  37.9323757  56.7765909
  56.0160332  30.0273160  71.0343195  55.3400969  29.9267289  71.7045570
  56.8387965  29.8712373  71.4979192  42.3556845  28.8350696  62.3760153
  42.3940945  28.3014287  63.1697271  41.8497138  28.3085902  61.7571130
  49.7347608  23.6815237  65.8722695  49.7988934  24.5430068  65.4600093
  49.6714728  23.0689239  65.1395054  49.2099880  25.7538370  69.5195730
  49.8371919  25.3715447  70.1333254  48.3527799  25.5352571  69.8851422
  59.6093989  36.1601345  71.1249465  60.1533893  36.7731303  70.6304420
  59.0280834  36.7180923  71.6416478  45.9865423  27.5614799  55.4514085
  46.2818864  26.6525477  55.3981138  45.0853459  27.5402538  55.1295087
  49.5159670  25.6370795  61.4341633  48.7946256  26.2506763  61.2949106
  50.3052926  26.1728560  61.3558279  59.9586410  37.0831083  63.8844043
  59.0116746  36.9636434  63.8122370  60.3069183  36.1953581  63.9670304
  52.3185984  22.9725222  67.7082285  52.8420385  23.2187518  68.4708594
  52.0998317  23.8045257  67.2885422  47.7153265  25.2428896  55.5753410
  47.3865971  24.3626275  55.3928516  48.0692635  25.1876565  56.4629799
  50.8295088  25.5301866  55.9428887  51.1691160  26.0587787  55.2207496
  51.2767208  25.8682272  56.7187454  60.5666965  37.7012358  61.1713268
  61.4913513  37.4955219  61.0337719  60.3982269  37.4528759  62.0802609
  53.5238529  23.9138917  65.3931955  53.1835349  23.1146730  65.7952635
  52.8177535  24.2140628  64.8208789  54.1755000  20.9988229  63.8459278
  54.9981070  20.5248707  63.7238169  54.4193064  21.7778713  64.3457965
  52.8163235  24.0276488  54.1422180  53.5371597  24.4057740  53.6385897
  52.1928539  24.7465364  54.2457158  56.9594358  24.7321637  55.0780512
  57.1757972  25.6146275  54.7769341  56.4788425  24.3407850  54.3486154
  51.6993579  27.6907350  61.6551257  51.5538160  28.0047653  62.5475539
  51.2218783  28.3092250  61.1022156  53.5589962  24.6809898  61.7032147
  53.5451531  23.7850991  61.3664445  54.2762390  24.6880562  62.3370433
  55.4116093  25.1147238  63.7485274  55.1533871  26.0364309  63.7469604
  54.8801133  24.7177673  64.4385738  60.3562281  38.2198025  56.5275359
  60.5299159  37.6544448  55.7749212  60.8491173  39.0198920  56.3454849
  46.1739241  30.2312694  64.5938918  45.6292709  31.0072502  64.7259193
  47.0518591  30.5783499  64.4358040  52.9626858  23.5624278  56.9719717
  53.0842769  22.6340924  57.1710604  52.6728900  23.5762964  56.0598032
  55.8318048  21.2479189  60.1086437  55.8539745  21.3118522  59.1538416
  56.2486107  20.4083697  60.3026943  66.2101673  30.9834448  58.1465659
  66.6532819  30.2341773  57.7484782  65.3328183  30.9744584  57.7639391
  61.3437454  37.5364790  53.6272258  62.0388359  38.1571482  53.8459572
  61.6860604  36.6860141  53.9024636  46.9605263  29.3582591  67.4869075
  46.2186999  29.5065226  68.0733706  46.6398007  29.6190856  66.6235825
  63.2428877  34.9864495  55.1559588  63.7680201  35.3251768  54.4308909
  63.1551230  34.0511510  54.9722723  54.9048926  38.8998569  67.2849465
  55.2136052  38.6547716  68.1572165  55.7024408  39.1045207  66.7968335
  52.4467937  25.0756276  71.1809649  52.4956093  25.9518398  70.7987419
  52.9890452  24.5333669  70.6081293  62.9322783  35.6197399  70.4610786
  62.1418327  35.6021538  69.9215286  62.6956138  36.1585692  71.2159823
  63.0520658  32.4689865  67.7743515  63.1018663  32.3039873  68.7159038
  62.9434582  31.6017124  67.3841396  60.3424421  28.4520793  69.0902822
  61.2434283  28.3127258  68.7986819  60.4172395  28.6175248  70.0300999
  54.6767226  25.8287648  67.9356008  53.8070535  26.1221214  67.6638597
  54.9126706  26.4128093  68.6563272  64.5538855  34.8886807  68.0185537
  64.2623663  35.2516787  68.8548997  63.9410986  34.1753815  67.8398869
  65.7534537  32.4539686  60.5388107  66.5881429  32.8929490  60.7025667
  65.8893666  31.9778340  59.7196353  62.8026043  30.0119421  66.4865595
  63.2780165  30.2047068  65.6784446  61.8791609  30.0678607  66.2408978
  49.6909550  31.1743588  56.0696673  49.4455592  30.2705918  56.2676883
  49.8605464  31.1760739  55.1276151  57.3806260  22.0467265  65.4521428
  57.8988204  22.7828292  65.1267917  57.0261393  22.3531258  66.2868188
  48.9605197  26.9071946  53.5682834  48.2674442  26.9816301  52.9122870
  48.7156949  26.1432290  54.0904351  57.6318854  18.4667547  60.9722325
  57.9120608  17.7990736  61.5982752  58.4169461  18.6596643  60.4596989
  55.4352322  37.6426541  52.5347351  54.8626290  38.2616728  52.0817823
  56.0085116  38.1925903  53.0687273  61.5027712  26.8885181  64.7193900
  62.4545135  26.9883279  64.7406124  61.3331163  26.0963450  65.2291984
  59.5242092  23.9740765  64.9053301  58.9292024  24.2545777  64.2099790
  59.2391788  24.4634666  65.6770042  58.6549582  37.9263691  53.6655934
  59.5880255  37.8609253  53.8688809  58.5672795  38.7619958  53.2070466
  61.2837599  37.2429562  50.6259881  61.2051230  36.9089425  51.5195639
  62.1047266  37.7351330  50.6251354  63.9815790  30.1091301  63.8336200
  63.9492110  29.1707302  64.0195884  64.5916414  30.1875338  63.1002025
  55.8199121  28.9787354  49.8763404  56.7658226  28.8493562  49.9451822
  55.4413366  28.2402016  50.3532832  64.1310279  26.9002344  63.8794483
  63.6149327  26.1160801  63.6924412  65.0150227  26.5721061  64.0441002
  61.7921005  20.6443360  59.8390296  61.5945827  20.3358448  60.7233628
  62.4020711  21.3704999  59.9688225  69.7992340  31.1707308  62.9742237
  70.5295728  30.9092596  63.5349940  69.1899285  30.4336030  63.0144305
  67.8807637  29.3115170  63.5716688  67.1540801  29.1771135  62.9633179
  67.4654924  29.6191999  64.3773406  55.7037813  33.0305100  71.3364061
  56.6240823  33.2083699  71.5304107  55.6687397  32.0861146  71.1843760
  54.0042038  26.9037330  49.8118289  53.0973493  26.6070443  49.8881003
  54.2818019  26.6067148  48.9452575  44.9219978  28.2243694  60.2617335
  44.6022763  27.3709002  59.9691709  44.3753407  28.4392272  61.0175303
  48.6999886  30.9406135  63.9786842  48.9185896  31.8723243  63.9974876
  49.1125660  30.5814109  64.7641646  55.6204104  21.4474220  55.9662530
  54.8104832  21.1021305  56.3417776  56.3088521  21.1381764  56.5550142
  57.5494652  20.5252267  57.5886827  58.1025691  20.9447720  58.2476850
  57.7864738  19.5988015  57.6309783  53.5727751  26.5139341  73.3689591
  53.4724478  27.4633698  73.3001682  53.3549293  26.1857579  72.4965661
  52.7740823  23.7624266  49.9530268  53.6359987  24.0879164  50.2126086
  52.9591167  22.9755762  49.4403334  44.7908238  31.8446605  62.2310457
  44.0971710  31.4300558  61.7180411  45.5381229  31.8867142  61.6343876
  60.9273459  22.6352792  57.0965491  60.3472128  23.2937596  56.7143544
  60.6609392  21.8130137  56.6852909  59.3777026  22.0357850  59.2986812
  59.8776804  22.1474384  58.4901130  60.0212633  21.7318903  59.9387620
  53.4359021  29.9436479  72.1854653  52.9526103  30.7436840  72.3918542
  53.5219960  29.9544424  71.2322097  46.7044981  31.7764859  60.1076472
  46.6815669  31.8752546  59.1558355  47.0145617  32.6230010  60.4293638
  49.9531741  32.4042130  66.7893884  50.7724630  32.8986209  66.8128721
  50.2268549  31.4874098  66.7611451  59.7098337  24.7952882  56.1521840
  58.8224192  25.0802533  55.9342034  60.1252326  24.6346646  55.3049116
  63.0612873  24.8199403  59.8676179  63.8373263  25.3095856  60.1400796
  62.3361008  25.2457458  60.3248048  65.4985432  25.5327023  60.9250119
  66.0929923  25.2922759  60.2143428  65.5712016  24.8134153  61.5523656
  58.8541551  34.5597557  50.2469859  59.5577401  34.7647560  50.8627515
  58.1304199  35.1274319  50.5118943  59.6839361  30.3107418  56.3672130
  59.6274562  30.7675970  55.5279762  60.2367703  29.5498103  56.1894972
  63.4944167  26.0997150  57.1922249  63.2381101  25.6993786  58.0230457
  62.8697035  26.8140944  57.0672388  67.8056505  28.8393224  59.6993541
  67.2456063  28.9086413  60.4725103  67.2000008  28.6634208  58.9793037
  60.7628248  34.9980086  52.2968320  61.5973852  34.5661285  52.1145794
  60.6012591  34.8262100  53.2245214  60.4174140  31.5012200  53.6624659
  60.3622944  31.3356471  52.7213103  59.7920196  32.2088233  53.8186849
  45.2066655  26.7380264  67.4886081  45.8525519  26.2279218  67.9773306
  44.9983806  27.4748946  68.0629506  57.7320047  33.8061112  72.9878222
  58.6011207  33.9801764  72.6264857  57.2526799  34.6255528  72.8653951
  53.7270266  21.0020309  53.2409977  53.7148936  21.9462149  53.3978248
  54.6193688  20.8190454  52.9469438  57.5422385  17.5963085  57.4955914
  56.7754781  17.0421572  57.6412596  57.9533090  17.6684954  58.3570066
  49.5464146  23.8847881  71.5861095  50.4095608  23.5284686  71.7964420
  48.9729557  23.5461776  72.2736500  66.2002229  45.4677166  62.3285021
  65.8620741  45.3518230  61.4405556  67.0691998  45.0668331  62.3086027
  62.0589045  47.3212642  58.3181912  61.4953910  47.2302579  57.5498200
  61.9441440  46.5012546  58.7984404  66.6822012  46.6212017  68.2871226
  66.6710653  46.2264816  67.4151730  66.8442652  45.8878090  68.8804998
  67.6388604  50.9883610  53.6296377  66.9876584  51.5737690  53.2430391
  68.4332967  51.5189805  53.6891414  68.9453792  43.2401191  59.4676704
  69.7316881  42.8220614  59.1167121  69.2092496  44.1447283  59.6358353
  69.1163869  48.6774042  54.1665361  68.4809702  48.7508668  54.8786266
  68.7861275  49.2667640  53.4884440  74.3462219  43.1776425  60.3709683
  75.0787391  42.6075641  60.6047512  73.5901574  42.7898025  60.8116188
  63.6206798  46.1393519  53.8626336  63.5043056  45.4638422  54.5307420
  63.7309057  45.6525893  53.0458489  65.9638339  45.6003666  57.5673025
  65.5996546  45.0734287  58.2785947  66.8205454  45.2102135  57.3939511
  71.8687639  36.8897999  64.8304291  71.5370964  37.7593410  64.6065506
  71.2733253  36.5734283  65.5098322  65.6043825  40.6293566  52.5634374
  65.7718228  41.4973802  52.9304845  65.4140995  40.7920847  51.6395663
  71.7616302  41.6093085  61.9097641  70.8533180  41.5408493  61.6156402
  71.7103898  42.0865030  62.7379467  65.5833046  43.0851223  53.5481041
  65.4632672  43.5308274  54.3866521  64.8885635  43.4336541  52.9894579
  65.8357168  43.0282730  69.8532539  65.0590502  43.5876651  69.8435403
  66.4747731  43.5139513  70.3747409  73.6277949  39.8109523  63.6875515
  72.9852329  40.1042056  63.0415310  73.1232877  39.6962444  64.4928712
  71.2818113  43.5572696  54.3761375  72.1935969  43.7900083  54.2009072
  70.7727760  44.1409741  53.8136453  64.0903541  45.8368184  69.4150506
  64.8318225  46.3753228  69.1385329  63.3840526  46.4634472  69.5722058
  65.9189950  42.9169931  65.3856224  66.7651145  43.3409345  65.5290873
  65.8588588  42.2603555  66.0794787  73.7676927  49.4752953  59.1219320
  73.0827965  49.8551854  58.5716353  73.8520776  50.0848279  59.8551268
  69.0689396  40.5774299  67.0437398  68.8250327  41.3316360  66.5071674
  69.3449326  40.9559647  67.8784645  68.6254087  39.7330732  62.6251236
  67.7638566  40.0311986  62.9167973  68.6516522  39.9501131  61.6932268
  64.3784543  44.3996075  55.8414606  65.0808586  44.8517119  56.3088533
  64.0465171  43.7579894  56.4694499  62.8264904  42.9907832  70.2165816
  62.1963565  43.6724113  70.4501213  62.7200992  42.8790914  69.2718954
  60.0724622  43.0224207  58.1015217  59.2755785  43.1342901  58.6198712
  59.8450214  43.3610859  57.2356107  80.2279679  46.3423616  60.2421992
  79.4743388  45.7731014  60.0865997  80.3627221  46.3086280  61.1892627
  62.1045647  37.2928598  72.5791067  61.7112593  36.7394796  73.2538711
  62.9211787  37.6039176  72.9697584  65.0213608  38.7086477  70.1711323
  65.7623321  39.3093630  70.0915786  65.2531531  37.9664115  69.6129366
  67.2446784  51.8360584  70.0477054  66.8010638  51.0496963  69.7297958
  67.9063997  52.0239735  69.3820944  68.9670771  34.7367580  64.4475605
  68.6235040  35.6269221  64.3714716  69.3349734  34.5469237  63.5845190
  66.5168165  39.5725892  58.0133279  65.6609761  39.1832742  57.8338917
  66.9295116  39.6517852  57.1533064  68.0467311  37.1072235  62.4124838
  67.5432107  37.0702370  61.5992644  68.3397918  38.0164978  62.4721495
  64.2910197  37.1910965  61.4191020  65.1563194  36.9953773  61.0596910
  64.3587706  36.9621316  62.3460377  73.9055328  47.4808546  54.8901214
  73.1284771  47.1419705  54.4456376  74.5846809  47.4861169  54.2156179
  68.7207357  42.6003283  54.7807821  68.4157492  42.9149432  55.6317965
  69.6737799  42.6784703  54.8235154  67.1653789  48.7593506  56.4300775
  66.6375150  48.0246266  56.1174013  66.6641291  49.5368183  56.1840744
  61.8972516  39.4213173  58.7907387  62.4716268  39.1988354  58.0580580
  62.4843499  39.4901867  59.5435988  62.2242103  41.4517634  52.8103272
  61.3879416  41.7892320  53.1312547  62.0846873  41.3166613  51.8730409
  64.1995184  36.2954421  57.5182456  63.5459596  35.9803439  56.8939071
  64.1575658  35.6730162  58.2442279  67.4332924  42.7836355  61.8430104
  66.5155486  43.0051302  61.6851792  67.8493068  42.8582666  60.9841811
  68.2167972  44.1827771  56.9732784  68.9639791  44.6949168  56.6639906
  68.4859562  43.8611823  57.8337178  66.4894622  46.6786311  53.9559738
  65.5805842  46.3945344  54.0532208  66.5189706  47.0985390  53.0963045
  70.6646809  41.2184887  58.9551573  69.9269566  40.7062273  59.2861816
  70.9173583  40.7785269  58.1434850  70.7658437  33.9961139  59.5493343
  71.0717313  33.1358502  59.2619258  71.4911041  34.5878759  59.3492337
  65.0379516  44.2914932  60.0569534  65.0928126  43.3388768  59.9812010
  64.2270718  44.4474371  60.5410832  62.9771876  42.9091992  57.8159913
  62.1639742  43.2086162  58.2225105  63.4730870  42.5147681  58.5334395
  68.5746088  43.3733816  66.6474807  68.9295476  43.6005289  67.5069272
  69.2218219  43.7052193  66.0252062  74.3043825  46.4952252  57.3524136
  74.1661723  46.6853848  56.4245325  73.9480044  47.2571635  57.8092187
  62.4685951  40.4810347  63.4321148  63.1085330  40.3399106  62.7344111
  61.6363482  40.1944861  63.0559750  59.4714567  40.4510672  58.2094134
  59.7321385  41.3656006  58.1003295  60.2931740  39.9835115  58.3590747
  60.9439493  41.8648429  65.3792959  61.6162546  41.6565792  64.7305608
  60.1169279  41.6670515  64.9398191  66.8465065  38.4910370  67.3958620
  66.1992980  39.1900320  67.3023096  67.6166080  38.9246514  67.7634868
  70.2543863  48.7559223  70.4709173  70.1029369  48.5269774  69.5539257
  70.2448542  49.7129824  70.4840518  62.6878225  41.8376210  67.4474715
  62.1515582  41.3866948  68.0996312  62.0994933  41.9722118  66.7045180
  58.4217346  40.9732217  64.5327710  58.3375535  40.3657887  63.7978120
  57.6000052  41.4641236  64.5337206  68.5941060  39.4585781  59.8997905
  69.0909759  38.7055743  59.5798975  67.8228041  39.4950098  59.3341114
  76.4470817  45.1626146  61.5416196  76.4360693  46.0450862  61.1710129
  75.5788197  44.8097697  61.3470733  69.6770840  48.2157468  57.4736328
  68.7427119  48.3358931  57.3041033  69.8547509  47.3129935  57.2096338
  65.1776029  41.6003164  59.6269589  64.8073816  41.0474204  60.3150495
  65.6735121  40.9961297  59.0744589  73.0643392  44.0574787  58.0086362
  73.5303844  44.8902779  57.9346665  73.5150892  43.5919769  58.7131621
  71.1319623  50.4018609  55.0072514  71.4079467  50.2875203  55.9166388
  70.2624122  50.0036094  54.9684687  71.0360055  36.4255374  62.0477264
  70.1223134  36.6559601  62.2159471  71.4653156  36.5093818  62.8991296
  66.8554086  45.3565077  71.0343195  66.1794723  45.2559207  71.7045570
  67.6781720  45.2004291  71.4979192  60.5741362  39.0107155  65.8722695
  60.6382689  39.8721986  65.4600093  60.5108482  38.3981156  65.1395054
  60.0493635  41.0830287  69.5195730  60.6765674  40.7007365  70.1333254
  59.1921554  40.8644489  69.8851422  60.3553424  40.9662713  61.4341633
  59.6340010  41.5798681  61.2949106  61.1446680  41.5020478  61.3558279
  63.1579738  38.3017139  67.7082285  63.6814140  38.5479436  68.4708594
  62.9392071  39.1337174  67.2885422  58.5547019  40.5720814  55.5753410
  58.2259725  39.6918193  55.3928516  58.9086390  40.5168483  56.4629799
  61.6688842  40.8593784  55.9428887  62.0084915  41.3879705  55.2207496
  62.1160963  41.1974190  56.7187454  64.3632283  39.2430834  65.3931955
  64.0229103  38.4438648  65.7952635  63.6571289  39.5432545  64.8208789
  65.0148755  36.3280147  63.8459278  65.8374824  35.8540625  63.7238169
  65.2586818  37.1070631  64.3457965  63.6556989  39.3568405  54.1422180
  64.3765352  39.7349658  53.6385897  63.0322293  40.0757282  54.2457158
  67.7988112  40.0613554  55.0780512  68.0151727  40.9438192  54.7769341
  67.3182179  39.6699768  54.3486154  62.5387334  43.0199268  61.6551257
  62.3931914  43.3339571  62.5475539  62.0612537  43.6384168  61.1022156
  64.3983717  40.0101816  61.7032147  64.3845285  39.1142909  61.3664445
  65.1156145  40.0172479  62.3370433  66.2509847  40.4439156  63.7485274
  65.9927625  41.3656226  63.7469604  65.7194888  40.0469590  64.4385738
  63.8020612  38.8916196  56.9719717  63.9236524  37.9632842  57.1710604
  63.5122655  38.9054882  56.0598032  66.6711803  36.5771106  60.1086437
  66.6933500  36.6410439  59.1538416  67.0879862  35.7375615  60.3026943
  77.0495427  46.3126366  58.1465659  77.4926573  45.5633691  57.7484782
  76.1721937  46.3036502  57.7639391  63.2861692  40.4048193  71.1809649
  63.3349847  41.2810316  70.7987419  63.8284206  39.8625586  70.6081293
  71.1818175  43.7812711  69.0902822  72.0828038  43.6419176  68.7986819
  71.2566150  43.9467166  70.0300999  65.5160980  41.1579566  67.9356008
  64.6464290  41.4513132  67.6638597  65.7520461  41.7420011  68.6563272
  76.5928292  47.7831604  60.5388107  77.4275183  48.2221408  60.7025667
  76.7287421  47.3070257  59.7196353  73.6419798  45.3411339  66.4865595
  74.1173919  45.5338985  65.6784446  72.7185363  45.3970525  66.2408978
  68.2200014  37.3759183  65.4521428  68.7381958  38.1120209  65.1267917
  67.8655147  37.6823176  66.2868188  59.7998952  42.2363864  53.5682834
  59.1068197  42.3108219  52.9122870  59.5550704  41.4724207  54.0904351
  68.4712608  33.7959465  60.9722325  68.7514362  33.1282654  61.5982752
  69.2563215  33.9888561  60.4596989  72.3421467  42.2177099  64.7193900
  73.2938890  42.3175197  64.7406124  72.1724917  41.4255368  65.2291984
  70.3635846  39.3032682  64.9053301  69.7685778  39.5837695  64.2099790
  70.0785543  39.7926583  65.6770042  74.8209545  45.4383219  63.8336200
  74.7885865  44.4999219  64.0195884  75.4310168  45.5167255  63.1002025
  74.9704033  42.2294262  63.8794483  74.4543082  41.4452719  63.6924412
  75.8543982  41.9012979  64.0441002  72.6314760  35.9735278  59.8390296
  72.4339581  35.6650366  60.7233628  73.2414466  36.6996917  59.9688225
  80.6386094  46.4999226  62.9742237  81.3689483  46.2384514  63.5349940
  80.0293040  45.7627948  63.0144305  78.7201392  44.6407088  63.5716688
  77.9934555  44.5063053  62.9633179  78.3048678  44.9483917  64.3773406
  66.5431568  48.3597018  71.3364061  67.4634577  48.5375617  71.5304107
  66.5081151  47.4153063  71.1843760  66.4597858  36.7766138  55.9662530
  65.6498587  36.4313223  56.3417776  67.1482275  36.4673682  56.5550142
  68.3888407  35.8544185  57.5886827  68.9419445  36.2739638  58.2476850
  68.6258493  34.9279933  57.6309783  64.4121506  41.8431258  73.3689591
  64.3118233  42.7925615  73.3001682  64.1943048  41.5149497  72.4965661
  63.6134577  39.0916183  49.9530268  64.4753741  39.4171082  50.2126086
  63.7984921  38.3047679  49.4403334  71.7667214  37.9644710  57.0965491
  71.1865883  38.6229514  56.7143544  71.5003146  37.1422054  56.6852909
  70.2170780  37.3649767  59.2986812  70.7170558  37.4766302  58.4901130
  70.8606388  37.0610820  59.9387620  64.2752776  45.2728397  72.1854653
  63.7919858  46.0728757  72.3918542  64.3613715  45.2836342  71.2322097
  70.5492092  40.1244800  56.1521840  69.6617947  40.4094451  55.9342034
  70.9646081  39.9638564  55.3049116  73.9006628  40.1491321  59.8676179
  74.6767018  40.6387774  60.1400796  73.1754762  40.5749375  60.3248048
  76.3379186  40.8618940  60.9250119  76.9323677  40.6214676  60.2143428
  76.4105770  40.1426071  61.5523656  70.5233115  45.6399336  56.3672130
  70.4668317  46.0967888  55.5279762  71.0761458  44.8790021  56.1894972
  74.3337921  41.4289068  57.1922249  74.0774856  41.0285704  58.0230457
  73.7090789  42.1432862  57.0672388  78.6450259  44.1685141  59.6993541
  78.0849817  44.2378331  60.4725103  78.0393763  43.9926126  58.9793037
  71.2567895  46.8304117  53.6624659  71.2016699  46.6648389  52.7213103
  70.6313950  47.5380150  53.8186849  68.5713802  49.1353029  72.9878222
  69.4404962  49.3093681  72.6264857  68.0920553  49.9547446  72.8653951
  64.5664020  36.3312226  53.2409977  64.5542690  37.2754066  53.3978248
  65.4587442  36.1482372  52.9469438  68.3816140  32.9255003  57.4955914
  67.6148535  32.3713490  57.6412596  68.7926845  32.9976872  58.3570066
  60.3857901  39.2139799  71.5861095  61.2489362  38.8576604  71.7964420
  59.8123311  38.8753694  72.2736500  85.1855973  58.5068342  60.3709683
  85.9181145  57.9367559  60.6047512  84.4295329  58.1189943  60.8116188
  82.7081394  52.2189916  64.8304291  82.3764718  53.0885327  64.6065506
  82.1127007  51.9026200  65.5098322  82.6010057  56.9385002  61.9097641
  81.6926934  56.8700411  61.6156402  82.5497653  57.4156947  62.7379467
  84.4671703  55.1401441  63.6875515  83.8246084  55.4333974  63.0415310
  83.9626632  55.0254361  64.4928712  84.6070681  64.8044870  59.1219320
  83.9221719  65.1843772  58.5716353  84.6914531  65.4140197  59.8551268
  79.4647842  55.0622650  62.6251236  78.6032321  55.3603904  62.9167973
  79.4910276  55.2793049  61.6932268  91.0673434  61.6715533  60.2421992
  90.3137142  61.1022931  60.0865997  91.2020975  61.6378198  61.1892627
  79.8064525  50.0659497  64.4475605  79.4628795  50.9561139  64.3714716
  80.1743488  49.8761155  63.5845190  78.8861066  52.4364153  62.4124838
  78.3825861  52.3994288  61.5992644  79.1791673  53.3456895  62.4721495
  84.7449082  62.8100463  54.8901214  83.9678525  62.4711623  54.4456376
  85.4240563  62.8153086  54.2156179  75.0388939  51.6246339  57.5182456
  74.3853351  51.3095356  56.8939071  74.9969413  51.0022080  58.2442279
  81.5040564  56.5476805  58.9551573  80.7663321  56.0354191  59.2861816
  81.7567337  56.1077186  58.1434850  81.6052191  49.3253057  59.5493343
  81.9111068  48.4650420  59.2619258  82.3304796  49.9170677  59.3492337
  85.1437579  61.8244170  57.3524136  85.0055478  62.0145766  56.4245325
  84.7873798  62.5863553  57.8092187  85.1706959  63.8920697  62.3635407
  85.6043466  63.7995986  63.2118461  85.8838540  63.8678197  61.7255423
  86.0322509  63.9344397  64.8968293  86.2258399  64.8390208  65.1427567
  85.9323127  63.4751817  65.7306878  81.1475692  62.4071354  50.8879875
  80.5304863  61.6818183  50.7912927  80.6792181  63.1680715  50.5446949
  79.4334814  54.7877699  59.8997905  79.9303514  54.0347661  59.5798975
  78.6621796  54.8242015  59.3341114  87.2864572  60.4918064  61.5416196
  87.2754448  61.3742780  61.1710129  86.4181951  60.1389615  61.3470733
  83.9037146  59.3866705  58.0086362  84.3697599  60.2194697  57.9346665
  84.3544647  58.9211687  58.7131621  81.8753809  51.7547292  62.0477264
  80.9616889  51.9851519  62.2159471  82.3046911  51.8385736  62.8991296
  81.6460268  59.9437184  64.5477158  80.9931718  60.1913091  63.8929610
  82.0240647  59.1301322  64.2139635  82.0349790  68.8781861  56.5275359
  82.2086668  68.3128283  55.7749212  82.5278682  69.6782755  56.3454849
  77.5105557  51.9063024  60.1086437  77.5327254  51.9702357  59.1538416
  77.9273616  51.0667533  60.3026943  87.8889182  61.6418283  58.1465659
  88.3320328  60.8925609  57.7484782  87.0115692  61.6328420  57.7639391
  83.0224963  68.1948625  53.6272258  83.7175868  68.8155318  53.8459572
  83.3648113  67.3443976  53.9024636  84.9216386  65.6448330  55.1559588
  85.4467710  65.9835603  54.4308909  84.8338739  64.7095346  54.9722723
  84.7308167  63.1273700  67.7743515  84.7806172  62.9623708  68.7159038
  84.6222091  62.2600960  67.3841396  82.0211930  59.1104629  69.0902822
  82.9221792  58.9711093  68.7986819  82.0959904  59.2759083  70.0300999
  86.2326364  65.5470642  68.0185537  85.9411172  65.9100623  68.8548997
  85.6198495  64.8337650  67.8398869  87.4322046  63.1123522  60.5388107
  88.2668938  63.5513326  60.7025667  87.5681175  62.6362175  59.7196353
  84.4813552  60.6703257  66.4865595  84.9567674  60.8630903  65.6784446
  83.5579118  60.7262442  66.2408978  79.0593769  52.7051100  65.4521428
  79.5775713  53.4412127  65.1267917  78.7048902  53.0115093  66.2868188
  79.3106363  49.1251383  60.9722325  79.5908117  48.4574572  61.5982752
  80.0956970  49.3180478  60.4596989  83.1815221  57.5469017  64.7193900
  84.1332644  57.6467114  64.7406124  83.0118672  56.7547285  65.2291984
  81.2029601  54.6324600  64.9053301  80.6079533  54.9129613  64.2099790
  80.9179297  55.1218501  65.6770042  82.9625108  67.9013397  50.6259881
  82.8838739  67.5673261  51.5195639  83.7834775  68.3935165  50.6251354
  85.6603299  60.7675136  63.8336200  85.6279619  59.8291137  64.0195884
  86.2703923  60.8459173  63.1002025  85.8097788  57.5586180  63.8794483
  85.2936836  56.7744636  63.6924412  86.6937736  57.2304896  64.0441002
  83.4708514  51.3027195  59.8390296  83.2733336  50.9942284  60.7233628
  84.0808220  52.0288834  59.9688225  91.4779849  61.8291143  62.9742237
  92.2083237  61.5676431  63.5349940  90.8686794  61.0919865  63.0144305
  89.5595146  59.9699006  63.5716688  88.8328310  59.8354971  62.9633179
  89.1442433  60.2775834  64.3773406  79.2282161  51.1836102  57.5886827
  79.7813200  51.6031556  58.2476850  79.4652247  50.2571850  57.6309783
  82.6060968  53.2936627  57.0965491  82.0259637  53.9521431  56.7143544
  82.3396901  52.4713972  56.6852909  81.0564535  52.6941685  59.2986812
  81.5564313  52.8058220  58.4901130  81.7000142  52.3902738  59.9387620
  84.7400382  55.4783239  59.8676179  85.5160772  55.9679691  60.1400796
  84.0148516  55.9041293  60.3248048  87.1772941  56.1910858  60.9250119
  87.7717432  55.9506594  60.2143428  87.2499525  55.4717989  61.5523656
  80.5329060  65.2181392  50.2469859  81.2364910  65.4231395  50.8627515
  79.8091708  65.7858154  50.5118943  85.1731676  56.7580986  57.1922249
  84.9168610  56.3577621  58.0230457  84.5484544  57.4724780  57.0672388
  89.4844014  59.4977059  59.6993541  88.9243572  59.5670248  60.4725103
  88.8787517  59.3218043  58.9793037  82.4415757  65.6563922  52.2968320
  83.2761361  65.2245120  52.1145794  82.2800100  65.4845935  53.2245214
  79.2209894  48.2546921  57.4955914  78.4542290  47.7005407  57.6412596
  79.6320599  48.3268789  58.3570066  91.0700032  76.1733573  62.3923496
  91.7078442  76.0540320  61.6886836  90.9520875  77.1214417  62.4511448
  87.8789738  76.1261001  62.3285021  87.5408250  76.0102066  61.4405556
  88.7479507  75.7252166  62.3086027  83.7376554  77.9796477  58.3181912
  83.1741419  77.8886414  57.5498200  83.6228949  77.1596382  58.7984404
  88.3609521  77.2795853  68.2871226  88.3498162  76.8848651  67.4151730
  88.5230161  76.5461925  68.8804998  81.2840986  79.4747669  61.1566132
  82.0762278  79.1338494  60.7412432  81.5237636  79.5842644  62.0768286
  89.3176113  81.6467445  53.6296377  88.6664093  82.2321525  53.2430391
  90.1120476  82.1773640  53.6891414  83.2431740  78.7356582  54.0283511
  84.0162616  78.1885569  53.8896387  83.5957139  79.6000831  54.2397973
  85.0816783  80.0632964  67.2350410  84.7906649  80.9678595  67.1197077
  85.7173767  80.1049492  67.9494480  86.0072989  77.4409813  63.8251770
  86.6036562  77.2165835  63.1108733  86.0647961  76.6994558  64.4277218
  85.5798018  74.8949248  51.6601961  85.8323538  74.3730770  50.8985424
  84.6422577  74.7315394  51.7628645  90.6241301  73.8985027  59.4676704
  91.4104390  73.4804450  59.1167121  90.8880005  74.8031119  59.6358353
  90.7951378  79.3357877  54.1665361  90.1597211  79.4092503  54.8786266
  90.4648784  79.9251476  53.4884440  96.0249728  73.8360260  60.3709683
  96.7574900  73.2659477  60.6047512  95.2689083  73.4481860  60.8116188
  85.2994307  76.7977354  53.8626336  85.1830565  76.1222258  54.5307420
  85.4096566  76.3109728  53.0458489  87.6425847  76.2587501  57.5673025
  87.2784055  75.7318122  58.2785947  88.4992963  75.8685970  57.3939511
  93.5475148  67.5481834  64.8304291  93.2158473  68.4177245  64.6065506
  92.9520762  67.2318118  65.5098322  87.2831334  71.2877401  52.5634374
  87.4505737  72.1557637  52.9304845  87.0928504  71.4504683  51.6395663
  90.0406668  79.7494380  64.2300204  89.7407391  80.6519419  64.1216011
  89.6957727  79.4826563  65.0821357  83.4919149  76.2008177  60.2636909
  82.5669646  76.0684391  60.4714600  83.7403562  76.9802396  60.7606851
  93.4403811  72.2676920  61.9097641  92.5320689  72.1992329  61.6156402
  93.3891407  72.7448865  62.7379467  87.2620555  73.7435059  53.5481041
  87.1420181  74.1892109  54.3866521  86.5673144  74.0920376  52.9894579
  80.8527960  75.8441450  61.0980698  80.9820341  76.0975929  62.0120109
  80.1725411  76.4369158  60.7785353  85.0227447  86.5138700  57.1971172
  84.9451477  87.4646525  57.2759652  84.4189091  86.1684573  57.8546098
  87.5144677  73.6866566  69.8532539  86.7378011  74.2460486  69.8435403
  88.1535240  74.1723349  70.3747409  95.3065458  70.4693359  63.6875515
  94.6639838  70.7625892  63.0415310  94.8020386  70.3546279  64.4928712
  92.9605622  74.2156532  54.3761375  93.8723478  74.4483918  54.2009072
  92.4515269  74.7993576  53.8136453  85.7691050  76.4952019  69.4150506
  86.5105734  77.0337063  69.1385329  85.0628035  77.1218308  69.5722058
  91.2446389  78.6381160  68.0122667  91.6529745  78.1963570  67.2677300
  90.5223651  78.0633787  68.2656860  87.5977459  73.5753766  65.3856224
  88.4438654  73.9993180  65.5290873  87.5376097  72.9187391  66.0794787
  91.5675204  79.1982350  61.7674956  90.9384066  79.3628064  61.0651024
  91.1800866  79.6123960  62.5385920  95.4464436  80.1336788  59.1219320
  94.7615474  80.5135689  58.5716353  95.5308285  80.7432115  59.8551268
  90.7476905  71.2358135  67.0437398  90.5037836  71.9900195  66.5071674
  91.0236835  71.6143482  67.8784645  92.7015367  77.7796747  65.7214663
  92.9132263  78.4228507  65.0449044  92.6545116  76.9459064  65.2536593
  90.3041596  70.3914568  62.6251236  89.4426075  70.6895821  62.9167973
  90.3304031  70.6084967  61.6932268  87.1203166  78.9356758  59.0325041
  87.5841511  79.2144461  58.2429664  86.8559964  78.0340203  58.8498132
  84.0127247  78.4828240  61.9704804  84.5828604  78.9115508  61.3322289
  84.6035359  78.2010825  62.6688990  86.0572052  75.0579911  55.8414606
  86.7596095  75.5100954  56.3088533  85.7252680  74.4163730  56.4694499
  84.5052413  73.6491667  70.2165816  83.8751074  74.3307948  70.4501213
  84.3988501  73.5374749  69.2718954  93.8161195  80.6568702  63.8937021
  94.6378639  80.2548890  63.6119702  93.8123598  80.5536937  64.8453137
  87.5817799  80.2052746  66.0497731  87.6462231  80.6673153  66.8855903
  86.8728723  79.5750111  66.1780041 101.9067188  77.0007451  60.2421992
 101.1530897  76.4314849  60.0865997 102.0414730  76.9670115  61.1892627
  87.2965816  81.8720853  55.9176712  87.1611491  82.7172389  56.3461559
  87.8375629  82.0740131  55.1542645  80.7495214  79.3896291  56.4904637
  81.2619734  80.1839542  56.6410201  81.4017927  78.6922582  56.4238238
  82.5590098  82.5062048  58.5727390  82.7356727  83.4280012  58.3848374
  83.3546932  82.1920467  59.0021770  86.7001117  69.3670312  70.1711323
  87.4410830  69.9677465  70.0915786  86.9319040  68.6247950  69.6129366
  81.8442455  74.5526679  68.4489553  81.7295970  73.6511937  68.7496652
  80.9886973  74.7990376  68.0974370  88.9234293  82.4944420  70.0477054
  88.4798147  81.7080798  69.7297958  89.5851506  82.6823570  69.3820944
  83.6821414  84.0240221  64.5737732  84.2328839  83.8957285  63.8014726
  82.8432890  84.3235110  64.2232625  91.0215531  82.7747220  68.0758455
  91.0034006  83.5956101  67.5838724  91.9435451  82.6501295  68.3008596
  87.4788585  80.2891349  68.9181963  88.0116922  79.5279637  68.6881271
  86.9502666  79.9965001  69.6606118  90.6458280  65.3951415  64.4475605
  90.3022549  66.2853057  64.3714716  91.0137243  65.2053073  63.5845190
  90.6108563  75.3860026  52.9548040  90.0955186  76.1564631  53.1936428
  90.3385871  74.7125162  53.5781102  88.1955674  70.2309727  58.0133279
  87.3397270  69.8416577  57.8338917  88.6082625  70.3101688  57.1533064
  89.7254820  67.7656070  62.4124838  89.2219616  67.7286205  61.5992644
  90.0185427  68.6748813  62.4721495  85.9697706  67.8494800  61.4191020
  86.8350703  67.6537609  61.0596910  86.0375215  67.6205152  62.3460377
  95.5842837  78.1392381  54.8901214  94.8072280  77.8003540  54.4456376
  96.2634318  78.1445004  54.2156179  90.3994866  73.2587118  54.7807821
  90.0945001  73.5733268  55.6317965  91.3525308  73.3368538  54.8235154
  88.8441298  79.4177342  56.4300775  88.3162659  78.6830101  56.1174013
  88.3428800  80.1952018  56.1840744  93.8234144  77.6126362  61.5467822
  93.1657818  78.3025624  61.6347950  94.6274543  78.0022794  61.8901808
  83.5760025  70.0797008  58.7907387  84.1503777  69.8572189  58.0580580
  84.1631008  70.1485702  59.5435988  92.6339602  75.9670735  59.5971763
  93.1471484  76.6000727  60.0993473  93.2840826  75.3671930  59.2315123
  83.9029612  72.1101469  52.8103272  83.0666925  72.4476156  53.1312547
  83.7634382  71.9750449  51.8730409  85.8782693  66.9538257  57.5182456
  85.2247105  66.6387274  56.8939071  85.8363167  66.3313997  58.2442279
  86.9893898  77.2357552  49.4335748  86.0820960  77.0046805  49.6326897
  87.4864930  76.4395171  49.6209730  89.8961977  85.9455059  52.3532435
  89.2223675  86.2486756  52.9617392  90.2827799  86.7484139  52.0037892
  89.1120433  73.4420190  61.8430104  88.1942995  73.6635137  61.6851792
  89.5280577  73.5166501  60.9841811  89.8955481  74.8411606  56.9732784
  90.6427300  75.3533003  56.6639906  90.1647071  74.5195659  57.8337178
  88.1682131  77.3370147  53.9559738  87.2593351  77.0529180  54.0532208
  88.1977215  77.7569225  53.0963045  93.4001399  80.9476736  57.7250906
  92.9463726  80.1067646  57.7816096  92.7695365  81.5838135  58.0625686
  92.3434318  71.8768722  58.9551573  91.6057075  71.3646109  59.2861816
  92.5961092  71.4369104  58.1434850  91.8434338  82.7853233  58.6600724
  92.1357312  83.3458290  57.9413090  92.3532959  83.0781794  59.4153883
  92.4445946  64.6544974  59.5493343  92.7504822  63.7942338  59.2619258
  93.1698550  65.2462595  59.3492337  86.7167025  74.9498767  60.0569534
  86.7715635  73.9972604  59.9812010  85.9058227  75.1058206  60.5410832
  87.8658219  78.8778890  51.2947817  87.4277649  78.1614749  50.8353454
  88.6068660  79.1055005  50.7332908  84.6559385  73.5675827  57.8159913
  83.8427251  73.8669998  58.2225105  85.1518379  73.1731516  58.5334395
  86.8067963  83.5633584  59.7494177  86.7644142  83.7894430  58.8202709
  87.7230662  83.3296959  59.8979979  90.2533597  74.0317652  66.6474807
  90.6082985  74.2589125  67.5069272  90.9005728  74.3636028  66.0252062
  95.9831334  77.1536087  57.3524136  95.8449232  77.3437683  56.4245325
  95.6267553  77.9155470  57.8092187  84.9233764  80.4396613  59.5456140
  85.7174362  79.9446933  59.3438715  84.2125456  79.9114476  59.1823846
  89.7428608  82.8214709  63.8968508  89.7965631  83.3905645  64.6646224
  88.8743390  82.9916594  63.5322545  81.2316527  74.5839695  55.6215893
  80.3014115  74.5224150  55.8385855  81.3273999  74.0615648  54.8252534
  96.8716263  79.2636315  64.8968293  97.0652153  80.1682126  65.1427567
  96.7716881  78.8043734  65.7306878  88.5252574  69.1494206  67.3958620
  87.8780489  69.8484155  67.3023096  89.2953589  69.5830350  67.7634868
  91.9331372  79.4143058  70.4709173  91.7816878  79.1853610  69.5539257
  91.9236051  80.3713659  70.4840518  88.7016708  76.9874971  65.4555440
  89.6308768  77.1386130  65.2824407  88.2807738  77.0758991  64.6004086
  87.5005040  81.0125635  63.2253977  87.3616126  80.6444419  64.0979915
  86.7119636  81.5273274  63.0537935  88.0953192  86.1134732  54.5679514
  88.2704948  85.6422775  55.3825136  87.4085980  86.7400498  54.7960774
  89.0510255  80.3907238  60.6142815  88.7160088  80.3508008  61.5100465
  88.5514201  79.7251954  60.1413225  83.0254499  75.7974868  66.1395396
  82.8874297  75.0655107  66.7406935  83.9359422  75.7083768  65.8579584
  91.9869447  77.7363272  50.8879875  91.3698617  77.0110100  50.7912927
  91.5185935  78.4972632  50.5446949  85.6536800  75.5094827  65.6279076
  86.3636418  74.8688019  65.5865694  85.6106108  75.7607722  66.5505257
  93.6423578  82.4462180  68.5485655  93.5836125  81.7621401  67.8816238
  94.0443097  83.1881170  68.0966281  84.3665734  72.4960045  67.4474715
  83.8303091  72.0450783  68.0996312  83.7782442  72.6305954  66.7045180
  82.6614277  89.2624094  61.3419374  82.9010875  89.8942618  62.0198392
  81.8183474  88.9112134  61.6284733  83.7767993  71.9548696  50.0101179
  82.8997459  71.8337497  49.6463426  84.2525746  71.1634775  49.7580068
  93.6440986  80.4101764  66.7799635  92.7567764  80.0727686  66.9026034
  94.2139537  79.6784796  67.0168400  87.1742139  85.0703217  63.7460878
  87.1012311  85.8758188  64.2580182  86.7319532  85.2695183  62.9208899
  86.9631919  84.3074987  57.2563699  86.1799441  84.8496667  57.3501924
  87.6624664  84.8248966  57.6557941  90.2728569  70.1169616  59.8997905
  90.7697268  69.3639579  59.5798975  89.5015550  70.1533933  59.3341114
  98.1258326  75.8209982  61.5416196  98.1148202  76.7034697  61.1710129
  97.2575706  75.4681533  61.3470733  89.6340823  84.9690051  65.9019037
  90.3468795  85.6037516  65.8294938  89.1430851  85.0653917  65.0859038
  91.3558349  78.8741303  57.4736328  90.4214628  78.9942766  57.3041033
  91.5335018  77.9713770  57.2096338  86.8563538  72.2586999  59.6269589
  86.4861325  71.7058040  60.3150495  87.3522630  71.6545133  59.0744589
  94.7430901  74.7158623  58.0086362  95.2091353  75.5486614  57.9346665
  95.1938401  74.2503604  58.7131621  84.6852736  82.7184494  66.7224607
  85.3862196  83.3520977  66.8754002  84.2147851  83.0599226  65.9620247
  92.8107132  81.0602444  55.0072514  93.0866976  80.9459039  55.9166388
  91.9411631  80.6619929  54.9684687  92.7147564  67.0839210  62.0477264
  91.8010643  67.3143437  62.2159471  93.1440665  67.1677654  62.8991296
  92.4854022  75.2729102  64.5477158  91.8325472  75.5205009  63.8929610
  92.8634402  74.4593240  64.2139635  89.4461196  85.3088795  58.6505328
  89.6283590  84.4910451  59.1133080  90.2694182  85.5256487  58.2130218
  89.7803361  84.2356980  55.9120376  90.3091128  83.7249435  55.2990539
  90.0431581  83.9199510  56.7765909  88.5341595  76.0148913  71.0343195
  87.8582232  75.9143042  71.7045570  89.3569229  75.8588126  71.4979192
  80.2820454  82.2520849  63.6555710  80.8673891  81.5064537  63.7883614
  80.0845293  82.5624806  64.5392374  83.1359109  85.2872097  58.6718152
  82.4669485  85.7718224  58.1882192  82.9971979  85.5341317  59.5861531
  87.2764378  87.3215840  65.2700811  87.8282686  87.4847462  66.0349896
  87.6170571  87.9120278  64.5980836  92.1275252  82.1477098  71.1249465
  92.6715156  82.7607056  70.6304420  91.5462097  82.7056676  71.6416478
  90.4132765  85.2697816  62.2564493  90.2883905  84.4687556  61.7475438
  91.0711856  85.7644009  61.7678463  92.4767674  83.0706836  63.8844043
  91.5298009  82.9512187  63.8122370  92.8250447  82.1829334  63.9670304
  89.4814107  82.8659552  60.0848395  89.3339069  81.9376259  60.2655965
  90.3067600  82.8879643  59.6005470  83.3476351  71.5177619  55.9428887
  83.6872424  72.0463540  55.2207496  83.7948472  71.8558025  56.7187454
  93.0848229  83.6888111  61.1713268  94.0094776  83.4830972  61.0337719
  92.9163532  83.4404512  62.0802609  86.0419792  69.9014670  65.3931955
  85.7016612  69.1022483  65.7952635  85.3358798  70.2016381  64.8208789
  86.6936264  66.9863982  63.8459278  87.5162333  66.5124460  63.7238169
  86.9374327  67.7654466  64.3457965  85.3344498  70.0152241  54.1422180
  86.0552861  70.3933493  53.6385897  84.7109802  70.7341118  54.2457158
  89.4775621  70.7197390  55.0780512  89.6939236  71.6022028  54.7769341
  88.9969688  70.3283603  54.3486154  84.2174843  73.6783103  61.6551257
  84.0719423  73.9923406  62.5475539  83.7400046  74.2968003  61.1022156
  86.0771225  70.6685651  61.7032147  86.0632794  69.7726744  61.3664445
  86.7943654  70.6756315  62.3370433  87.9297356  71.1022991  63.7485274
  87.6715134  72.0240062  63.7469604  87.3982397  70.7053426  64.4385738
  92.8743545  84.2073778  56.5275359  93.0480422  83.6420201  55.7749212
  93.3672436  85.0074673  56.3454849  78.6920505  76.2188447  64.5938918
  78.1473973  76.9948255  64.7259193  79.5699855  76.5659252  64.4358040
  85.4808121  69.5500031  56.9719717  85.6024033  68.6216677  57.1710604
  85.1910164  69.5638717  56.0598032  88.3499312  67.2354942  60.1086437
  88.3721009  67.2994275  59.1538416  88.7667371  66.3959450  60.3026943
  98.7282936  76.9710201  58.1465659  99.1714082  76.2217526  57.7484782
  97.8509446  76.9620338  57.7639391  93.8618717  83.5240543  53.6272258
  94.5569622  84.1447235  53.8459572  94.2041868  82.6735894  53.9024636
  79.4786527  75.3458344  67.4869075  78.7368263  75.4940979  68.0733706
  79.1579271  75.6066609  66.6235825  95.7610141  80.9740248  55.1559588
  96.2861465  81.3127521  54.4308909  95.6732493  80.0387263  54.9722723
  87.4230189  84.8874322  67.2849465  87.7317316  84.6423469  68.1572165
  88.2205671  85.0920960  66.7968335  87.4450801  87.0412231  59.5154842
  87.0055792  86.5488610  60.2087698  88.1958918  86.4985199  59.2746917
  79.9243140  83.2323772  59.5179470  80.7501160  82.9327544  59.1378113
  79.5737192  82.4631395  59.9669258  84.8924673  82.5850241  61.5877143
  84.2704683  81.9220946  61.2879371  85.5629540  82.6111372  60.9050791
  84.9649201  71.0632029  71.1809649  85.0137356  71.9394151  70.7987419
  85.5071715  70.5209422  70.6081293  95.4504047  81.6073152  70.4610786
  94.6599590  81.5897291  69.9215286  95.2137401  82.1461445  71.2159823
  95.5701922  78.4565618  67.7743515  95.6199927  78.2915626  68.7159038
  95.4615845  77.5892877  67.3841396  84.4538180  81.1354164  55.0635604
  84.6026301  81.8189628  54.4102277  85.2604624  81.1159254  55.5785060
  92.8605684  74.4396546  69.0902822  93.7615547  74.3003011  68.7986819
  92.9353659  74.6051001  70.0300999  87.1948489  71.8163401  67.9356008
  86.3251799  72.1096967  67.6638597  87.4307970  72.4003846  68.6563272
  97.0720119  80.8762560  68.0185537  96.7804927  81.2392540  68.8548997
  96.4592250  80.1629568  67.8398869  98.2715801  78.4415439  60.5388107
  99.1062692  78.8805244  60.7025667  98.4074930  77.9654093  59.7196353
  95.3207307  75.9995174  66.4865595  95.7961428  76.1922821  65.6784446
  94.3972872  76.0554360  66.2408978  82.2090813  77.1619341  56.0696673
  81.9636855  76.2581671  56.2676883  82.3786728  77.1636492  55.1276151
  89.8987523  68.0343018  65.4521428  90.4169467  68.7704045  65.1267917
  89.5442656  68.3407011  66.2868188  81.4786461  72.8947699  53.5682834
  80.7855706  72.9692054  52.9122870  81.2338213  72.1308043  54.0904351
  90.1500117  64.4543300  60.9722325  90.4301871  63.7866489  61.5982752
  90.9350724  64.6472396  60.4596989  87.9533586  83.6302294  52.5347351
  87.3807553  84.2492481  52.0817823  88.5266380  84.1801656  53.0687273
  94.0208976  72.8760934  64.7193900  94.9726399  72.9759032  64.7406124
  93.8512426  72.0839203  65.2291984  92.0423355  69.9616518  64.9053301
  91.4473287  70.2421530  64.2099790  91.7573052  70.4510419  65.6770042
  91.1730846  83.9139444  53.6655934  92.1061519  83.8485006  53.8688809
  91.0854059  84.7495711  53.2070466  93.8018862  83.2305315  50.6259881
  93.7232494  82.8965178  51.5195639  94.6228529  83.7227083  50.6251354
  88.3380384  74.9663107  49.8763404  89.2839489  74.8369315  49.9451822
  87.9594629  74.2277769  50.3532832  96.6491542  72.8878098  63.8794483
  96.1330591  72.1036554  63.6924412  97.5331491  72.5596814  64.0441002
  94.3102269  66.6319113  59.8390296  94.1127090  66.3234201  60.7233628
  94.9201975  67.3580752  59.9688225 102.3173603  77.1583061  62.9742237
 103.0476992  76.8968349  63.5349940 101.7080549  76.4211783  63.0144305
 100.3988901  75.2990924  63.5716688  99.6722064  75.1646888  62.9633179
  99.9836187  75.6067752  64.3773406  88.2219077  79.0180853  71.3364061
  89.1422086  79.1959452  71.5304107  88.1868660  78.0736899  71.1843760
  86.5223302  72.8913083  49.8118289  85.6154757  72.5946196  49.8881003
  86.7999283  72.5942902  48.9452575  81.2181149  76.9281888  63.9786842
  81.4367159  77.8598996  63.9974876  81.6306923  76.5689862  64.7641646
  88.1385367  67.4349973  55.9662530  87.3286096  67.0897058  56.3417776
  88.8269784  67.1257517  56.5550142  90.0675916  66.5128020  57.5886827
  90.6206954  66.9323473  58.2476850  90.3046002  65.5863768  57.6309783
  86.0909015  72.5015094  73.3689591  85.9905742  73.4509451  73.3001682
  85.8730557  72.1733333  72.4965661  85.2922086  69.7500019  49.9530268
  86.1541250  70.0754917  50.2126086  85.4772430  68.9631515  49.4403334
  93.4454723  68.6228545  57.0965491  92.8653392  69.2813349  56.7143544
  93.1790655  67.8005890  56.6852909  91.8958289  68.0233603  59.2986812
  92.3958067  68.1350137  58.4901130  92.5393897  67.7194656  59.9387620
  85.9540285  75.9312232  72.1854653  85.4707367  76.7312593  72.3918542
  86.0401224  75.9420177  71.2322097  81.8813622  79.8216767  64.2223086
  82.8356876  79.7900709  64.1553018  81.6826146  79.3607391  65.0373312
  82.4713004  78.3917883  66.7893884  83.2905893  78.8861962  66.8128721
  82.7449812  77.4749851  66.7611451  92.2279601  70.7828636  56.1521840
  91.3405456  71.0678286  55.9342034  92.6433590  70.6222399  55.3049116
  95.5794137  70.8075156  59.8676179  96.3554527  71.2971609  60.1400796
  94.8542271  71.2333211  60.3248048  80.2363851  85.3636387  61.2393284
  80.1018319  84.6036788  60.6731282  79.8195913  86.0877286  60.7722073
  91.3722814  80.5473310  50.2469859  92.0758664  80.7523313  50.8627515
  90.6485463  81.1150072  50.5118943  92.2020624  76.2983171  56.3672130
  92.1455826  76.7551723  55.5279762  92.7548967  75.5373856  56.1894972
  96.0125430  72.0872903  57.1922249  95.7562365  71.6869539  58.0230457
  95.3878298  72.8016697  57.0672388 100.3237768  74.8268977  59.6993541
  99.7637326  74.8962166  60.4725103  99.7181272  74.6509961  58.9793037
  83.3932977  86.2605704  61.4511727  83.2765361  87.2051136  61.3490417
  82.5725423  85.9579265  61.8397526  93.2809512  80.9855839  52.2968320
  94.1155115  80.5537038  52.1145794  93.1193854  80.8137853  53.2245214
  92.9355404  77.4887953  53.6624659  92.8804208  77.3232224  52.7213103
  92.3101459  78.1963986  53.8186849  90.2501311  79.7936865  72.9878222
  91.1192471  79.9677517  72.6264857  89.7708062  80.6131281  72.8653951
  86.2451529  66.9896062  53.2409977  86.2330199  67.9337902  53.3978248
  87.1374951  66.8066207  52.9469438  84.4187491  86.9133966  64.6667655
  85.3214738  86.9457576  64.9834150  84.1924861  85.9834417  64.6813991
  86.1741093  85.6664952  61.3277734  85.2236724  85.6666814  61.2142106
  86.4773579  84.9197687  60.8113769  90.0603649  63.5838838  57.4955914
  89.2936044  63.0297325  57.6412596  90.4714354  63.6560707  58.3570066
 101.9093787  91.5025490  62.3923496 102.5472197  91.3832238  61.6886836
 101.7914630  92.4506334  62.4511448  98.7183493  91.4552919  62.3285021
  98.3802004  91.3393983  61.4405556  99.5873261  91.0544084  62.3086027
  94.5770309  93.3088395  58.3181912  94.0135174  93.2178332  57.5498200
  94.4622704  92.4888299  58.7984404  99.2003276  92.6087770  68.2871226
  99.1891917  92.2140569  67.4151730  99.3623915  91.8753843  68.8804998
  92.1234741  94.8039587  61.1566132  92.9156032  94.4630411  60.7412432
  92.3631391  94.9134562  62.0768286 100.1569867  96.9759363  53.6296377
  99.5057847  97.5613443  53.2430391 100.9514230  97.5065558  53.6891414
  94.0825494  94.0648500  54.0283511  94.8556370  93.5177487  53.8896387
  94.4350893  94.9292749  54.2397973  95.9210537  95.3924882  67.2350410
  95.6300403  96.2970513  67.1197077  96.5567521  95.4341410  67.9494480
  96.8466744  92.7701731  63.8251770  97.4430316  92.5457753  63.1108733
  96.9041715  92.0286476  64.4277218  96.4191772  90.2241166  51.6601961
  96.6717293  89.7022687  50.8985424  95.4816331  90.0607311  51.7628645
 101.4635055  89.2276944  59.4676704 102.2498144  88.8096368  59.1167121
 101.7273759  90.1323037  59.6358353 101.6345132  94.6649795  54.1665361
 100.9990965  94.7384421  54.8786266 101.3042539  95.2543393  53.4884440
 106.8643482  89.1652178  60.3709683 107.5968654  88.5951394  60.6047512
 106.1082838  88.7773778  60.8116188  96.1388061  92.1269272  53.8626336
  96.0224319  91.4514175  54.5307420  96.2490321  91.6401646  53.0458489
  98.4819602  91.5879419  57.5673025  98.1177809  91.0610040  58.2785947
  99.3386718  91.1977888  57.3939511 104.3868903  82.8773752  64.8304291
 104.0552227  83.7469163  64.6065506 103.7914516  82.5610036  65.5098322
  98.1225089  86.6169319  52.5634374  98.2899491  87.4849555  52.9304845
  97.9322258  86.7796600  51.6395663 100.8800422  95.0786298  64.2300204
 100.5801145  95.9811336  64.1216011 100.5351482  94.8118481  65.0821357
  94.3312904  91.5300094  60.2636909  93.4063400  91.3976309  60.4714600
  94.5797317  92.3094314  60.7606851 104.2797566  87.5968838  61.9097641
 103.3714443  87.5284246  61.6156402 104.2285162  88.0740783  62.7379467
  98.1014310  89.0726976  53.5481041  97.9813935  89.5184027  54.3866521
  97.4066898  89.4212294  52.9894579  91.6921715  91.1733368  61.0980698
  91.8214096  91.4267847  62.0120109  91.0119166  91.7661076  60.7785353
  95.8621202 101.8430618  57.1971172  95.7845232 102.7938443  57.2759652
  95.2582846 101.4976490  57.8546098  98.3538432  89.0158483  69.8532539
  97.5771766  89.5752404  69.8435403  98.9928995  89.5015266  70.3747409
 106.1459212  85.7985276  63.6875515 105.5033593  86.0917809  63.0415310
 105.6414141  85.6838197  64.4928712 103.7999376  89.5448449  54.3761375
 104.7117232  89.7775836  54.2009072 103.2909023  90.1285494  53.8136453
  96.6084804  91.8243937  69.4150506  97.3499488  92.3628981  69.1385329
  95.9021789  92.4510226  69.5722058 102.0840144  93.9673077  68.0122667
 102.4923500  93.5255488  67.2677300 101.3617405  93.3925705  68.2656860
  98.4371214  88.9045684  65.3856224  99.2832409  89.3285098  65.5290873
  98.3769851  88.2479308  66.0794787 102.4068958  94.5274268  61.7674956
 101.7777821  94.6919982  61.0651024 102.0194620  94.9415877  62.5385920
 106.2858190  95.4628706  59.1219320 105.6009228  95.8427607  58.5716353
 106.3702040  96.0724032  59.8551268 101.5870659  86.5650052  67.0437398
 101.3431591  87.3192113  66.5071674 101.8630590  86.9435400  67.8784645
 103.5409122  93.1088665  65.7214663 103.7526017  93.7520425  65.0449044
 103.4938870  92.2750981  65.2536593 101.1435351  85.7206485  62.6251236
 100.2819830  86.0187739  62.9167973 101.1697785  85.9376884  61.6932268
  97.9596920  94.2648676  59.0325041  98.4235266  94.5436379  58.2429664
  97.6953718  93.3632121  58.8498132  94.8521001  93.8120157  61.9704804
  95.4222358  94.2407426  61.3322289  95.4429113  93.5302742  62.6688990
  96.8965806  90.3871828  55.8414606  97.5989850  90.8392872  56.3088533
  96.5646435  89.7455647  56.4694499  95.3446168  88.9783585  70.2165816
  94.7144828  89.6599866  70.4501213  95.2382256  88.8666667  69.2718954
  90.6391140  88.6455381  61.1431740  89.8490194  88.9012910  60.6671851
  91.1302388  89.4603719  61.2483780 104.6554950  95.9860620  63.8937021
 105.4772393  95.5840807  63.6119702 104.6517353  95.8828854  64.8453137
  92.5905886  89.0099960  58.1015217  91.7937049  89.1218654  58.6198712
  92.3631478  89.3486612  57.2356107  98.4211553  95.5344663  66.0497731
  98.4855986  95.9965071  66.8855903  97.7122477  94.9042028  66.1780041
  88.9228843  88.8985871  63.5746731  89.1736882  89.7832881  63.8404307
  89.4588392  88.7190473  62.8021823 112.7460943  92.3299369  60.2421992
 111.9924651  91.7606767  60.0865997 112.8808484  92.2962033  61.1892627
  98.1359571  97.2012771  55.9176712  98.0005246  98.0464307  56.3461559
  98.6769383  97.4032049  55.1542645  94.6226910  83.2804351  72.5791067
  94.2293856  82.7270549  73.2538711  95.4393051  83.5914929  72.9697584
  91.5888968  94.7188209  56.4904637  92.1013489  95.5131459  56.6410201
  92.2411681  94.0214499  56.4238238  93.3983853  97.8353965  58.5727390
  93.5750481  98.7571930  58.3848374  94.1940686  97.5212384  59.0021770
  97.5394871  84.6962230  70.1711323  98.2804585  85.2969383  70.0915786
  97.7712794  83.9539868  69.6129366  92.6836209  89.8818597  68.4489553
  92.5689725  88.9803854  68.7496652  91.8280727  90.1282294  68.0974370
  99.7628047  97.8236337  70.0477054  99.3191901  97.0372716  69.7297958
 100.4245261  98.0115488  69.3820944  94.5215168  99.3532139  64.5737732
  95.0722594  99.2249202  63.8014726  93.6826644  99.6527028  64.2232625
 101.8609285  98.1039137  68.0758455 101.8427761  98.9248018  67.5838724
 102.7829205  97.9793213  68.3008596  98.3182339  95.6183267  68.9181963
  98.8510676  94.8571555  68.6881271  97.7896421  95.3256919  69.6606118
 101.4852034  80.7243333  64.4475605 101.1416304  81.6144975  64.3714716
 101.8530997  80.5344990  63.5845190  89.5537885  93.0476863  57.2664207
  90.3913107  93.4573872  57.0497915  89.7316153  92.1076305  57.2364401
 101.4502317  90.7151944  52.9548040 100.9348941  91.4856549  53.1936428
 101.1779626  90.0417080  53.5781102  99.0349428  85.5601645  58.0133279
  98.1791025  85.1708495  57.8338917  99.4476380  85.6393606  57.1533064
 100.5648575  83.0947988  62.4124838 100.0613370  83.0578123  61.5992644
 100.8579182  84.0040731  62.4721495  96.8091461  83.1786718  61.4191020
  97.6744457  82.9829526  61.0596910  96.8768970  82.9497069  62.3460377
 106.4236591  93.4684299  54.8901214 105.6466034  93.1295458  54.4456376
 107.1028072  93.4736922  54.2156179 101.2388620  88.5879036  54.7807821
 100.9338756  88.9025185  55.6317965 102.1919062  88.6660456  54.8235154
  99.6835052  94.7469259  56.4300775  99.1556414  94.0122019  56.1174013
  99.1822555  95.5243936  56.1840744 104.6627898  92.9418280  61.5467822
 104.0051573  93.6317541  61.6347950 105.4668297  93.3314712  61.8901808
  94.4153780  85.4088926  58.7907387  94.9897532  85.1864107  58.0580580
  95.0024762  85.4777620  59.5435988 103.4733357  91.2962653  59.5971763
 103.9865239  91.9292644  60.0993473 104.1234581  90.6963848  59.2315123
  94.7423367  87.4393387  52.8103272  93.9060679  87.7768073  53.1312547
  94.6028137  87.3042366  51.8730409  96.7176447  82.2830175  57.5182456
  96.0640860  81.9679192  56.8939071  96.6756922  81.6605915  58.2442279
  97.8287652  92.5649470  49.4335748  96.9214714  92.3338723  49.6326897
  98.3258684  91.7687089  49.6209730 100.7355731 101.2746977  52.3532435
 100.0617430 101.5778674  52.9617392 101.1221553 102.0776057  52.0037892
  99.9514188  88.7712108  61.8430104  99.0336749  88.9927055  61.6851792
 100.3674331  88.8458419  60.9841811 100.7349236  90.1703524  56.9732784
 101.4821055  90.6824921  56.6639906 101.0040825  89.8487576  57.8337178
  99.0075886  92.6662064  53.9559738  98.0987105  92.3821097  54.0532208
  99.0370970  93.0861143  53.0963045 104.2395153  96.2768654  57.7250906
 103.7857480  95.4359564  57.7816096 103.6089120  96.9130052  58.0625686
 103.1828073  87.2060640  58.9551573 102.4450830  86.6938026  59.2861816
 103.4354846  86.7661022  58.1434850 102.6828092  98.1145151  58.6600724
 102.9751067  98.6750208  57.9413090 103.1926713  98.4073712  59.4153883
 103.2839700  79.9836892  59.5493343 103.5898577  79.1234255  59.2619258
 104.0092305  80.5754512  59.3492337  89.5764056  90.3867579  57.9374941
  89.3788456  89.7936939  57.2126007  89.0210720  90.0819789  58.6550879
  97.5560780  90.2790685  60.0569534  97.6109390  89.3264521  59.9812010
  96.7451982  90.4350124  60.5410832  98.7051974  94.2070808  51.2947817
  98.2671404  93.4906667  50.8353454  99.4462414  94.4346923  50.7332908
  95.4953140  88.8967745  57.8159913  94.6821005  89.1961915  58.2225105
  95.9912134  88.5023434  58.5334395  97.6461718  98.8925502  59.7494177
  97.6037896  99.1186348  58.8202709  98.5624416  98.6588876  59.8979979
 101.0927351  89.3609569  66.6474807 101.4476739  89.5881042  67.5069272
 101.7399483  89.6927946  66.0252062 106.8225088  92.4828005  57.3524136
 106.6842987  92.6729601  56.4245325 106.4661307  93.2447388  57.8092187
  94.9867214  86.4686100  63.4321148  95.6266594  86.3274859  62.7344111
  94.1544745  86.1820614  63.0559750 106.8494468  94.5504532  62.3635407
 107.2830975  94.4579821  63.2118461 107.5626049  94.5262033  61.7255423
  95.7627518  95.7688531  59.5456140  96.5568117  95.2738851  59.3438715
  95.0519211  95.2406394  59.1823846 100.5822363  98.1506626  63.8968508
 100.6359385  98.7197563  64.6646224  99.7137144  98.3208511  63.5322545
  92.0710282  89.9131612  55.6215893  91.1407870  89.8516068  55.8385855
  92.1667754  89.3907565  54.8252534  91.9895831  86.4386425  58.2094134
  92.2502648  87.3531759  58.1003295  92.8113003  85.9710868  58.3590747
  93.4620756  87.8524183  65.3792959  94.1343810  87.6441545  64.7305608
  92.6350543  87.6546268  64.9398191 107.7110018  94.5928233  64.8968293
 107.9045908  95.4974043  65.1427567 107.6110636  94.1335652  65.7306878
  99.3646328  84.4786123  67.3958620  98.7174243  85.1776073  67.3023096
 100.1347344  84.9122267  67.7634868 102.7725126  94.7434976  70.4709173
 102.6210633  94.5145527  69.5539257 102.7629806  95.7005577  70.4840518
  99.5410463  92.3166888  65.4555440 100.4702523  92.4678048  65.2824407
  99.1201493  92.4050909  64.6004086  98.3398794  96.3417553  63.2253977
  98.2009880  95.9736337  64.0979915  97.5513391  96.8565192  63.0537935
  98.9346946 101.4426649  54.5679514  99.1098702 100.9714692  55.3825136
  98.2479734 102.0692415  54.7960774  99.8904010  95.7199155  60.6142815
  99.5553842  95.6799925  61.5100465  99.3907955  95.0543871  60.1413225
  93.8648254  91.1266785  66.1395396  93.7268051  90.3947024  66.7406935
  94.7753177  91.0375686  65.8579584 102.8263201  93.0655190  50.8879875
 102.2092372  92.3402018  50.7912927 102.3579690  93.8264550  50.5446949
  96.4930554  90.8386745  65.6279076  97.2030173  90.1979937  65.5865694
  96.4499862  91.0899640  66.5505257 104.4817333  97.7754098  68.5485655
 104.4229879  97.0913318  67.8816238 104.8836851  98.5173088  68.0966281
  95.2059488  87.8251963  67.4474715  94.6696845  87.3742701  68.0996312
  94.6176197  87.9597872  66.7045180  93.5008032 104.5916012  61.3419374
  93.7404630 105.2234536  62.0198392  92.6577228 104.2404052  61.6284733
  94.6161747  87.2840614  50.0101179  93.7391213  87.1629415  49.6463426
  95.0919500  86.4926692  49.7580068 104.4834740  95.7393682  66.7799635
 103.5961519  95.4019604  66.9026034 105.0533291  95.0076713  67.0168400
  86.1363887  92.0717774  60.1042686  86.8234927  91.7579504  59.5163701
  85.9812016  92.9759138  59.8309937  90.9398609  86.9607970  64.5327710
  90.8556798  86.3533640  63.7978120  90.1181316  87.4516989  64.5337206
  98.0135894 100.3995134  63.7460878  97.9406065 101.2050106  64.2580182
  97.5713287 100.5987100  62.9208899  97.8025673  99.6366904  57.2563699
  97.0193195 100.1788585  57.3501924  98.5018418 100.1540884  57.6557941
 101.1122323  85.4461534  59.8997905 101.6091023  84.6931496  59.5798975
 100.3409305  85.4825851  59.3341114 108.9652081  91.1501899  61.5416196
 108.9541957  92.0326615  61.1710129 108.0969460  90.7973450  61.3470733
 100.4734577 100.2981968  65.9019037 101.1862549 100.9329433  65.8294938
  99.9824606 100.3945834  65.0859038 102.1952104  94.2033221  57.4736328
 101.2608383  94.3234684  57.3041033 102.3728772  93.3005688  57.2096338
  97.6957292  87.5878917  59.6269589  97.3255080  87.0349957  60.3150495
  98.1916384  86.9837050  59.0744589 105.5824655  90.0450540  58.0086362
 106.0485107  90.8778532  57.9346665 106.0332156  89.5795522  58.7131621
  95.5246491  98.0476412  66.7224607  96.2255950  98.6812895  66.8754002
  95.0541606  98.3891143  65.9620247 103.6500886  96.3894362  55.0072514
 103.9260730  96.2750956  55.9166388 102.7805385  95.9911847  54.9684687
 103.5541318  82.4131127  62.0477264 102.6404398  82.6435354  62.2159471
 103.9834420  82.4969571  62.8991296 103.3247777  90.6021019  64.5477158
 102.6719227  90.8496927  63.8929610 103.7028156  89.7885158  64.2139635
 100.2854950 100.6380713  58.6505328 100.4677345  99.8202368  59.1133080
 101.1087936 100.8548405  58.2130218 100.6197116  99.5648898  55.9120376
 101.1484882  99.0541352  55.2990539 100.8825335  99.2491428  56.7765909
  99.3735350  91.3440830  71.0343195  98.6975987  91.2434960  71.7045570
 100.1962983  91.1880044  71.4979192  91.1214209  97.5812767  63.6555710
  91.7067645  96.8356455  63.7883614  90.9239047  97.8916724  64.5392374
  93.9752864 100.6164014  58.6718152  93.3063239 101.1010142  58.1882192
  93.8365734 100.8633235  59.5861531  85.7131863  90.1518367  62.3760153
  85.7515963  89.6181958  63.1697271  85.2072156  89.6253573  61.7571130
  98.1158132 102.6507758  65.2700811  98.6676440 102.8139379  66.0349896
  98.4564326 103.2412196  64.5980836  93.0922626  84.9982908  65.8722695
  93.1563952  85.8597739  65.4600093  93.0289746  84.3856909  65.1395054
  92.5674898  87.0706040  69.5195730  93.1946937  86.6883118  70.1333254
  91.7102817  86.8520242  69.8851422 102.9669007  97.4769015  71.1249465
 103.5108911  98.0898974  70.6304420 102.3855852  98.0348594  71.6416478
  89.3440441  88.8782469  55.4514085  89.6393882  87.9693148  55.3981138
  88.4428477  88.8570209  55.1295087 101.2526520 100.5989733  62.2564493
 101.1277659  99.7979473  61.7475438 101.9105611 101.0935927  61.7678463
  92.8734688  86.9538466  61.4341633  92.1521274  87.5674434  61.2949106
  93.6627944  87.4896231  61.3558279 103.3161428  98.3998753  63.8844043
 102.3691764  98.2804105  63.8122370 103.6644201  97.5121252  63.9670304
  95.6761001  84.2892892  67.7082285  96.1995403  84.5355189  68.4708594
  95.4573335  85.1212927  67.2885422  91.0728283  86.5596567  55.5753410
  90.7440989  85.6793946  55.3928516  91.4267653  86.5044236  56.4629799
 100.3207861  98.1951470  60.0848395 100.1732824  97.2668177  60.2655965
 101.1461355  98.2171560  59.6005470  94.1870106  86.8469537  55.9428887
  94.5266178  87.3755458  55.2207496  94.6342226  87.1849943  56.7187454
 103.9241983  99.0180028  61.1713268 104.8488531  98.8122890  61.0337719
 103.7557287  98.7696430  62.0802609  96.8813547  85.2306588  65.3931955
  96.5410367  84.4314401  65.7952635  96.1752553  85.5308298  64.8208789
  97.5330018  82.3155900  63.8459278  98.3556088  81.8416378  63.7238169
  97.7768082  83.0946384  64.3457965  96.1738253  85.3444158  54.1422180
  96.8946615  85.7225411  53.6385897  95.5503557  86.0633035  54.2457158
 100.3169376  86.0489307  55.0780512 100.5332990  86.9313945  54.7769341
  99.8363443  85.6575521  54.3486154  95.0568597  89.0075021  61.6551257
  94.9113178  89.3215324  62.5475539  94.5793801  89.6259921  61.1022156
  96.9164980  85.9977569  61.7032147  96.9026549  85.1018662  61.3664445
  97.6337408  86.0048232  62.3370433  98.7691111  86.4314909  63.7485274
  98.5108889  87.3531979  63.7469604  98.2376151  86.0345343  64.4385738
 103.7137299  99.5365696  56.5275359 103.8874177  98.9712118  55.7749212
 104.2066191 100.3366591  56.3454849  89.5314259  91.5480365  64.5938918
  88.9867727  92.3240173  64.7259193  90.4093609  91.8951169  64.4358040
  96.3201876  84.8791949  56.9719717  96.4417787  83.9508595  57.1710604
  96.0303918  84.8930635  56.0598032  99.1893066  82.5646859  60.1086437
  99.2114763  82.6286192  59.1538416  99.6061125  81.7251368  60.3026943
 109.5676691  92.3002119  58.1465659 110.0107837  91.5509444  57.7484782
 108.6903201  92.2912255  57.7639391 104.7012472  98.8532460  53.6272258
 105.3963377  99.4739153  53.8459572 105.0435622  98.0027812  53.9024636
  90.3180281  90.6750261  67.4869075  89.5762017  90.8232897  68.0733706
  89.9973025  90.9358527  66.6235825 106.6003895  96.3032166  55.1559588
 107.1255219  96.6419439  54.4308909 106.5126248  95.3679181  54.9722723
  98.2623944 100.2166239  67.2849465  98.5711070  99.9715386  68.1572165
  99.0599426 100.4212878  66.7968335  98.2844556 102.3704149  59.5154842
  97.8449546 101.8780528  60.2087698  99.0352673 101.8277117  59.2746917
  90.7636895  98.5615690  59.5179470  91.5894915  98.2619462  59.1378113
  90.4130947  97.7923312  59.9669258  95.7318428  97.9142158  61.5877143
  95.1098437  97.2512863  61.2879371  96.4023295  97.9403290  60.9050791
  88.9645500  96.4802016  60.4768403  88.1277408  96.0524191  60.2952405
  88.9369145  96.6734460  61.4139195  95.8042955  86.3923946  71.1809649
  95.8531111  87.2686069  70.7987419  96.3465470  85.8501339  70.6081293
 106.2897801  96.9365069  70.4610786 105.4993345  96.9189208  69.9215286
 106.0531156  97.4753363  71.2159823 106.4095676  93.7857536  67.7743515
 106.4593681  93.6207543  68.7159038 106.3009600  92.9184795  67.3841396
  95.2931935  96.4646082  55.0635604  95.4420055  97.1481546  54.4102277
  96.0998378  96.4451172  55.5785060 103.6999439  89.7688464  69.0902822
 104.6009301  89.6294929  68.7986819 103.7747413  89.9342919  70.0300999
  98.0342244  87.1455319  67.9356008  97.1645553  87.4388885  67.6638597
  98.2701724  87.7295764  68.6563272 107.9113873  96.2054477  68.0185537
 107.6198681  96.5684458  68.8548997 107.2986004  95.4921486  67.8398869
 109.1109555  93.7707357  60.5388107 109.9456447  94.2097161  60.7025667
 109.2468684  93.2946010  59.7196353 106.1601061  91.3287092  66.4865595
 106.6355183  91.5214738  65.6784446 105.2366627  91.3846278  66.2408978
  93.0484568  92.4911259  56.0696673  92.8030610  91.5873589  56.2676883
  93.2180482  92.4928410  55.1276151 100.7381278  83.3634936  65.4521428
 101.2563222  84.0995962  65.1267917 100.3836411  83.6698929  66.2868188
  92.3180215  88.2239617  53.5682834  91.6249460  88.2983972  52.9122870
  92.0731967  87.4599960  54.0904351 100.9893872  79.7835218  60.9722325
 101.2695626  79.1158407  61.5982752 101.7744479  79.9764314  60.4596989
  98.7927340  98.9594212  52.5347351  98.2201307  99.5784399  52.0817823
  99.3660134  99.5093574  53.0687273 104.8602730  88.2052852  64.7193900
 105.8120153  88.3050950  64.7406124 104.6906181  87.4131121  65.2291984
 102.8817110  85.2908435  64.9053301 102.2867042  85.5713448  64.2099790
 102.5966806  85.7802336  65.6770042 102.0124600  99.2431362  53.6655934
 102.9455273  99.1776924  53.8688809 101.9247813 100.0787629  53.2070466
 104.6412617  98.5597232  50.6259881 104.5626248  98.2257096  51.5195639
 105.4622284  99.0519000  50.6251354 107.3390808  91.4258972  63.8336200
 107.3067128  90.4874972  64.0195884 107.9491432  91.5043008  63.1002025
  99.1774139  90.2955025  49.8763404 100.1233244  90.1661233  49.9451822
  98.7988384  89.5569687  50.3532832 107.4885297  88.2170015  63.8794483
 106.9724345  87.4328472  63.6924412 108.3725245  87.8888732  64.0441002
 105.1496023  81.9611031  59.8390296 104.9520845  81.6526119  60.7233628
 105.7595729  82.6872670  59.9688225 113.1567358  92.4874979  62.9742237
 113.8870746  92.2260267  63.5349940 112.5474303  91.7503701  63.0144305
 111.2382655  90.6282841  63.5716688 110.5115819  90.4938806  62.9633179
 110.8229942  90.9359670  64.3773406  99.0612831  94.3472771  71.3364061
  99.9815841  94.5251370  71.5304107  99.0262414  93.4028816  71.1843760
  97.3617056  88.2205001  49.8118289  96.4548511  87.9238114  49.8881003
  97.6393037  87.9234819  48.9452575  88.2794996  89.5411365  60.2617335
  87.9597781  88.6876673  59.9691709  87.7328425  89.7559943  61.0175303
  92.0574904  92.2573806  63.9786842  92.2760914  93.1890913  63.9974876
  92.4700678  91.8981780  64.7641646  98.9779122  82.7641891  55.9662530
  98.1679850  82.4188976  56.3417776  99.6663539  82.4549435  56.5550142
 100.9069670  81.8419938  57.5886827 101.4600709  82.2615391  58.2476850
 101.1439756  80.9155686  57.6309783  96.9302769  87.8307011  73.3689591
  96.8299496  88.7801368  73.3001682  96.7124311  87.5025250  72.4965661
  96.1315841  85.0791936  49.9530268  96.9935005  85.4046835  50.2126086
  96.3166185  84.2923432  49.4403334  88.1483256  93.1614276  62.2310457
  87.4546728  92.7468229  61.7180411  88.8956247  93.2034813  61.6343876
 104.2848477  83.9520463  57.0965491 103.7047146  84.6105267  56.7143544
 104.0184410  83.1297807  56.6852909 102.7352044  83.3525521  59.2986812
 103.2351822  83.4642055  58.4901130 103.3787651  83.0486573  59.9387620
  96.7934039  91.2604150  72.1854653  96.3101121  92.0604510  72.3918542
  96.8794978  91.2712095  71.2322097  90.0619999  93.0932530  60.1076472
  90.0390687  93.1920217  59.1558355  90.3720635  93.9397681  60.4293638
  92.7207377  95.1508685  64.2223086  93.6750630  95.1192627  64.1553018
  92.5219900  94.6899309  65.0373312  93.3106759  93.7209801  66.7893884
  94.1299648  94.2153880  66.8128721  93.5843567  92.8041769  66.7611451
 103.0673355  86.1120553  56.1521840 102.1799210  86.3970204  55.9342034
 103.4827344  85.9514317  55.3049116 106.4187891  86.1367074  59.8676179
 107.1948281  86.6263527  60.1400796 105.6936025  86.5625128  60.3248048
 108.8560450  86.8494693  60.9250119 109.4504941  86.6090429  60.2143428
 108.9287034  86.1301824  61.5523656  91.0757606 100.6928304  61.2393284
  90.9412074  99.9328705  60.6731282  90.6589668 101.4169204  60.7722073
 102.2116569  95.8765228  50.2469859 102.9152419  96.0815230  50.8627515
 101.4879217  96.4441990  50.5118943 103.0414379  91.6275089  56.3672130
 102.9849580  92.0843641  55.5279762 103.5942721  90.8665774  56.1894972
 106.8519185  87.4164821  57.1922249 106.5956119  87.0161457  58.0230457
 106.2272053  88.1308615  57.0672388 111.1631523  90.1560894  59.6993541
 110.6031081  90.2254084  60.4725103 110.5575026  89.9801879  58.9793037
  94.2326731 101.5897621  61.4511727  94.1159116 102.5343054  61.3490417
  93.4119178 101.2871183  61.8397526 104.1203266  96.3147757  52.2968320
 104.9548870  95.8828956  52.1145794 103.9587609  96.1429771  53.2245214
 103.7749158  92.8179870  53.6624659 103.7197962  92.6524142  52.7213103
 103.1495213  93.5255903  53.8186849  88.5641673  88.0547935  67.4886081
  89.2100537  87.5446889  67.9773306  88.3558824  88.7916616  68.0629506
 101.0895065  95.1228782  72.9878222 101.9586225  95.2969435  72.6264857
 100.6101817  95.9423199  72.8653951  97.0845284  82.3187979  53.2409977
  97.0723954  83.2629819  53.3978248  97.9768706  82.1358125  52.9469438
  95.2581246 102.2425883  64.6667655  96.1608492 102.2749493  64.9834150
  95.0318616 101.3126334  64.6813991  97.0134848 100.9956870  61.3277734
  96.0630479 100.9958731  61.2142106  97.3167334 100.2489604  60.8113769
 100.8997403  78.9130756  57.4955914 100.1329799  78.3589243  57.6412596
 101.3108108  78.9852625  58.3570066  92.9039164  85.2015552  71.5861095
  93.7670626  84.8452357  71.7964420  92.3304575  84.8629447  72.2736500
 112.7487541 106.8317408  62.3923496 113.3865951 106.7124156  61.6886836
 112.6308384 107.7798252  62.4511448 109.5577247 106.7844836  62.3285021
 109.2195759 106.6685901  61.4405556 110.4267016 106.3836001  62.3086027
 105.4164063 108.6380313  58.3181912 104.8528928 108.5470250  57.5498200
 105.3016458 107.8180217  58.7984404 110.0397030 107.9379688  68.2871226
 110.0285671 107.5432486  67.4151730 110.2017670 107.2045761  68.8804998
 102.9628495 110.1331504  61.1566132 103.7549787 109.7922329  60.7412432
 103.2025145 110.2426479  62.0768286 104.9219249 109.3940418  54.0283511
 105.6950125 108.8469405  53.8896387 105.2744648 110.2584667  54.2397973
 106.7604292 110.7216800  67.2350410 106.4694158 111.6262431  67.1197077
 107.3961276 110.7633327  67.9494480 107.6860498 108.0993648  63.8251770
 108.2824071 107.8749671  63.1108733 107.7435470 107.3578394  64.4277218
 107.2585527 105.5533084  51.6601961 107.5111047 105.0314605  50.8985424
 106.3210086 105.3899229  51.7628645 112.3028810 104.5568862  59.4676704
 113.0891899 104.1388285  59.1167121 112.5667514 105.4614954  59.6358353
 117.7037237 104.4944095  60.3709683 118.4362409 103.9243312  60.6047512
 116.9476592 104.1065696  60.8116188 106.9781816 107.4561190  53.8626336
 106.8618074 106.7806093  54.5307420 107.0884075 106.9693564  53.0458489
 109.3213356 106.9171337  57.5673025 108.9571564 106.3901958  58.2785947
 110.1780472 106.5269806  57.3939511 115.2262657  98.2065669  64.8304291
 114.8945982  99.0761080  64.6065506 114.6308270  97.8901953  65.5098322
 108.9618843 101.9461236  52.5634374 109.1293246 102.8141473  52.9304845
 108.7716013 102.1088518  51.6395663 105.1706658 106.8592012  60.2636909
 104.2457155 106.7268226  60.4714600 105.4191071 107.6386231  60.7606851
 115.1191320 102.9260756  61.9097641 114.2108198 102.8576164  61.6156402
 115.0678916 103.4032700  62.7379467 108.9408064 104.4018894  53.5481041
 108.8207690 104.8475945  54.3866521 108.2460653 104.7504212  52.9894579
 102.5315469 106.5025286  61.0980698 102.6607850 106.7559765  62.0120109
 101.8512920 107.0952994  60.7785353 109.1932186 104.3450401  69.8532539
 108.4165520 104.9044321  69.8435403 109.8322749 104.8307184  70.3747409
 116.9852967 101.1277194  63.6875515 116.3427347 101.4209727  63.0415310
 116.4807895 101.0130114  64.4928712 114.6393130 104.8740367  54.3761375
 115.5510987 105.1067754  54.2009072 114.1302778 105.4577411  53.8136453
 107.4478559 107.1535854  69.4150506 108.1893243 107.6920898  69.1385329
 106.7415544 107.7802143  69.5722058 112.9233898 109.2964995  68.0122667
 113.3317254 108.8547405  67.2677300 112.2011160 108.7217622  68.2656860
 109.2764968 104.2337602  65.3856224 110.1226163 104.6577015  65.5290873
 109.2163606 103.5771226  66.0794787 112.4264414 101.8941970  67.0437398
 112.1825345 102.6484031  66.5071674 112.7024344 102.2727318  67.8784645
 111.9829105 101.0498403  62.6251236 111.1213584 101.3479657  62.9167973
 112.0091540 101.2668802  61.6932268 108.7990675 109.5940594  59.0325041
 109.2629020 109.8728297  58.2429664 108.5347473 108.6924038  58.8498132
 105.6914756 109.1412075  61.9704804 106.2616113 109.5699344  61.3322289
 106.2822868 108.8594660  62.6688990 107.7359561 105.7163746  55.8414606
 108.4383604 106.1684790  56.3088533 107.4040189 105.0747565  56.4694499
 106.1839922 104.3075503  70.2165816 105.5538583 104.9891783  70.4501213
 106.0776010 104.1958584  69.2718954 101.4784895 103.9747299  61.1431740
 100.6883949 104.2304827  60.6671851 101.9696142 104.7895637  61.2483780
 103.4299640 104.3391878  58.1015217 102.6330803 104.4510572  58.6198712
 103.2025232 104.6778530  57.2356107 109.2605308 110.8636581  66.0497731
 109.3249740 111.3256988  66.8855903 108.5516232 110.2333946  66.1780041
  99.7622598 104.2277789  63.5746731 100.0130636 105.1124799  63.8404307
 100.2982146 104.0482391  62.8021823 105.4620665  98.6096268  72.5791067
 105.0687611  98.0562467  73.2538711 106.2786805  98.9206847  72.9697584
 102.4282723 110.0480127  56.4904637 102.9407243 110.8423377  56.6410201
 103.0805436 109.3506417  56.4238238 104.2377607 113.1645883  58.5727390
 104.4144236 114.0863848  58.3848374 105.0334441 112.8504302  59.0021770
 108.3788626 100.0254148  70.1711323 109.1198339 100.6261301  70.0915786
 108.6106549  99.2831785  69.6129366 103.5229964 105.2110515  68.4489553
 103.4083479 104.3095772  68.7496652 102.6674482 105.4574212  68.0974370
 105.3608923 114.6824057  64.5737732 105.9116348 114.5541120  63.8014726
 104.5220399 114.9818946  64.2232625 109.1576094 110.9475185  68.9181963
 109.6904431 110.1863473  68.6881271 108.6290175 110.6548836  69.6606118
 112.3245789  96.0535250  64.4475605 111.9810058  96.9436892  64.3714716
 112.6924752  95.8636908  63.5845190 100.3931640 108.3768781  57.2664207
 101.2306862 108.7865789  57.0497915 100.5709907 107.4368223  57.2364401
 112.2896072 106.0443862  52.9548040 111.7742695 106.8148466  53.1936428
 112.0173380 105.3708998  53.5781102 109.8743183 100.8893562  58.0133279
 109.0184779 100.5000413  57.8338917 110.2870134 100.9685523  57.1533064
 111.4042329  98.4239906  62.4124838 110.9007125  98.3870041  61.5992644
 111.6972936  99.3332648  62.4721495 107.6485215  98.5078635  61.4191020
 108.5138212  98.3121444  61.0596910 107.7162724  98.2788987  62.3460377
 112.0782375 103.9170954  54.7807821 111.7732510 104.2317103  55.6317965
 113.0312817 103.9952374  54.8235154 110.5228807 110.0761177  56.4300775
 109.9950168 109.3413937  56.1174013 110.0216309 110.8535853  56.1840744
 105.2547534 100.7380843  58.7907387 105.8291286 100.5156025  58.0580580
 105.8418517 100.8069538  59.5435988 114.3127111 106.6254570  59.5971763
 114.8258993 107.2584562  60.0993473 114.9628335 106.0255766  59.2315123
 105.5817121 102.7685304  52.8103272 104.7454434 103.1059991  53.1312547
 105.4421891 102.6334284  51.8730409 107.5570202  97.6122092  57.5182456
 106.9034614  97.2971109  56.8939071 107.5150676  96.9897833  58.2442279
 108.6681407 107.8941387  49.4335748 107.7608469 107.6630641  49.6326897
 109.1652439 107.0979007  49.6209730 110.7907942 104.1004026  61.8430104
 109.8730504 104.3218973  61.6851792 111.2068086 104.1750336  60.9841811
 111.5742990 105.4995441  56.9732784 112.3214809 106.0116839  56.6639906
 111.8434580 105.1779494  57.8337178 109.8469640 107.9953982  53.9559738
 108.9380860 107.7113015  54.0532208 109.8764724 108.4153061  53.0963045
 114.0221827 102.5352558  58.9551573 113.2844584 102.0229944  59.2861816
 114.2748601 102.0952939  58.1434850 114.1233455  95.3128810  59.5493343
 114.4292331  94.4526173  59.2619258 114.8486059  95.9046430  59.3492337
 100.4157811 105.7159496  57.9374941 100.2182210 105.1228857  57.2126007
  99.8604475 105.4111706  58.6550879 108.3954534 105.6082603  60.0569534
 108.4503144 104.6556439  59.9812010 107.5845736 105.7642042  60.5410832
 109.5445728 109.5362726  51.2947817 109.1065158 108.8198585  50.8353454
 110.2856169 109.7638841  50.7332908 106.3346894 104.2259662  57.8159913
 105.5214760 104.5253833  58.2225105 106.8305888 103.8315351  58.5334395
 111.9321106 104.6901487  66.6474807 112.2870494 104.9172960  67.5069272
 112.5793237 105.0219864  66.0252062 105.8260969 101.7978018  63.4321148
 106.4660348 101.6566777  62.7344111 104.9938500 101.5112531  63.0559750
 106.6021273 111.0980448  59.5456140 107.3961871 110.6030769  59.3438715
 105.8912965 110.5698312  59.1823846 102.9104036 105.2423530  55.6215893
 101.9801624 105.1807986  55.8385855 103.0061508 104.7199483  54.8252534
 102.8289585 101.7678343  58.2094134 103.0896403 102.6823676  58.1003295
 103.6506758 101.3002786  58.3590747 104.3014511 103.1816100  65.3792959
 104.9737564 102.9733462  64.7305608 103.4744297 102.9838186  64.9398191
 110.2040083  99.8078041  67.3958620 109.5567998 100.5067991  67.3023096
 110.9741098 100.2414185  67.7634868 110.3804217 107.6458806  65.4555440
 111.3096277 107.7969966  65.2824407 109.9595247 107.7342827  64.6004086
 109.1792549 111.6709470  63.2253977 109.0403635 111.3028255  64.0979915
 108.3907145 112.1857110  63.0537935 110.7297764 111.0491073  60.6142815
 110.3947597 111.0091843  61.5100465 110.2301710 110.3835789  60.1413225
 104.7042008 106.4558703  66.1395396 104.5661806 105.7238942  66.7406935
 105.6146931 106.3667603  65.8579584 113.6656956 108.3947107  50.8879875
 113.0486126 107.6693936  50.7912927 113.1973444 109.1556468  50.5446949
 107.3324309 106.1678662  65.6279076 108.0423927 105.5271855  65.5865694
 107.2893617 106.4191557  66.5505257 106.0453243 103.1543880  67.4474715
 105.5090600 102.7034619  68.0996312 105.4569951 103.2889789  66.7045180
 105.4555502 102.6132532  50.0101179 104.5784968 102.4921333  49.6463426
 105.9313255 101.8218610  49.7580068  96.9757642 107.4009691  60.1042686
  97.6628682 107.0871422  59.5163701  96.8205770 108.3051056  59.8309937
 101.7792364 102.2899888  64.5327710 101.6950553 101.6825558  63.7978120
 100.9575070 102.7808906  64.5337206 111.9516078 100.7753452  59.8997905
 112.4484777 100.0223414  59.5798975 111.1803059 100.8117768  59.3341114
 113.0345858 109.5325139  57.4736328 112.1002137 109.6526601  57.3041033
 113.2122527 108.6297606  57.2096338 108.5351046 102.9170835  59.6269589
 108.1648834 102.3641875  60.3150495 109.0310139 102.3128968  59.0744589
 116.4218410 105.3742458  58.0086362 116.8878862 106.2070450  57.9346665
 116.8725910 104.9087440  58.7131621 106.3640245 113.3768330  66.7224607
 107.0649705 114.0104813  66.8754002 105.8935360 113.7183061  65.9620247
 114.3935073  97.7423045  62.0477264 113.4798152  97.9727272  62.2159471
 114.8228174  97.8261489  62.8991296 114.1641531 105.9312937  64.5477158
 113.5112981 106.1788844  63.8929610 114.5421911 105.1177075  64.2139635
 110.2129104 106.6732748  71.0343195 109.5369741 106.5726877  71.7045570
 111.0356738 106.5171962  71.4979192 101.9607963 112.9104685  63.6555710
 102.5461400 112.1648373  63.7883614 101.7632802 113.2208641  64.5392374
  96.5525618 105.4810285  62.3760153  96.5909717 104.9473876  63.1697271
  96.0465911 104.9545490  61.7571130 103.9316380 100.3274825  65.8722695
 103.9957707 101.1889656  65.4600093 103.8683500  99.7148827  65.1395054
 103.4068653 102.3997958  69.5195730 104.0340691 102.0175035  70.1333254
 102.5496572 102.1812160  69.8851422 100.1834195 104.2074387  55.4514085
 100.4787637 103.2985065  55.3981138  99.2822231 104.1862126  55.1295087
 103.7128442 102.2830384  61.4341633 102.9915028 102.8966351  61.2949106
 104.5021698 102.8188148  61.3558279 106.5154756  99.6184810  67.7082285
 107.0389158  99.8647107  68.4708594 106.2967089 100.4504845  67.2885422
 101.9122037 101.8888485  55.5753410 101.5834743 101.0085864  55.3928516
 102.2661408 101.8336153  56.4629799 105.0263860 102.1761454  55.9428887
 105.3659933 102.7047376  55.2207496 105.4735981 102.5141861  56.7187454
 107.7207301 100.5598505  65.3931955 107.3804121  99.7606318  65.7952635
 107.0146307 100.8600216  64.8208789 108.3723773  97.6447818  63.8459278
 109.1949842  97.1708296  63.7238169 108.6161836  98.4238301  64.3457965
 107.0132007 100.6736076  54.1422180 107.7340370 101.0517329  53.6385897
 106.3897311 101.3924953  54.2457158 111.1563130 101.3781225  55.0780512
 111.3726745 102.2605863  54.7769341 110.6757197 100.9867438  54.3486154
 105.8962352 104.3366938  61.6551257 105.7506932 104.6507241  62.5475539
 105.4187555 104.9551839  61.1022156 107.7558734 101.3269486  61.7032147
 107.7420303 100.4310580  61.3664445 108.4731163 101.3340150  62.3370433
 109.6084865 101.7606826  63.7485274 109.3502643 102.6823897  63.7469604
 109.0769906 101.3637261  64.4385738 100.3708014 106.8772283  64.5938918
  99.8261482 107.6532091  64.7259193 101.2487364 107.2243087  64.4358040
 107.1595630 100.2083867  56.9719717 107.2811542  99.2800513  57.1710604
 106.8697673 100.2222552  56.0598032 110.0286821  97.8938777  60.1086437
 110.0508518  97.9578110  59.1538416 110.4454880  97.0543286  60.3026943
 101.1574036 106.0042179  67.4869075 100.4155772 106.1524814  68.0733706
 100.8366780 106.2650445  66.6235825 101.6030649 113.8907608  59.5179470
 102.4288669 113.5911380  59.1378113 101.2524701 113.1215230  59.9669258
 106.5712182 113.2434076  61.5877143 105.9492192 112.5804781  61.2879371
 107.2417049 113.2695208  60.9050791  99.8039254 111.8093934  60.4768403
  98.9671163 111.3816108  60.2952405  99.7762900 112.0026377  61.4139195
 106.6436710 101.7215864  71.1809649 106.6924865 102.5977987  70.7987419
 107.1859224 101.1793257  70.6081293 106.1325689 111.7937999  55.0635604
 106.2813810 112.4773464  54.4102277 106.9392133 111.7743089  55.5785060
 114.5393193 105.0980382  69.0902822 115.4403056 104.9586846  68.7986819
 114.6141168 105.2634836  70.0300999 108.8735998 102.4747236  67.9356008
 108.0039308 102.7680802  67.6638597 109.1095479 103.0587681  68.6563272
 103.8878322 107.8203177  56.0696673 103.6424364 106.9165507  56.2676883
 104.0574237 107.8220327  55.1276151 111.5775032  98.6926853  65.4521428
 112.0956976  99.4287880  65.1267917 111.2230165  98.9990847  66.2868188
 103.1573970 103.5531534  53.5682834 102.4643215 103.6275889  52.9122870
 102.9125722 102.7891878  54.0904351 111.8287626  95.1127136  60.9722325
 112.1089380  94.4450325  61.5982752 112.6138233  95.3056231  60.4596989
 115.6996485 103.5344770  64.7193900 116.6513908 103.6342867  64.7406124
 115.5299935 102.7423038  65.2291984 113.7210864 100.6200353  64.9053301
 113.1260796 100.9005366  64.2099790 113.4360561 101.1094254  65.6770042
 110.0167893 105.6246942  49.8763404 110.9626998 105.4953151  49.9451822
 109.6382138 104.8861604  50.3532832 118.3279051 103.5461933  63.8794483
 117.8118100 102.7620389  63.6924412 119.2119000 103.2180649  64.0441002
 115.9889778  97.2902948  59.8390296 115.7914599  96.9818037  60.7233628
 116.5989484  98.0164587  59.9688225 109.9006586 109.6764689  71.3364061
 110.8209595 109.8543288  71.5304107 109.8656169 108.7320734  71.1843760
 108.2010811 103.5496919  49.8118289 107.2942266 103.2530032  49.8881003
 108.4786792 103.2526737  48.9452575  99.1188751 104.8703282  60.2617335
  98.7991535 104.0168590  59.9691709  98.5722179 105.0851860  61.0175303
 102.8968658 107.5865723  63.9786842 103.1154668 108.5182831  63.9974876
 103.3094432 107.2273698  64.7641646 109.8172876  98.0933809  55.9662530
 109.0073605  97.7480893  56.3417776 110.5057293  97.7841352  56.5550142
 111.7463425  97.1711855  57.5886827 112.2994463  97.5907309  58.2476850
 111.9833511  96.2447603  57.6309783 107.7696524 103.1598929  73.3689591
 107.6693251 104.1093286  73.3001682 107.5518066 102.8317168  72.4965661
 106.9709595 100.4083854  49.9530268 107.8328759 100.7338752  50.2126086
 107.1559939  99.6215350  49.4403334  98.9877011 108.4906194  62.2310457
  98.2940482 108.0760146  61.7180411  99.7350002 108.5326730  61.6343876
 115.1242232  99.2812380  57.0965491 114.5440901  99.9397185  56.7143544
 114.8578164  98.4589725  56.6852909 113.5745798  98.6817438  59.2986812
 114.0745576  98.7933973  58.4901130 114.2181406  98.3778491  59.9387620
 107.6327794 106.5896068  72.1854653 107.1494876 107.3896428  72.3918542
 107.7188733 106.6004013  71.2322097 100.9013753 108.4224447  60.1076472
 100.8784442 108.5212135  59.1558355 101.2114390 109.2689598  60.4293638
 103.5601131 110.4800602  64.2223086 104.5144385 110.4484545  64.1553018
 103.3613655 110.0191226  65.0373312 104.1500513 109.0501719  66.7893884
 104.9693402 109.5445797  66.8128721 104.4237321 108.1333687  66.7611451
 113.9067110 101.4412471  56.1521840 113.0192965 101.7262121  55.9342034
 114.3221099 101.2806234  55.3049116 117.2581646 101.4658992  59.8676179
 118.0342036 101.9555444  60.1400796 116.5329780 101.8917046  60.3248048
 119.6954204 102.1786611  60.9250119 120.2898695 101.9382347  60.2143428
 119.7680788 101.4593742  61.5523656 101.9151360 116.0220222  61.2393284
 101.7805828 115.2620623  60.6731282 101.4983422 116.7461122  60.7722073
 113.8808133 106.9567007  56.3672130 113.8243335 107.4135558  55.5279762
 114.4336476 106.1957691  56.1894972 117.6912939 102.7456739  57.1922249
 117.4349874 102.3453374  58.0230457 117.0665807 103.4600533  57.0672388
 114.6142913 108.1471788  53.6624659 114.5591717 107.9816059  52.7213103
 113.9888968 108.8547821  53.8186849  99.4035428 103.3839852  67.4886081
 100.0494291 102.8738806  67.9773306  99.1952579 104.1208534  68.0629506
 107.9239038  97.6479897  53.2409977 107.9117708  98.5921737  53.3978248
 108.8162460  97.4650042  52.9469438 111.7391158  94.2422674  57.4955914
 110.9723553  93.6881160  57.6412596 112.1501863  94.3144542  58.3570066
 103.7432919 100.5307469  71.5861095 104.6064380 100.1744274  71.7964420
 103.1698329 100.1921364  72.2736500  44.5214722  -8.1844547  49.0530328
  44.1833233  -8.3003482  48.1650862  45.3904490  -8.5853382  49.0331334
  40.3801537  -6.3309071  45.0427219  39.8166403  -6.4219134  44.2743506
  40.2653932  -7.1509166  45.5229711  45.0034505  -7.0309695  55.0116533
  44.9923145  -7.4256897  54.1397037  45.1655144  -7.7643623  55.6050305
  37.9265969  -4.8357879  47.8811439  38.7187261  -5.1767055  47.4657738
  38.1662620  -4.7262904  48.8013592  45.9601096  -2.6638103  40.3541683
  45.3089076  -2.0784023  39.9675697  46.7545459  -2.1331908  40.4136721
  39.8856723  -5.5748966  40.7528818  40.6587599  -6.1219979  40.6141694
  40.2382122  -4.7104717  40.9643279  41.7241766  -4.2472584  53.9595717
  41.4331632  -3.3426953  53.8442383  42.3598750  -4.2056056  54.6739787
  42.6497973  -6.8695735  50.5497077  43.2461545  -7.0939713  49.8354040
  42.7072944  -7.6110990  51.1522525  47.4376361  -4.9747671  40.8910668
  46.8022194  -4.9013045  41.6031572  47.1073768  -4.3854072  40.2129747
  41.9419290  -7.5128194  40.5871643  41.8255548  -8.1883290  41.2552727
  42.0521550  -7.9995820  39.7703796  44.2850831  -8.0518047  44.2918332
  43.9209038  -8.5787426  45.0031253  45.1417947  -8.4419578  44.1184817
  46.6831651  -4.5611168  50.9545511  46.3832374  -3.6586129  50.8461318
  46.3382710  -4.8278985  51.8066664  40.1344132  -8.1097371  46.9882215
  39.2094629  -8.2421157  47.1959907  40.3828546  -7.3303152  47.4852158
  41.6652431   2.2033152  43.9216479  41.5876460   3.1540977  44.0004959
  41.0614074   1.8579025  44.5791405  42.4116033  -7.8153529  56.1395812
  43.1530717  -7.2768485  55.8630636  41.7053018  -7.1887240  56.2967364
  47.8871372  -5.6724389  54.7367974  48.2954728  -6.1141978  53.9922606
  47.1648634  -6.2471761  54.9902167  48.2100187  -5.1123198  48.4920263
  47.5809050  -4.9477484  47.7896331  47.8225849  -4.6981588  49.2631227
  52.0889419  -4.1768760  45.8464627  51.4040457  -3.7969859  45.2961660
  52.1733268  -3.5673433  46.5796574  49.3440351  -6.5308801  52.4459970
  49.5557246  -5.8877041  51.7694351  49.2970099  -7.3646484  51.9781900
  43.7628149  -5.3748790  45.7570348  44.2266495  -5.0961087  44.9674970
  43.4984947  -6.2765345  45.5743439  40.6552230  -5.8277308  48.6950111
  41.2253587  -5.3990040  48.0567596  41.2460342  -6.1094724  49.3934297
  50.4586179  -3.6536846  50.6182327  51.2803622  -4.0556658  50.3365009
  50.4548581  -3.7568611  51.5698443  44.2242782  -4.1052802  52.7743038
  44.2887215  -3.6432395  53.6101210  43.5153706  -4.7355437  52.9025348
  43.9390800  -2.4384695  42.6422018  43.8036474  -1.5933159  43.0706866
  44.4800612  -2.2365417  41.8787952  37.3920197  -4.9209257  43.2149943
  37.9044718  -4.1266007  43.3655508  38.0442910  -5.6182966  43.1483545
  39.2015082  -1.8043501  45.2972696  39.3781710  -0.8825536  45.1093680
  39.9971915  -2.1185081  45.7267076  45.5659276  -1.8161128  56.7722360
  45.1223130  -2.6024750  56.4543265  46.2276490  -1.6281978  56.1066251
  40.3246397  -0.2865327  51.2983039  40.8753822  -0.4148263  50.5260033
  39.4857873   0.0129562  50.9477932  47.6640514  -1.5358328  54.8003762
  47.6458989  -0.7149447  54.3084031  48.5860434  -1.6604253  55.0253903
  44.1213568  -4.0214199  55.6427270  44.6541905  -4.7825911  55.4126578
  43.5927649  -4.3140547  56.3851424  45.4866281  -4.8928206  43.1546082
  44.9587643  -5.6275447  42.8419319  44.9853784  -4.1153530  42.9086050
  50.4659127  -6.6979186  48.2713128  49.8082801  -6.0079925  48.3593257
  51.2699526  -6.3082754  48.6147115  43.6318881  -7.0747996  36.1581055
  42.7245943  -7.3058743  36.3572204  44.1289913  -7.8710377  36.3455037
  46.5386960   1.6349511  39.0777741  45.8648659   1.9381208  39.6862699
  46.9252782   2.4378591  38.7283198  44.8107115  -6.9735401  40.6805045
  43.9018334  -7.2576368  40.7777515  44.8402198  -6.5536323  39.8208352
  50.0426382  -3.3628812  44.4496213  49.5888709  -4.2037902  44.5061403
  49.4120349  -2.7267413  44.7870993  48.4859321  -1.5252315  45.3846031
  48.7782296  -0.9647258  44.6658396  48.9957942  -1.2323754  46.1399190
  44.5083202  -5.4326658  38.0193124  44.0702632  -6.1490799  37.5598761
  45.2493643  -5.2050543  37.4578215  43.4492946  -0.7471964  46.4739484
  43.4069125  -0.5211118  45.5448016  44.3655645  -0.9808589  46.6225285
  52.6525697  -5.0892934  49.0880714  53.0862203  -5.1817645  49.9363768
  53.3657277  -5.1135433  48.4500730  41.5658747  -3.8708935  46.2701447
  42.3599346  -4.3658615  46.0684022  40.8550440  -4.3991072  45.9069152
  46.3853592  -1.4890839  50.6213814  46.4390614  -0.9199903  51.3891530
  45.5168373  -1.3188954  50.2567851  53.5141246  -5.0469233  51.6213599
  53.7077136  -4.1423422  51.8672874  53.4141864  -5.5061814  52.4552184
  48.5756355  -4.8962490  57.1954480  48.4241861  -5.1251939  56.2784563
  48.5661034  -3.9391889  57.2085825  45.3441691  -7.3230577  52.1800746
  46.2733751  -7.1719418  52.0069714  44.9232721  -7.2346557  51.3249393
  44.1430023  -3.2979913  49.9499284  44.0041109  -3.6661129  50.8225222
  43.3544619  -2.7832274  49.7783242  44.7378175   1.8029183  41.2924820
  44.9129931   1.3317227  42.1070443  44.0510963   2.4294950  41.5206081
  45.6935238  -3.9198310  47.3388122  45.3585071  -3.9597540  48.2345771
  45.1939184  -4.5853594  46.8658532  39.6679482  -8.5130680  52.8640703
  39.5299280  -9.2450441  53.4652242  40.5784406  -8.6021780  52.5824891
  48.6294430  -6.5742276  37.6125181  48.0123601  -7.2995448  37.5158234
  48.1610918  -5.8132916  37.2692256  42.2961783  -8.8010721  52.3524382
  43.0061402  -9.4417529  52.3111001  42.2531091  -8.5497826  53.2750563
  50.2848562  -1.8643368  55.2730962  50.2261108  -2.5484148  54.6061545
  50.6868080  -1.1224378  54.8211588  39.3039260   4.9518546  48.0664681
  39.5435859   5.5837070  48.7443699  38.4608457   4.6006586  48.3530040
  50.2865969  -3.9003784  53.5044941  49.3992748  -4.2377862  53.6271340
  50.8564520  -4.6320752  53.7413707  43.8167122   0.7597669  50.4706185
  43.7437294   1.5652640  50.9825489  43.3744515   0.9589634  49.6454206
  43.6056902  -0.0030561  43.9809006  42.8224424   0.5391119  44.0747231
  44.3049647   0.5143418  44.3803247  46.2765806   0.6584503  52.6264343
  46.9893778   1.2931967  52.5540245  45.7855834   0.7548369  51.8104345
  47.9983333  -5.4364245  44.1981635  47.0639611  -5.3162782  44.0286339
  48.1760001  -6.3391778  43.9341645  41.3277719  -1.5921054  53.4469914
  42.0287179  -0.9584571  53.5999308  40.8572834  -1.2506322  52.6865553
  49.4532115  -3.2503104  41.7317821  49.7291959  -3.3646510  42.6411695
  48.5836614  -3.6485619  41.6929994  46.0886179   0.9983247  45.3750635
  46.2708574   0.1804903  45.8378387  46.9119165   1.2150939  44.9375525
  46.4228345  -0.0748568  42.6365683  46.9516111  -0.5856114  42.0235845
  46.6856564  -0.3906038  43.5011216  45.1766578  -8.2956635  57.7588501
  44.5007215  -8.3962506  58.4290877  45.9994212  -8.4517422  58.2224499
  36.9245437  -2.0584699  50.3801017  37.5098874  -2.8041011  50.5128921
  36.7270276  -1.7480742  51.2637681  39.7784093   0.9766549  45.3963459
  39.1094468   1.4612676  44.9127499  39.6396962   1.2235769  46.3106838
  43.9189361   3.0110292  51.9946117  44.4707669   3.1741914  52.7595203
  44.2595555   3.6014730  51.3226142  48.7700236  -2.1628450  57.8494772
  49.3140140  -1.5498492  57.3549727  48.1887080  -1.6048872  58.3661785
  47.0557749   0.9592268  48.9809800  46.9308888   0.1582007  48.4720745
  47.7136840   1.4538461  48.4923770  49.1192657  -1.2398712  50.6089350
  48.1722992  -1.3593361  50.5367676  49.4675430  -2.1276214  50.6915611
  46.1239090  -1.4445996  46.8093702  45.9764053  -2.3729289  46.9901272
  46.9492584  -1.4225905  46.3250777  49.7273212  -0.6217437  47.8958575
  50.6519760  -0.8274576  47.7583026  49.5588515  -0.8701036  48.8047916
  49.5168528  -0.1031770  43.2520666  49.6905406  -0.6685347  42.4994519
  50.0097419   0.6969125  43.0700156  50.5043701  -0.7865005  40.3517564
  51.1994605  -0.1658313  40.5704879  50.8466851  -1.6369654  40.6269942
  52.4035124  -3.3365300  41.8804895  52.9286448  -2.9978027  41.1554215
  52.3157476  -4.2718285  41.6968030  44.0655173   0.5768774  54.0094772
  44.3742299   0.3317920  54.8817471  44.8630655   0.7815412  53.5213642
  44.0875785   2.7306683  46.2400148  43.6480775   2.2383062  46.9333005
  44.8383902   2.1879651  45.9992224  36.5668124  -1.0781776  46.2424776
  37.3926144  -1.3778004  45.8623420  36.2162176  -1.8474153  46.6914565
  41.5349657  -1.7255308  48.3122450  40.9129666  -2.3884603  48.0124678
  42.2054524  -1.6994176  47.6296098  34.7676729  -3.1595449  47.2013710
  33.9308637  -3.5873275  47.0197711  34.7400374  -2.9663006  48.1384501
  52.0929030  -2.7032396  57.1856093  51.3024574  -2.7208257  56.6460593
  51.8562385  -2.1644103  57.9405130  41.0963164  -3.1751384  41.7880911
  41.2451284  -2.4915920  41.1347583  41.9029607  -3.1946294  42.3030366
  53.7145102  -3.4342988  54.7430843  53.4229910  -3.0713008  55.5794304
  53.1017233  -4.1475980  54.5644175  38.8515797  -7.1486207  42.7941979
  38.6061839  -8.0523877  42.9922190  39.0211711  -7.1469056  41.8521457
  44.5958569  -0.6803254  39.2592658  44.0232536  -0.0613067  38.8063130
  45.1691363  -0.1303892  39.7932580  47.8155829  -0.3966104  40.3901240
  48.7486502  -0.4620542  40.5934116  47.7279042   0.4390163  39.9315773
  50.4443846  -1.0800233  37.3505188  50.3657477  -1.4140370  38.2440946
  51.2653512  -0.5878465  37.3496660  44.8644060  -5.2924695  58.0609367
  45.7847070  -5.1146096  58.2549414  44.8293643  -6.2368650  57.9089067
  37.8606133  -7.3823660  50.7032149  38.0792143  -6.4506552  50.7220182
  38.2731907  -7.7415686  51.4886952  42.5965268  -8.3793316  58.9099959
  42.1132350  -7.5792956  59.1163848  42.6826207  -8.3685371  57.9567403
  35.8651228  -6.5464936  46.8321779  35.8421916  -6.4477249  45.8803662
  36.1751864  -5.6999785  47.1538945  38.5238606  -4.4888781  50.9468393
  39.4781859  -4.5204839  50.8798325  38.3251129  -4.9498157  51.7618619
  39.1137988  -5.9187665  53.5139191  39.9330877  -5.4243586  53.5374028
  39.3874795  -6.8355697  53.4856758  36.8788834   1.0530839  47.9638591
  36.7443302   0.2931239  47.3976589  36.4620897   1.7771738  47.4967380
  48.0147797  -3.7632238  36.9715166  48.7183648  -3.5582235  37.5872822
  47.2910446  -3.1955476  37.2364250  40.0357960   1.9500156  48.1757033
  39.9190344   2.8945588  48.0735724  39.2150407   1.6473717  48.5642833
  49.9234495  -3.3249709  39.0213626  50.7580099  -3.7568510  38.8391101
  49.7618838  -3.4967695  39.9490521  49.5780387  -6.8217595  40.3869965
  49.5229191  -6.9873324  39.4458410  48.9526442  -6.1141563  40.5432155
  46.8926294  -4.5168684  59.7123528  47.7617454  -4.3428031  59.3510163
  46.4133046  -3.6974267  59.5899258  41.0612474   2.6028417  51.3912962
  41.9639721   2.6352028  51.7079457  40.8349844   1.6728868  51.4059298
  42.8166076   1.3559404  48.0523041  41.8661707   1.3561266  47.9387413
  43.1198563   0.6092139  47.5359075  58.5518770   7.1919942  49.1168803
  59.1897180   7.0726690  48.4132143  58.4339613   8.1400786  49.1756755
  55.3608476   7.1447370  49.0530328  55.0226988   7.0288435  48.1650862
  56.2298244   6.7438536  49.0331334  51.2195292   8.9982847  45.0427219
  50.6560157   8.9072784  44.2743506  51.1047687   8.1782751  45.5229711
  55.8428259   8.2982222  55.0116533  55.8316900   7.9035020  54.1397037
  56.0048899   7.5648295  55.6050305  48.7659724  10.4934038  47.8811439
  49.5581016  10.1524863  47.4657738  49.0056374  10.6029014  48.8013592
  56.7994851  12.6653815  40.3541683  56.1482830  13.2507895  39.9675697
  57.5939213  13.1960010  40.4136721  50.7250478   9.7542952  40.7528818
  51.4981354   9.2071939  40.6141694  51.0775877  10.6187201  40.9643279
  52.5635520  11.0819334  53.9595717  52.2725386  11.9864965  53.8442383
  53.1992505  11.1235862  54.6739787  53.4891727   8.4596183  50.5497077
  54.0855299   8.2352205  49.8354040  53.5466699   7.7180928  51.1522525
  53.0616756   5.9135618  38.3847268  53.3142276   5.3917139  37.6230731
  52.1241315   5.7501763  38.4873951  58.1060038   4.9171396  46.1922011
  58.8923128   4.4990819  45.8412428  58.3698743   5.8217488  46.3603659
  58.2770116  10.3544247  40.8910668  57.6415949  10.4278873  41.6031572
  57.9467522  10.9437845  40.2129747  63.5068466   4.8546629  47.0954989
  64.2393637   4.2845846  47.3292819  62.7507821   4.4668230  47.5361495
  52.7813044   7.8163724  40.5871643  52.6649302   7.1408627  41.2552727
  52.8915304   7.3296098  39.7703796  55.1244585   7.2773871  44.2918332
  54.7602793   6.7504492  45.0031253  55.9811701   6.8872340  44.1184817
  61.0293886  -1.4331796  51.5549598  60.6977211  -0.5636386  51.3310813
  60.4339499  -1.7495512  52.2343628  54.7650072   2.3063771  39.2879680
  54.9324475   3.1744007  39.6550151  54.5747241   2.4691052  38.3640970
  57.5225405  10.7680750  50.9545511  57.2226129  11.6705788  50.8461318
  57.1776465  10.5012933  51.8066664  50.9737887   7.2194546  46.9882215
  50.0488383   7.0870760  47.1959907  51.2222300   7.9988766  47.4852158
  60.9222549   3.2863290  48.6342948  60.0139427   3.2178698  48.3401709
  60.8710145   3.7635235  49.4624774  54.7439293   4.7621428  40.2726347
  54.6238918   5.2078479  41.1111828  54.0491882   5.1106746  39.7139885
  48.3346698   6.8627820  47.8226004  48.4639079   7.1162299  48.7365416
  47.6544149   7.4555528  47.5030659  52.5046185  17.5325070  43.9216479
  52.4270215  18.4832895  44.0004959  51.9007829  17.1870942  44.5791405
  54.9963415   4.7052935  56.5777845  54.2196749   5.2646855  56.5680710
  55.6353978   5.1909718  57.0992716  62.7884196   1.4879728  50.4120822
  62.1458576   1.7812261  49.7660617  62.2839124   1.3732648  51.2174019
  60.4424359   5.2342901  41.1006681  61.3542215   5.4670288  40.9254379
  59.9334006   5.8179946  40.5381760  53.2509787   7.5138389  56.1395812
  53.9924472   8.0523433  55.8630636  52.5446773   8.1404677  56.2967364
  58.7265127   9.6567529  54.7367974  59.1348483   9.2149940  53.9922606
  58.0042388   9.0820157  54.9902167  55.0796197   4.5940136  52.1101531
  55.9257392   5.0179549  52.2536180  55.0194835   3.9373760  52.8040094
  59.0493942  10.2168720  48.4920263  58.4202804  10.3814434  47.7896331
  58.6619604  10.6310329  49.2631227  62.9283173  11.1523158  45.8464627
  62.2434212  11.5322059  45.2961660  63.0127023  11.7618484  46.5796574
  58.2295642   2.2544504  53.7682704  57.9856574   3.0086565  53.2316980
  58.5055573   2.6329852  54.6029952  60.1834105   8.7983117  52.4459970
  60.3951000   9.4414877  51.7694351  60.1363853   7.9645433  51.9781900
  57.7860334   1.4100937  49.3496542  56.9244813   1.7082191  49.6413280
  57.8122769   1.6271336  48.4177575  54.6021903   9.9543128  45.7570348
  55.0660249  10.2330831  44.9674970  54.3378702   9.0526572  45.5743439
  51.4945985   9.5014609  48.6950111  52.0647342   9.9301878  48.0567596
  52.0854096   9.2197194  49.3934297  53.5390790   6.0766280  42.5659913
  54.2414833   6.5287324  43.0333839  53.2071418   5.4350099  43.1939806
  51.9871151   4.6678037  56.9411122  51.3569812   5.3494318  57.1746519
  51.8807239   4.5561118  55.9964261  47.2816123   4.3349833  47.8677047
  46.4915177   4.5907361  47.3917157  47.7727371   5.1498171  47.9729087
  61.2979933  11.6755072  50.6182327  62.1197377  11.2735259  50.3365009
  61.2942336  11.5723306  51.5698443  49.2330869   4.6994412  44.8260523
  48.4362032   4.8113106  45.3444019  49.0056461   5.0381064  43.9601414
  55.0636536  11.2239115  52.7743038  55.1280969  11.6859523  53.6101210
  54.3547460  10.5936480  52.9025348  45.5653826   4.5880323  50.2992037
  45.8161865   5.4727333  50.5649613  46.1013375   4.4084925  49.5267129
  69.3885926   8.0193821  46.9667299  68.6349634   7.4501219  46.8111303
  69.5233467   7.9856485  47.9137934  54.7784554  12.8907223  42.6422018
  54.6430229  13.7358759  43.0706866  55.3194367  13.0926500  41.8787952
  51.2651894  -1.0301197  59.3036373  50.8718839  -1.5834999  59.9784018
  52.0818034  -0.7190619  59.6942891  48.2313952  10.4082661  43.2149943
  48.7438472  11.2025911  43.3655508  48.8836664   9.7108951  43.1483545
  50.0408836  13.5248417  45.2972696  50.2175465  14.4466382  45.1093680
  50.8365670  13.2106836  45.7267076  54.1819855   0.3856682  56.8956630
  54.9229568   0.9863835  56.8161092  54.4137778  -0.3565680  56.3374673
  49.3261193   5.5713049  55.1734860  49.2114708   4.6698306  55.4741959
  48.4705711   5.8176746  54.8219676  56.4053031  13.5130789  56.7722360
  55.9616885  12.7267168  56.4543265  57.0670244  13.7009940  56.1066251
  51.1640152  15.0426591  51.2983039  51.7147577  14.9143654  50.5260033
  50.3251628  15.3421480  50.9477932  58.5034269  13.7933589  54.8003762
  58.4852744  14.6142470  54.3084031  59.4254189  13.6687664  55.0253903
  54.9607323  11.3077719  55.6427270  55.4935660  10.5466007  55.4126578
  54.4321404  11.0151371  56.3851424  58.1277018  -3.5862215  51.1720912
  57.7841287  -2.6960574  51.0960022  58.4955980  -3.7760558  50.3090497
  46.1962868   8.7371315  43.9909514  47.0338090   9.1468324  43.7743222
  46.3741136   7.7970757  43.9609708  58.0927300   6.4046396  39.6793347
  57.5773924   7.1751000  39.9181734  57.8204609   5.7311532  40.3026408
  55.6774411   1.2496097  44.7378585  54.8216008   0.8602947  44.5584224
  56.0901363   1.3288057  43.8778371  57.2073558  -1.2157560  49.1370145
  56.7038354  -1.2527425  48.3237950  57.5004165  -0.3064817  49.1966802
  53.4516444  -1.1318830  48.1436327  54.3169441  -1.3276022  47.7842216
  53.5193953  -1.3608479  49.0705683  63.0661575   9.1578750  41.6146520
  62.2891017   8.8189910  41.1701682  63.7453056   9.1631374  40.9401485
  57.8813604   4.2773488  41.5053128  57.5763739   4.5919637  42.3563271
  58.8344046   4.3554908  41.5480461  56.3260035  10.4363711  43.1546082
  55.7981397   9.7016471  42.8419319  55.8247538  11.2138388  42.9086050
  61.3052881   8.6312732  48.2713128  60.6476556   9.3211993  48.3593257
  62.1093281   9.0209164  48.6147115  51.0578763   1.0983378  45.5152693
  51.6322515   0.8758559  44.7825886  51.6449746   1.1672072  46.2681295
  60.1158340   6.9857104  46.3217070  60.6290222   7.6187096  46.8238780
  60.7659564   6.3858300  45.9560430  51.3848350   3.1287839  39.5348579
  50.5485662   3.4662525  39.8557853  51.2453120   2.9936818  38.5975716
  53.3601431  -2.0275374  44.2427763  52.7065843  -2.3426356  43.6184378
  53.3181905  -2.6499633  44.9687586  54.4712636   8.2543921  36.1581055
  53.5639697   8.0233175  36.3572204  54.9683668   7.4581541  36.3455037
  57.3780715  16.9641429  39.0777741  56.7042413  17.2673125  39.6862699
  57.7646536  17.7670509  38.7283198  56.5939171   4.4606560  48.5675411
  55.6761733   4.6821507  48.4097099  57.0099315   4.5352870  47.7087118
  57.3774219   5.8597976  43.6978091  58.1246038   6.3719373  43.3885213
  57.6465808   5.5382028  44.5582484  55.6500869   8.3556516  40.6805045
  54.7412088   8.0715549  40.7777515  55.6795953   8.7755595  39.8208352
  60.8820136  11.9663106  44.4496213  60.4282464  11.1254016  44.5061403
  60.2514103  12.6024504  44.7870993  59.8253056   2.8955092  45.6796880
  59.0875813   2.3832478  46.0107123  60.0779830   2.4555473  44.8680157
  59.3253076  13.8039603  45.3846031  59.6176050  14.3644660  44.6658396
  59.8351696  14.0968164  46.1399190  46.2189039   6.0762030  44.6620247
  46.0213439   5.4831391  43.9371314  45.6635703   5.7714241  45.3796186
  54.1985763   5.9685137  46.7814840  54.2534373   5.0158973  46.7057317
  53.3876965   6.1244576  47.2656139  55.3476957   9.8965260  38.0193124
  54.9096387   9.1801119  37.5598761  56.0887398  10.1241375  37.4578215
  52.1378123   4.5862197  44.5405219  51.3245989   4.8856367  44.9470411
  52.6337117   4.1917885  45.2579702  54.2886701  14.5819954  46.4739484
  54.2462880  14.8080800  45.5448016  55.2049400  14.3483328  46.6225285
  57.7352335   5.0504021  53.3720113  58.0901722   5.2775494  54.2314579
  58.3824466   5.3822398  52.7497369  63.4650072   8.1722457  44.0769442
  63.3267970   8.3624053  43.1490631  63.1086290   8.9341840  44.5337493
  51.6292198   2.1580552  50.1566454  52.2691577   2.0169311  49.4589418
  50.7969728   1.8715066  49.7805056  63.4919451  10.2398984  49.0880714
  63.9255958  10.1474273  49.9363768  64.2051032  10.2156485  48.4500730
  52.4052502  11.4582983  46.2701447  53.1993100  10.9633303  46.0684022
  51.6944194  10.9300846  45.9069152  57.2247346  13.8401078  50.6213814
  57.2784368  14.4092014  51.3891530  56.3562128  14.0102963  50.2567851
  48.7135265   5.6026064  42.3461199  47.7832853   5.5410520  42.5631162
  48.8092737   5.0802017  41.5497841  48.6320814   2.1280877  44.9339441
  48.8927632   3.0426210  44.8248602  49.4537987   1.6605320  45.0836054
  50.1045740   3.5418634  52.1038266  50.7768793   3.3335997  51.4550915
  49.2775526   3.3440720  51.6643498  64.3535001  10.2822685  51.6213599
  64.5470891  11.1868495  51.8672874  64.2535619   9.8230104  52.4552184
  56.0071312   0.1680575  54.1203926  55.3599227   0.8670525  54.0268403
  56.7772327   0.6016719  54.4880175  59.4150110  10.4329427  57.1954480
  59.2635616  10.2039979  56.2784563  59.4054789  11.3900029  57.2085825
  56.1835446   8.0061340  52.1800746  57.1127506   8.1572500  52.0069714
  55.7626476   8.0945361  51.3249393  54.9823778  12.0312005  49.9499284
  54.8434863  11.6630789  50.8225222  54.1938374  12.5459644  49.7783242
  55.5771930  17.1321101  41.2924820  55.7523685  16.6609144  42.1070443
  54.8904718  17.7586867  41.5206081  56.5328993  11.4093607  47.3388122
  56.1978825  11.3694377  48.2345771  56.0332939  10.7438323  46.8658532
  50.5073237   6.8161237  52.8640703  50.3693035   6.0841476  53.4652242
  51.4178160   6.7270137  52.5824891  59.4688184   8.7549642  37.6125181
  58.8517355   8.0296470  37.5158234  59.0004673   9.5159002  37.2692256
  53.1355537   6.5281197  52.3524382  53.8455156   5.8874389  52.3111001
  53.0924846   6.7794092  53.2750563  61.1242316  13.4648550  55.2730962
  61.0654862  12.7807770  54.6061545  61.5261835  14.2067540  54.8211588
  51.8484471   3.5146415  54.1720022  51.3121828   3.0637153  54.8241618
  51.2601180   3.6492323  53.4290486  50.1433015  20.2810464  48.0664681
  50.3829613  20.9128988  48.7443699  49.3002211  19.9298504  48.3530040
  51.2586730   2.9735066  36.7346486  50.3816197   2.8523867  36.3708732
  51.7344483   2.1821144  36.4825374  61.1259723  11.4288134  53.5044941
  60.2386502  11.0914056  53.6271340  61.6958274  10.6971165  53.7413707
  42.7788871   7.7612226  46.8287993  43.4659910   7.4473956  46.2409008
  42.6236999   8.6653590  46.5555244  47.5823593   2.6502422  51.2573016
  47.4981781   2.0428092  50.5223426  46.7606299   3.1411441  51.2582513
  54.6560877  16.0889586  50.4706185  54.5831048  16.8944558  50.9825489
  54.2138270  16.2881552  49.6454206  54.4450656  15.3261356  43.9809006
  53.6618178  15.8683037  44.0747231  55.1443402  15.8435336  44.3803247
  57.7547307   1.1355986  46.6243211  58.2516006   0.3825948  46.3044282
  56.9834288   1.1720302  46.0586421  65.6077064   6.8396351  48.2661503
  65.5966940   7.7221067  47.8955436  64.7394443   6.4867902  48.0716040
  57.1159560  15.9876420  52.6264343  57.8287533  16.6223885  52.5540245
  56.6249589  16.0840286  51.8104345  58.8377087   9.8927673  44.1981635
  57.9033366  10.0129135  44.0286339  59.0153756   8.9900140  43.9341645
  54.3382275   3.2773369  46.3514896  53.9680063   2.7244409  47.0395802
  54.8341368   2.6731502  45.7989896  62.2249639   5.7344992  44.7331669
  62.6910091   6.5672984  44.6591972  62.6757139   5.2689974  45.4376927
  52.1671474  13.7370864  53.4469914  52.8680933  14.3707347  53.5999308
  51.6966589  14.0785595  52.6865553  60.2925870  12.0788814  41.7317821
  60.5685714  11.9645408  42.6411695  59.4230368  11.6806298  41.6929994
  60.1966301  -1.8974421  48.7722570  59.2829381  -1.6670194  48.9404777
  60.6259403  -1.8135977  49.6236603  59.9672760   6.2915471  51.2722464
  59.3144210   6.5391379  50.6174917  60.3453140   5.4779609  50.9384942
  56.9279934  16.3275164  45.3750635  57.1102328  15.5096820  45.8378387
  57.7512920  16.5442857  44.9375525  57.2622099  15.2543350  42.6365683
  57.7909866  14.7435804  42.0235845  57.5250319  14.9385880  43.5011216
  56.0160333   7.0335282  57.7588501  55.3400970   6.9329412  58.4290877
  56.8387967   6.8774496  58.2224499  47.7639192  13.2707219  50.3801017
  48.3492629  12.5250907  50.5128921  47.5664030  13.5811176  51.2637681
  50.6177847  16.3058466  45.3963459  49.9488222  16.7904594  44.9127499
  50.4790717  16.5527687  46.3106838  42.3556847   5.8412819  49.1005460
  42.3940946   5.3076410  49.8942578  41.8497139   5.3148025  48.4816437
  54.7583116  18.3402210  51.9946117  55.3101424  18.5033831  52.7595203
  55.0989309  18.9306648  51.3226142  49.7347609   0.6877360  52.5968002
  49.7988935   1.5492190  52.1845400  49.6714729   0.0751361  51.8640361
  49.2099881   2.7600492  56.2441036  49.8371920   2.3777569  56.8578561
  48.3527800   2.5414694  56.6096729  59.6093990  13.1663467  57.8494772
  60.1533894  13.7793426  57.3549727  59.0280835  13.7243046  58.3661785
  45.9865424   4.5676921  42.1759391  46.2818865   3.6587600  42.1226445
  45.0853460   4.5464661  41.8540394  57.8951503  16.2884185  48.9809800
  57.7702642  15.4873925  48.4720745  58.5530594  16.7830379  48.4923770
  49.5159671   2.6432918  48.1586940  48.7946257   3.2568886  48.0194413
  50.3052927   3.1790683  48.0803586  59.9586411  14.0893205  50.6089350
  59.0116747  13.9698557  50.5367676  60.3069185  13.2015703  50.6915611
  52.3185985  -0.0212656  54.4327592  52.8420387   0.2249641  55.1953901
  52.0998318   0.8107379  54.0130729  47.7153266   2.2491019  42.2998716
  47.3865972   1.3688398  42.1173822  48.0692637   2.1938688  43.1875106
  56.9632845  13.8845922  46.8093702  56.8157807  12.9562629  46.9901272
  57.7886338  13.9066012  46.3250777  50.8295089   2.5363989  42.6674194
  51.1691161   3.0649910  41.9452802  51.2767209   2.8744395  43.4432761
  60.5666967  14.7074480  47.8958575  61.4913514  14.5017342  47.7583026
  60.3982270  14.4590881  48.8047916  53.5238530   0.9201039  52.1177262
  53.1835350   0.1208852  52.5197942  52.8177536   1.2202750  51.5454095
  54.1755002  -1.9949648  50.5704585  54.9981071  -2.4689170  50.4483475
  54.4193065  -1.2159164  51.0703271  52.8163236   1.0338610  40.8667487
  53.5371599   1.4119863  40.3631204  52.1928540   1.7527487  40.9702465
  56.9594359   1.7383759  41.8025819  57.1757973   2.6208397  41.5014647
  56.4788426   1.3469973  41.0731461  51.6993580   4.6969472  48.3796564
  51.5538161   5.0109776  49.2720845  51.2218784   5.3154373  47.8267462
  53.5589963   1.6872020  48.4277453  53.5451532   0.7913114  48.0909751
  54.2762391   1.6942684  49.0615739  55.4116094   2.1209361  50.4730581
  55.1533872   3.0426431  50.4714911  54.8801134   1.7239795  51.1631045
  60.3562283  15.2260148  43.2520666  60.5299160  14.6606570  42.4994519
  60.8491174  16.0261043  43.0700156  46.1739243   7.2374817  51.3184225
  45.6292711   8.0134625  51.4504499  47.0518592   7.5845621  51.1603346
  52.9626859   0.5686401  43.6965023  53.0842770  -0.3596953  43.8955911
  52.6728902   0.5825087  42.7843339  55.8318050  -1.7458689  46.8331743
  55.8539746  -1.6819356  45.8783723  56.2486109  -2.5854180  47.0272249
  66.2101674   7.9896571  44.8710966  66.6532820   7.2403896  44.4730089
  65.3328184   7.9806707  44.4884698  61.3437455  14.5426912  40.3517564
  62.0388360  15.1633605  40.5704879  61.6860605  13.6922263  40.6269942
  46.9605264   6.3644713  54.2114382  46.2187000   6.5127348  54.7979012
  46.6398009   6.6252979  53.3481131  63.2428878  11.9926618  41.8804895
  63.7680202  12.3313890  41.1554215  63.1551231  11.0573633  41.6968030
  54.9048927  15.9060691  54.0094772  55.2136054  15.6609838  54.8817471
  55.7024409  16.1107330  53.5213642  54.9269539  18.0598601  46.2400148
  54.4874529  17.5674980  46.9333005  55.6777656  17.5171569  45.9992224
  47.4061878  14.2510142  46.2424776  48.2319898  13.9513914  45.8623420
  47.0555930  13.4817764  46.6914565  52.3743411  13.6036610  48.3122450
  51.7523421  12.9407315  48.0124678  53.0448278  13.6297742  47.6296098
  45.6070483  12.1696468  47.2013710  44.7702391  11.7418643  47.0197711
  45.5794129  12.3628912  48.1384501  52.4467939   2.0818398  57.9054956
  52.4956094   2.9580521  57.5232726  52.9890453   1.5395791  57.3326599
  62.9322784  12.6259521  57.1856093  62.1418328  12.6083660  56.6460593
  62.6956139  13.1647815  57.9405130  63.0520659   9.4751988  54.4988822
  63.1018664   9.3101995  55.4404344  62.9434583   8.6079247  54.1086702
  51.9356918  12.1540533  41.7880911  52.0845039  12.8375998  41.1347583
  52.7423362  12.1345623  42.3030366  60.3424422   5.4582916  55.8148128
  61.2434285   5.3189381  55.5232126  60.4172396   5.6237371  56.7546306
  54.6767227   2.8349771  54.6601315  53.8070537   3.1283337  54.3883903
  54.9126708   3.4190216  55.3808578  64.5538856  11.8948929  54.7430843
  64.2623665  12.2578910  55.5794304  63.9410988  11.1815938  54.5644175
  65.7534539   9.4601809  47.2633413  66.5881430   9.8991613  47.4270974
  65.8893667   8.9840462  46.4441659  62.8026045   7.0181544  53.2110901
  63.2780166   7.2109190  52.4029753  61.8791610   7.0740730  52.9654285
  49.6909551   8.1805711  42.7941979  49.4455593   7.2768041  42.9922190
  49.8605466   8.1822861  41.8521457  57.3806261  -0.9470613  52.1766735
  57.8988205  -0.2109586  51.8513224  57.0261394  -0.6406619  53.0113494
  48.9605199   3.9134069  40.2928141  48.2674444   3.9878424  39.6368177
  48.7156951   3.1494412  40.8149658  55.4352324  14.6488664  39.2592658
  54.8626291  15.2678851  38.8063130  56.0085117  15.1988026  39.7932580
  61.5027714   3.8947304  51.4439207  62.4545136   3.9945402  51.4651431
  61.3331164   3.1025573  51.9537291  59.5242093   0.9802887  51.6298608
  58.9292025   1.2607900  50.9345096  59.2391790   1.4696788  52.4015349
  58.6549583  14.9325814  40.3901240  59.5880257  14.8671376  40.5934116
  58.5672796  15.7682081  39.9315773  61.2837600  14.2491684  37.3505188
  61.2051232  13.9151548  38.2440946  62.1047267  14.7413452  37.3496660
  63.9815791   7.1153424  50.5581506  63.9492111   6.1769424  50.7441190
  64.5916415   7.1937460  49.8247331  55.8199122   5.9849477  36.6008710
  56.7658227   5.8555685  36.6697128  55.4413367   5.2464139  37.0778139
  64.1310280   3.9064467  50.6039790  63.6149328   3.1222924  50.4169718
  65.0150228   3.5783184  50.7686309  61.7921007  -2.3494517  46.5635602
  61.5945828  -2.6579429  47.4478934  62.4020712  -1.6232878  46.6933532
  69.7992341   8.1769430  49.6987543  70.5295730   7.9154719  50.2595247
  69.1899287   7.4398152  49.7389611  67.8807638   6.3177293  50.2961994
  67.1540802   6.1833258  49.6878486  67.4654925   6.6254122  51.1018712
  55.7037815  10.0367223  58.0609367  56.6240824  10.2145822  58.2549414
  55.6687398   9.0923268  57.9089067  54.0042039   3.9099453  36.5363596
  53.0973495   3.6132566  36.6126309  54.2818020   3.6129271  35.6697882
  44.9219980   5.2305816  46.9862642  44.6022764   4.3771125  46.6937016
  44.3753408   5.4454395  47.7420609  48.6999887   7.9468257  50.7032149
  48.9185897   8.8785365  50.7220182  49.1125661   7.5876232  51.4886952
  55.6204105  -1.5463657  42.6907837  54.8104833  -1.8916572  43.0663083
  56.3088522  -1.8556114  43.2795449  57.5494653  -2.4685610  44.3132134
  58.1025692  -2.0490157  44.9722157  57.7864740  -3.3949862  44.3555090
  53.5727753   3.5201463  60.0934898  53.4724479   4.4695820  60.0246989
  53.3549295   3.1919702  59.2210968  52.7740824   0.7686388  36.6775575
  53.6359988   1.0941287  36.9371392  52.9591168  -0.0182116  36.1648641
  44.7908240   8.8508728  48.9555764  44.0971711   8.4362681  48.4425718
  45.5381231   8.8929264  48.3589183  60.9273460  -0.3585085  43.8210798
  60.3472129   0.2999719  43.4388850  60.6609393  -1.1807741  43.4098215
  59.3777027  -0.9580028  46.0232118  59.8776805  -0.8463493  45.2146437
  60.0212635  -1.2618975  46.6632927  53.4359023   6.9498602  58.9099959
  52.9526104   7.7498962  59.1163848  53.5219962   6.9606547  57.9567403
  46.7044982   8.7826982  46.8321779  46.6815670   8.8814669  45.8803662
  47.0145619   9.6292132  47.1538945  49.3632360  10.8403137  50.9468393
  50.3175614  10.8087079  50.8798325  49.1644884  10.3793760  51.7618619
  49.9531742   9.4104253  53.5139191  50.7724631   9.9048331  53.5374028
  50.2268550   8.4936221  53.4856758  59.7098338   1.8015005  42.8767146
  58.8224193   2.0864656  42.6587341  60.1252328   1.6408768  42.0294423
  63.0612875   1.8261526  46.5921485  63.8373265   2.3157978  46.8646102
  62.3361009   2.2519580  47.0493355  65.4985433   2.5389145  47.6495426
  66.0929924   2.2984881  46.9388734  65.5712017   1.8196276  48.2768962
  47.7182589  16.3822756  47.9638591  47.5837057  15.6223157  47.3976589
  47.3014651  17.1063656  47.4967380  58.8541552  11.5659680  36.9715166
  59.5577402  11.7709682  37.5872822  58.1304201  12.1336442  37.2364250
  59.6839362   7.3169541  43.0917436  59.6274564   7.7738092  42.2525069
  60.2367705   6.5560226  42.9140279  63.4944168   3.1059273  43.9167556
  63.2381102   2.7055909  44.7475763  62.8697036   3.8203067  43.7917695
  67.8056506   5.8455346  46.4238847  67.2456064   5.9148535  47.1970409
  67.2000009   5.6696331  45.7038343  50.8751715  17.2792073  48.1757033
  50.7584099  18.2237506  48.0735724  50.0544161  16.9765635  48.5642833
  60.7628249  12.0042209  39.0213626  61.5973853  11.5723407  38.8391101
  60.6012592  11.8324223  39.9490521  60.4174142   8.5074322  40.3869965
  60.3622945   8.3418594  39.4458410  59.7920197   9.2150355  40.5432155
  45.2066657   3.7442387  54.2131388  45.8525520   3.2341341  54.7018613
  44.9983808   4.4811068  54.7874813  57.7320049  10.8123234  59.7123528
  58.6011208  10.9863886  59.3510163  57.2526800  11.6317651  59.5899258
  53.7270267  -1.9917569  39.9655284  53.7148937  -1.0475729  40.1223555
  54.6193689  -2.1747423  39.6714745  51.9006229  17.9320335  51.3912962
  52.8033476  17.9643945  51.7079457  51.6743599  17.0020786  51.4059298
  53.6559831  16.6851322  48.0523041  52.7055462  16.6853183  47.9387413
  53.9592317  15.9384056  47.5359075  49.5464147   0.8910004  58.3106402
  50.4095609   0.5346809  58.5209726  48.9729558   0.5523899  58.9981806
  69.3912524  22.5211860  49.1168803  70.0290934  22.4018607  48.4132143
  69.2733367  23.4692704  49.1756755  66.2002231  22.4739288  49.0530328
  65.8620742  22.3580353  48.1650862  67.0691999  22.0730453  49.0331334
  62.0589046  24.3274765  45.0427219  61.4953912  24.2364702  44.2743506
  61.9441441  23.5074669  45.5229711  66.6822014  23.6274140  55.0116533
  66.6710654  23.2326938  54.1397037  66.8442653  22.8940212  55.6050305
  59.6053478  25.8225956  47.8811439  60.3974770  25.4816781  47.4657738
  59.8450128  25.9320931  48.8013592  67.6388605  27.9945732  40.3541683
  66.9876585  28.5799813  39.9675697  68.4332968  28.5251927  40.4136721
  61.5644232  25.0834869  40.7528818  62.3375108  24.5363857  40.6141694
  61.9169631  25.9479119  40.9643279  63.4029275  26.4111252  53.9595717
  63.1119141  27.3156883  53.8442383  64.0386259  26.4527779  54.6739787
  64.3285482  23.7888100  50.5497077  64.9249054  23.5644123  49.8354040
  64.3860453  23.0472846  51.1522525  63.9010510  21.2427536  38.3847268
  64.1536031  20.7209057  37.6230731  62.9635069  21.0793681  38.4873951
  68.9453793  20.2463314  46.1922011  69.7316882  19.8282737  45.8412428
  69.2092497  21.1509406  46.3603659  69.1163870  25.6836164  40.8910668
  68.4809703  25.7570791  41.6031572  68.7861277  26.2729763  40.2129747
  74.3462220  20.1838547  47.0954989  75.0787392  19.6137764  47.3292819
  73.5901576  19.7960148  47.5361495  63.6206799  23.1455641  40.5871643
  63.5043057  22.4700545  41.2552727  63.7309059  22.6588015  39.7703796
  65.9638340  22.6065789  44.2918332  65.5996547  22.0796410  45.0031253
  66.8205456  22.2164258  44.1184817  71.8687640  13.8960121  51.5549598
  71.5370965  14.7655532  51.3310813  71.2733254  13.5796405  52.2343628
  65.6043827  17.6355688  39.2879680  65.7718229  18.5035925  39.6550151
  65.4140996  17.7982970  38.3640970  68.3619160  26.0972667  50.9545511
  68.0619883  26.9997706  50.8461318  68.0170219  25.8304850  51.8066664
  61.8131641  22.5486464  46.9882215  60.8882138  22.4162678  47.1959907
  62.0616055  23.3280683  47.4852158  71.7616304  18.6155207  48.6342948
  70.8533181  18.5470616  48.3401709  71.7103900  19.0927152  49.4624774
  65.5833048  20.0913346  40.2726347  65.4632673  20.5370397  41.1111828
  64.8885636  20.4398663  39.7139885  59.1740452  22.1919738  47.8226004
  59.3032834  22.4454217  48.7365416  58.4937904  22.7847446  47.5030659
  63.3439940  32.8616988  43.9216479  63.2663969  33.8124813  44.0004959
  62.7401583  32.5162860  44.5791405  65.8357169  20.0344853  56.5777845
  65.0590504  20.5938773  56.5680710  66.4747733  20.5201636  57.0992716
  73.6277950  16.8171646  50.4120822  72.9852330  17.1104179  49.7660617
  73.1232879  16.7024566  51.2174019  71.2818114  20.5634819  41.1006681
  72.1935970  20.7962206  40.9254379  70.7727761  21.1471863  40.5381760
  64.0903542  22.8430306  56.1395812  64.8318226  23.3815350  55.8630636
  63.3840527  23.4696595  56.2967364  69.5658881  24.9859447  54.7367974
  69.9742237  24.5441857  53.9922606  68.8436143  24.4112074  54.9902167
  65.9189951  19.9232054  52.1101531  66.7651147  20.3471467  52.2536180
  65.8588589  19.2665678  52.8040094  69.8887696  25.5460637  48.4920263
  69.2596559  25.7106352  47.7896331  69.5013358  25.9602247  49.2631227
  69.0689397  17.5836422  53.7682704  68.8250329  18.3378482  53.2316980
  69.3449327  17.9621770  54.6029952  71.0227860  24.1275034  52.4459970
  71.2344755  24.7706794  51.7694351  70.9757608  23.2937351  51.9781900
  68.6254089  16.7392855  49.3496542  67.7638568  17.0374109  49.6413280
  68.6516523  16.9563254  48.4177575  65.4415658  25.2835046  45.7570348
  65.9054003  25.5622749  44.9674970  65.1772456  24.3818490  45.5743439
  62.3339739  24.8306527  48.6950111  62.9041096  25.2593795  48.0567596
  62.9247851  24.5489112  49.3934297  64.3784544  21.4058198  42.5659913
  65.0808587  21.8579242  43.0333839  64.0465173  20.7642017  43.1939806
  62.8264906  19.9969955  56.9411122  62.1963566  20.6786235  57.1746519
  62.7200993  19.8853036  55.9964261  58.1209878  19.6641751  47.8677047
  57.3308932  19.9199279  47.3917157  58.6121125  20.4790088  47.9729087
  72.1373688  27.0046990  50.6182327  72.9591131  26.6027177  50.3365009
  72.1336090  26.9015224  51.5698443  60.0724623  20.0286330  44.8260523
  59.2755787  20.1405024  45.3444019  59.8450216  20.3672982  43.9601414
  65.9030291  26.5531033  52.7743038  65.9674723  27.0151440  53.6101210
  65.1941215  25.9228398  52.9025348  56.4047581  19.9172241  50.2992037
  56.6555619  20.8019251  50.5649613  56.9407129  19.7376843  49.5267129
  65.6178309  28.2199141  42.6422018  65.4823983  29.0650676  43.0706866
  66.1588121  28.4218418  41.8787952  62.1045648  14.2990720  59.3036373
  61.7112594  13.7456919  59.9784018  62.9211789  14.6101299  59.6942891
  59.0707706  25.7374579  43.2149943  59.5832227  26.5317829  43.3655508
  59.7230419  25.0400869  43.1483545  60.8802591  28.8540335  45.2972696
  61.0569219  29.7758300  45.1093680  61.6759424  28.5398754  45.7267076
  65.0213609  15.7148599  56.8956630  65.7623323  16.3155753  56.8161092
  65.2531532  14.9726237  56.3374673  60.1654947  20.9004967  55.1734860
  60.0508462  19.9990224  55.4741959  59.3099465  21.1468663  54.8219676
  67.2446785  28.8422707  56.7722360  66.8010639  28.0559086  56.4543265
  67.9063999  29.0301858  56.1066251  62.0033906  30.3718509  51.2983039
  62.5541331  30.2435572  50.5260033  61.1645382  30.6713398  50.9477932
  69.3428023  29.1225507  54.8003762  69.3246498  29.9434388  54.3084031
  70.2647943  28.9979582  55.0253903  65.8001077  26.6369636  55.6427270
  66.3329414  25.8757925  55.4126578  65.2715158  26.3443288  56.3851424
  68.9670772  11.7429702  51.1720912  68.6235042  12.6331344  51.0960022
  69.3349735  11.5531360  50.3090497  57.0356623  24.0663233  43.9909514
  57.8731845  24.4760241  43.7743222  57.2134891  23.1262675  43.9609708
  68.9321055  21.7338313  39.6793347  68.4167678  22.5042918  39.9181734
  68.6598363  21.0603450  40.3026408  66.5168166  16.5788014  44.7378585
  65.6609762  16.1894865  44.5584224  66.9295118  16.6579975  43.8778371
  68.0467313  14.1134358  49.1370145  67.5432108  14.0764493  48.3237950
  68.3397919  15.0227100  49.1966802  64.2910198  14.1973087  48.1436327
  65.1563195  14.0015896  47.7842216  64.3587707  13.9683439  49.0705683
  68.7207358  19.6065406  41.5053128  68.4157494  19.9211555  42.3563271
  69.6737800  19.6846825  41.5480461  67.1653790  25.7655629  43.1546082
  66.6375152  25.0308388  42.8419319  66.6641293  26.5430305  42.9086050
  61.8972518  16.4275295  45.5152693  62.4716269  16.2050477  44.7825886
  62.4843500  16.4963990  46.2681295  70.9552095  22.3149022  46.3217070
  71.4683977  22.9479014  46.8238780  71.6053319  21.7150218  45.9560430
  62.2242105  18.4579756  39.5348579  61.3879417  18.7954443  39.8557853
  62.0846874  18.3228736  38.5975716  64.1995185  13.3016544  44.2427763
  63.5459598  12.9865561  43.6184378  64.1575659  12.6792285  44.9687586
  65.3106390  23.5835839  36.1581055  64.4033452  23.3525093  36.3572204
  65.8077422  22.7873458  36.3455037  67.4332926  19.7898478  48.5675411
  66.5155487  20.0113425  48.4097099  67.8493069  19.8644788  47.7087118
  68.2167973  21.1889893  43.6978091  68.9639792  21.7011291  43.3885213
  68.4859563  20.8673946  44.5582484  66.4894624  23.6848434  40.6805045
  65.5805843  23.4007467  40.7777515  66.5189707  24.1047513  39.8208352
  70.6646811  18.2247010  45.6796880  69.9269567  17.7124396  46.0107123
  70.9173584  17.7847391  44.8680157  70.7658438  11.0023262  46.2738649
  71.0717315  10.1420625  45.9864564  71.4911043  11.5940882  46.0737643
  57.0582794  21.4053948  44.6620247  56.8607194  20.8123309  43.9371314
  56.5029458  21.1006158  45.3796186  65.0379518  21.2977055  46.7814840
  65.0928127  20.3450891  46.7057317  64.2270720  21.4536494  47.2656139
  66.1870711  25.2257178  38.0193124  65.7490141  24.5093037  37.5598761
  66.9281152  25.4533293  37.4578215  62.9771878  19.9154114  44.5405219
  62.1639743  20.2148285  44.9470411  63.4730872  19.5209803  45.2579702
  65.1280455  29.9111871  46.4739484  65.0856634  30.1372718  45.5448016
  66.0443154  29.6775246  46.6225285  68.5746089  20.3795939  53.3720113
  68.9295477  20.6067412  54.2314579  69.2218220  20.7114316  52.7497369
  62.4685952  17.4872470  50.1566454  63.1085332  17.3461229  49.4589418
  61.6363483  17.2006983  49.7805056  63.2446256  26.7874900  46.2701447
  64.0386855  26.2925220  46.0684022  62.5337949  26.2592763  45.9069152
  68.0641101  29.1692996  50.6213814  68.1178123  29.7383932  51.3891530
  67.1955882  29.3394881  50.2567851  59.5529020  20.9317982  42.3461199
  58.6226608  20.8702438  42.5631162  59.6486492  20.4093935  41.5497841
  59.4714569  17.4572795  44.9339441  59.7321386  18.3718128  44.8248602
  60.2931741  16.9897237  45.0836054  60.9439494  18.8710552  52.1038266
  61.6162547  18.6627914  51.4550915  60.1169281  18.6732638  51.6643498
  75.1928755  25.6114602  51.6213599  75.3864645  26.5160413  51.8672874
  75.0929373  25.1522021  52.4552184  66.8465066  15.4972493  54.1203926
  66.1992981  16.1962443  54.0268403  67.6166081  15.9308637  54.4880175
  70.2543864  25.7621345  57.1954480  70.1029370  25.5331897  56.2784563
  70.2448543  26.7191947  57.2085825  67.0229200  23.3353258  52.1800746
  67.9521260  23.4864418  52.0069714  66.6020230  23.4237279  51.3249393
  65.8217532  27.3603922  49.9499284  65.6828618  26.9922707  50.8225222
  65.0332128  27.8751562  49.7783242  67.3722747  26.7385525  47.3388122
  67.0372580  26.6986295  48.2345771  66.8726693  26.0730241  46.8658532
  61.3466991  22.1453155  52.8640703  61.2086789  21.4133394  53.4652242
  62.2571915  22.0562055  52.5824891  70.3081939  24.0841559  37.6125181
  69.6911110  23.3588388  37.5158234  69.8398427  24.8450920  37.2692256
  63.9749292  21.8573114  52.3524382  64.6848910  21.2166307  52.3111001
  63.9318600  22.1086009  53.2750563  71.9636071  28.7940468  55.2730962
  71.9048617  28.1099688  54.6061545  72.3655589  29.5359458  54.8211588
  62.6878226  18.8438332  54.1720022  62.1515583  18.3929071  54.8241618
  62.0994934  18.9784241  53.4290486  60.9826769  35.6102382  48.0664681
  61.2223368  36.2420906  48.7443699  60.1395966  35.2590422  48.3530040
  62.0980485  18.3026984  36.7346486  61.2209951  18.1815784  36.3708732
  62.5738238  17.5113062  36.4825374  71.9653478  26.7580052  53.5044941
  71.0780257  26.4205973  53.6271340  72.5352029  26.0263083  53.7413707
  53.6182625  23.0904143  46.8287993  54.3053665  22.7765873  46.2409008
  53.4630754  23.9945508  46.5555244  58.4217347  17.9794340  51.2573016
  58.3375536  17.3720010  50.5223426  57.6000054  18.4703358  51.2582513
  65.4954631  31.4181504  50.4706185  65.4224803  32.2236475  50.9825489
  65.0532024  31.6173470  49.6454206  68.5941061  16.4647903  46.6243211
  69.0909761  15.7117866  46.3044282  67.8228043  16.5012220  46.0586421
  76.4470818  22.1688269  48.2661503  76.4360695  23.0512984  47.8955436
  75.5788198  21.8159820  48.0716040  67.9553315  31.3168338  52.6264343
  68.6681287  31.9515803  52.5540245  67.4643343  31.4132204  51.8104345
  65.1776030  18.6065286  46.3514896  64.8073817  18.0536327  47.0395802
  65.6735122  18.0023420  45.7989896  73.0643393  21.0636910  44.7331669
  73.5303845  21.8964902  44.6591972  73.5150894  20.5981892  45.4376927
  63.0065228  29.0662781  53.4469914  63.7074688  29.6999264  53.5999308
  62.5360343  29.4077513  52.6865553  71.0360056  13.4317497  48.7722570
  70.1223136  13.6621724  48.9404777  71.4653157  13.5155941  49.6236603
  70.8066514  21.6207389  51.2722464  70.1537965  21.8683296  50.6174917
  71.1846894  20.8071527  50.9384942  66.8554087  22.3627200  57.7588501
  66.1794724  22.2621329  58.4290877  67.6781721  22.2066414  58.2224499
  58.6032946  28.5999137  50.3801017  59.1886383  27.8542824  50.5128921
  58.4057785  28.9103093  51.2637681  61.4571602  31.6350384  45.3963459
  60.7881977  32.1196512  44.9127499  61.3184471  31.8819604  46.3106838
  53.1950601  21.1704737  49.1005460  53.2334701  20.6368327  49.8942578
  52.6890894  20.6439942  48.4816437  65.5976870  33.6694127  51.9946117
  66.1495178  33.8325749  52.7595203  65.9383064  34.2598565  51.3226142
  60.5741363  16.0169277  52.5968002  60.6382690  16.8784108  52.1845400
  60.5108484  15.4043279  51.8640361  60.0493636  18.0892410  56.2441036
  60.6765675  17.7069487  56.8578561  59.1921555  17.8706612  56.6096729
  70.4487745  28.4955385  57.8494772  70.9927649  29.1085343  57.3549727
  69.8674589  29.0534963  58.3661785  56.8259179  19.8968839  42.1759391
  57.1212620  18.9879517  42.1226445  55.9247214  19.8756578  41.8540394
  68.7345257  31.6176103  48.9809800  68.6096397  30.8165843  48.4720745
  69.3924349  32.1122296  48.4923770  60.3553426  17.9724835  48.1586940
  59.6340011  18.5860803  48.0194413  61.1446681  18.5082600  48.0803586
  70.7980166  29.4185123  50.6089350  69.8510501  29.2990474  50.5367676
  71.1462939  28.5307621  50.6915611  63.1579739  15.3079262  54.4327592
  63.6814141  15.5541559  55.1953901  62.9392073  16.1399297  54.0130729
  58.5547020  17.5782937  42.2998716  58.2259726  16.6980315  42.1173822
  58.9086391  17.5230605  43.1875106  61.6688843  17.8655906  42.6674194
  62.0084916  18.3941828  41.9452802  62.1160964  18.2036312  43.4432761
  64.3632284  16.2492957  52.1177262  64.0229105  15.4500770  52.5197942
  63.6571291  16.5494668  51.5454095  65.0148756  13.3342269  50.5704585
  65.8374825  12.8602748  50.4483475  65.2586820  14.1132753  51.0703271
  63.6556991  16.3630528  40.8667487  64.3765353  16.7411781  40.3631204
  63.0322295  17.0819405  40.9702465  67.7988113  17.0675677  41.8025819
  68.0151728  17.9500315  41.5014647  67.3182181  16.6761890  41.0731461
  62.5387335  20.0261390  48.3796564  62.3931916  20.3401693  49.2720845
  62.0612539  20.6446290  47.8267462  64.3983718  17.0163938  48.4277453
  64.3845287  16.1205031  48.0909751  65.1156146  17.0234602  49.0615739
  66.2509848  17.4501278  50.4730581  65.9927626  18.3718349  50.4714911
  65.7194889  17.0531713  51.1631045  57.0132997  22.5666735  51.3184225
  56.4686465  23.3426542  51.4504499  57.8912347  22.9137539  51.1603346
  63.8020614  15.8978318  43.6965023  63.9236525  14.9694965  43.8955911
  63.5122656  15.9117004  42.7843339  66.6711804  13.5833229  46.8331743
  66.6933501  13.6472562  45.8783723  67.0879863  12.7437737  47.0272249
  57.7999019  21.6936631  54.2114382  57.0580755  21.8419266  54.7979012
  57.4791763  21.9544896  53.3481131  65.7442682  31.2352609  54.0094772
  66.0529808  30.9901756  54.8817471  66.5418164  31.4399247  53.5213642
  65.7663294  33.3890519  46.2400148  65.3268284  32.8966897  46.9333005
  66.5171411  32.8463486  45.9992224  58.2455633  29.5802060  46.2424776
  59.0713652  29.2805831  45.8623420  57.8949685  28.8109682  46.6914565
  63.2137166  28.9328528  48.3122450  62.5917175  28.2699233  48.0124678
  63.8842033  28.9589660  47.6296098  56.4464238  27.4988386  47.2013710
  55.6096146  27.0710560  47.0197711  56.4187883  27.6920829  48.1384501
  63.2861693  17.4110316  57.9054956  63.3349849  18.2872439  57.5232726
  63.8284207  16.8687709  57.3326599  73.7716539  27.9551439  57.1856093
  72.9812083  27.9375578  56.6460593  73.5349893  28.4939733  57.9405130
  73.8914414  24.8043905  54.4988822  73.9412419  24.6393913  55.4404344
  73.7828337  23.9371164  54.1086702  62.7750673  27.4832451  41.7880911
  62.9238793  28.1667915  41.1347583  63.5817116  27.4637541  42.3030366
  71.1818176  20.7874833  55.8148128  72.0828039  20.6481298  55.5232126
  71.2566151  20.9529288  56.7546306  65.5160982  18.1641688  54.6601315
  64.6464291  18.4575254  54.3883903  65.7520462  18.7482133  55.3808578
  75.3932611  27.2240847  54.7430843  75.1017419  27.5870827  55.5794304
  74.7804742  26.5107855  54.5644175  73.6419799  22.3473462  53.2110901
  74.1173921  22.5401108  52.4029753  72.7185364  22.4032647  52.9654285
  60.5303306  23.5097629  42.7941979  60.2849348  22.6059959  42.9922190
  60.6999220  23.5114779  41.8521457  68.2200016  14.3821305  52.1766735
  68.7381959  15.1182332  51.8513224  67.8655148  14.6885298  53.0113494
  59.7998953  19.2425986  40.2928141  59.1068198  19.3170341  39.6368177
  59.5550705  18.4786330  40.8149658  68.4712610  10.8021588  47.6967632
  68.7514363  10.1344777  48.3228058  69.2563217  10.9950683  47.1842295
  66.2746078  29.9780582  39.2592658  65.7020045  30.5970769  38.8063130
  66.8478872  30.5279943  39.7932580  72.3421468  19.2239222  51.4439207
  73.2938891  19.3237319  51.4651431  72.1724918  18.4317490  51.9537291
  70.3635847  16.3094805  51.6298608  69.7685780  16.5899818  50.9345096
  70.0785544  16.7988706  52.4015349  74.8209546  22.4445341  50.5581506
  74.7885866  21.5061342  50.7441190  75.4310169  22.5229378  49.8247331
  66.6592877  21.3141394  36.6008710  67.6051981  21.1847602  36.6697128
  66.2807122  20.5756056  37.0778139  74.9704034  19.2356385  50.6039790
  74.4543083  18.4514841  50.4169718  75.8543983  18.9075101  50.7686309
  72.6314761  12.9797400  46.5635602  72.4339582  12.6712489  47.4478934
  73.2414467  13.7059039  46.6933532  78.7201393  21.6469211  50.2961994
  77.9934556  21.5125176  49.6878486  78.3048680  21.9546039  51.1018712
  66.5431569  25.3659140  58.0609367  67.4634579  25.5437739  58.2549414
  66.5081152  24.4215186  57.9089067  64.8435794  19.2391371  36.5363596
  63.9367249  18.9424483  36.6126309  65.1211775  18.9421189  35.6697882
  55.7613734  20.5597734  46.9862642  55.4416519  19.7063042  46.6937016
  55.2147162  20.7746312  47.7420609  59.5393642  23.2760175  50.7032149
  59.7579652  24.2077283  50.7220182  59.9519416  22.9168149  51.4886952
  66.4597860  13.7828260  42.6907837  65.6498588  13.4375345  43.0663083
  67.1482276  13.4735804  43.2795449  68.3888408  12.8606307  44.3132134
  68.9419446  13.2801761  44.9722157  68.6258494  11.9342055  44.3555090
  64.4121507  18.8493381  60.0934898  64.3118234  19.7987738  60.0246989
  64.1943049  18.5211620  59.2210968  63.6134578  16.0978306  36.6775575
  64.4753742  16.4233204  36.9371392  63.7984923  15.3109802  36.1648641
  55.6301994  24.1800646  48.9555764  54.9365466  23.7654598  48.4425718
  56.3774985  24.2221182  48.3589183  71.7667215  14.9706832  43.8210798
  71.1865884  15.6291636  43.4388850  71.5003148  14.1484177  43.4098215
  70.2170781  14.3711890  46.0232118  70.7170560  14.4828425  45.2146437
  70.8606389  14.0672943  46.6632927  64.2752777  22.2790520  58.9099959
  63.7919859  23.0790880  59.1163848  64.3613716  22.2898465  57.9567403
  57.5438737  24.1118899  46.8321779  57.5209425  24.2106587  45.8803662
  57.8539373  24.9584050  47.1538945  60.2026115  26.1695054  50.9468393
  61.1569368  26.1378997  50.8798325  60.0038638  25.7085678  51.7618619
  60.7925497  24.7396170  53.5139191  61.6118386  25.2340249  53.5374028
  61.0662304  23.8228139  53.4856758  70.5492093  17.1306923  42.8767146
  69.6617948  17.4156573  42.6587341  70.9646082  16.9700686  42.0294423
  73.9006629  17.1553444  46.5921485  74.6767019  17.6449896  46.8646102
  73.1754763  17.5811498  47.0493355  76.3379188  17.8681063  47.6495426
  76.9323679  17.6276799  46.9388734  76.4105771  17.1488194  48.2768962
  58.5576343  31.7114674  47.9638591  58.4230811  30.9515075  47.3976589
  58.1408406  32.4355574  47.4967380  69.6935306  26.8951597  36.9715166
  70.3971157  27.1001600  37.5872822  68.9697955  27.4628359  37.2364250
  70.5233117  22.6461459  43.0917436  70.4668318  23.1030010  42.2525069
  71.0761459  21.8852143  42.9140279  74.3337923  18.4351191  43.9167556
  74.0774857  18.0347826  44.7475763  73.7090791  19.1494984  43.7917695
  78.6450260  21.1747264  46.4238847  78.0849818  21.2440453  47.1970409
  78.0393764  20.9988248  45.7038343  61.7145469  32.6083991  48.1757033
  61.5977853  33.5529423  48.0735724  60.8937916  32.3057552  48.5642833
  71.2567896  23.8366240  40.3869965  71.2016700  23.6710511  39.4458410
  70.6313951  24.5442273  40.5432155  56.0460411  19.0734304  54.2131388
  56.6919275  18.5633258  54.7018613  55.8377562  19.8102986  54.7874813
  68.5713803  26.1415152  59.7123528  69.4404963  26.3155804  59.3510163
  68.0920555  26.9609569  59.5899258  64.5664021  13.3374349  39.9655284
  64.5542691  14.2816189  40.1223555  65.4587443  13.1544494  39.6714745
  62.7399983  33.2612253  51.3912962  63.6427230  33.2935863  51.7079457
  62.5137353  32.3312704  51.4059298  64.4953585  32.0143239  48.0523041
  63.5449216  32.0145101  47.9387413  64.7986072  31.2675974  47.5359075
  68.3816141   9.9317126  44.2201221  67.6148537   9.3775612  44.3657903
  68.7926846  10.0038994  45.0815372  60.3857902  16.2201921  58.3106402
  61.2489364  15.8638726  58.5209726  59.8123313  15.8815816  58.9981806
  73.6658660  35.3261872  56.9411122  73.0357321  36.0078153  57.1746519
  73.5594748  35.2144954  55.9964261  68.9603632  34.9933668  47.8677047
  68.1702686  35.2491197  47.3917157  69.4514880  35.8082006  47.9729087
  67.2441335  35.2464159  50.2992037  67.4949374  36.1311169  50.5649613
  67.7800884  35.0668760  49.5267129  72.9439403  29.6282638  59.3036373
  72.5506348  29.0748837  59.9784018  73.7605543  29.9393217  59.6942891
  75.8607364  31.0440517  56.8956630  76.6017077  31.6447670  56.8161092
  76.0925287  30.3018155  56.3374673  71.0048702  36.2296884  55.1734860
  70.8902217  35.3282142  55.4741959  70.1493220  36.4760581  54.8219676
  78.0840540  44.1714625  56.7722360  77.6404394  43.3851003  56.4543265
  78.7457753  44.3593775  56.1066251  76.6394832  41.9661554  55.6427270
  77.1723169  41.2049842  55.4126578  76.1108913  41.6735206  56.3851424
  71.7833249  34.2002470  52.1038266  72.4556302  33.9919832  51.4550915
  70.9563035  34.0024556  51.6643498  72.1860746  37.4745073  52.8640703
  72.0480544  36.7425312  53.4652242  73.0965669  37.3853973  52.5824891
  73.5271980  34.1730250  54.1720022  72.9909337  33.7220988  54.8241618
  72.9388689  34.3076159  53.4290486  69.2611102  33.3086258  51.2573016
  69.1769290  32.7011927  50.5223426  68.4393808  33.7995276  51.2582513
  64.0344356  36.4996654  49.1005460  64.0728455  35.9660245  49.8942578
  63.5284648  35.9731860  48.4816437  71.4135118  31.3461195  52.5968002
  71.4776444  32.2076026  52.1845400  71.3502238  30.7335197  51.8640361
  70.8887390  33.4184327  56.2441036  71.5159429  33.0361405  56.8578561
  70.0315309  33.1998529  56.6096729  71.1947180  33.3016753  48.1586940
  70.4733766  33.9152721  48.0194413  71.9840436  33.8374518  48.0803586
  73.9973494  30.6371180  54.4327592  74.5207896  30.8833476  55.1953901
  73.7785827  31.4691214  54.0130729  75.2026039  31.5784875  52.1177262
  74.8622859  30.7792688  52.5197942  74.4965045  31.8786586  51.5454095
  75.8542511  28.6634187  50.5704585  76.6768580  28.1894665  50.4483475
  76.0980574  29.4424671  51.0703271  67.8526752  37.8958652  51.3184225
  67.3080220  38.6718460  51.4504499  68.7306101  38.2429457  51.1603346
  68.6392773  37.0228548  54.2114382  67.8974509  37.1711184  54.7979012
  68.3185518  37.2836814  53.3481131  74.1255448  32.7402233  57.9054956
  74.1743603  33.6164356  57.5232726  74.6677962  32.1979627  57.3326599
  75.2515262  34.1785299  60.0934898  75.1511988  35.1279655  60.0246989
  75.0336804  33.8503537  59.2210968  75.1146532  37.6082437  58.9099959
  74.6313613  38.4082797  59.1163848  75.2007471  37.6190382  57.9567403
  71.6319251  40.0688088  53.5139191  72.4512140  40.5632167  53.5374028
  71.9056059  39.1520056  53.4856758  66.8854165  34.4026222  54.2131388
  67.5313029  33.8925176  54.7018613  66.6771317  35.1394904  54.7874813
  79.4107558  41.4707069  59.7123528  80.2798717  41.6447722  59.3510163
  78.9314309  42.2901486  59.5899258  71.2251656  31.5493839  58.3106402
  72.0883118  31.1930644  58.5209726  70.6517067  31.2107734  58.9981806
  91.0700033  53.1795695  49.1168803  91.7078443  53.0602443  48.4132143
  90.9520876  54.1276539  49.1756755  87.8789740  53.1323124  49.0530328
  87.5408251  53.0164188  48.1650862  88.7479508  52.7314289  49.0331334
  83.7376555  54.9858600  45.0427219  83.1741421  54.8948537  44.2743506
  83.6228950  54.1658504  45.5229711  88.3609523  54.2857975  55.0116533
  88.3498163  53.8910774  54.1397037  88.5230162  53.5524048  55.6050305
  81.2840987  56.4809792  47.8811439  82.0762279  56.1400616  47.4657738
  81.5237637  56.5904767  48.8013592  89.3176114  58.6529568  40.3541683
  88.6664094  59.2383648  39.9675697  90.1120477  59.1835763  40.4136721
  85.0816784  57.0695087  53.9595717  84.7906650  57.9740718  53.8442383
  85.7173768  57.1111615  54.6739787  86.0072991  54.4471936  50.5497077
  86.6036563  54.2227958  49.8354040  86.0647962  53.7056681  51.1522525
  90.6241302  50.9047149  46.1922011  91.4104391  50.4866572  45.8412428
  90.8880006  51.8093241  46.3603659  90.7951379  56.3420000  40.8910668
  90.1597212  56.4154626  41.6031572  90.4648786  56.9313598  40.2129747
  96.0249729  50.8422382  47.0954989  96.7574901  50.2721599  47.3292819
  95.2689085  50.4543983  47.5361495  87.6425849  53.2649624  44.2918332
  87.2784056  52.7380245  45.0031253  88.4992965  52.8748093  44.1184817
  93.5475149  44.5543957  51.5549598  93.2158474  45.4239368  51.3310813
  92.9520763  44.2380241  52.2343628  90.0406669  56.7556503  50.9545511
  89.7407392  57.6581541  50.8461318  89.6957728  56.4888686  51.8066664
  83.4919150  53.2070299  46.9882215  82.5669647  53.0746514  47.1959907
  83.7403564  53.9864519  47.4852158  93.4403813  49.2739043  48.6342948
  92.5320690  49.2054451  48.3401709  93.3891408  49.7510988  49.4624774
  80.8527961  52.8503573  47.8226004  80.9820343  53.1038052  48.7365416
  80.1725413  53.4431281  47.5030659  85.0227449  63.5200823  43.9216479
  84.9451478  64.4708648  44.0004959  84.4189092  63.1746695  44.5791405
  87.5144678  50.6928688  56.5777845  86.7378013  51.2522608  56.5680710
  88.1535242  51.1785471  57.0992716  95.3065459  47.4755481  50.4120822
  94.6639839  47.7688014  49.7660617  94.8020388  47.3608401  51.2174019
  92.9605623  51.2218654  41.1006681  93.8723479  51.4546041  40.9254379
  92.4515270  51.8055699  40.5381760  85.7691051  53.5014142  56.1395812
  86.5105735  54.0399186  55.8630636  85.0628036  54.1280430  56.2967364
  91.2446390  55.6443282  54.7367974  91.6529746  55.2025693  53.9922606
  90.5223652  55.0695910  54.9902167  87.5977460  50.5815889  52.1101531
  88.4438656  51.0055302  52.2536180  87.5376098  49.9249513  52.8040094
  91.5675205  56.2044473  48.4920263  90.9384068  56.3690187  47.7896331
  91.1800867  56.6186082  49.2631227  95.4464437  57.1398911  45.8464627
  94.7615475  57.5197812  45.2961660  95.5308286  57.7494237  46.5796574
  90.7476906  48.2420257  53.7682704  90.5037838  48.9962318  53.2316980
  91.0236836  48.6205605  54.6029952  92.7015369  54.7858870  52.4459970
  92.9132264  55.4290630  51.7694351  92.6545117  53.9521186  51.9781900
  90.3041598  47.3976690  49.3496542  89.4426077  47.6957944  49.6413280
  90.3304032  47.6147089  48.4177575  87.1203167  55.9418881  45.7570348
  87.5841512  56.2206584  44.9674970  86.8559965  55.0402325  45.5743439
  84.0127248  55.4890362  48.6950111  84.5828605  55.9177631  48.0567596
  84.6035360  55.2072947  49.3934297  86.0572053  52.0642033  42.5659913
  86.7596096  52.5163077  43.0333839  85.7252681  51.4225852  43.1939806
  84.5052415  50.6553790  56.9411122  83.8751075  51.3370071  57.1746519
  84.3988502  50.5436871  55.9964261  79.7997387  50.3225586  47.8677047
  79.0096441  50.5783114  47.3917157  80.2908634  51.1373924  47.9729087
  93.8161197  57.6630825  50.6182327  94.6378640  57.2611012  50.3365009
  93.8123599  57.5599059  51.5698443  87.5817800  57.2114868  52.7743038
  87.6462232  57.6735276  53.6101210  86.8728724  56.5812233  52.9025348
  78.0835090  50.5756076  50.2992037  78.3343128  51.4603086  50.5649613
  78.6194638  50.3960678  49.5267129 101.9067190  54.0069574  46.9667299
 101.1530898  53.4376972  46.8111303 102.0414731  53.9732238  47.9137934
  87.2965818  58.8782976  42.6422018  87.1611492  59.7234512  43.0706866
  87.8375630  59.0802254  41.8787952  83.7833157  44.9574556  59.3036373
  83.3900103  44.4040754  59.9784018  84.5999298  45.2685134  59.6942891
  86.7001118  46.3732435  56.8956630  87.4410832  46.9739588  56.8161092
  86.9319041  45.6310073  56.3374673  81.8442456  51.5588802  55.1734860
  81.7295971  50.6574059  55.4741959  80.9886974  51.8052499  54.8219676
  88.9234294  59.5006542  56.7722360  88.4798148  58.7142921  56.4543265
  89.5851508  59.6885693  56.1066251  83.6821415  61.0302344  51.2983039
  84.2328840  60.9019407  50.5260033  82.8432891  61.3297233  50.9477932
  91.0215532  59.7809342  54.8003762  91.0034007  60.6018223  54.3084031
  91.9435452  59.6563418  55.0253903  87.4788586  57.2953472  55.6427270
  88.0116923  56.5341760  55.4126578  86.9502667  57.0027124  56.3851424
  90.6108564  52.3922149  39.6793347  90.0955187  53.1626753  39.9181734
  90.3385872  51.7187285  40.3026408  95.5842838  55.1454503  41.6146520
  94.8072281  54.8065663  41.1701682  96.2634319  55.1507127  40.9401485
  90.3994867  50.2649241  41.5053128  90.0945003  50.5795390  42.3563271
  91.3525309  50.3430661  41.5480461  88.8441299  56.4239464  43.1546082
  88.3162661  55.6892224  42.8419319  88.3428802  57.2014141  42.9086050
  93.8234145  54.6188485  48.2713128  93.1657819  55.3087746  48.3593257
  94.6274544  55.0084917  48.6147115  92.6339604  52.9732857  46.3217070
  93.1471485  53.6062849  46.8238780  93.2840828  52.3734053  45.9560430
  89.8961978  62.9517182  39.0777741  89.2223677  63.2548878  39.6862699
  90.2827800  63.7546262  38.7283198  89.1120435  50.4482313  48.5675411
  88.1942996  50.6697260  48.4097099  89.5280578  50.5228623  47.7087118
  89.8955482  51.8473729  43.6978091  90.6427301  52.3595126  43.3885213
  90.1647072  51.5257781  44.5582484  88.1682133  54.3432269  40.6805045
  87.2593352  54.0591302  40.7777515  88.1977216  54.7631348  39.8208352
  93.4001400  57.9538859  44.4496213  92.9463727  57.1129769  44.5061403
  92.7695367  58.5900257  44.7870993  92.3434320  48.8830845  45.6796880
  91.6057076  48.3708231  46.0107123  92.5961093  48.4431227  44.8680157
  91.8434339  59.7915356  45.3846031  92.1357314  60.3520413  44.6658396
  92.3532960  60.0843917  46.1399190  78.7370303  52.0637784  44.6620247
  78.5394703  51.4707144  43.9371314  78.1816967  51.7589994  45.3796186
  86.7167027  51.9560890  46.7814840  86.7715636  51.0034726  46.7057317
  85.9058229  52.1120329  47.2656139  87.8658220  55.8841013  38.0193124
  87.4277650  55.1676872  37.5598761  88.6068661  56.1117128  37.4578215
  84.6559387  50.5737950  44.5405219  83.8427252  50.8732120  44.9470411
  85.1518381  50.1793639  45.2579702  86.8067964  60.5695707  46.4739484
  86.7644143  60.7956553  45.5448016  87.7230663  60.3359081  46.6225285
  90.2533598  51.0379774  53.3720113  90.6082986  51.2651247  54.2314579
  90.9005729  51.3698151  52.7497369  95.9831335  54.1598210  44.0769442
  95.8449234  54.3499806  43.1490631  95.6267554  54.9217593  44.5337493
  96.0100715  56.2274737  49.0880714  96.4437221  56.1350026  49.9363768
  96.7232295  56.2032238  48.4500730  84.9233765  57.4458736  46.2701447
  85.7174364  56.9509056  46.0684022  84.2125458  56.9176599  45.9069152
  89.7428610  59.8276831  50.6213814  89.7965632  60.3967768  51.3891530
  88.8743391  59.9978716  50.2567851  82.6227003  49.5294387  52.1038266
  83.2950056  49.3211750  51.4550915  81.7956790  49.3316473  51.6643498
  96.8716264  56.2698438  51.6213599  97.0652154  57.1744248  51.8672874
  96.7716882  55.8105857  52.4552184  91.9331373  56.4205181  57.1954480
  91.7816879  56.1915732  56.2784563  91.9236052  57.3775782  57.2085825
  88.7016709  53.9937093  52.1800746  89.6308769  54.1448253  52.0069714
  88.2807739  54.0821114  51.3249393  87.5005041  58.0187758  49.9499284
  87.3616127  57.6506542  50.8225222  86.7119637  58.5335397  49.7783242
  88.0953193  63.1196854  41.2924820  88.2704949  62.6484897  42.1070443
  87.4085981  63.7462620  41.5206081  89.0510256  57.3969360  47.3388122
  88.7160089  57.3570130  48.2345771  88.5514202  56.7314076  46.8658532
  83.0254500  52.8036990  52.8640703  82.8874298  52.0717229  53.4652242
  83.9359424  52.7145891  52.5824891  91.9869448  54.7425395  37.6125181
  91.3698619  54.0172223  37.5158234  91.5185936  55.5034755  37.2692256
  85.6536801  52.5156950  52.3524382  86.3636419  51.8750142  52.3111001
  85.6106109  52.7669845  53.2750563  93.6423580  59.4524303  55.2730962
  93.5836126  58.7683523  54.6061545  94.0443098  60.1943293  54.8211588
  82.6614278  66.2686217  48.0664681  82.9010877  66.9004741  48.7443699
  81.8183475  65.9174257  48.3530040  93.6440987  57.4163887  53.5044941
  92.7567766  57.0789809  53.6271340  94.2139538  56.6846918  53.7413707
  80.1004856  48.6378175  51.2573016  80.0163045  48.0303845  50.5223426
  79.2787563  49.1287194  51.2582513  87.1742140  62.0765339  50.4706185
  87.1012312  62.8820311  50.9825489  86.7319533  62.2757305  49.6454206
  86.9631920  61.3137109  43.9809006  86.1799442  61.8558790  44.0747231
  87.6624665  61.8311089  44.3803247  98.1258327  52.8272104  48.2661503
  98.1148204  53.7096820  47.8955436  97.2575707  52.4743655  48.0716040
  89.6340824  61.9752173  52.6264343  90.3468796  62.6099638  52.5540245
  89.1430852  62.0716039  51.8104345  91.3558351  55.8803426  44.1981635
  90.4214629  56.0004889  44.0286339  91.5335019  54.9775893  43.9341645
  86.8563539  49.2649122  46.3514896  86.4861326  48.7120162  47.0395802
  87.3522631  48.6607255  45.7989896  94.7430902  51.7220745  44.7331669
  95.2091354  52.5548737  44.6591972  95.1938403  51.2565727  45.4376927
  84.6852737  59.7246617  53.4469914  85.3862197  60.3583100  53.5999308
  84.2147852  60.0661348  52.6865553  92.8107133  58.0664567  41.7317821
  93.0866977  57.9521161  42.6411695  91.9411632  57.6682051  41.6929994
  92.4854023  52.2791224  51.2722464  91.8325474  52.5267132  50.6174917
  92.8634403  51.4655362  50.9384942  89.4461197  62.3150917  45.3750635
  89.6283592  61.4972573  45.8378387  90.2694183  62.5318610  44.9375525
  89.7803363  61.2419103  42.6365683  90.3091129  60.7311557  42.0235845
  90.0431582  60.9261633  43.5011216  88.5341596  53.0211035  57.7588501
  87.8582233  52.9205165  58.4290877  89.3569230  52.8650249  58.2224499
  83.1359111  62.2934219  45.3963459  82.4669486  62.7780347  44.9127499
  82.9971980  62.5403440  46.3106838  87.2764379  64.3277963  51.9946117
  87.8282687  64.4909584  52.7595203  87.6170573  64.9182401  51.3226142
  81.7281145  48.7476245  56.2441036  82.3553184  48.3653322  56.8578561
  80.8709064  48.5290447  56.6096729  92.1275254  59.1539220  57.8494772
  92.6715158  59.7669179  57.3549727  91.5462098  59.7118799  58.3661785
  90.4132766  62.2759938  48.9809800  90.2883906  61.4749678  48.4720745
  91.0711858  62.7706132  48.4923770  82.0340935  48.6308671  48.1586940
  81.3127520  49.2444639  48.0194413  82.8234190  49.1666436  48.0803586
  92.4767675  60.0768958  50.6089350  91.5298010  59.9574310  50.5367676
  92.8250448  59.1891456  50.6915611  89.4814108  59.8721675  46.8093702
  89.3339071  58.9438382  46.9901272  90.3067602  59.8941765  46.3250777
  93.0848230  60.6950233  47.8958575  94.0094777  60.4893095  47.7583026
  92.9163533  60.4466635  48.8047916  84.2174844  50.6845225  48.3796564
  84.0719425  50.9985529  49.2720845  83.7400047  51.3030126  47.8267462
  86.0771227  47.6747773  48.4277453  86.0632796  46.7788867  48.0909751
  86.7943655  47.6818437  49.0615739  87.9297357  48.1085114  50.4730581
  87.6715135  49.0302184  50.4714911  87.3982398  47.7115548  51.1631045
  92.8743546  61.2135901  43.2520666  93.0480424  60.6482323  42.4994519
  93.3672437  62.0136796  43.0700156  98.7282937  53.9772324  44.8710966
  99.1714083  53.2279649  44.4730089  97.8509448  53.9682460  44.4884698
  93.8618719  60.5302665  40.3517564  94.5569623  61.1509358  40.5704879
  94.2041869  59.6798016  40.6269942  95.7610142  57.9802371  41.8804895
  96.2861466  58.3189644  41.1554215  95.6732494  57.0449386  41.6968030
  87.4230191  61.8936444  54.0094772  87.7317317  61.6485591  54.8817471
  88.2205673  62.0983083  53.5213642  87.4450803  64.0474354  46.2400148
  87.0055793  63.5550733  46.9333005  88.1958920  63.5047322  45.9992224
  84.8924675  59.5912363  48.3122450  84.2704684  58.9283068  48.0124678
  85.5629542  59.6173495  47.6296098  84.9649202  48.0694151  57.9054956
  85.0137358  48.9456274  57.5232726  85.5071716  47.5271544  57.3326599
  95.5701923  55.4627741  54.4988822  95.6199928  55.2977748  55.4404344
  95.4615846  54.5955000  54.1086702  92.8605685  51.4458669  55.8148128
  93.7615548  51.3065134  55.5232126  92.9353660  51.6113124  56.7546306
  97.0720120  57.8824682  54.7430843  96.7804928  58.2454663  55.5794304
  96.4592251  57.1691691  54.5644175  98.2715802  55.4477562  47.2633413
  99.1062693  55.8867366  47.4270974  98.4074931  54.9716215  46.4441659
  95.3207308  53.0057297  53.2110901  95.7961430  53.1984943  52.4029753
  94.3972873  53.0616483  52.9654285  87.9533587  60.6364417  39.2592658
  87.3807554  61.2554604  38.8063130  88.5266381  61.1863779  39.7932580
  94.0208977  49.8823057  51.4439207  94.9726400  49.9821155  51.4651431
  93.8512427  49.0901326  51.9537291  92.0423356  46.9678640  51.6298608
  91.4473289  47.2483653  50.9345096  91.7573053  47.4572541  52.4015349
  91.1730847  60.9201567  40.3901240  92.1061520  60.8547129  40.5934116
  91.0854060  61.7557834  39.9315773  93.8018864  60.2367437  37.3505188
  93.7232495  59.9027301  38.2440946  94.6228530  60.7289205  37.3496660
  96.4997055  53.1029177  50.5581506  96.4673375  52.1645177  50.7441190
  97.1097678  53.1813213  49.8247331  88.3380386  51.9725230  36.6008710
  89.2839490  51.8431438  36.6697128  87.9594631  51.2339892  37.0778139
  96.6491543  49.8940220  50.6039790  96.1330592  49.1098677  50.4169718
  97.5331492  49.5658937  50.7686309 102.3173605  54.1645184  49.6987543
 103.0476993  53.9030472  50.2595247 101.7080550  53.4273905  49.7389611
 100.3988902  52.3053046  50.2961994  99.6722065  52.1709011  49.6878486
  99.9836189  52.6129875  51.1018712  88.2219078  56.0242976  58.0609367
  89.1422088  56.2021575  58.2549414  88.1868661  55.0799021  57.9089067
  81.2181151  53.9344010  50.7032149  81.4367161  54.8661118  50.7220182
  81.6306925  53.5751985  51.4886952  86.0909016  49.5077216  60.0934898
  85.9905743  50.4571573  60.0246989  85.8730558  49.1795455  59.2210968
  85.9540286  52.9374355  58.9099959  85.4707368  53.7374715  59.1163848
  86.0401225  52.9482300  57.9567403  95.5794138  47.8137279  46.5921485
  96.3554528  48.3033732  46.8646102  94.8542272  48.2395333  47.0493355
  98.0166697  48.5264898  47.6495426  98.6111187  48.2860634  46.9388734
  98.0893280  47.8072029  48.2768962  80.2363852  62.3698509  47.9638591
  80.1018320  61.6098910  47.3976589  79.8195915  63.0939409  47.4967380
  91.3722815  57.5535433  36.9715166  92.0758666  57.7585435  37.5872822
  90.6485464  58.1212195  37.2364250  92.2020626  53.3045294  43.0917436
  92.1455827  53.7613845  42.2525069  92.7548968  52.5435979  42.9140279
  96.0125432  49.0935026  43.9167556  95.7562366  48.6931662  44.7475763
  95.3878300  49.8078820  43.7917695 100.3237769  51.8331099  46.4238847
  99.7637327  51.9024288  47.1970409  99.7181273  51.6572084  45.7038343
  83.3932978  63.2667826  48.1757033  83.2765362  64.2113259  48.0735724
  82.5725425  62.9641388  48.5642833  93.2809513  57.9917962  39.0213626
  94.1155117  57.5599160  38.8391101  93.1193856  57.8199976  39.9490521
  92.9355405  54.4950075  40.3869965  92.8804209  54.3294347  39.4458410
  92.3101460  55.2026108  40.5432155  90.2501312  56.7998987  59.7123528
  91.1192472  56.9739639  59.3510163  89.7708064  57.6193404  59.5899258
  84.4187492  63.9196088  51.3912962  85.3214739  63.9519698  51.7079457
  84.1924862  62.9896539  51.4059298  86.1741094  62.6727075  48.0523041
  85.2236725  62.6728936  47.9387413  86.4773581  61.9259809  47.5359075
  82.0645411  46.8785757  58.3106402  82.9276873  46.5222562  58.5209726
  81.4910822  46.5399652  58.9981806 101.9093788  68.5087613  49.1168803
 102.5472198  68.3894360  48.4132143 101.7914631  69.4568457  49.1756755
  98.7183494  68.4615041  49.0530328  98.3802006  68.3456106  48.1650862
  99.5873262  68.0606206  49.0331334  94.5770310  70.3150518  45.0427219
  94.0135175  70.2240455  44.2743506  94.4622705  69.4950422  45.5229711
  99.2003277  69.6149893  55.0116533  99.1891918  69.2202691  54.1397037
  99.3623917  68.8815966  55.6050305  92.1234742  71.8101709  47.8811439
  92.9156034  71.4692534  47.4657738  92.3631392  71.9196684  48.8013592
 100.1569869  73.9821485  40.3541683  99.5057848  74.5675566  39.9675697
 100.9514231  74.5127680  40.4136721  94.0825496  71.0710622  40.7528818
  94.8556372  70.5239610  40.6141694  94.4350895  71.9354872  40.9643279
  95.9210538  72.3987005  53.9595717  95.6300404  73.3032636  53.8442383
  96.5567523  72.4403532  54.6739787  96.8466745  69.7763853  50.5497077
  97.4430317  69.5519876  49.8354040  96.9041717  69.0348599  51.1522525
  96.4191774  67.2303289  38.3847268  96.6717294  66.7084810  37.6230731
  95.4816333  67.0669434  38.4873951 101.4635056  66.2339067  46.1922011
 102.2498146  65.8158490  45.8412428 101.7273761  67.1385159  46.3603659
 101.6345134  71.6711917  40.8910668 100.9990967  71.7446544  41.6031572
 101.3042540  72.2605516  40.2129747 106.8643484  66.1714300  47.0954989
 107.5968655  65.6013517  47.3292819 106.1082839  65.7835901  47.5361495
  96.1388062  69.1331395  40.5871643  96.0224320  68.4576298  41.2552727
  96.2490322  68.6463768  39.7703796  98.4819603  68.5941542  44.2918332
  98.1177810  68.0672163  45.0031253  99.3386719  68.2040011  44.1184817
 104.3868904  59.8835874  51.5549598 104.0552229  60.7531285  51.3310813
 103.7914517  59.5672158  52.2343628  98.1225090  63.6231441  39.2879680
  98.2899493  64.4911678  39.6550151  97.9322259  63.7858723  38.3640970
 100.8800423  72.0848420  50.9545511 100.5801146  72.9873459  50.8461318
 100.5351483  71.8180603  51.8066664  94.3312905  68.5362217  46.9882215
  93.4063401  68.4038431  47.1959907  94.5797318  69.3156436  47.4852158
 104.2797567  64.6030960  48.6342948 103.3714445  64.5346369  48.3401709
 104.2285163  65.0802905  49.4624774  98.1014311  66.0789099  40.2726347
  97.9813936  66.5246150  41.1111828  97.4066899  66.4274417  39.7139885
  91.6921716  68.1795491  47.8226004  91.8214097  68.4329970  48.7365416
  91.0119167  68.7723199  47.5030659  95.8621203  78.8492741  43.9216479
  95.7845233  79.8000566  44.0004959  95.2582847  78.5038613  44.5791405
  98.3538433  66.0220606  56.5777845  97.5771767  66.5814526  56.5680710
  98.9928996  66.5077389  57.0992716 106.1459214  62.8047399  50.4120822
 105.5033594  63.0979932  49.7660617 105.6414142  62.6900319  51.2174019
 103.7999377  66.5510572  41.1006681 104.7117233  66.7837959  40.9254379
 103.2909024  67.1347616  40.5381760  96.6084805  68.8306059  56.1395812
  97.3499490  69.3691103  55.8630636  95.9021791  69.4572348  56.2967364
 102.0840145  70.9735200  54.7367974 102.4923501  70.5317610  53.9922606
 101.3617406  70.3987827  54.9902167  98.4371215  65.9107807  52.1101531
  99.2832410  66.3347220  52.2536180  98.3769853  65.2541431  52.8040094
 102.4068960  71.5336390  48.4920263 101.7777822  71.6982105  47.7896331
 102.0194622  71.9478000  49.2631227 106.2858191  72.4690828  45.8464627
 105.6009230  72.8489730  45.2961660 106.3702041  73.0786155  46.5796574
 101.5870660  63.5712175  53.7682704 101.3431592  64.3254235  53.2316980
 101.8630591  63.9497523  54.6029952 103.5409123  70.1150787  52.4459970
 103.7526018  70.7582547  51.7694351 103.4938871  69.2813104  51.9781900
 101.1435352  62.7268608  49.3496542 100.2819831  63.0249862  49.6413280
 101.1697787  62.9439007  48.4177575  97.9596921  71.2710799  45.7570348
  98.4235267  71.5498502  44.9674970  97.6953720  70.3694243  45.5743439
  94.8521002  70.8182280  48.6950111  95.4222360  71.2469548  48.0567596
  95.4429114  70.5364865  49.3934297  96.8965807  67.3933951  42.5659913
  97.5989851  67.8454995  43.0333839  96.5646436  66.7517770  43.1939806
  95.3446169  65.9845708  56.9411122  94.7144830  66.6661988  57.1746519
  95.2382257  65.8728789  55.9964261  90.6391141  65.6517504  47.8677047
  89.8490195  65.9075032  47.3917157  91.1302389  66.4665841  47.9729087
 104.6554951  72.9922743  50.6182327 105.4772395  72.5902930  50.3365009
 104.6517354  72.8890977  51.5698443  92.5905887  66.0162083  44.8260523
  91.7937050  66.1280777  45.3444019  92.3631479  66.3548735  43.9601414
  98.4211554  72.5406786  52.7743038  98.4855987  73.0027193  53.6101210
  97.7122478  71.9104151  52.9025348  88.9228844  65.9047994  50.2992037
  89.1736883  66.7895004  50.5649613  89.4588393  65.7252596  49.5267129
 112.7460944  69.3361491  46.9667299 111.9924652  68.7668889  46.8111303
 112.8808485  69.3024156  47.9137934  98.1359572  74.2074894  42.6422018
  98.0005247  75.0526429  43.0706866  98.6769385  74.4094171  41.8787952
  94.6226912  60.2866473  59.3036373  94.2293857  59.7332672  59.9784018
  95.4393052  60.5977052  59.6942891  91.5888970  71.7250332  43.2149943
  92.1013490  72.5193582  43.3655508  92.2411682  71.0276622  43.1483545
  93.3983854  74.8416088  45.2972696  93.5750483  75.7634053  45.1093680
  94.1940688  74.5274507  45.7267076  97.5394873  61.7024352  56.8956630
  98.2804586  62.3031506  56.8161092  97.7712796  60.9601990  56.3374673
  92.6836211  66.8880720  55.1734860  92.5689726  65.9865977  55.4741959
  91.8280728  67.1344417  54.8219676  99.7628048  74.8298460  56.7722360
  99.3191903  74.0434839  56.4543265 100.4245262  75.0177611  56.1066251
  94.5215170  76.3594262  51.2983039  95.0722595  76.2311325  50.5260033
  93.6826646  76.6589151  50.9477932 101.8609287  75.1101260  54.8003762
 101.8427762  75.9310141  54.3084031 102.7829207  74.9855335  55.0253903
  98.3182341  72.6245389  55.6427270  98.8510678  71.8633678  55.4126578
  97.7896422  72.3319041  56.3851424 101.4852036  57.7305455  51.1720912
 101.1416305  58.6207097  51.0960022 101.8530998  57.5407113  50.3090497
  89.5537886  70.0538986  43.9909514  90.3913108  70.4635994  43.7743222
  89.7316154  69.1138428  43.9609708 101.4502318  67.7214067  39.6793347
 100.9348942  68.4918671  39.9181734 101.1779627  67.0479203  40.3026408
  99.0349429  62.5663767  44.7378585  98.1791026  62.1770618  44.5584224
  99.4476381  62.6455728  43.8778371 100.5648576  60.1010111  49.1370145
 100.0613372  60.0640246  48.3237950 100.8579183  61.0102853  49.1966802
  96.8091462  60.1848840  48.1436327  97.6744459  59.9891649  47.7842216
  96.8768971  59.9559192  49.0705683 106.4236593  70.4746421  41.6146520
 105.6466035  70.1357581  41.1701682 107.1028074  70.4799044  40.9401485
 101.2388622  65.5941159  41.5053128 100.9338757  65.9087308  42.3563271
 102.1919064  65.6722579  41.5480461  99.6835053  71.7531382  43.1546082
  99.1556415  71.0184142  42.8419319  99.1822556  72.5306058  42.9086050
 104.6627899  69.9480402  48.2713128 104.0051574  70.6379664  48.3593257
 105.4668299  70.3376834  48.6147115  94.4153781  62.4151048  45.5152693
  94.9897533  62.1926230  44.7825886  95.0024763  62.4839743  46.2681295
 103.4733358  68.3024775  46.3217070 103.9865240  68.9354767  46.8238780
 104.1234582  67.7025971  45.9560430  94.7423368  64.4455509  39.5348579
  93.9060680  64.7830196  39.8557853  94.6028138  64.3104489  38.5975716
  96.7176449  59.2892297  44.2427763  96.0640861  58.9741314  43.6184378
  96.6756923  58.6668038  44.9687586  97.8287654  69.5711592  36.1581055
  96.9214715  69.3400846  36.3572204  98.3258686  68.7749211  36.3455037
 100.7355732  78.2809099  39.0777741 100.0617431  78.5840796  39.6862699
 101.1221554  79.0838180  38.7283198  99.9514189  65.7774231  48.5675411
  99.0336750  65.9989178  48.4097099 100.3674333  65.8520541  47.7087118
 100.7349237  67.1765646  43.6978091 101.4821056  67.6887044  43.3885213
 101.0040826  66.8549699  44.5582484  99.0075887  69.6724187  40.6805045
  98.0987106  69.3883220  40.7777515  99.0370971  70.0923266  39.8208352
 104.2395154  73.2830777  44.4496213 103.7857482  72.4421686  44.5061403
 103.6089121  73.9192175  44.7870993 103.1828074  64.2122763  45.6796880
 102.4450831  63.7000149  46.0107123 103.4354848  63.7723144  44.8680157
 102.6828094  75.1207273  45.3846031 102.9751068  75.6812330  44.6658396
 103.1926714  75.4135834  46.1399190 103.2839701  56.9899015  46.2738649
 103.5898578  56.1296378  45.9864564 104.0092306  57.5816635  46.0737643
  89.5764057  67.3929701  44.6620247  89.3788457  66.7999062  43.9371314
  89.0210721  67.0881911  45.3796186  97.5560781  67.2852808  46.7814840
  97.6109391  66.3326644  46.7057317  96.7451983  67.4412247  47.2656139
  98.7051975  71.2132931  38.0193124  98.2671405  70.4968790  37.5598761
  99.4462416  71.4409046  37.4578215  95.4953141  65.9029867  44.5405219
  94.6821007  66.2024038  44.9470411  95.9912135  65.5085556  45.2579702
  97.6461719  75.8987624  46.4739484  97.6037898  76.1248471  45.5448016
  98.5624418  75.6650999  46.6225285 101.0927353  66.3671692  53.3720113
 101.4476740  66.5943165  54.2314579 101.7399484  66.6990069  52.7497369
 106.8225090  69.4890128  44.0769442 106.6842988  69.6791724  43.1490631
 106.4661308  70.2509511  44.5337493  94.9867216  63.4748223  50.1566454
  95.6266595  63.3336982  49.4589418  94.1544746  63.1882736  49.7805056
 106.8494469  71.5566655  49.0880714 107.2830976  71.4641944  49.9363768
 107.5626050  71.5324155  48.4500730  95.7627520  72.7750653  46.2701447
  96.5568118  72.2800973  46.0684022  95.0519212  72.2468516  45.9069152
 100.5822364  75.1568749  50.6213814 100.6359386  75.7259685  51.3891530
  99.7137145  75.3270634  50.2567851  92.0710283  66.9193735  42.3461199
  91.1407871  66.8578191  42.5631162  92.1667755  66.3969688  41.5497841
  91.9895832  63.4448548  44.9339441  92.2502649  64.3593881  44.8248602
  92.8113005  62.9772990  45.0836054  93.4620758  64.8586305  52.1038266
  94.1343811  64.6503667  51.4550915  92.6350544  64.6608391  51.6643498
 107.7110019  71.5990355  51.6213599 107.9045909  72.5036166  51.8672874
 107.6110637  71.1397775  52.4552184  99.3646330  61.4848246  54.1203926
  98.7174245  62.1838196  54.0268403 100.1347345  61.9184390  54.4880175
 102.7725127  71.7497098  57.1954480 102.6210634  71.5207650  56.2784563
 102.7629807  72.7067700  57.2085825  99.5410464  69.3229011  52.1800746
 100.4702524  69.4740171  52.0069714  99.1201494  69.4113032  51.3249393
  98.3398796  73.3479675  49.9499284  98.2009881  72.9798460  50.8225222
  97.5513392  73.8627315  49.7783242  98.9346948  78.4488772  41.2924820
  99.1098703  77.9776815  42.1070443  98.2479736  79.0754538  41.5206081
  99.8904011  72.7261278  47.3388122  99.5553843  72.6862048  48.2345771
  99.3907956  72.0605994  46.8658532  93.8648255  68.1328908  52.8640703
  93.7268053  67.4009147  53.4652242  94.7753178  68.0437808  52.5824891
 102.8263202  70.0717312  37.6125181 102.2092373  69.3464141  37.5158234
 102.3579691  70.8326673  37.2692256  96.4930555  67.8448867  52.3524382
  97.2030174  67.2042060  52.3111001  96.4499864  68.0961762  53.2750563
 104.4817334  74.7816221  55.2730962 104.4229880  74.0975441  54.6061545
 104.8836852  75.5235211  54.8211588  95.2059489  64.8314085  54.1720022
  94.6696846  64.3804824  54.8241618  94.6176198  64.9659994  53.4290486
  93.5008033  81.5978135  48.0664681  93.7404631  82.2296659  48.7443699
  92.6577229  81.2466175  48.3530040  94.6161748  64.2902737  36.7346486
  93.7391215  64.1691537  36.3708732  95.0919501  63.4988815  36.4825374
 104.4834741  72.7455805  53.5044941 103.5961520  72.4081726  53.6271340
 105.0533292  72.0138836  53.7413707  86.1363888  69.0779896  46.8287993
  86.8234928  68.7641626  46.2409008  85.9812017  69.9821261  46.5555244
  90.9398611  63.9670093  51.2573016  90.8556799  63.3595763  50.5223426
  90.1181317  64.4579111  51.2582513  98.0135895  77.4057257  50.4706185
  97.9406066  78.2112229  50.9825489  97.5713288  77.6049223  49.6454206
  97.8025674  76.6429027  43.9809006  97.0193196  77.1850707  44.0747231
  98.5018420  77.1603007  44.3803247 101.1122325  62.4523657  46.6243211
 101.6091024  61.6993619  46.3044282 100.3409306  62.4887973  46.0586421
 108.9652082  68.1564022  48.2661503 108.9541958  69.0388737  47.8955436
 108.0969461  67.8035573  48.0716040 100.4734578  77.3044091  52.6264343
 101.1862550  77.9391556  52.5540245  99.9824607  77.4007957  51.8104345
 102.1952105  71.2095344  44.1981635 101.2608384  71.3296806  44.0286339
 102.3728774  70.3067811  43.9341645  97.6957293  64.5941040  46.3514896
  97.3255081  64.0412080  47.0395802  98.1916386  63.9899173  45.7989896
 105.5824657  67.0512663  44.7331669 106.0485109  67.8840655  44.6591972
 106.0332157  66.5857645  45.4376927  95.5246492  75.0538535  53.4469914
  96.2255951  75.6875017  53.5999308  95.0541607  75.3953266  52.6865553
 103.6500888  73.3956484  41.7317821 103.9260732  73.2813079  42.6411695
 102.7805386  72.9973969  41.6929994 103.5541319  59.4193250  48.7722570
 102.6404399  59.6497477  48.9404777 103.9834421  59.5031694  49.6236603
 103.3247778  67.6083142  51.2722464 102.6719228  67.8559049  50.6174917
 103.7028158  66.7947280  50.9384942 100.2854952  77.6442835  45.3750635
 100.4677346  76.8264491  45.8378387 101.1087938  77.8610527  44.9375525
 100.6197117  76.5711020  42.6365683 101.1484884  76.0603475  42.0235845
 100.8825337  76.2553550  43.5011216  99.3735351  68.3502953  57.7588501
  98.6975988  68.2497082  58.4290877 100.1962985  68.1942167  58.2224499
  91.1214210  74.5874890  50.3801017  91.7067647  73.8418577  50.5128921
  90.9239048  74.8978846  51.2637681  93.9752865  77.6226137  45.3963459
  93.3063240  78.1072265  44.9127499  93.8365735  77.8695357  46.3106838
  85.7131865  67.1580490  49.1005460  85.7515964  66.6244080  49.8942578
  85.2072157  66.6315695  48.4816437  98.1158134  79.6569880  51.9946117
  98.6676442  79.8201502  52.7595203  98.4564327  80.2474318  51.3226142
  93.0922627  62.0045030  52.5968002  93.1563953  62.8659861  52.1845400
  93.0289747  61.3919032  51.8640361  92.5674899  64.0768163  56.2441036
  93.1946938  63.6945240  56.8578561  91.7102818  63.8582365  56.6096729
 102.9669008  74.4831138  57.8494772 103.5108912  75.0961096  57.3549727
 102.3855853  75.0410716  58.3661785  89.3440442  65.8844592  42.1759391
  89.6393883  64.9755270  42.1226445  88.4428478  65.8632331  41.8540394
 101.2526521  77.6051856  48.9809800 101.1277660  76.8041596  48.4720745
 101.9105612  78.0998049  48.4923770  92.8734689  63.9600588  48.1586940
  92.1521275  64.5736556  48.0194413  93.6627945  64.4958353  48.0803586
 103.3161429  75.4060876  50.6089350 102.3691765  75.2866227  50.5367676
 103.6644202  74.5183374  50.6915611  95.6761003  61.2955015  54.4327592
  96.1995405  61.5417312  55.1953901  95.4573336  62.1275050  54.0130729
  91.0728284  63.5658690  42.2998716  90.7440990  62.6856069  42.1173822
  91.4267654  63.5106358  43.1875106 100.3207863  75.2013592  46.8093702
 100.1732825  74.2730300  46.9901272 101.1461356  75.2233683  46.3250777
  94.1870107  63.8531659  42.6674194  94.5266179  64.3817581  41.9452802
  94.6342227  64.1912066  43.4432761 103.9241984  76.0242151  47.8958575
 104.8488532  75.8185012  47.7583026 103.7557288  75.7758552  48.8047916
  96.8813548  62.2368710  52.1177262  96.5410368  61.4376523  52.5197942
  96.1752554  62.5370421  51.5454095  97.5330020  59.3218023  50.5704585
  98.3556089  58.8478501  50.4483475  97.7768083  60.1008506  51.0703271
  96.1738254  62.3506281  40.8667487  96.8946617  62.7287534  40.3631204
  95.5503558  63.0695158  40.9702465 100.3169377  63.0551430  41.8025819
 100.5332991  63.9376068  41.5014647  99.8363444  62.6637643  41.0731461
  95.0568598  66.0137143  48.3796564  94.9113179  66.3277446  49.2720845
  94.5793802  66.6322044  47.8267462  96.9164981  63.0039691  48.4277453
  96.9026550  62.1080784  48.0909751  97.6337409  63.0110355  49.0615739
  98.7691112  63.4377031  50.4730581  98.5108890  64.3594102  50.4714911
  98.2376152  63.0407466  51.1631045 103.7137301  76.5427818  43.2520666
 103.8874178  75.9774241  42.4994519 104.2066192  77.3428713  43.0700156
  89.5314261  68.5542488  51.3184225  88.9867729  69.3302296  51.4504499
  90.4093610  68.9013292  51.1603346  96.3201877  61.8854071  43.6965023
  96.4417788  60.9570718  43.8955911  96.0303920  61.8992757  42.7843339
  99.1893068  59.5708982  46.8331743  99.2114764  59.6348315  45.8783723
  99.6061127  58.7313491  47.0272249 109.5676692  69.3064241  44.8710966
 110.0107838  68.5571567  44.4730089 108.6903202  69.2974378  44.4884698
 104.7012473  75.8594583  40.3517564 105.3963378  76.4801276  40.5704879
 105.0435623  75.0089934  40.6269942  90.3180282  67.6812384  54.2114382
  89.5762018  67.8295019  54.7979012  89.9973027  67.9420649  53.3481131
 106.6003896  73.3094288  41.8804895 107.1255220  73.6481561  41.1554215
 106.5126249  72.3741304  41.6968030  98.2623945  77.2228362  54.0094772
  98.5711071  76.9777509  54.8817471  99.0599427  77.4275001  53.5213642
  98.2844557  79.3766272  46.2400148  97.8449547  78.8842650  46.9333005
  99.0352674  78.8339239  45.9992224  90.7636896  75.5677813  46.2424776
  91.5894916  75.2681584  45.8623420  90.4130948  74.7985435  46.6914565
  95.7318429  74.9204281  48.3122450  95.1098439  74.2574986  48.0124678
  96.4023296  74.9465413  47.6296098  88.9645501  73.4864139  47.2013710
  88.1277409  73.0586313  47.0197711  88.9369147  73.6796582  48.1384501
  95.8042957  63.3986069  57.9054956  95.8531112  64.2748192  57.5232726
  96.3465471  62.8563462  57.3326599 106.2897802  73.9427192  57.1856093
 105.4993346  73.9251331  56.6460593 106.0531157  74.4815486  57.9405130
 106.4095677  70.7919658  54.4988822 106.4593682  70.6269666  55.4404344
 106.3009601  69.9246917  54.1086702  95.2931936  73.4708204  41.7880911
  95.4420056  74.1543669  41.1347583  96.0998380  73.4513294  42.3030366
 103.6999440  66.7750586  55.8148128 104.6009303  66.6357051  55.5232126
 103.7747414  66.9405041  56.7546306  98.0342245  64.1517441  54.6601315
  97.1645555  64.4451007  54.3883903  98.2701726  64.7357886  55.3808578
 107.9113874  73.2116600  54.7430843 107.6198683  73.5746580  55.5794304
 107.2986006  72.4983608  54.5644175 109.1109557  70.7769480  47.2633413
 109.9456448  71.2159284  47.4270974 109.2468685  70.3008133  46.4441659
 106.1601063  68.3349215  53.2110901 106.6355184  68.5276861  52.4029753
 105.2366628  68.3908400  52.9654285  93.0484569  69.4973382  42.7941979
  92.8030611  68.5935712  42.9922190  93.2180484  69.4990532  41.8521457
 100.7381279  60.3697058  52.1766735 101.2563223  61.1058085  51.8513224
 100.3836412  60.6761051  53.0113494  92.3180217  65.2301739  40.2928141
  91.6249462  65.3046094  39.6368177  92.0731969  64.4662083  40.8149658
 100.9893873  56.7897341  47.6967632 101.2695627  56.1220530  48.3228058
 101.7744480  56.9826436  47.1842295  98.7927342  75.9656335  39.2592658
  98.2201309  76.5846522  38.8063130  99.3660135  76.5155696  39.7932580
 104.8602732  65.2114975  51.4439207 105.8120154  65.3113072  51.4651431
 104.6906182  64.4193243  51.9537291 102.8817111  62.2970558  51.6298608
 102.2867043  62.5775571  50.9345096 102.5966808  62.7864459  52.4015349
 102.0124601  76.2493485  40.3901240 102.9455275  76.1839046  40.5934116
 101.9247814  77.0849752  39.9315773 104.6412618  75.5659355  37.3505188
 104.5626250  75.2319219  38.2440946 105.4622285  76.0581123  37.3496660
 107.3390809  68.4321094  50.5581506 107.3067129  67.4937095  50.7441190
 107.9491433  68.5105131  49.8247331  99.1774140  67.3017147  36.6008710
 100.1233245  67.1723355  36.6697128  98.7988385  66.5631809  37.0778139
 107.4885298  65.2232138  50.6039790 106.9724346  64.4390594  50.4169718
 108.3725246  64.8950854  50.7686309 105.1496025  58.9673153  46.5635602
 104.9520846  58.6588242  47.4478934 105.7595730  59.6934792  46.6933532
 113.1567359  69.4937101  49.6987543 113.8870748  69.2322389  50.2595247
 112.5474305  68.7565823  49.7389611 111.2382656  67.6344964  50.2961994
 110.5115820  67.5000929  49.6878486 110.8229943  67.9421792  51.1018712
  99.0612833  71.3534893  58.0609367  99.9815842  71.5313492  58.2549414
  99.0262416  70.4090939  57.9089067  97.3617057  65.2267124  36.5363596
  96.4548513  64.9300236  36.6126309  97.6393038  64.9296942  35.6697882
  88.2794998  66.5473487  46.9862642  87.9597782  65.6938795  46.6937016
  87.7328426  66.7622065  47.7420609  92.0574905  69.2635928  50.7032149
  92.2760915  70.1953036  50.7220182  92.4700679  68.9043903  51.4886952
  98.9779123  59.7704013  42.6907837  98.1679851  59.4251098  43.0663083
  99.6663540  59.4611557  43.2795449 100.9069671  58.8482060  44.3132134
 101.4600710  59.2677514  44.9722157 101.1439758  57.9217808  44.3555090
  96.9302771  64.8369134  60.0934898  96.8299497  65.7863491  60.0246989
  96.7124313  64.5087373  59.2210968  96.1315842  62.0854059  36.6775575
  96.9935006  62.4108957  36.9371392  96.3166186  61.2985555  36.1648641
  88.1483258  70.1676399  48.9555764  87.4546729  69.7530351  48.4425718
  88.8956249  70.2096935  48.3589183 104.2848478  60.9582585  43.8210798
 103.7047147  61.6167389  43.4388850 104.0184411  60.1359930  43.4098215
 102.7352045  60.3587643  46.0232118 103.2351823  60.4704178  45.2146437
 103.3787653  60.0548696  46.6632927  96.7934041  68.2666273  58.9099959
  96.3101122  69.0666633  59.1163848  96.8794980  68.2774218  57.9567403
  90.0620000  70.0994652  46.8321779  90.0390688  70.1982340  45.8803662
  90.3720637  70.9459803  47.1538945  92.7207378  72.1570807  50.9468393
  93.6750632  72.1254750  50.8798325  92.5219902  71.6961431  51.7618619
  93.3106760  70.7271923  53.5139191  94.1299649  71.2216002  53.5374028
  93.5843568  69.8103892  53.4856758 103.0673356  63.1182676  42.8767146
 102.1799211  63.4032326  42.6587341 103.4827345  62.9576439  42.0294423
 106.4187893  63.1429197  46.5921485 107.1948283  63.6325649  46.8646102
 105.6936027  63.5687251  47.0493355 108.8560451  63.8556816  47.6495426
 109.4504942  63.6152552  46.9388734 108.9287035  63.1363947  48.2768962
  91.0757607  77.6990427  47.9638591  90.9412075  76.9390828  47.3976589
  90.6589669  78.4231327  47.4967380 102.2116570  72.8827350  36.9715166
 102.9152420  73.0877353  37.5872822 101.4879219  73.4504112  37.2364250
 103.0414380  68.6337212  43.0917436 102.9849582  69.0905763  42.2525069
 103.5942723  67.8727896  42.9140279 106.8519186  64.4226944  43.9167556
 106.5956120  64.0223579  44.7475763 106.2272054  65.1370738  43.7917695
 111.1631524  67.1623017  46.4238847 110.6031082  67.2316206  47.1970409
 110.5575027  66.9864001  45.7038343  94.2326733  78.5959744  48.1757033
  94.1159117  79.5405176  48.0735724  93.4119179  78.2933305  48.5642833
 104.1203267  73.3209880  39.0213626 104.9548871  72.8891078  38.8391101
 103.9587610  73.1491893  39.9490521 103.7749159  69.8241993  40.3869965
 103.7197963  69.6586264  39.4458410 103.1495215  70.5318026  40.5432155
  88.5641674  65.0610057  54.2131388  89.2100538  64.5509011  54.7018613
  88.3558826  65.7978739  54.7874813 101.0895067  72.1290905  59.7123528
 101.9586226  72.3031557  59.3510163 100.6101818  72.9485322  59.5899258
  97.0845285  59.3250102  39.9655284  97.0723955  60.2691942  40.1223555
  97.9768707  59.1420247  39.6714745  95.2581247  79.2488006  51.3912962
  96.1608494  79.2811616  51.7079457  95.0318617  78.3188457  51.4059298
  97.0134849  78.0018992  48.0523041  96.0630480  78.0020854  47.9387413
  97.3167335  77.2551727  47.5359075 100.8997404  55.9192879  44.2201221
 100.1329800  55.3651365  44.3657903 101.3108109  55.9914747  45.0815372
  92.9039165  62.2077674  58.3106402  93.7670627  61.8514479  58.5209726
  92.3304576  61.8691569  58.9981806 112.7487542  83.8379531  49.1168803
 113.3865952  83.7186278  48.4132143 112.6308385  84.7860375  49.1756755
 109.5577249  83.7906959  49.0530328 109.2195760  83.6748024  48.1650862
 110.4267017  83.3898124  49.0331334 105.4164064  85.6442435  45.0427219
 104.8528929  85.5532372  44.2743506 105.3016459  84.8242340  45.5229711
 110.0397032  84.9441811  55.0116533 110.0285672  84.5494609  54.1397037
 110.2017671  84.2107883  55.6050305 102.9628496  87.1393627  47.8811439
 103.7549788  86.7984452  47.4657738 103.2025146  87.2488602  48.8013592
 110.9963623  89.3113403  40.3541683 110.3451603  89.8967483  39.9675697
 111.7907986  89.8419598  40.4136721 104.9219250  86.4002540  40.7528818
 105.6950126  85.8531527  40.6141694 105.2744649  87.2646789  40.9643279
 106.7604293  87.7278922  53.9595717 106.4694159  88.6324553  53.8442383
 107.3961277  87.7695450  54.6739787 107.6860500  85.1055771  50.5497077
 108.2824072  84.8811793  49.8354040 107.7435471  84.3640516  51.1522525
 107.2585528  82.5595206  38.3847268 107.5111049  82.0376728  37.6230731
 106.3210087  82.3961352  38.4873951 112.3028811  81.5630985  46.1922011
 113.0891900  81.1450408  45.8412428 112.5667515  82.4677077  46.3603659
 112.4738888  87.0003835  40.8910668 111.8384721  87.0738461  41.6031572
 112.1436295  87.5897434  40.2129747 117.7037238  81.5006218  47.0954989
 118.4362410  80.9305435  47.3292819 116.9476594  81.1127818  47.5361495
 106.9781817  84.4623312  40.5871643 106.8618075  83.7868216  41.2552727
 107.0884077  83.9755686  39.7703796 109.3213358  83.9233459  44.2918332
 108.9571565  83.3964080  45.0031253 110.1780474  83.5331928  44.1184817
 115.2262658  75.2127792  51.5549598 114.8945983  76.0823203  51.3310813
 114.6308272  74.8964076  52.2343628 108.9618845  78.9523359  39.2879680
 109.1293247  79.8203595  39.6550151 108.7716014  79.1150641  38.3640970
 111.7194178  87.4140338  50.9545511 111.4194901  88.3165377  50.8461318
 111.3745237  87.1472521  51.8066664 105.1706659  83.8654135  46.9882215
 104.2457156  83.7330349  47.1959907 105.4191073  84.6448354  47.4852158
 115.1191322  79.9322878  48.6342948 114.2108199  79.8638287  48.3401709
 115.0678917  80.4094823  49.4624774 108.9408066  81.4081016  40.2726347
 108.8207691  81.8538067  41.1111828 108.2460654  81.7566334  39.7139885
 102.5315470  83.5087408  47.8226004 102.6607852  83.7621887  48.7365416
 101.8512922  84.1015116  47.5030659 106.7014958  94.1784658  43.9216479
 106.6238987  95.1292483  44.0004959 106.0976601  93.8330531  44.5791405
 109.1932187  81.3512524  56.5777845 108.4165522  81.9106444  56.5680710
 109.8322751  81.8369307  57.0992716 116.9852968  78.1339316  50.4120822
 116.3427348  78.4271850  49.7660617 116.4807897  78.0192237  51.2174019
 114.6393132  81.8802490  41.1006681 115.5510988  82.1129876  40.9254379
 114.1302779  82.4639534  40.5381760 107.4478560  84.1597977  56.1395812
 108.1893244  84.6983021  55.8630636 106.7415545  84.7864266  56.2967364
 112.9233899  86.3027118  54.7367974 113.3317255  85.8609528  53.9922606
 112.2011161  85.7279745  54.9902167 109.2764969  81.2399724  52.1101531
 110.1226165  81.6639138  52.2536180 109.2163607  80.5833349  52.8040094
 113.2462714  86.8628308  48.4920263 112.6171576  87.0274022  47.7896331
 112.8588376  87.2769918  49.2631227 117.1251946  87.7982746  45.8464627
 116.4402984  88.1781647  45.2961660 117.2095795  88.4078073  46.5796574
 112.4264415  78.9004093  53.7682704 112.1825347  79.6546153  53.2316980
 112.7024345  79.2789440  54.6029952 114.3802878  85.4442705  52.4459970
 114.5919773  86.0874465  51.7694351 114.3332626  84.6105022  51.9781900
 111.9829107  78.0560526  49.3496542 111.1213586  78.3541779  49.6413280
 112.0091541  78.2730925  48.4177575 108.7990676  86.6002716  45.7570348
 109.2629021  86.8790419  44.9674970 108.5347474  85.6986161  45.5743439
 105.6914757  86.1474198  48.6950111 106.2616114  86.5761466  48.0567596
 106.2822869  85.8656782  49.3934297 107.7359562  82.7225869  42.5659913
 108.4383605  83.1746912  43.0333839 107.4040190  82.0809687  43.1939806
 106.1839924  81.3137625  56.9411122 105.5538584  81.9953906  57.1746519
 106.0776011  81.2020707  55.9964261 101.4784896  80.9809421  47.8677047
 100.6883950  81.2366950  47.3917157 101.9696143  81.7957759  47.9729087
 115.4948705  88.3214660  50.6182327 116.3166149  87.9194848  50.3365009
 115.4911108  88.2182895  51.5698443 103.4299641  81.3454001  44.8260523
 102.6330805  81.4572695  45.3444019 103.2025234  81.6840653  43.9601414
 109.2605309  87.8698704  52.7743038 109.3249741  88.3319111  53.6101210
 108.5516233  87.2396069  52.9025348  99.7622599  81.2339912  50.2992037
 100.0130637  82.1186922  50.5649613 100.2982147  81.0544513  49.5267129
 108.9753327  89.5366811  42.6422018 108.8399001  90.3818347  43.0706866
 109.5163139  89.7386089  41.8787952 105.4620666  75.6158391  59.3036373
 105.0687612  75.0624590  59.9784018 106.2786807  75.9268970  59.6942891
 102.4282724  87.0542249  43.2149943 102.9407245  87.8485500  43.3655508
 103.0805437  86.3568540  43.1483545 104.2377609  90.1708006  45.2972696
 104.4144237  91.0925970  45.1093680 105.0334442  89.8566425  45.7267076
 108.3788627  77.0316270  56.8956630 109.1198341  77.6323423  56.8161092
 108.6106550  76.2893908  56.3374673 103.5229965  82.2172637  55.1734860
 103.4083480  81.3157895  55.4741959 102.6674483  82.4636334  54.8219676
 110.6021803  90.1590378  56.7722360 110.1585657  89.3726756  56.4543265
 111.2639017  90.3469528  56.1066251 105.3608924  91.6886179  51.2983039
 105.9116349  91.5603243  50.5260033 104.5220400  91.9881068  50.9477932
 112.7003041  90.4393178  54.8003762 112.6821516  91.2602059  54.3084031
 113.6222961  90.3147253  55.0253903 109.1576095  87.9537307  55.6427270
 109.6904432  87.1925595  55.4126578 108.6290176  87.6610959  56.3851424
 112.3245790  73.0597373  51.1720912 111.9810060  73.9499015  51.0960022
 112.6924753  72.8699031  50.3090497 100.3931641  85.3830904  43.9909514
 101.2306863  85.7927912  43.7743222 100.5709908  84.4430346  43.9609708
 112.2896073  83.0505984  39.6793347 111.7742696  83.8210589  39.9181734
 112.0173381  82.3771120  40.3026408 109.8743184  77.8955685  44.7378585
 109.0184780  77.5062535  44.5584224 110.2870136  77.9747646  43.8778371
 111.4042331  75.4302028  49.1370145 110.9007126  75.3932163  48.3237950
 111.6972937  76.3394771  49.1966802 107.6485216  75.5140758  48.1436327
 108.5138213  75.3183567  47.7842216 107.7162725  75.2851110  49.0705683
 117.2630347  85.8038339  41.6146520 116.4859790  85.4649498  41.1701682
 117.9421828  85.8090962  40.9401485 112.0782376  80.9233076  41.5053128
 111.7732512  81.2379225  42.3563271 113.0312818  81.0014496  41.5480461
 110.5228808  87.0823300  43.1546082 109.9950169  86.3476059  42.8419319
 110.0216311  87.8597976  42.9086050 115.5021654  85.2772320  48.2713128
 114.8445328  85.9671581  48.3593257 116.3062053  85.6668752  48.6147115
 105.2547536  77.7442966  45.5152693 105.8291287  77.5218147  44.7825886
 105.8418518  77.8131660  46.2681295 114.3127113  83.6316693  46.3217070
 114.8258994  84.2646685  46.8238780 114.9628337  83.0317888  45.9560430
 105.5817123  79.7747427  39.5348579 104.7454435  80.1122113  39.8557853
 105.4421892  79.6396407  38.5975716 107.5570203  74.6184215  44.2427763
 106.9034616  74.3033232  43.6184378 107.5150677  73.9959955  44.9687586
 108.6681408  84.9003510  36.1581055 107.7608470  84.6692763  36.3572204
 109.1652440  84.1041129  36.3455037 111.5749487  93.6101017  39.0777741
 110.9011186  93.9132714  39.6862699 111.9615309  94.4130097  38.7283198
 110.7907944  81.1066148  48.5675411 109.8730505  81.3281095  48.4097099
 111.2068087  81.1812459  47.7087118 111.5742991  82.5057564  43.6978091
 112.3214810  83.0178961  43.3885213 111.8434581  82.1841617  44.5582484
 109.8469642  85.0016105  40.6805045 108.9380861  84.7175138  40.7777515
 109.8764725  85.4215183  39.8208352 115.0788909  88.6122694  44.4496213
 114.6251236  87.7713604  44.5061403 114.4482876  89.2484093  44.7870993
 114.0221829  79.5414680  45.6796880 113.2844585  79.0292066  46.0107123
 114.2748602  79.1015062  44.8680157 113.5221848  90.4499191  45.3846031
 113.8144823  91.0104248  44.6658396 114.0320469  90.7427752  46.1399190
 114.1233456  72.3190932  46.2738649 114.4292333  71.4588296  45.9864564
 114.8486061  72.9108552  46.0737643 100.4157812  82.7221619  44.6620247
 100.2182212  82.1290980  43.9371314  99.8604476  82.4173829  45.3796186
 108.3954536  82.6144725  46.7814840 108.4503145  81.6618562  46.7057317
 107.5845738  82.7704164  47.2656139 109.5445729  86.5424848  38.0193124
 109.1065159  85.8260707  37.5598761 110.2856170  86.7700963  37.4578215
 106.3346895  81.2321785  44.5405219 105.5214761  81.5315956  44.9470411
 106.8305890  80.8377474  45.2579702 108.4855473  91.2279542  46.4739484
 108.4431652  91.4540388  45.5448016 109.4018172  90.9942917  46.6225285
 111.9321107  81.6963610  53.3720113 112.2870495  81.9235083  54.2314579
 112.5793238  82.0281986  52.7497369 117.6618844  84.8182045  44.0769442
 117.5236743  85.0083641  43.1490631 117.3055063  85.5801428  44.5337493
 105.8260970  78.8040141  50.1566454 106.4660350  78.6628900  49.4589418
 104.9938501  78.5174654  49.7805056 117.6888224  86.8858572  49.0880714
 118.1224730  86.7933862  49.9363768 118.4019804  86.8616073  48.4500730
 106.6021274  88.1042571  46.2701447 107.3961873  87.6092891  46.0684022
 105.8912967  87.5760434  45.9069152 111.4216119  90.4860667  50.6213814
 111.4753141  91.0551603  51.3891530 110.5530900  90.6562552  50.2567851
 102.9104038  82.2485653  42.3461199 101.9801626  82.1870108  42.5631162
 103.0061510  81.7261606  41.5497841 102.8289587  78.7740466  44.9339441
 103.0896404  79.6885799  44.8248602 103.6506759  78.3064908  45.0836054
 104.3014512  80.1878223  52.1038266 104.9737565  79.9795585  51.4550915
 103.4744299  79.9900309  51.6643498 118.5503773  86.9282273  51.6213599
 118.7439663  87.8328084  51.8672874 118.4504391  86.4689692  52.4552184
 110.2040084  76.8140164  54.1203926 109.5567999  77.5130113  54.0268403
 110.9741099  77.2476308  54.4880175 113.6118882  87.0789016  57.1954480
 113.4604388  86.8499568  56.2784563 113.6023561  88.0359617  57.2085825
 110.3804218  84.6520929  52.1800746 111.3096278  84.8032088  52.0069714
 109.9595248  84.7404949  51.3249393 109.1792550  88.6771593  49.9499284
 109.0403636  88.3090377  50.8225222 108.3907146  89.1919232  49.7783242
 109.7740702  93.7780689  41.2924820 109.9492458  93.3068733  42.1070443
 109.0873490  94.4046456  41.5206081 110.7297765  88.0553196  47.3388122
 110.3947598  88.0153966  48.2345771 110.2301711  87.3897912  46.8658532
 104.7042009  83.4620826  52.8640703 104.5661807  82.7301065  53.4652242
 105.6146933  83.3729726  52.5824891 113.6656957  85.4009230  37.6125181
 113.0486128  84.6756058  37.5158234 113.1973445  86.1618590  37.2692256
 107.3324310  83.1740785  52.3524382 108.0423928  82.5333977  52.3111001
 107.2893618  83.4253680  53.2750563 115.3211089  90.1108138  55.2730962
 115.2623635  89.4267359  54.6061545 115.7230607  90.8527128  54.8211588
 106.0453244  80.1606003  54.1720022 105.5090601  79.7096741  54.8241618
 105.4569952  80.2951912  53.4290486 104.3401787  96.9270052  48.0664681
 104.5798386  97.5588576  48.7443699 103.4970984  96.5758092  48.3530040
 105.4555503  79.6194654  36.7346486 104.5784969  79.4983455  36.3708732
 105.9313256  78.8280733  36.4825374 115.3228496  88.0747722  53.5044941
 114.4355275  87.7373644  53.6271340 115.8927047  87.3430754  53.7413707
  96.9757643  84.4071814  46.8287993  97.6628683  84.0933544  46.2409008
  96.8205772  85.3113179  46.5555244 101.7792365  79.2962011  51.2573016
 101.6950554  78.6887680  50.5223426 100.9575072  79.7871029  51.2582513
 108.8529649  92.7349175  50.4706185 108.7799821  93.5404146  50.9825489
 108.4107042  92.9341141  49.6454206 108.6419429  91.9720945  43.9809006
 107.8586951  92.5142625  44.0747231 109.3412174  92.4894924  44.3803247
 111.9516079  77.7815574  46.6243211 112.4484779  77.0285537  46.3044282
 111.1803061  77.8179891  46.0586421 119.8045836  83.4855940  48.2661503
 119.7935713  84.3680655  47.8955436 118.9363216  83.1327491  48.0716040
 111.3128333  92.6336009  52.6264343 112.0256305  93.2683474  52.5540245
 110.8218361  92.7299875  51.8104345 113.0345860  86.5387261  44.1981635
 112.1002138  86.6588724  44.0286339 113.2122528  85.6359728  43.9341645
 108.5351048  79.9232957  46.3514896 108.1648835  79.3703998  47.0395802
 109.0310140  79.3191091  45.7989896 116.4218411  82.3804581  44.7331669
 116.8878863  83.2132572  44.6591972 116.8725912  81.9149562  45.4376927
 106.3640246  90.3830452  53.4469914 107.0649706  91.0166935  53.5999308
 105.8935361  90.7245184  52.6865553 114.4894642  88.7248402  41.7317821
 114.7654486  88.6104997  42.6411695 113.6199141  88.3265887  41.6929994
 114.3935074  74.7485168  48.7722570 113.4798154  74.9789395  48.9404777
 114.8228175  74.8323612  49.6236603 114.1641532  82.9375060  51.2722464
 113.5112983  83.1850967  50.6174917 114.5421912  82.1239198  50.9384942
 111.1248706  92.9734753  45.3750635 111.3071101  92.1556409  45.8378387
 111.9481692  93.1902445  44.9375525 111.4590872  91.9002938  42.6365683
 111.9878638  91.3895393  42.0235845 111.7219091  91.5845468  43.5011216
 110.2129105  83.6794871  57.7588501 109.5369742  83.5789000  58.4290877
 111.0356739  83.5234084  58.2224499 101.9607964  89.9166807  50.3801017
 102.5461401  89.1710495  50.5128921 101.7632803  90.2270764  51.2637681
 104.8146620  92.9518055  45.3963459 104.1456995  93.4364182  44.9127499
 104.6759489  93.1987275  46.3106838  96.5525619  82.4872407  49.1005460
  96.5909719  81.9535998  49.8942578  96.0465912  81.9607613  48.4816437
 108.9551888  94.9861798  51.9946117 109.5070196  95.1493420  52.7595203
 109.2958082  95.5766236  51.3226142 103.9316381  77.3336948  52.5968002
 103.9957708  78.1951779  52.1845400 103.8683502  76.7210950  51.8640361
 103.4068654  79.4060080  56.2441036 104.0340693  79.0237158  56.8578561
 102.5496573  79.1874282  56.6096729 113.8062763  89.8123056  57.8494772
 114.3502666  90.4253014  57.3549727 113.2249607  90.3702634  58.3661785
 100.1834197  81.2136510  42.1759391 100.4787638  80.3047188  42.1226445
  99.2822232  81.1924249  41.8540394 112.0920275  92.9343774  48.9809800
 111.9671415  92.1333514  48.4720745 112.7499367  93.4289967  48.4923770
 103.7128444  79.2892506  48.1586940 102.9915029  79.9028474  48.0194413
 104.5021699  79.8250271  48.0803586 114.1555184  90.7352794  50.6089350
 113.2085519  90.6158145  50.5367676 114.5037957  89.8475292  50.6915611
 106.5154757  76.6246933  54.4327592 107.0389159  76.8709229  55.1953901
 106.2967090  77.4566967  54.0130729 101.9122038  78.8950607  42.2998716
 101.5834744  78.0147986  42.1173822 102.2661409  78.8398276  43.1875106
 111.1601617  90.5305510  46.8093702 111.0126580  89.6022217  46.9901272
 111.9855111  90.5525601  46.3250777 105.0263861  79.1823577  42.6674194
 105.3659934  79.7109498  41.9452802 105.4735982  79.5203983  43.4432761
 114.7635739  91.3534069  47.8958575 115.6882286  91.1476930  47.7583026
 114.5951042  91.1050470  48.8047916 107.7207302  77.5660628  52.1177262
 107.3804123  76.7668441  52.5197942 107.0146309  77.8662339  51.5454095
 108.3723774  74.6509940  50.5704585 109.1949843  74.1770418  50.4483475
 108.6161838  75.4300424  51.0703271 107.0132009  77.6798199  40.8667487
 107.7340371  78.0579451  40.3631204 106.3897313  78.3987075  40.9702465
 111.1563131  78.3843348  41.8025819 111.3726746  79.2667985  41.5014647
 110.6757199  77.9929561  41.0731461 105.8962353  81.3429061  48.3796564
 105.7506934  81.6569364  49.2720845 105.4187556  81.9613961  47.8267462
 107.7558736  78.3331609  48.4277453 107.7420304  77.4372702  48.0909751
 108.4731164  78.3402273  49.0615739 109.6084866  78.7668949  50.4730581
 109.3502644  79.6886020  50.4714911 109.0769907  78.3699384  51.1631045
 114.5531055  91.8719736  43.2520666 114.7267933  91.3066159  42.4994519
 115.0459946  92.6720631  43.0700156 100.3708015  83.8834405  51.3184225
  99.8261483  84.6594213  51.4504499 101.2487365  84.2305210  51.1603346
 107.1595632  77.2145989  43.6965023 107.2811543  76.2862635  43.8955911
 106.8697674  77.2284675  42.7843339 110.0286822  74.9000900  46.8331743
 110.0508519  74.9640233  45.8783723 110.4454881  74.0605408  47.0272249
 120.4070446  84.6356159  44.8710966 120.8501592  83.8863484  44.4730089
 119.5296957  84.6266295  44.4884698 115.5406228  91.1886501  40.3517564
 116.2357132  91.8093193  40.5704879 115.8829378  90.3381852  40.6269942
 101.1574037  83.0104302  54.2114382 100.4155773  83.1586937  54.7979012
 100.8366781  83.2712567  53.3481131 117.4397651  88.6386206  41.8804895
 117.9648975  88.9773479  41.1554215 117.3520003  87.7033221  41.6968030
 109.1017700  92.5520280  54.0094772 109.4104826  92.3069427  54.8817471
 109.8993182  92.7566918  53.5213642 109.1238312  94.7058189  46.2400148
 108.6843302  94.2134568  46.9333005 109.8746429  94.1631157  45.9992224
 101.6030651  90.8969730  46.2424776 102.4288670  90.5973502  45.8623420
 101.2524703  90.1277353  46.6914565 106.5712184  90.2496198  48.3122450
 105.9492193  89.5866903  48.0124678 107.2417051  90.2757330  47.6296098
  99.8039256  88.8156057  47.2013710  98.9671164  88.3878231  47.0197711
  99.7762901  89.0088500  48.1384501 106.6436711  78.7277986  57.9054956
 106.6924867  79.6040109  57.5232726 107.1859225  78.1855380  57.3326599
 117.1291557  89.2719110  57.1856093 116.3387101  89.2543249  56.6460593
 116.8924911  89.8107403  57.9405130 117.2489432  86.1211576  54.4988822
 117.2987437  85.9561584  55.4404344 117.1403355  85.2538835  54.1086702
 106.1325691  88.8000122  41.7880911 106.2813811  89.4835586  41.1347583
 106.9392134  88.7805212  42.3030366 114.5393194  82.1042504  55.8148128
 115.4403057  81.9648969  55.5232126 114.6141169  82.2696959  56.7546306
 108.8736000  79.4809359  54.6601315 108.0039309  79.7742925  54.3883903
 109.1095480  80.0649804  55.3808578 118.7507629  88.5408518  54.7430843
 118.4592437  88.9038498  55.5794304 118.1379760  87.8275526  54.5644175
 119.9503311  86.1061397  47.2633413 120.7850202  86.5451201  47.4270974
 120.0862440  85.6300051  46.4441659 116.9994817  83.6641132  53.2110901
 117.4748939  83.8568779  52.4029753 116.0760382  83.7200318  52.9654285
 103.8878324  84.8265299  42.7941979 103.6424366  83.9227629  42.9922190
 104.0574238  84.8282450  41.8521457 111.5775033  75.6988976  52.1766735
 112.0956977  76.4350003  51.8513224 111.2230166  76.0052969  53.0113494
 103.1573971  80.5593657  40.2928141 102.4643216  80.6338012  39.6368177
 102.9125723  79.7954001  40.8149658 111.8287628  72.1189258  47.6967632
 112.1089381  71.4512447  48.3228058 112.6138235  72.3118354  47.1842295
 109.6321096  91.2948252  39.2592658 109.0595063  91.9138439  38.8063130
 110.2053890  91.8447614  39.7932580 115.6996486  80.5406892  51.4439207
 116.6513909  80.6404990  51.4651431 115.5299936  79.7485161  51.9537291
 113.7210865  77.6262476  51.6298608 113.1260798  77.9067488  50.9345096
 113.4360562  78.1156376  52.4015349 112.8518356  91.5785402  40.3901240
 113.7849029  91.5130964  40.5934116 112.7641569  92.4141669  39.9315773
 115.4806373  90.8951273  37.3505188 115.4020004  90.5611136  38.2440946
 116.3016039  91.3873041  37.3496660 118.1784564  83.7613012  50.5581506
 118.1460884  82.8229013  50.7441190 118.7885187  83.8397049  49.8247331
 110.0167895  82.6309065  36.6008710 110.9626999  82.5015273  36.6697128
 109.6382140  81.8923727  37.0778139 118.3279052  80.5524055  50.6039790
 117.8118101  79.7682512  50.4169718 119.2119001  80.2242772  50.7686309
 115.9889779  74.2965071  46.5635602 115.7914600  73.9880159  47.4478934
 116.5989485  75.0226710  46.6933532 109.9006587  86.6826811  58.0609367
 110.8209597  86.8605410  58.2549414 109.8656170  85.7382856  57.9089067
 108.2010812  80.5559041  36.5363596 107.2942267  80.2592154  36.6126309
 108.4786793  80.2588859  35.6697882  99.1188752  81.8765405  46.9862642
  98.7991537  81.0230713  46.6937016  98.5722180  82.0913983  47.7420609
 102.8968660  84.5927846  50.7032149 103.1154670  85.5244954  50.7220182
 103.3094434  84.2335820  51.4886952 109.8172878  75.0995931  42.6907837
 109.0073606  74.7543016  43.0663083 110.5057294  74.7903475  43.2795449
 111.7463426  74.1773978  44.3132134 112.2994464  74.5969431  44.9722157
 111.9833512  73.2509726  44.3555090 107.7696525  80.1661052  60.0934898
 107.6693252  81.1155409  60.0246989 107.5518067  79.8379290  59.2210968
 106.9709596  77.4145977  36.6775575 107.8328760  77.7400875  36.9371392
 107.1559941  76.6277473  36.1648641  98.9877012  85.4968316  48.9555764
  98.2940484  85.0822269  48.4425718  99.7350003  85.5388853  48.3589183
 115.1242233  76.2874503  43.8210798 114.5440902  76.9459307  43.4388850
 114.8578166  75.4651848  43.4098215 113.5745799  75.6879561  46.0232118
 114.0745578  75.7996095  45.2146437 114.2181407  75.3840614  46.6632927
 107.6327795  83.5958190  58.9099959 107.1494877  84.3958551  59.1163848
 107.7188734  83.6066135  57.9567403 100.9013755  85.4286570  46.8321779
 100.8784443  85.5274257  45.8803662 101.2114391  86.2751721  47.1538945
 103.5601133  87.4862725  50.9468393 104.5144386  87.4546667  50.8798325
 103.3613656  87.0253349  51.7618619 104.1500515  86.0563841  53.5139191
 104.9693404  86.5507920  53.5374028 104.4237322  85.1395809  53.4856758
 113.9067111  78.4474593  42.8767146 113.0192966  78.7324244  42.6587341
 114.3221100  78.2868357  42.0294423 117.2581647  78.4721114  46.5921485
 118.0342037  78.9617567  46.8646102 116.5329781  78.8979169  47.0493355
 119.6954206  79.1848734  47.6495426 120.2898696  78.9444470  46.9388734
 119.7680789  78.4655864  48.2768962 101.9151361  93.0282345  47.9638591
 101.7805829  92.2682745  47.3976589 101.4983424  93.7523244  47.4967380
 113.0510324  88.2119268  36.9715166 113.7546175  88.4169271  37.5872822
 112.3272973  88.7796030  37.2364250 113.8808135  83.9629129  43.0917436
 113.8243336  84.4197681  42.2525069 114.4336477  83.2019814  42.9140279
 117.6912941  79.7518861  43.9167556 117.4349875  79.3515497  44.7475763
 117.0665809  80.4662655  43.7917695 105.0720487  93.9251662  48.1757033
 104.9552871  94.8697094  48.0735724 104.2512934  93.6225223  48.5642833
 114.9597022  88.6501797  39.0213626 115.7942626  88.2182996  38.8391101
 114.7981365  88.4783811  39.9490521 114.6142914  85.1533911  40.3869965
 114.5591718  84.9878182  39.4458410 113.9888969  85.8609944  40.5432155
  99.4035429  80.3901975  54.2131388 100.0494293  79.8800929  54.7018613
  99.1952580  81.1270657  54.7874813 111.9288821  87.4582822  59.7123528
 112.7979981  87.6323475  59.3510163 111.4495573  88.2777239  59.5899258
 107.9239039  74.6542020  39.9655284 107.9117709  75.5983860  40.1223555
 108.8162461  74.4712165  39.6714745 106.0975001  94.5779923  51.3912962
 107.0002248  94.6103534  51.7079457 105.8712371  93.6480374  51.4059298
 107.8528603  93.3310910  48.0523041 106.9024234  93.3312772  47.9387413
 108.1561090  92.5843645  47.5359075 111.7391159  71.2484796  44.2201221
 110.9723555  70.6943283  44.3657903 112.1501864  71.3206665  45.0815372
 103.7432920  77.5369592  58.3106402 104.6064382  77.1806397  58.5209726
 103.1698331  77.1983487  58.9981806 120.3971003  99.1198877  49.0530328
 120.0589515  99.0039941  48.1650862 121.2660771  98.7190042  49.0331334
 116.2557819 100.9734353  45.0427219 115.6922684 100.8824290  44.2743506
 116.1410214 100.1534257  45.5229711 120.8790786 100.2733728  55.0116533
 120.8679427  99.8786527  54.1397037 121.0411426  99.5399801  55.6050305
 113.8022251 102.4685545  47.8811439 114.5943543 102.1276369  47.4657738
 114.0418901 102.5780520  48.8013592 115.7613005 101.7294458  40.7528818
 116.5343881 101.1823445  40.6141694 116.1138404 102.5938707  40.9643279
 117.5998047 103.0570840  53.9595717 117.3087913 103.9616471  53.8442383
 118.2355032 103.0987368  54.6739787 118.5254254 100.4347689  50.5497077
 119.1217826 100.2103711  49.8354040 118.5829226  99.6932434  51.1522525
 118.0979283  97.8887124  38.3847268 118.3504803  97.3668645  37.6230731
 117.1603842  97.7253269  38.4873951 117.8175571  99.7915230  40.5871643
 117.7011829  99.1160133  41.2552727 117.9277831  99.3047604  39.7703796
 120.1607112  99.2525377  44.2918332 119.7965319  98.7255998  45.0031253
 121.0174228  98.8623846  44.1184817 119.8012599  94.2815277  39.2879680
 119.9687002  95.1495513  39.6550151 119.6109768  94.4442558  38.3640970
 116.0100414  99.1946052  46.9882215 115.0850910  99.0622267  47.1959907
 116.2584827  99.9740272  47.4852158 119.7801820  96.7372934  40.2726347
 119.6601445  97.1829985  41.1111828 119.0854408  97.0858252  39.7139885
 113.3709225  98.8379326  47.8226004 113.5001606  99.0913805  48.7365416
 112.6906676  99.4307034  47.5030659 120.0325942  96.6804441  56.5777845
 119.2559276  97.2398361  56.5680710 120.6716505  97.1661224  57.0992716
 118.2872314  99.4889895  56.1395812 119.0286999 100.0274939  55.8630636
 117.5809300 100.1156183  56.2967364 120.1158724  96.5691642  52.1101531
 120.9619919  96.9931056  52.2536180 120.0557362  95.9125266  52.8040094
 119.6384430 101.9294634  45.7570348 120.1022776 102.2082337  44.9674970
 119.3741229 101.0278078  45.5743439 116.5308511 101.4766115  48.6950111
 117.1009869 101.9053384  48.0567596 117.1216623 101.1948700  49.3934297
 118.5753316  98.0517786  42.5659913 119.2777360  98.5038830  43.0333839
 118.2433945  97.4101605  43.1939806 117.0233678  96.6429543  56.9411122
 116.3932339  97.3245824  57.1746519 116.9169766  96.5312624  55.9964261
 112.3178650  96.3101339  47.8677047 111.5277704  96.5658867  47.3917157
 112.8089898  97.1249677  47.9729087 114.2693396  96.6745918  44.8260523
 113.4724559  96.7864612  45.3444019 114.0418988  97.0132570  43.9601414
 120.0999063 103.1990621  52.7743038 120.1643496 103.6611029  53.6101210
 119.3909987 102.5687986  52.9025348 110.6016353  96.5631829  50.2992037
 110.8524392  97.4478839  50.5649613 111.1375902  96.3836431  49.5267129
 116.3014421  90.9450309  59.3036373 115.9081366  90.3916507  59.9784018
 117.1180561  91.2560887  59.6942891 113.2676478 102.3834167  43.2149943
 113.7800999 103.1777417  43.3655508 113.9199191 101.6860457  43.1483545
 115.0771363 105.4999923  45.2972696 115.2537992 106.4217888  45.1093680
 115.8728197 105.1858342  45.7267076 119.2182382  92.3608188  56.8956630
 119.9592095  92.9615341  56.8161092 119.4500305  91.6185826  56.3374673
 114.3623720  97.5464555  55.1734860 114.2477235  96.6449812  55.4741959
 113.5068237  97.7928252  54.8219676 116.2002679 107.0178097  51.2983039
 116.7510104 106.8895160  50.5260033 115.3614155 107.3172986  50.9477932
 119.9969850 103.2829225  55.6427270 120.5298186 102.5217513  55.4126578
 119.4683931 102.9902877  56.3851424 111.2325395 100.7122821  43.9909514
 112.0700617 101.1219830  43.7743222 111.4103663  99.7722263  43.9609708
 120.7136938  93.2247603  44.7378585 119.8578535  92.8354453  44.5584224
 121.1263890  93.3039563  43.8778371 118.4878971  90.8432676  48.1436327
 119.3531968  90.6475484  47.7842216 118.5556480  90.6143027  49.0705683
 121.3622562 102.4115217  43.1546082 120.8343924 101.6767977  42.8419319
 120.8610065 103.1889894  42.9086050 116.0941290  93.0734884  45.5152693
 116.6685042  92.8510065  44.7825886 116.6812272  93.1423578  46.2681295
 116.4210877  95.1039345  39.5348579 115.5848189  95.4414031  39.8557853
 116.2815647  94.9688324  38.5975716 118.3963958  89.9476132  44.2427763
 117.7428370  89.6325150  43.6184378 118.3544432  89.3251873  44.9687586
 119.5075163 100.2295428  36.1581055 118.6002224  99.9984681  36.3572204
 120.0046195  99.4333047  36.3455037 120.6863396 100.3308022  40.6805045
 119.7774615 100.0467055  40.7777515 120.7158480 100.7507101  39.8208352
 111.2551566  98.0513537  44.6620247 111.0575966  97.4582897  43.9371314
 110.6998230  97.7465747  45.3796186 119.2348290  97.9436643  46.7814840
 119.2896900  96.9910479  46.7057317 118.4239492  98.0996082  47.2656139
 120.3839484 101.8716766  38.0193124 119.9458914 101.1552625  37.5598761
 121.1249925 102.0992881  37.4578215 117.1740650  96.5613703  44.5405219
 116.3608516  96.8607873  44.9470411 117.6699644  96.1669392  45.2579702
 116.6654725  94.1332058  50.1566454 117.3054104  93.9920817  49.4589418
 115.8332255  93.8466572  49.7805056 117.4415029 103.4334489  46.2701447
 118.2355627 102.9384809  46.0684022 116.7306721 102.9052352  45.9069152
 113.7497792  97.5777570  42.3461199 112.8195380  97.5162026  42.5631162
 113.8455264  97.0553523  41.5497841 113.6683341  94.1032383  44.9339441
 113.9290158  95.0177717  44.8248602 114.4900513  93.6356826  45.0836054
 115.1408266  95.5170140  52.1038266 115.8131320  95.3087503  51.4550915
 114.3138053  95.3192226  51.6643498 120.0186305 104.0063511  49.9499284
 119.8797390 103.6382295  50.8225222 119.2300901 104.5211150  49.7783242
 121.5691520 103.3845113  47.3388122 121.2341352 103.3445883  48.2345771
 121.0695465 102.7189829  46.8658532 115.5435764  98.7912743  52.8640703
 115.4055562  98.0592982  53.4652242 116.4540687  98.7021644  52.5824891
 118.1718064  98.5032703  52.3524382 118.8817683  97.8625895  52.3111001
 118.1287373  98.7545598  53.2750563 116.8846998  95.4897921  54.1720022
 116.3484355  95.0388659  54.8241618 116.2963707  95.6243829  53.4290486
 116.2949257  94.9486572  36.7346486 115.4178724  94.8275373  36.3708732
 116.7707010  94.1572650  36.4825374 107.8151397  99.7363732  46.8287993
 108.5022437  99.4225462  46.2409008 107.6599526 100.6405096  46.5555244
 112.6186120  94.6253928  51.2573016 112.5344308  94.0179598  50.5223426
 111.7968826  95.1162947  51.2582513 119.3744802  95.2524875  46.3514896
 119.0042590  94.6995915  47.0395802 119.8703895  94.6483008  45.7989896
 117.2034001 105.7122370  53.4469914 117.9043460 106.3458853  53.5999308
 116.7329116 106.0537101  52.6865553 112.8001719 105.2458725  50.3801017
 113.3855156 104.5002413  50.5128921 112.6026557 105.5562682  51.2637681
 107.3919374  97.8164325  49.1005460 107.4303473  97.2827916  49.8942578
 106.8859666  97.2899531  48.4816437 114.7710136  92.6628866  52.5968002
 114.8351462  93.5243697  52.1845400 114.7077256  92.0502867  51.8640361
 114.2462408  94.7351998  56.2441036 114.8734447  94.3529075  56.8578561
 113.3890327  94.5166200  56.6096729 111.0227951  96.5428427  42.1759391
 111.3181392  95.6339106  42.1226445 110.1215987  96.5216167  41.8540394
 114.5522198  94.6184424  48.1586940 113.8308784  95.2320392  48.0194413
 115.3415454  95.1542189  48.0803586 117.3548512  91.9538850  54.4327592
 117.8782914  92.2001147  55.1953901 117.1360845  92.7858885  54.0130729
 112.7515793  94.2242525  42.2998716 112.4228499  93.3439904  42.1173822
 113.1055163  94.1690194  43.1875106 115.8657616  94.5115495  42.6674194
 116.2053688  95.0401416  41.9452802 116.3129736  94.8495901  43.4432761
 118.5601057  92.8952545  52.1177262 118.2197877  92.0960359  52.5197942
 117.8540063  93.1954256  51.5454095 119.2117529  89.9801858  50.5704585
 120.0343598  89.5062336  50.4483475 119.4555592  90.7592342  51.0703271
 117.8525763  93.0090116  40.8667487 118.5734126  93.3871369  40.3631204
 117.2291067  93.7278993  40.9702465 116.7356107  96.6720979  48.3796564
 116.5900688  96.9861282  49.2720845 116.2581311  97.2905879  47.8267462
 118.5952490  93.6623527  48.4277453 118.5814059  92.7664620  48.0909751
 119.3124918  93.6694190  49.0615739 120.4478621  94.0960867  50.4730581
 120.1896399  95.0177937  50.4714911 119.9163661  93.6991301  51.1631045
 111.2101769  99.2126323  51.3184225 110.6655238  99.9886131  51.4504499
 112.0881119  99.5597127  51.1603346 117.9989386  92.5437907  43.6965023
 118.1205297  91.6154553  43.8955911 117.7091429  92.5576593  42.7843339
 120.8680577  90.2292817  46.8331743 120.8902273  90.2932150  45.8783723
 121.2848636  89.3897326  47.0272249 111.9967791  98.3396219  54.2114382
 111.2549527  98.4878855  54.7979012 111.6760536  98.6004485  53.3481131
 112.4424405 106.2261648  46.2424776 113.2682425 105.9265420  45.8623420
 112.0918457 105.4569270  46.6914565 117.4105938 105.5788116  48.3122450
 116.7885947 104.9158821  48.0124678 118.0810805 105.6049248  47.6296098
 110.6433010 104.1447974  47.2013710 109.8064918 103.7170149  47.0197711
 110.6156656 104.3380418  48.1384501 117.4830466  94.0569904  57.9054956
 117.5318621  94.9332027  57.5232726 118.0252980  93.5147297  57.3326599
 116.9719445 104.1292039  41.7880911 117.1207565 104.8127504  41.1347583
 117.7785889 104.1097130  42.3030366 119.7129754  94.8101277  54.6601315
 118.8433064  95.1034843  54.3883903 119.9489234  95.3941722  55.3808578
 114.7272078 100.1557217  42.7941979 114.4818120  99.2519547  42.9922190
 114.8967993 100.1574368  41.8521457 113.9967726  95.8885575  40.2928141
 113.3036971  95.9629930  39.6368177 113.7519478  95.1245918  40.8149658
 119.0404566  95.8850959  36.5363596 118.1336022  95.5884072  36.6126309
 119.3180547  95.5880777  35.6697882 109.9582507  97.2057322  46.9862642
 109.6385291  96.3522631  46.6937016 109.4115935  97.4205901  47.7420609
 113.7362414  99.9219763  50.7032149 113.9548424 100.8536871  50.7220182
 114.1488188  99.5627738  51.4886952 120.6566632  90.4287849  42.6907837
 119.8467360  90.0834934  43.0663083 121.3451049  90.1195393  43.2795449
 118.6090280  95.4952969  60.0934898 118.5087006  96.4447326  60.0246989
 118.3911822  95.1671208  59.2210968 117.8103351  92.7437894  36.6775575
 118.6722515  93.0692793  36.9371392 117.9953695  91.9569390  36.1648641
 109.8270767 100.8260234  48.9555764 109.1334238 100.4114187  48.4425718
 110.5743758 100.8680770  48.3589183 118.4721550  98.9250108  58.9099959
 117.9888631  99.7250468  59.1163848 118.5582489  98.9358053  57.9567403
 111.7407509 100.7578488  46.8321779 111.7178197 100.8566175  45.8803662
 112.0508146 101.6043639  47.1538945 114.3994887 102.8154643  50.9468393
 115.3538141 102.7838585  50.8798325 114.2007411 102.3545267  51.7618619
 114.9894269 101.3855759  53.5139191 115.8087158 101.8799837  53.5374028
 115.2631077 100.4687727  53.4856758 112.7545116 108.3574262  47.9638591
 112.6199584 107.5974663  47.3976589 112.3377178 109.0815162  47.4967380
 110.2429183  95.7193893  54.2131388 110.8888047  95.2092847  54.7018613
 110.0346335  96.4562574  54.7874813 118.7632794  89.9833937  39.9655284
 118.7511464  90.9275777  40.1223555 119.6556216  89.8004083  39.6714745
 114.5826674  92.8661510  58.3106402 115.4458136  92.5098315  58.5209726
 114.0092085  92.5275405  58.9981806  52.5046186  -5.4612808  30.6461785
  52.4270216  -4.5104982  30.7250266  51.9007830  -5.8066935  31.3036711
  50.1433016  -2.7127414  34.7909987  50.3829614  -2.0808889  35.4689006
  49.3002213  -3.0639374  35.0775346  50.6177848  -6.6879411  32.1208766
  49.9488224  -6.2033284  31.6372806  50.4790718  -6.4410191  33.0352144
  54.7583117  -4.6535668  38.7191424  55.3101425  -4.4904046  39.4840509
  55.0989310  -4.0631230  38.0471449  47.7182590  -6.6115121  34.6883897
  47.5837058  -7.3714720  34.1221896  47.3014652  -5.8874221  34.2212686
  50.8751716  -5.7145804  34.9002340  50.7584100  -4.7700372  34.7981030
  50.0544162  -6.0172243  35.2888139  51.9006230  -5.0617542  38.1158269
  52.8033477  -5.0293932  38.4324763  51.6743600  -5.9917091  38.1304604
  66.2002232  -0.5198589  35.7775634  65.8620743  -0.6357525  34.8896169
  67.0692000  -0.9207424  35.7576640  62.0589048   1.3336887  31.7672525
  61.4953913   1.2426824  30.9988813  61.9441443   0.5136792  32.2475018
  66.6822015   0.6336262  41.7361840  66.6710656   0.2389061  40.8642343
  66.8442654  -0.0997665  42.3295611  59.6053480   2.8288079  34.6056746
  60.3974772   2.4878903  34.1903045  59.8450130   2.9383054  35.5258899
  67.6388606   5.0007855  27.0786990  66.9876586   5.5861935  26.6921004
  68.4332969   5.5314050  27.1382028  61.5644234   2.0896992  27.4774124
  62.3375110   1.5425979  27.3387000  61.9169632   2.9541241  27.6888586
  63.4029276   3.4173374  40.6841024  63.1119142   4.3219005  40.5687690
  64.0386260   3.4589902  41.3985093  64.3285483   0.7950223  37.2742383
  64.9249055   0.5706245  36.5599346  64.3860454   0.0534968  37.8767831
  69.1163872   2.6898287  27.6155974  68.4809705   2.7632913  28.3276879
  68.7861278   3.2791886  26.9375054  63.6206800   0.1517764  27.3116949
  63.5043058  -0.5237333  27.9798034  63.7309060  -0.3349862  26.4949102
  65.9638341  -0.3872089  31.0163639  65.5996548  -0.9141468  31.7276560
  66.8205457  -0.7773620  30.8430124  68.3619161   3.1034790  37.6790817
  68.0619884   4.0059829  37.5706625  68.0170221   2.8366973  38.5311970
  61.8131643  -0.4451413  33.7127522  60.8882139  -0.5775199  33.9205214
  62.0616056   0.3342806  34.2097464  59.1740454  -0.8018140  34.5471311
  59.3032835  -0.5483661  35.4610723  58.4937905  -0.2090432  34.2275966
  63.3439941   9.8679110  30.6461785  63.2663971  10.8186935  30.7250266
  62.7401585   9.5224983  31.3036711  64.0903543  -0.1507571  42.8641119
  64.8318227   0.3877473  42.5875943  63.3840529   0.4758718  43.0212671
  69.5658883   1.9921569  41.4613281  69.9742239   1.5503980  40.7167913
  68.8436144   1.4174197  41.7147473  69.8887697   2.5522760  35.2165569
  69.2596560   2.7168474  34.5141637  69.5013359   2.9664370  35.9876533
  73.7676929   3.4877198  32.5709933  73.0827967   3.8676099  32.0206966
  73.8520779   4.0972525  33.3041881  71.0227861   1.1337157  39.1705277
  71.2344756   1.7768917  38.4939658  70.9757609   0.2999473  38.7027207
  65.4415659   2.2897168  32.4815655  65.9054005   2.5684871  31.6920277
  65.1772457   1.3880613  32.2988745  62.3339740   1.8368650  35.4195418
  62.9041097   2.2655918  34.7812902  62.9247852   1.5551234  36.1179603
  58.1209879  -3.3296127  34.5922353  57.3308933  -3.0738598  34.1162464
  58.6121127  -2.5147789  34.6974394  72.1373689   4.0109112  37.3427634
  72.9591133   3.6089300  37.0610316  72.1336092   3.9077346  38.2943750
  60.0724625  -2.9651548  31.5505830  59.2755788  -2.8532853  32.0689326
  59.8450217  -2.6264895  30.6846720  65.9030292   3.5593156  39.4988345
  65.9674725   4.0213563  40.3346516  65.1941216   2.9290521  39.6270654
  56.4047582  -3.0765636  37.0237344  56.6555621  -2.1918626  37.2894920
  56.9407131  -3.2561035  36.2512436  65.6178310   5.2261263  29.3667325
  65.4823985   6.0712799  29.7952173  66.1588122   5.4280541  28.6033259
  59.0707707   2.7436701  29.9395250  59.5832228   3.5379951  30.0900815
  59.7230420   2.0462992  29.8728851  60.8802592   5.8602457  32.0218003
  61.0569220   6.7820422  31.8338987  61.6759426   5.5460877  32.4512383
  60.1654949  -2.0932911  41.8980166  60.0508464  -2.9947653  42.1987265
  59.3099466  -1.8469214  41.5464983  67.2446786   5.8484830  43.4967667
  66.8010640   5.0621208  43.1788571  67.9064000   6.0363980  42.8311558
  62.0033907   7.3780631  38.0228345  62.5541333   7.2497695  37.2505339
  61.1645383   7.6775520  37.6723238  69.3428024   6.1287630  41.5249068
  69.3246500   6.9496511  41.0329337  70.2647944   6.0041705  41.7499209
  65.8001079   3.6431759  42.3672577  66.3329415   2.8820047  42.1371885
  65.2715160   3.3505411  43.1096731  57.0356624   1.0725355  30.7154820
  57.8731846   1.4822364  30.4988528  57.2134892   0.1324798  30.6855014
  67.1653791   2.7717752  29.8791389  66.6375153   2.0370511  29.5664626
  66.6641294   3.5492428  29.6331357  72.1446637   0.9666772  34.9958435
  71.4870312   1.6566033  35.0838564  72.9487036   1.3563204  35.3392421
  65.3106391   0.5897962  22.8826362  64.4033453   0.3587215  23.0817511
  65.8077423  -0.2064419  23.0700343  68.2174470   9.2995469  25.8023048
  67.5436169   9.6027166  26.4108006  68.6040292  10.1024549  25.4528505
  66.4894625   0.6910557  27.4050352  65.5805844   0.4069589  27.5022821
  66.5189709   1.1109635  26.5453659  71.7213892   4.3017146  31.1741519
  71.2676219   3.4608056  31.2306710  71.0907859   4.9378545  31.5116299
  70.1646831   6.1393643  32.1091337  70.4569806   6.6998700  31.3903703
  70.6745452   6.4322204  32.8644497  57.0582795  -1.5883929  31.3865554
  56.8607195  -2.1814569  30.6616621  56.5029459  -1.8931719  32.1041493
  66.1870713   2.2319300  24.7438430  65.7490143   1.5155159  24.2844068
  66.9281153   2.4595415  24.1823522  65.1280457   6.9173994  33.1984791
  65.0856635   7.1434840  32.2693323  66.0443156   6.6837368  33.3470592
  74.3313207   2.5753024  35.8126020  74.7649714   2.4828313  36.6609074
  75.0444788   2.5510525  35.1746036  63.2446257   3.7937023  32.9946753
  64.0386856   3.2987343  32.7929328  62.5337950   3.2654886  32.6314459
  68.0641102   6.1755118  37.3459121  68.1178124   6.7446055  38.1136837
  67.1955883   6.3457003  36.9813158  59.5529021  -2.0619895  29.0706506
  58.6226609  -2.1235440  29.2876468  59.6486493  -2.5843943  28.2743147
  75.1928757   2.6176725  38.3458906  75.3864647   3.5222536  38.5918181
  75.0929375   2.1584144  39.1797491  70.2543865   2.7683468  43.9199786
  70.1029372   2.5394019  43.0029870  70.2448545   3.7254069  43.9331131
  67.0229202   0.3415380  38.9046053  67.9521262   0.4926540  38.7315020
  66.6020232   0.4299401  38.0494699  65.8217533   4.3666045  36.6744590
  65.6828619   3.9984829  37.5470529  65.0332130   4.8813684  36.5028548
  66.4165685   9.4675141  28.0170127  66.5917441   8.9963185  28.8315750
  65.7298473  10.0940908  28.2451388  67.3722749   3.7447648  34.0633428
  67.0372581   3.7048418  34.9591078  66.8726694   3.0792364  33.5903838
  61.3466993  -0.8484722  39.5886009  61.2086790  -1.5804484  40.1897548
  62.2571916  -0.9375822  39.3070197  70.3081940   1.0903682  24.3370488
  69.6911111   0.3650510  24.2403541  69.8398429   1.8513042  23.9937562
  63.9749293  -1.1364763  39.0769689  64.6848912  -1.7771571  39.0356307
  63.9318601  -0.8851868  39.9995870  71.9636072   5.8002590  41.9976268
  71.9048618   5.1161810  41.3306851  72.3655590   6.5421580  41.5456894
  60.9826771  12.6164504  34.7909987  61.2223369  13.2483028  35.4689006
  60.1395967  12.2652544  35.0775346  71.9653479   3.7642174  40.2290248
  71.0780258   3.4268096  40.3516647  72.5352030   3.0325205  40.4659013
  53.6182626   0.0966266  33.5533299  54.3053666  -0.2172004  32.9654315
  53.4630755   1.0007631  33.2800551  65.4954633   8.4243627  37.1951491
  65.4224804   9.2298598  37.7070796  65.0532026   8.6235592  36.3699513
  65.2844412   7.6615397  30.7054313  64.5011934   8.2037077  30.7992537
  65.9837157   8.1789376  31.1048554  67.9553316   8.3230461  39.3509650
  68.6681288   8.9577925  39.2785551  67.4643345   8.4194327  38.5349652
  69.6770843   2.2281713  30.9226941  68.7427122   2.3483176  30.7531646
  69.8547511   1.3254180  30.6586951  63.0065230   6.0724904  40.1715221
  63.7074689   6.7061387  40.3244615  62.5360345   6.4139636  39.4110860
  71.1319625   4.4142854  28.4563128  71.4079469   4.2999448  29.3657002
  70.2624124   4.0160339  28.4175301  67.7673689   8.6629205  32.0995941
  67.9496084   7.8450861  32.5623694  68.5906675   8.8796897  31.6620831
  68.1015855   7.5897390  29.3610990  68.6303621   7.0789844  28.7481152
  68.3644075   7.2739920  30.2256523  66.8554089  -0.6310677  44.4833808
  66.1794726  -0.7316548  45.1536183  67.6781722  -0.7871464  44.9469805
  58.6032948   5.6061259  37.1046323  59.1886384   4.8604947  37.2374228
  58.4057786   5.9165216  37.9882987  61.4571603   8.6412507  32.1208766
  60.7881978   9.1258634  31.6372806  61.3184473   8.8881727  33.0352144
  53.1950602  -1.8233141  35.8250766  53.2334702  -2.3569550  36.6187885
  52.6890895  -2.3497935  35.2061744  65.5976871  10.6756250  38.7191424
  66.1495180  10.8387872  39.4840509  65.9383065  11.2660688  38.0471449
  70.4487746   5.5017508  44.5740078  70.9927650   6.1147466  44.0795033
  69.8674591   6.0597086  45.0907091  56.8259180  -3.0969039  28.9004698
  57.1212621  -4.0058360  28.8471752  55.9247216  -3.1181299  28.5785700
  68.7345259   8.6238226  35.7055106  68.6096398   7.8227965  35.1966052
  69.3924350   9.1184419  35.2169076  70.7980167   6.4247246  37.3334656
  69.8510503   6.3052597  37.2612983  71.1462940   5.5369744  37.4160918
  67.8026600   6.2199962  33.5339009  67.6551563   5.2916669  33.7146579
  68.6280094   6.2420053  33.0496084  71.4060722   7.0428521  34.6203881
  72.3307270   6.8371382  34.4828332  71.2376026   6.7944922  35.5293223
  71.1956039   7.5614188  29.9765973  71.3692916   6.9960611  29.2239825
  71.6884930   8.3615083  29.7945463  57.0132998  -0.4271143  38.0429532
  56.4686466   0.3488665  38.1749806  57.8912348  -0.0800338  37.8848653
  72.1831211   6.8780952  27.0762871  72.8782116   7.4987645  27.2950186
  72.5254361   6.0276304  27.3515249  57.7999020  -1.3001247  40.9359688
  57.0580756  -1.1518611  41.5224319  57.4791764  -1.0392981  40.0726438
  74.0822634   4.3280658  28.6050202  74.6073958   4.6667931  27.8799522
  73.9944987   3.3927673  28.4213336  65.7442683   8.2414732  40.7340078
  66.0529809   7.9963878  41.6062778  66.5418165   8.4461370  40.2458949
  65.7663295  10.3952641  32.9645455  65.3268285   9.9029020  33.6578312
  66.5171412   9.8525609  32.7237530  58.2455634   6.5864182  32.9670083
  59.0713654   6.2867954  32.5868727  57.8949686   5.8171805  33.4159872
  63.2137167   5.9390650  35.0367757  62.5917176   5.2761355  34.7369984
  63.8842034   5.9651782  34.3541404  56.4464239   4.5050509  33.9259017
  55.6096147   4.0772683  33.7443018  56.4187884   4.6982952  34.8629808
  73.7716540   4.9613562  43.9101400  72.9812084   4.9437700  43.3705899
  73.5349895   5.5001855  44.6650436  62.7750674   4.4894574  28.5126217
  62.9238794   5.1730038  27.8592890  63.5817117   4.4699664  29.0275673
  75.3932612   4.2302970  41.4676150  75.1017420   4.5932950  42.3039611
  74.7804743   3.5169978  41.2889482  60.5303307   0.5159751  29.5187286
  60.2849349  -0.3877919  29.7167496  60.6999221   0.5176902  28.5766764
  66.2746079   6.9842704  25.9837965  65.7020047   7.6032891  25.5308436
  66.8478873   7.5342066  26.5177887  69.4943339   7.2679854  27.1146547
  70.4274012   7.2025416  27.3179422  69.4066552   8.1036121  26.6561080
  72.1231356   6.5845725  24.0750494  72.0444987   6.2505588  24.9686252
  72.9441023   7.0767493  24.0741967  66.5431570   2.3721263  44.7854674
  67.4634580   2.5499862  44.9794721  66.5081154   1.4277308  44.6334373
  55.7613735  -2.4340143  33.7107949  55.4416520  -3.2874835  33.4182323
  55.2147164  -2.2191565  34.4665916  59.5393643   0.2822298  37.4277455
  59.7579653   1.2139405  37.4465489  59.9519417  -0.0769728  38.2132259
  55.6301995   1.1862768  35.6801070  54.9365467   0.7716721  35.1671025
  56.3774986   1.2283305  35.0834489  64.2752778  -0.7147358  45.6345266
  63.7919860   0.0853002  45.8409155  64.3613717  -0.7039413  44.6812710
  57.5438738   1.1181022  33.5567085  57.5209426   1.2168709  32.6048968
  57.8539374   1.9646173  33.8784251  60.2026116   3.1757177  37.6713700
  61.1569369   3.1441119  37.6043631  60.0038639   2.7147801  38.4863926
  60.7925498   1.7458293  40.2384497  61.6118387   2.2402372  40.2619335
  61.0662306   0.8290261  40.2102065  58.5576345   8.7176796  34.6883897
  58.4230813   7.9577197  34.1221896  58.1408407   9.4417696  34.2212686
  69.6935308   3.9013720  23.6960473  70.3971158   4.1063723  24.3118128
  68.9697956   4.4690482  23.9609556  61.7145471   9.6146114  34.9002340
  61.5977855  10.5591546  34.7981030  60.8937917   9.3119675  35.2888139
  71.6022005   4.3396249  25.7458933  72.4367609   3.9077448  25.5636408
  71.4406348   4.1678263  26.6735827  71.2567897   0.8428363  27.1115272
  71.2016701   0.6772634  26.1703716  70.6313953   1.5504395  27.2677462
  56.0460412  -3.9203573  40.9376694  56.6919276  -4.4304619  41.4263920
  55.8377563  -3.1834891  41.5120120  68.5713804   3.1477274  46.4368835
  69.4404964   3.3217927  46.0755470  68.0920556   3.9671691  46.3144564
  62.7399985  10.2674375  38.1158269  63.6427231  10.2997986  38.4324763
  62.5137355   9.3374826  38.1304604  64.4953587   9.0205362  34.7768347
  63.5449218   9.0207224  34.6632719  64.7986073   8.2738097  34.2604382
  80.2306280  14.8565900  35.8414110  80.8684690  14.7372648  35.1377450
  80.1127123  15.8046744  35.9002062  77.0395986  14.8093328  35.7775634
  76.7014498  14.6934393  34.8896169  77.9085755  14.4084494  35.7576640
  72.8982802  16.6628805  31.7672525  72.3347667  16.5718742  30.9988813
  72.7835197  15.8428709  32.2475018  77.5215769  15.9628180  41.7361840
  77.5104410  15.5680978  40.8642343  77.6836409  15.2294253  42.3295611
  70.4447234  18.1579996  34.6056746  71.2368526  17.8170821  34.1903045
  70.6843884  18.2674971  35.5258899  78.4782361  20.3299773  27.0786990
  77.8270341  20.9153853  26.6921004  79.2726724  20.8605967  27.1382028
  72.4037988  17.4188910  27.4774124  73.1768864  16.8717897  27.3387000
  72.7563387  18.2833159  27.6888586  74.2423031  18.7465292  40.6841024
  73.9512897  19.6510923  40.5687690  74.8780015  18.7881820  41.3985093
  75.1679237  16.1242140  37.2742383  75.7642810  15.8998163  36.5599346
  75.2254209  15.3826886  37.8767831  74.7404266  13.5781576  25.1092574
  74.9929787  13.0563097  24.3476037  73.8028825  13.4147721  25.2119258
  79.7847549  12.5817354  32.9167318  80.5710638  12.1636777  32.5657735
  80.0486253  13.4863446  33.0848966  79.9557626  18.0190204  27.6155974
  79.3203459  18.0924831  28.3276879  79.6255032  18.6083803  26.9375054
  85.1855976  12.5192587  33.8200296  85.9181148  11.9491804  34.0538126
  84.4295331  12.1314188  34.2606802  74.4600555  15.4809682  27.3116949
  74.3436813  14.8054585  27.9798034  74.5702814  14.9942056  26.4949102
  76.8032096  14.9419829  31.0163639  76.4390303  14.4150450  31.7276560
  77.6599211  14.5518298  30.8430124  82.7081396   6.2314161  38.2794905
  82.3764721   7.1009572  38.0556120  82.1127010   5.9150445  38.9588935
  76.4437582   9.9709729  26.0124987  76.6111985  10.8389965  26.3795458
  76.2534752  10.1337010  25.0886276  79.2012916  18.4326707  37.6790817
  78.9013639  19.3351746  37.5706625  78.8563975  18.1658891  38.5311970
  72.6525397  14.8840504  33.7127522  71.7275894  14.7516718  33.9205214
  72.9009810  15.6634724  34.2097464  82.6010059  10.9509248  35.3588255
  81.6926937  10.8824656  35.0647016  82.5497655  11.4281193  36.1870080
  76.4226803  12.4267386  26.9971654  76.3026429  12.8724437  27.8357134
  75.7279392  12.7752704  26.4385192  70.0134208  14.5273778  34.5471311
  70.1426589  14.7808257  35.4610723  69.3331659  15.1201486  34.2275966
  74.1833695  25.1971028  30.6461785  74.1057725  26.1478853  30.7250266
  73.5795339  24.8516900  31.3036711  76.6750925  12.3698893  43.3023152
  75.8984259  12.9292813  43.2926017  77.3141488  12.8555676  43.8238022
  84.4671706   9.1525686  37.1366129  83.8246086   9.4458219  36.4905923
  83.9626634   9.0378606  37.9419325  82.1211870  12.8988859  27.8251988
  83.0329726  13.1316246  27.6499685  81.6121517  13.4825903  27.2627067
  74.9297298  15.1784347  42.8641119  75.6711982  15.7169391  42.5875943
  74.2234283  15.8050635  43.0212671  80.4052637  17.3213487  41.4613281
  80.8135993  16.8795898  40.7167913  79.6829899  16.7466115  41.7147473
  76.7583707  12.2586094  38.8346837  77.6044902  12.6825507  38.9781486
  76.6982345  11.6019718  39.5285401  80.7281452  17.8814678  35.2165569
  80.0990314  18.0460392  34.5141637  80.3407114  18.2956287  35.9876533
  84.6070684  18.8169116  32.5709933  83.9221722  19.1968017  32.0206966
  84.6914533  19.4264442  33.3041881  79.9083153   9.9190462  40.4928011
  79.6644084  10.6732523  39.9562287  80.1843083  10.2975810  41.3275258
  81.8621615  16.4629075  39.1705277  82.0738511  17.1060834  38.4939658
  81.8151364  15.6291391  38.7027207  79.4647844   9.0746895  36.0741849
  78.6032323   9.3728149  36.3658586  79.4910279   9.2917294  35.1422881
  76.2809414  17.6189086  32.4815655  76.7447759  17.8976789  31.6920277
  76.0166212  16.7172530  32.2988745  73.1733495  17.1660567  35.4195418
  73.7434852  17.5947836  34.7812902  73.7641607  16.8843152  36.1179603
  75.2178300  13.7412238  29.2905220  75.9202343  14.1933282  29.7579146
  74.8858928  13.0996057  29.9185113  73.6658661  12.3323995  43.6656429
  73.0357322  13.0140276  43.8991826  73.5594749  12.2207076  42.7209567
  68.9603634  11.9995791  34.5922353  68.1702688  12.2553319  34.1162464
  69.4514881  12.8144129  34.6974394  82.9767443  19.3401030  37.3427634
  83.7984887  18.9381217  37.0610316  82.9729846  19.2369264  38.2943750
  70.9118379  12.3640370  31.5505830  70.1149542  12.4759064  32.0689326
  70.6843971  12.7027022  30.6846720  76.7424047  18.8885073  39.4988345
  76.8068479  19.3505481  40.3346516  76.0334971  18.2582438  39.6270654
  67.2441337  12.2526281  37.0237344  67.4949375  13.1373291  37.2894920
  67.7800885  12.0730883  36.2512436  91.0673436  15.6839778  33.6912606
  90.3137145  15.1147177  33.5356610  91.2020978  15.6502443  34.6383240
  76.4572064  20.5553181  29.3667325  76.3217739  21.4004717  29.7952173
  76.9981877  20.7572458  28.6033259  72.9439404   6.6344761  46.0281680
  72.5506350   6.0810959  46.7029324  73.7605544   6.9455339  46.4188198
  69.9101462  18.0728619  29.9395250  70.4225982  18.8671869  30.0900815
  70.5624175  17.3754909  29.8728851  71.7196346  21.1894375  32.0218003
  71.8962975  22.1112340  31.8338987  72.5153180  20.8752794  32.4512383
  75.8607365   8.0502640  43.6201937  76.6017078   8.6509793  43.5406399
  76.0925288   7.3080278  43.0619979  71.0048703  13.2359007  41.8980166
  70.8902218  12.3344264  42.1987265  70.1493221  13.4822704  41.5464983
  78.0840541  21.1776747  43.4967667  77.6404395  20.3913126  43.1788571
  78.7457754  21.3655898  42.8311558  72.8427662  22.7072549  38.0228345
  73.3935087  22.5789612  37.2505339  72.0039138  23.0067438  37.6723238
  80.1821779  21.4579547  41.5249068  80.1640254  22.2788428  41.0329337
  81.1041699  21.3333622  41.7499209  76.6394833  18.9723677  42.3672577
  77.1723170  18.2111965  42.1371885  76.1108914  18.6797329  43.1096731
  79.8064528   4.0783743  37.8966218  79.4628797   4.9685384  37.8205329
  80.1743491   3.8885400  37.0335803  67.8750379  16.4017273  30.7154820
  68.7125601  16.8114281  30.4988528  68.0528646  15.4616715  30.6855014
  79.7714811  14.0692354  26.4038653  79.2561434  14.8396958  26.6427041
  79.4992119  13.3957490  27.0271715  77.3561922   8.9142055  31.4623892
  76.5003518   8.5248905  31.2829531  77.7688873   8.9934015  30.6023677
  78.8861068   6.4488398  35.8615452  78.3825864   6.4118533  35.0483257
  79.1791675   7.3581141  35.9212108  75.1303954   6.5327128  34.8681633
  75.9956951   6.3369936  34.5087523  75.1981463   6.3037479  35.7950990
  84.7449085  16.8224708  28.3391827  83.9678528  16.4835868  27.8946989
  85.4240566  16.8277332  27.6646792  79.5601114  11.9419446  28.2298435
  79.2551249  12.2565595  29.0808578  80.5131556  12.0200866  28.2725768
  78.0047546  18.1009669  29.8791389  77.4768907  17.3662429  29.5664626
  77.5035048  18.8784346  29.6331357  82.9840392  16.2958690  34.9958435
  82.3264066  16.9857951  35.0838564  83.7880791  16.6855122  35.3392421
  72.7366273   8.7629335  32.2398000  73.3110025   8.5404517  31.5071193
  73.3237256   8.8318030  32.9926601  81.7945851  14.6503062  33.0462377
  82.3077732  15.2833054  33.5484086  82.4447074  14.0504258  32.6805737
  73.0635860  10.7933796  26.2593885  72.2273173  11.1308483  26.5803160
  72.9240630  10.6582776  25.3221022  75.0388941   5.6370584  30.9673070
  74.3853353   5.3219602  30.3429684  74.9969415   5.0146325  31.6932892
  76.1500146  15.9189879  22.8826362  75.2427208  15.6879133  23.0817511
  76.6471178  15.1227499  23.0700343  79.0568225  24.6287387  25.8023048
  78.3829924  24.9319083  26.4108006  79.4434047  25.4316467  25.4528505
  78.2726681  12.1252518  35.2920717  77.3549243  12.3467465  35.1342405
  78.6886825  12.1998828  34.4332425  79.0561729  13.5243934  30.4223397
  79.8033548  14.0365331  30.1130519  79.3253319  13.2027986  31.2827791
  77.3288379  16.0202474  27.4050352  76.4199599  15.7361507  27.5022821
  77.3583463  16.4401553  26.5453659  82.5607647  19.6309064  31.1741519
  82.1069974  18.7899974  31.2306710  81.9301613  20.2670462  31.5116299
  81.5040566  10.5601050  32.4042187  80.7663323  10.0478436  32.7352429
  81.7567340  10.1201431  31.5925464  81.0040586  21.4685561  32.1091337
  81.2963560  22.0290618  31.3903703  81.5139207  21.7614121  32.8644497
  67.8976550  13.7407988  31.3865554  67.7000950  13.1477349  30.6616621
  67.3423214  13.4360199  32.1041493  75.8773273  13.6331095  33.5060147
  75.9321883  12.6804931  33.4302624  75.0664475  13.7890534  33.9901445
  77.0264467  17.5611218  24.7438430  76.5883897  16.8447077  24.2844068
  77.7674908  17.7887333  24.1823522  73.8165633  12.2508155  31.2650526
  73.0033499  12.5502325  31.6715718  74.3124627  11.8563843  31.9825008
  75.9674211  22.2465912  33.1984791  75.9250390  22.4726758  32.2693323
  76.8836910  22.0129286  33.3470592  79.4139845  12.7149979  40.0965420
  79.7689233  12.9421452  40.9559886  80.0611976  13.0468356  39.4742675
  85.1437582  15.8368415  30.8014749  85.0055480  16.0270011  29.8735938
  84.7873801  16.5987798  31.2582800  73.3079708   9.8226510  36.8811761
  73.9479087   9.6815269  36.1834724  72.4757239   9.5361024  36.5050363
  85.1706962  17.9044942  35.8126020  85.6043468  17.8120231  36.6609074
  85.8838542  17.8802442  35.1746036  74.0840012  19.1228941  32.9946753
  74.8780610  18.6279261  32.7929328  73.3731704  18.5946804  32.6314459
  78.9034856  21.5047036  37.3459121  78.9571879  22.0737972  38.1136837
  78.0349638  21.6748921  36.9813158  70.3922775  13.2672022  29.0706506
  69.4620364  13.2056478  29.2876468  70.4880247  12.7447975  28.2743147
  70.3108324   9.7926835  31.6584748  70.5715142  10.7072168  31.5493908
  71.1325497   9.3251278  31.8081361  71.7833250  11.2064592  38.8283572
  72.4556303  10.9981954  38.1796221  70.9563036  11.0086678  38.3888805
  86.0322511  17.9468643  38.3458906  86.2258401  18.8514453  38.5918181
  85.9323129  17.4876062  39.1797491  77.6858822   7.8326533  40.8449233
  77.0386737   8.5316483  40.7513710  78.4559837   8.2662677  41.2125481
  81.0937620  18.0975385  43.9199786  80.9423126  17.8685937  43.0029870
  81.0842299  19.0545987  43.9331131  77.8622956  15.6707298  38.9046053
  78.7915016  15.8218458  38.7315020  77.4413986  15.7591319  38.0494699
  76.6611288  19.6957963  36.6744590  76.5222374  19.3276747  37.5470529
  75.8725884  20.2105602  36.5028548  77.2559440  24.7967059  28.0170127
  77.4311196  24.3255102  28.8315750  76.5692228  25.4232825  28.2451388
  78.2116503  19.0739565  34.0633428  77.8766336  19.0340335  34.9591078
  77.7120449  18.4084281  33.5903838  72.1860747  14.4807195  39.5886009
  72.0480545  13.7487434  40.1897548  73.0965671  14.3916095  39.3070197
  81.1475695  16.4195600  24.3370488  80.5304865  15.6942428  24.2403541
  80.6792183  17.1804960  23.9937562  74.8143048  14.1927155  39.0769689
  75.5242666  13.5520347  39.0356307  74.7712356  14.4440049  39.9995870
  73.5271982  11.1792373  40.8965329  72.9909339  10.7283111  41.5486925
  72.9388690  11.3138281  40.1535793  71.8220525  27.9456422  34.7909987
  72.0617123  28.5774946  35.4689006  70.9789722  27.5944462  35.0775346
  72.9374241  10.6381024  23.4591792  72.0603707  10.5169825  23.0954039
  73.4131994   9.8467102  23.2070681  82.8047234  19.0934092  40.2290248
  81.9174012  18.7560014  40.3516647  83.3745785  18.3617123  40.4659013
  64.4576381  15.4258184  33.5533299  65.1447421  15.1119914  32.9654315
  64.3024509  16.3299548  33.2800551  69.2611103  10.3148380  37.9818323
  69.1769292   9.7074050  37.2468733  68.4393809  10.8057399  37.9827819
  76.3348387  23.7535544  37.1951491  76.2618559  24.5590516  37.7070796
  75.8925780  23.9527510  36.3699513  76.1238167  22.9907314  30.7054313
  75.3405689  23.5328994  30.7992537  76.8230912  23.5081294  31.1048554
  79.4334817   8.8001944  33.3488518  79.9303516   8.0471906  33.0289588
  78.6621798   8.8366260  32.7831727  87.2864574  14.5042309  34.9906810
  87.2754450  15.3867025  34.6200743  86.4181954  14.1513860  34.7961347
  78.7947071  23.6522378  39.3509650  79.5075043  24.2869843  39.2785551
  78.3037099  23.7486244  38.5349652  80.5164597  17.5573631  30.9226941
  79.5820876  17.6775093  30.7531646  80.6941266  16.6546098  30.6586951
  76.0169786  10.9419327  33.0760203  75.6467573  10.3890367  33.7641108
  76.5128878  10.3377460  32.5235203  83.9037149  13.3990950  31.4576976
  84.3697601  14.2318942  31.3837278  84.3544649  12.9335932  32.1622234
  73.8458984  21.4016822  40.1715221  74.5468444  22.0353305  40.3244615
  73.3754099  21.7431553  39.4110860  81.9713380  19.7434772  28.4563128
  82.2473224  19.6291366  29.3657002  81.1017879  19.3452256  28.4175301
  81.8753812   5.7671537  35.4967877  80.9616891   5.9975764  35.6650084
  82.3046913   5.8509981  36.3481909  81.6460270  13.9561429  37.9967771
  80.9931720  14.2037337  37.3420224  82.0240650  13.1425567  37.6630248
  78.6067444  23.9921122  32.0995941  78.7889838  23.1742778  32.5623694
  79.4300430  24.2088815  31.6620831  78.9409609  22.9189308  29.3610990
  79.4697376  22.4081762  28.7481152  79.2037829  22.6031838  30.2256523
  77.6947843  14.6981240  44.4833808  77.0188480  14.5975370  45.1536183
  78.5175477  14.5420454  44.9469805  69.4426702  20.9353177  37.1046323
  70.0280139  20.1896865  37.2374228  69.2451541  21.2457134  37.9882987
  72.2965357  23.9704424  32.1208766  71.6275733  24.4550552  31.6372806
  72.1578227  24.2173645  33.0352144  64.0344357  13.5058777  35.8250766
  64.0728456  12.9722368  36.6187885  63.5284650  12.9793983  35.2061744
  71.4135119   8.3523318  39.3213309  71.4776446   9.2138148  38.9090706
  71.3502239   7.7397319  38.5885667  70.8887392  10.4246450  42.9686343
  71.5159431  10.0423527  43.5823867  70.0315311  10.2060652  43.3342036
  67.6652934  12.2322879  28.9004698  67.9606376  11.3233558  28.8471752
  66.7640970  12.2110619  28.5785700  71.1947181  10.3078876  34.8832246
  70.4733767  10.9214843  34.7439720  71.9840437  10.8436641  34.8048892
  73.9973495   7.6433302  41.1572898  74.5207897   7.8895599  41.9199207
  73.7785828   8.4753337  40.7376036  69.3940776   9.9136977  29.0244023
  69.0653482   9.0334356  28.8419129  69.7480147   9.8584646  29.9120412
  78.6420355  21.5491880  33.5339009  78.4945317  20.6208587  33.7146579
  79.4673848  21.5711970  33.0496084  72.5082599  10.2009947  29.3919501
  72.8478672  10.7295868  28.6698109  72.9554720  10.5390353  30.1678067
  75.2026040   8.5846997  38.8422569  74.8622860   7.7854810  39.2443249
  74.4965046   8.8848708  38.2699402  75.8542512   5.6696310  37.2949892
  76.6768581   5.1956788  37.1728782  76.0980575   6.4486794  37.7948578
  74.4950746   8.6984568  27.5912793  75.2159109   9.0765821  27.0876510
  73.8716050   9.4173445  27.6947771  78.6381869   9.4029717  28.5271126
  78.8545484  10.2854355  28.2259954  78.1575936   9.0115931  27.7976768
  73.3781091  12.3615430  35.1041870  73.2325671  12.6755733  35.9966152
  72.9006294  12.9800331  34.5512769  75.2377474   9.3517978  35.1522760
  75.2239042   8.4559072  34.8155058  75.9549902   9.3588642  35.7861046
  77.0903604   9.7855319  37.1975887  76.8321382  10.7072389  37.1960218
  76.5588645   9.3885753  37.8876351  82.0349793  22.8906106  29.9765973
  82.2086671  22.3252528  29.2239825  82.5278684  23.6907001  29.7945463
  67.8526753  14.9020775  38.0429532  67.3080221  15.6780583  38.1749806
  68.7306103  15.2491579  37.8848653  74.6414369   8.2332359  30.4210330
  74.7630281   7.3049005  30.6201218  74.3516412   8.2471045  29.5088645
  77.5105560   5.9187269  33.5577050  77.5327257   5.9826602  32.6029029
  77.9273619   5.0791778  33.7517556  87.8889184  15.6542529  31.5956272
  88.3320330  14.9049854  31.1975396  87.0115694  15.6452665  31.2130004
  83.0224965  22.2072870  27.0762871  83.7175870  22.8279563  27.2950186
  83.3648116  21.3568221  27.3515249  68.6392775  14.0290671  40.9359688
  67.8974511  14.1773306  41.5224319  68.3185519  14.2898937  40.0726438
  84.9216389  19.6572576  28.6050202  85.4467713  19.9959848  27.8799522
  84.8338741  18.7219591  28.4213336  76.6057049  25.7244559  32.9645455
  76.1662040  25.2320938  33.6578312  77.3565166  25.1817527  32.7237530
  69.0849388  21.9156100  32.9670083  69.9107408  21.6159872  32.5868727
  68.7343440  21.1463722  33.4159872  74.0530922  21.2682568  35.0367757
  73.4310931  20.6053273  34.7369984  74.7235788  21.2943700  34.3541404
  67.2857993  19.8342426  33.9259017  66.4489902  19.4064601  33.7443018
  67.2581639  20.0274870  34.8629808  74.1255449   9.7464356  44.6300263
  74.1743604  10.6226479  44.2478032  74.6677963   9.2041749  44.0571906
  84.7308170  17.1397946  41.2234128  84.7806175  16.9747953  42.1649651
  84.6222093  16.2725205  40.8332009  73.6144428  19.8186491  28.5126217
  73.7632549  20.5021956  27.8592890  74.4210872  19.7991581  29.0275673
  82.0211932  13.1228874  42.5393435  82.9221795  12.9835339  42.2477433
  82.0959907  13.2883329  43.4791612  76.3554737  10.4995728  41.3846621
  75.4858047  10.7929295  41.1129210  76.5914218  11.0836173  42.1053885
  86.2326367  19.5594887  41.4676150  85.9411175  19.9224868  42.3039611
  85.6198498  18.8461895  41.2889482  87.4322049  17.1247767  33.9878720
  88.2668940  17.5637571  34.1516280  87.5681178  16.6486420  33.1686966
  84.4813555  14.6827502  39.9356208  84.9567676  14.8755148  39.1275059
  83.5579120  14.7386688  39.6899591  71.3697061  15.8451669  29.5187286
  71.1243103  14.9413999  29.7167496  71.5392976  15.8468819  28.5766764
  79.0593771   6.7175345  38.9012042  79.5775715   7.4536372  38.5758530
  78.7048904   7.0239339  39.7358801  70.6392709  11.5780027  27.0173448
  69.9461954  11.6524382  26.3613484  70.3944461  10.8140370  27.5394964
  77.1139834  22.3134622  25.9837965  76.5413801  22.9324809  25.5308436
  77.6872628  22.8633984  26.5177887  83.1815224  11.5593262  38.1684513
  84.1332647  11.6591360  38.1896737  83.0118674  10.7671530  38.6782598
  81.2029603   8.6448845  38.3543914  80.6079535   8.9253858  37.6590403
  80.9179300   9.1342746  39.1260655  80.3337094  22.5971772  27.1146547
  81.2667767  22.5317334  27.3179422  80.2460307  23.4328039  26.6561080
  82.9625110  21.9137642  24.0750494  82.8838742  21.5797506  24.9686252
  83.7834777  22.4059410  24.0741967  85.6603302  14.7799382  37.2826813
  85.6279622  13.8415382  37.4686497  86.2703925  14.8583418  36.5492638
  77.4986632  13.6495435  23.3254017  78.4445737  13.5201643  23.3942435
  77.1200877  12.9110096  23.8023445  85.8097790  11.5710425  37.3285096
  85.2936839  10.7868882  37.1415025  86.6937739  11.2429142  37.4931616
  83.4708517   5.3151441  33.2880909  83.2733338   5.0066529  34.1724241
  84.0808223   6.0413080  33.4178839  91.4779851  15.8415388  36.4232850
  92.2083240  15.5800677  36.9840553  90.8686797  15.1044110  36.4634918
  89.5595149  13.9823251  37.0207301  88.8328312  13.8479216  36.4123793
  89.1442435  14.2900080  37.8264019  77.3825325  17.7013181  44.7854674
  78.3028334  17.8791780  44.9794721  77.3474908  16.7569226  44.6334373
  75.6829550  11.5745411  23.2608902  74.7761005  11.2778524  23.3371616
  75.9605531  11.2775229  22.3943189  66.6007490  12.8951774  33.7107949
  66.2810274  12.0417083  33.4182323  66.0540918  13.1100353  34.4665916
  70.3787398  15.6114215  37.4277455  70.5973407  16.5431323  37.4465489
  70.7913171  15.2522190  38.2132259  77.2991615   6.1182301  29.4153144
  76.4892344   5.7729386  29.7908390  77.9876032   5.8089844  30.0040755
  79.2282164   5.1960347  31.0377440  79.7813202   5.6155801  31.6967463
  79.4652250   4.2696096  31.0800396  75.2515263  11.1847421  46.8180204
  75.1511990  12.1341778  46.7492295  75.0336805  10.8565660  45.9456274
  74.4528334   8.4332346  23.4020882  75.3147498   8.7587244  23.6616699
  74.6378678   7.6463842  22.8893947  66.4695750  16.5154686  35.6801070
  65.7759221  16.1008639  35.1671025  67.2168741  16.5575222  35.0834489
  82.6060971   7.3060873  30.5456105  82.0259640   7.9645677  30.1634157
  82.3396903   6.4838217  30.1343522  81.0564537   6.7065930  32.7477425
  81.5564315   6.8182465  31.9391744  81.7000145   6.4026983  33.3878233
  75.1146533  14.6144560  45.6345266  74.6313615  15.4144920  45.8409155
  75.2007472  14.6252505  44.6812710  68.3832492  16.4472940  33.5567085
  68.3603181  16.5460627  32.6048968  68.6933129  17.2938090  33.8784251
  71.0419870  18.5049095  37.6713700  71.9963124  18.4733037  37.6043631
  70.8432394  18.0439718  38.4863926  71.6319252  17.0750211  40.2384497
  72.4512141  17.5694289  40.2619335  71.9056060  16.1582179  40.2102065
  81.3885849   9.4660963  29.6012453  80.5011704   9.7510614  29.3832648
  81.8039838   9.3054726  28.7539730  84.7400385   9.4907484  33.3166792
  85.5160775   9.9803936  33.5891409  84.0148519   9.9165538  33.7738662
  87.1772943  10.2035103  34.3740733  87.7717434   9.9630839  33.6634041
  87.2499527   9.4842234  35.0014269  69.3970099  24.0468714  34.6883897
  69.2624567  23.2869115  34.1221896  68.9802161  24.7709614  34.2212686
  80.5329062  19.2305638  23.6960473  81.2364912  19.4355640  24.3118128
  79.8091711  19.7982400  23.9609556  81.3626872  14.9815499  29.8162743
  81.3062074  15.4384050  28.9770375  81.9155215  14.2206184  29.6385586
  85.1731678  10.7705231  30.6412862  84.9168613  10.3701866  31.4721070
  84.5484546  11.4849025  30.5163002  89.4844016  13.5101304  33.1484154
  88.9243574  13.5794493  33.9215716  88.8787520  13.3342289  32.4283650
  72.5539225  24.9438031  34.9002340  72.4371609  25.8883464  34.7981030
  71.7331671  24.6411593  35.2888139  82.4415760  19.6688167  25.7458933
  83.2761364  19.2369365  25.5636408  82.2800102  19.4970181  26.6735827
  82.0961652  16.1720280  27.1115272  82.0410456  16.0064552  26.1703716
  81.4707707  16.8796313  27.2677462  66.8854167  11.4088345  40.9376694
  67.5313030  10.8987299  41.4263920  66.6771318  12.1457026  41.5120120
  79.4107559  18.4769192  46.4368835  80.2798719  18.6509844  46.0755470
  78.9314310  19.2963609  46.3144564  75.4057777   5.6728389  26.6900591
  75.3936447   6.6170229  26.8468861  76.2981199   5.4898535  26.3960052
  75.3347341  24.3497280  34.7768347  74.3842972  24.3499141  34.6632719
  75.6379827  23.6030014  34.2604382  71.2251658   8.5555962  45.0351709
  72.0883119   8.1992767  45.2455033  70.6517068   8.2169856  45.7227113
  83.2431743  32.7480827  27.4774124  84.0162619  32.2009814  27.3387000
  83.5957141  33.6125077  27.6888586  85.5798020  28.9073493  25.1092574
  85.8323541  28.3855015  24.3476037  84.6422579  28.7439639  25.2119258
  96.0249730  27.8484505  33.8200296  96.7574902  27.2783722  34.0538126
  95.2689086  27.4606105  34.2606802  85.2994309  30.8101599  27.3116949
  85.1830567  30.1346503  27.9798034  85.4096569  30.3233973  26.4949102
  87.2831337  25.3001646  26.0124987  87.4505739  26.1681883  26.3795458
  87.0928506  25.4628928  25.0886276  92.9605624  28.2280777  27.8251988
  93.8723480  28.4608164  27.6499685  92.4515271  28.8117821  27.2627067
 101.9067191  31.0131696  33.6912606 101.1530899  30.4439094  33.5356610
 102.0414732  30.9794361  34.6383240  90.6458282  19.4075660  37.8966218
  90.3022552  20.2977302  37.8205329  91.0137245  19.2177318  37.0335803
  90.6108565  29.3984271  26.4038653  90.0955189  30.1688876  26.6427041
  90.3385874  28.7249408  27.0271715  89.7254823  21.7780315  35.8615452
  89.2219618  21.7410451  35.0483257  90.0185430  22.6873058  35.9212108
  85.9697709  21.8619045  34.8681633  86.8350705  21.6661854  34.5087523
  86.0375218  21.6329397  35.7950990  95.5842839  32.1516626  28.3391827
  94.8072282  31.8127786  27.8946989  96.2634320  32.1569249  27.6646792
  83.5760028  24.0921253  32.2398000  84.1503780  23.8696435  31.5071193
  84.1631010  24.1609948  32.9926601  83.9029615  26.1225714  26.2593885
  83.0666927  26.4600401  26.5803160  83.7634385  25.9874694  25.3221022
  85.8782696  20.9662502  30.9673070  85.2247108  20.6511519  30.3429684
  85.8363170  20.3438243  31.6932892  86.9893900  31.2481797  22.8826362
  86.0820962  31.0171051  23.0817511  87.4864932  30.4519416  23.0700343
  88.1682134  31.3494392  27.4050352  87.2593353  31.0653425  27.5022821
  88.1977218  31.7693471  26.5453659  92.4445948  18.6669220  32.9983956
  92.7504825  17.8066583  32.7109871  93.1698553  19.2586840  32.7982950
  87.8658222  32.8903136  24.7438430  87.4277652  32.1738995  24.2844068
  88.6068662  33.1179250  24.1823522  95.9831336  31.1660333  30.8014749
  95.8449235  31.3561929  29.8735938  95.6267555  31.9279716  31.2582800
  81.2316530  28.5963940  29.0706506  80.3014118  28.5348396  29.2876468
  81.3274002  28.0739893  28.2743147  81.1502079  25.1218753  31.6584748
  81.4108896  26.0364086  31.5493908  81.9719251  24.6543195  31.8081361
  91.9869449  31.7487517  24.3370488  91.3698620  31.0234345  24.2403541
  91.5185938  32.5096878  23.9937562  83.7767995  25.9672942  23.4591792
  82.8997461  25.8461742  23.0954039  84.2525748  25.1759020  23.2070681
  98.1258329  29.8334227  34.9906810  98.1148205  30.7158942  34.6200743
  97.2575708  29.4805778  34.7961347  94.7430903  28.7282868  31.4576976
  95.2091356  29.5610860  31.3837278  95.1938404  28.2627850  32.1622234
  92.7147566  21.0963455  35.4967877  91.8010646  21.3267682  35.6650084
  93.1440668  21.1801899  36.3481909  78.5046689  27.5614797  28.9004698
  78.8000130  26.6525475  28.8471752  77.6034725  27.5402536  28.5785700
  80.2334531  25.2428895  29.0244023  79.9047237  24.3626273  28.8419129
  80.5873901  25.1876563  29.9120412  83.3476354  25.5301864  29.3919501
  83.6872426  26.0587786  28.6698109  83.7948474  25.8682270  30.1678067
  86.6936266  20.9988227  37.2949892  87.5162336  20.5248706  37.1728782
  86.9374330  21.7778711  37.7948578  85.3344501  24.0276486  27.5912793
  86.0552863  24.4057739  27.0876510  84.7109805  24.7465363  27.6947771
  85.4808124  23.5624276  30.4210330  85.6024035  22.6340923  30.6201218
  85.1910166  23.5762962  29.5088645  88.3499314  21.2479187  33.5577050
  88.3721011  21.3118520  32.6029029  88.7667373  20.4083695  33.7517556
  98.7282939  30.9834446  31.5956272  99.1714085  30.2341772  31.1975396
  97.8509449  30.9744583  31.2130004  93.8618720  37.5364788  27.0762871
  94.5569625  38.1571480  27.2950186  94.2041870  36.6860139  27.3515249
  81.4786463  26.9071944  27.0173448  80.7855708  26.9816299  26.3613484
  81.2338215  26.1432288  27.5394964  90.1500120  18.4667546  34.4212938
  90.4301874  17.7990735  35.0473365  90.9350727  18.6596641  33.9087602
  93.8018865  37.2429560  24.0750494  93.7232496  36.9089424  24.9686252
  94.6228532  37.7351328  24.0741967  88.3380387  28.9787352  23.3254017
  89.2839492  28.8493560  23.3942435  87.9594632  28.2402014  23.8023445
  96.6491545  26.9002343  37.3285096  96.1330593  26.1160799  37.1415025
  97.5331493  26.5721059  37.4931616  94.3102271  20.6443358  33.2880909
  94.1127093  20.3358446  34.1724241  94.9201977  21.3704997  33.4178839
 102.3173606  31.1707306  36.4232850 103.0476994  30.9092594  36.9840553
 101.7080551  30.4336028  36.4634918  86.5223304  26.9037329  23.2608902
  85.6154759  26.6070441  23.3371616  86.7999285  26.6067147  22.3943189
  88.1385370  21.4474218  29.4153144  87.3286098  21.1021303  29.7908390
  88.8269787  21.1381762  30.0040755  90.0675918  20.5252265  31.0377440
  90.6206957  20.9447719  31.6967463  90.3046004  19.5988013  31.0800396
  85.2922089  23.7624264  23.4020882  86.1541253  24.0879162  23.6616699
  85.4772433  22.9755760  22.8893947  93.4454725  22.6352790  30.5456105
  92.8653394  23.2937594  30.1634157  93.1790658  21.8130135  30.1343522
  91.8958292  22.0357848  32.7477425  92.3958070  22.1474383  31.9391744
  92.5393899  21.7318901  33.3878233  95.5794139  24.8199402  33.3166792
  96.3554529  25.3095854  33.5891409  94.8542273  25.2457456  33.7738662
  98.0166698  25.5327021  34.3740733  98.6111189  25.2922757  33.6634041
  98.0893282  24.8134151  35.0014269  91.3722817  34.5597555  23.6960473
  92.0758667  34.7647558  24.3118128  90.6485465  35.1274317  23.9609556
  96.0125433  26.0997148  30.6412862  95.7562367  25.6993784  31.4721070
  95.3878301  26.8140942  30.5163002 100.3237771  28.8393222  33.1484154
  99.7637329  28.9086411  33.9215716  99.7181274  28.6634206  32.4283650
  93.2809514  34.9980085  25.7458933  94.1155118  34.5661283  25.5636408
  93.1193857  34.8262098  26.6735827  92.9355406  31.5012198  27.1115272
  92.8804210  31.3356469  26.1703716  92.3101462  32.2088231  27.2677462
  86.2451532  21.0020307  26.6900591  86.2330202  21.9462147  26.8468861
  87.1374954  20.8190452  26.3960052  90.0603651  17.5963084  30.9446527
  89.2936047  17.0421570  31.0903210  90.4714356  17.6684952  31.8060679
 101.9093789  45.5149736  35.8414110 102.5472199  45.3956483  35.1377450
 101.7914632  46.4630580  35.9002062  98.7183495  45.4677164  35.7775634
  98.3802007  45.3518228  34.8896169  99.5873264  45.0668329  35.7576640
  94.5770311  47.3212640  31.7672525  94.0135176  47.2302577  30.9988813
  94.4622706  46.5012545  32.2475018  99.2003278  46.6212016  41.7361840
  99.1891919  46.2264814  40.8642343  99.3623918  45.8878088  42.3295611
  92.1234743  48.8163832  34.6056746  92.9156035  48.4754656  34.1903045
  92.3631393  48.9258807  35.5258899 100.1569870  50.9883608  27.0786990
  99.5057850  51.5737688  26.6921004 100.9514233  51.5189803  27.1382028
  94.0825497  48.0772745  27.4774124  94.8556373  47.5301732  27.3387000
  94.4350896  48.9416994  27.6888586  95.9210540  49.4049127  40.6841024
  95.6300406  50.3094758  40.5687690  96.5567524  49.4465655  41.3985093
  96.8466746  46.7825976  37.2742383  97.4430319  46.5581998  36.5599346
  96.9041718  46.0410721  37.8767831  96.4191775  44.2365411  25.1092574
  96.6717296  43.7146932  24.3476037  95.4816334  44.0731557  25.2119258
 101.4635058  43.2401190  32.9167318 102.2498147  42.8220613  32.5657735
 101.7273762  44.1447282  33.0848966 101.6345135  48.6774040  27.6155974
 100.9990968  48.7508666  28.3276879 101.3042541  49.2667639  26.9375054
 106.8643485  43.1776423  33.8200296 107.5968657  42.6075640  34.0538126
 106.1082840  42.7898023  34.2606802  96.1388064  46.1393517  27.3116949
  96.0224322  45.4638421  27.9798034  96.2490323  45.6525891  26.4949102
  98.4819604  45.6003664  31.0163639  98.1177812  45.0734285  31.7276560
  99.3386720  45.2102133  30.8430124 104.3868905  36.8897997  38.2794905
 104.0552230  37.7593408  38.0556120 103.7914519  36.5734281  38.9588935
  98.1225091  40.6293564  26.0124987  98.2899494  41.4973800  26.3795458
  97.9322261  40.7920846  25.0886276 100.8800425  49.0910543  37.6790817
 100.5801148  49.9935582  37.5706625 100.5351484  48.8242726  38.5311970
  94.3312906  45.5424340  33.7127522  93.4063403  45.4100554  33.9205214
  94.5797319  46.3218559  34.2097464 104.2797568  41.6093083  35.3588255
 103.3714446  41.5408491  35.0647016 104.2285164  42.0865028  36.1870080
  98.1014312  43.0851221  26.9971654  97.9813938  43.5308272  27.8357134
  97.4066901  43.4336539  26.4385192  95.8621204  55.8554863  30.6461785
  95.7845234  56.8062688  30.7250266  95.2582848  55.5100736  31.3036711
 106.1459215  39.8109521  37.1366129 105.5033595  40.1042055  36.4905923
 105.6414143  39.6962442  37.9419325 103.7999379  43.5572695  27.8251988
 104.7117235  43.7900081  27.6499685 103.2909026  44.1409739  27.2627067
  96.6084807  45.8368182  42.8641119  97.3499491  46.3753226  42.5875943
  95.9021792  46.4634471  43.0212671 102.0840146  47.9797322  41.4613281
 102.4923502  47.5379733  40.7167913 101.3617408  47.4049950  41.7147473
 102.4068961  48.5398513  35.2165569 101.7777823  48.7044227  34.5141637
 102.0194623  48.9540123  35.9876533 106.2858193  49.4752951  32.5709933
 105.6009231  49.8551852  32.0206966 106.3702042  50.0848278  33.3041881
 103.5409124  47.1212910  39.1705277 103.7526020  47.7644670  38.4939658
 103.4938873  46.2875226  38.7027207  97.9596923  48.2772921  32.4815655
  98.4235268  48.5560624  31.6920277  97.6953721  47.3756366  32.2988745
  94.8521004  47.8244403  35.4195418  95.4222361  48.2531671  34.7812902
  95.4429116  47.5426987  36.1179603  96.8965809  44.3996074  29.2905220
  97.5989852  44.8517117  29.7579146  96.5646437  43.7579892  29.9185113
 104.6554952  49.9984865  37.3427634 105.4772396  49.5965053  37.0610316
 104.6517355  49.8953100  38.2943750  98.4211556  49.5468909  39.4988345
  98.4855988  50.0089316  40.3346516  97.7122480  48.9166274  39.6270654
 112.7460945  46.3423614  33.6912606 111.9924654  45.7731012  33.5356610
 112.8808487  46.3086278  34.6383240  98.1359573  51.2137016  29.3667325
  98.0005248  52.0588552  29.7952173  98.6769386  51.4156294  28.6033259
  91.5888971  48.7312454  29.9395250  92.1013491  49.5255704  30.0900815
  92.2411684  48.0338745  29.8728851  93.3983855  51.8478210  32.0218003
  93.5750484  52.7696175  31.8338987  94.1940689  51.5336630  32.4512383
  99.7628050  51.8360583  43.4967667  99.3191904  51.0496961  43.1788571
 100.4245263  52.0239733  42.8311558  94.5215171  53.3656384  38.0228345
  95.0722596  53.2373448  37.2505339  93.6826647  53.6651273  37.6723238
 101.8609288  52.1163383  41.5249068 101.8427763  52.9372264  41.0329337
 102.7829208  51.9917458  41.7499209  98.3182342  49.6307512  42.3672577
  98.8510679  48.8695800  42.1371885  97.7896423  49.3381164  43.1096731
  89.5537888  47.0601108  30.7154820  90.3913110  47.4698117  30.4988528
  89.7316155  46.1200551  30.6855014 101.4502320  44.7276189  26.4038653
 100.9348943  45.4980794  26.6427041 101.1779628  44.0541325  27.0271715
  99.0349431  39.5725890  31.4623892  98.1791027  39.1832740  31.2829531
  99.4476382  39.6517851  30.6023677 106.4236594  47.4808544  28.3391827
 105.6466037  47.1419703  27.8946989 107.1028075  47.4861167  27.6646792
 101.2388623  42.6003281  28.2298435 100.9338758  42.9149430  29.0808578
 102.1919065  42.6784701  28.2725768  99.6835055  48.7593505  29.8791389
  99.1556416  48.0246264  29.5664626  99.1822557  49.5368181  29.6331357
 104.6627901  46.9542525  34.9958435 104.0051575  47.6441786  35.0838564
 105.4668300  47.3438957  35.3392421 103.4733360  45.3086898  33.0462377
 103.9865241  45.9416890  33.5484086 104.1234583  44.7088093  32.6805737
  94.7423369  41.4517632  26.2593885  93.9060682  41.7892318  26.5803160
  94.6028139  41.3166612  25.3221022  97.8287655  46.5773715  22.8826362
  96.9214717  46.3462968  23.0817511  98.3258687  45.7811334  23.0700343
 100.7355734  55.2871222  25.8023048 100.0617433  55.5902919  26.4108006
 101.1221556  56.0900302  25.4528505  99.9514190  42.7836353  35.2920717
  99.0336752  43.0051300  35.1342405 100.3674334  42.8582664  34.4332425
 100.7349238  44.1827769  30.4223397 101.4821057  44.6949166  30.1130519
 101.0040828  43.8611822  31.2827791  99.0075888  46.6786310  27.4050352
  98.0987108  46.3945342  27.5022821  99.0370972  47.0985388  26.5453659
 104.2395156  50.2892899  31.1741519 103.7857483  49.4483809  31.2306710
 103.6089122  50.9254298  31.5116299 103.1828075  41.2184885  32.4042187
 102.4450832  40.7062271  32.7352429 103.4354849  40.7785267  31.5925464
 102.6828095  52.1269396  32.1091337 102.9751069  52.6874453  31.3903703
 103.1926716  52.4197957  32.8644497 103.2839703  33.9961137  32.9983956
 103.5898579  33.1358501  32.7109871 104.0092307  34.5878757  32.7982950
  97.5560782  44.2914930  33.5060147  97.6109392  43.3388767  33.4302624
  96.7451984  44.4474369  33.9901445  98.7051976  48.2195053  24.7438430
  98.2671406  47.5030912  24.2844068  99.4462417  48.4471168  24.1823522
  95.4953142  42.9091990  31.2650526  94.6821008  43.2086161  31.6715718
  95.9912136  42.5147679  31.9825008  97.6461720  52.9049747  33.1984791
  97.6037899  53.1310593  32.2693323  98.5624419  52.6713122  33.3470592
 101.0927354  43.3733814  40.0965420 101.4476742  43.6005288  40.9559886
 101.7399485  43.7052191  39.4742675 106.8225091  46.4952250  30.8014749
 106.6842989  46.6853846  29.8735938 106.4661310  47.2571633  31.2582800
 106.8494470  48.5628777  35.8126020 107.2830977  48.4704066  36.6609074
 107.5626051  48.5386278  35.1746036  95.7627521  49.7812776  32.9946753
  96.5568119  49.2863096  32.7929328  95.0519213  49.2530639  32.6314459
 100.5822365  52.1630871  37.3459121 100.6359388  52.7321808  38.1136837
  99.7137147  52.3332757  36.9813158  92.0710284  43.9255858  29.0706506
  91.1407872  43.8640313  29.2876468  92.1667756  43.4031810  28.2743147
 107.7110020  48.6052478  38.3458906 107.9045910  49.5098289  38.5918181
 107.6110638  48.1459897  39.1797491 102.7725129  48.7559221  43.9199786
 102.6210635  48.5269772  43.0029870 102.7629808  49.7129822  43.9331131
  99.5410465  46.3291134  38.9046053 100.4702525  46.4802293  38.7315020
  99.1201495  46.4175154  38.0494699  98.3398797  50.3541798  36.6744590
  98.2009883  49.9860582  37.5470529  97.5513393  50.8689437  36.5028548
  98.9346949  55.4550894  28.0170127  99.1098705  54.9838938  28.8315750
  98.2479737  56.0816661  28.2451388  99.8904012  49.7323401  34.0633428
  99.5553845  49.6924171  34.9591078  99.3907958  49.0668117  33.5903838
 102.8263204  47.0779435  24.3370488 102.2092374  46.3526263  24.2403541
 102.3579692  47.8388795  23.9937562 104.4817335  51.7878343  41.9976268
 104.4229882  51.1037563  41.3306851 104.8836854  52.5297333  41.5456894
  93.5008034  58.6040257  34.7909987  93.7404632  59.2358781  35.4689006
  92.6577231  58.2528297  35.0775346  94.6161750  41.2964859  23.4591792
  93.7391216  41.1753660  23.0954039  95.0919503  40.5050938  23.2070681
 104.4834743  49.7517927  40.2290248 103.5961521  49.4143849  40.3516647
 105.0533294  49.0200958  40.4659013  98.0135896  54.4119380  37.1951491
  97.9406068  55.2174351  37.7070796  97.5713289  54.6111345  36.3699513
  97.8025676  53.6491150  30.7054313  97.0193198  54.1912830  30.7992537
  98.5018421  54.1665129  31.1048554 101.1122326  39.4585779  33.3488518
 101.6091025  38.7055741  33.0289588 100.3409307  39.4950096  32.7831727
 108.9652083  45.1626145  34.9906810 108.9541959  46.0450860  34.6200743
 108.0969463  44.8097695  34.7961347 100.4734580  54.3106214  39.3509650
 101.1862552  54.9453678  39.2785551  99.9824608  54.4070080  38.5349652
 102.1952106  48.2157466  30.9226941 101.2608385  48.3358929  30.7531646
 102.3728775  47.3129933  30.6586951  97.6957295  41.6003162  33.0760203
  97.3255082  41.0474202  33.7641108  98.1916387  40.9961296  32.5235203
 105.5824658  44.0574786  31.4576976 106.0485110  44.8902777  31.3837278
 106.0332158  43.5919767  32.1622234  95.5246493  52.0600657  40.1715221
  96.2255953  52.6937140  40.3244615  95.0541608  52.4015389  39.4110860
 103.6500889  50.4018607  28.4563128 103.9260733  50.2875201  29.3657002
 102.7805388  50.0036092  28.4175301 103.5541321  36.4255373  35.4967877
 102.6404400  36.6559599  35.6650084 103.9834422  36.5093817  36.3481909
 103.3247779  44.6145265  37.9967771 102.6719229  44.8621172  37.3420224
 103.7028159  43.8009403  37.6630248 100.2854953  54.6504958  32.0995941
 100.4677347  53.8326614  32.5623694 101.1087939  54.8672650  31.6620831
 100.6197118  53.5773143  29.3610990 101.1484885  53.0665597  28.7481152
 100.8825338  53.2615673  30.2256523  99.3735352  45.3565076  44.4833808
  98.6975989  45.2559205  45.1536183 100.1962986  45.2004289  44.9469805
  91.1214211  51.5937012  37.1046323  91.7067648  50.8480700  37.2374228
  90.9239050  51.9040969  37.9882987  93.9752866  54.6288260  32.1208766
  93.3063242  55.1134387  31.6372806  93.8365736  54.8757480  33.0352144
  98.1158135  56.6632003  38.7191424  98.6676443  56.8263625  39.4840509
  98.4564328  57.2536441  38.0471449 102.9669009  51.4893261  44.5740078
 103.5108913  52.1023219  44.0795033 102.3855854  52.0472839  45.0907091
 101.2526522  54.6113979  35.7055106 101.1277662  53.8103718  35.1966052
 101.9105613  55.1060172  35.2169076 103.3161431  52.4122999  37.3334656
 102.3691766  52.2928350  37.2612983 103.6644204  51.5245497  37.4160918
 100.3207864  52.2075715  33.5339009 100.1732826  51.2792422  33.7146579
 101.1461357  52.2295806  33.0496084  94.1870108  40.8593782  29.3919501
  94.5266181  41.3879703  28.6698109  94.6342229  41.1974188  30.1678067
 103.9241986  53.0304274  34.6203881 104.8488533  52.8247135  34.4828332
 103.7557289  52.7820675  35.5293223  96.1738255  39.3568404  27.5912793
  96.8946618  39.7349656  27.0876510  95.5503559  40.0757280  27.6947771
 100.3169378  40.0613553  28.5271126 100.5332993  40.9438190  28.2259954
  99.8363445  39.6699766  27.7976768 103.7137302  53.5489941  29.9765973
 103.8874180  52.9836364  29.2239825 104.2066193  54.3490836  29.7945463
 109.5676693  46.3126364  31.5956272 110.0107839  45.5633689  31.1975396
 108.6903203  46.3036500  31.2130004 104.7012474  52.8656705  27.0762871
 105.3963379  53.4863398  27.2950186 105.0435625  52.0152057  27.3515249
 106.6003898  50.3156411  28.6050202 107.1255222  50.6543684  27.8799522
 106.5126250  49.3803426  28.4213336  98.2623946  54.2290485  40.7340078
  98.5711073  53.9839631  41.6062778  99.0599428  54.4337123  40.2458949
  98.2844558  56.3828394  32.9645455  97.8449549  55.8904773  33.6578312
  99.0352675  55.8401362  32.7237530  90.7636897  52.5739935  32.9670083
  91.5894917  52.2743707  32.5868727  90.4130949  51.8047558  33.4159872
  95.7318430  51.9266403  35.0367757  95.1098440  51.2637108  34.7369984
  96.4023297  51.9527535  34.3541404  88.9645502  50.4926262  33.9259017
  88.1277411  50.0648436  33.7443018  88.9369148  50.6858705  34.8629808
 106.2897804  50.9489315  43.9101400 105.4993347  50.9313454  43.3705899
 106.0531158  51.4877608  44.6650436 106.4095679  47.7981781  41.2234128
 106.4593684  47.6331788  42.1649651 106.3009602  46.9309040  40.8332009
  95.2931937  50.4770327  28.5126217  95.4420058  51.1605791  27.8592890
  96.0998381  50.4575417  29.0275673 103.6999441  43.7812709  42.5393435
 104.6009304  43.6419174  42.2477433 103.7747416  43.9467164  43.4791612
 107.9113876  50.2178723  41.4676150 107.6198684  50.5808703  42.3039611
 107.2986007  49.5045731  41.2889482 109.1109558  47.7831602  33.9878720
 109.9456449  48.2221406  34.1516280 109.2468687  47.3070256  33.1686966
 106.1601064  45.3411337  39.9356208 106.6355185  45.5338983  39.1275059
 105.2366629  45.3970523  39.6899591  93.0484570  46.5035504  29.5187286
  92.8030612  45.5997834  29.7167496  93.2180485  46.5052655  28.5766764
  92.3180218  42.2363862  27.0173448  91.6249463  42.3108217  26.3613484
  92.0731970  41.4724206  27.5394964  98.7927343  52.9718457  25.9837965
  98.2201310  53.5908644  25.5308436  99.3660137  53.5217819  26.5177887
 104.8602733  42.2177097  38.1684513 105.8120156  42.3175195  38.1896737
 104.6906183  41.4255366  38.6782598 102.0124603  53.2555607  27.1146547
 102.9455276  53.1901169  27.3179422 101.9247816  54.0911874  26.6561080
 104.6412619  52.5721478  24.0750494 104.5626251  52.2381341  24.9686252
 105.4622286  53.0643246  24.0741967 107.3390811  45.4383217  37.2826813
 107.3067131  44.4999218  37.4686497 107.9491434  45.5167254  36.5492638
  99.1774141  44.3079270  23.3254017 100.1233246  44.1785478  23.3942435
  98.7988386  43.5693932  23.8023445 107.4885299  42.2294260  37.3285096
 106.9724348  41.4452717  37.1415025 108.3725248  41.9012977  37.4931616
 105.1496026  35.9735276  33.2880909 104.9520847  35.6650364  34.1724241
 105.7595732  36.6996915  33.4178839 113.1567360  46.4999224  36.4232850
 113.8870749  46.2384512  36.9840553 112.5474306  45.7627946  36.4634918
 111.2382658  44.6407086  37.0207301 110.5115821  44.5063051  36.4123793
 110.8229944  44.9483915  37.8264019  99.0612834  48.3597016  44.7854674
  99.9815843  48.5375615  44.9794721  99.0262417  47.4153061  44.6334373
  97.3617059  42.2329246  23.2608902  96.4548514  41.9362359  23.3371616
  97.6393040  41.9359064  22.3943189 100.9069673  35.8544183  31.0377440
 101.4600711  36.2739636  31.6967463 101.1439759  34.9279931  31.0800396
  96.1315843  39.0916182  23.4020882  96.9935007  39.4171080  23.6616699
  96.3166187  38.3047677  22.8893947 104.2848480  37.9644708  30.5456105
 103.7047149  38.6229512  30.1634157 104.0184412  37.1422053  30.1343522
 102.7352046  37.3649766  32.7477425 103.2351824  37.4766300  31.9391744
 103.3787654  37.0610819  33.3878233  96.7934042  45.2728395  45.6345266
  96.3101124  46.0728755  45.8409155  96.8794981  45.2836340  44.6812710
  90.0620001  47.1056775  33.5567085  90.0390690  47.2044462  32.6048968
  90.3720638  47.9521926  33.8784251  92.7207379  49.1632930  37.6713700
  93.6750633  49.1316872  37.6043631  92.5219903  48.7023554  38.4863926
 103.0673358  40.1244798  29.6012453 102.1799213  40.4094449  29.3832648
 103.4827347  39.9638562  28.7539730 106.4187894  40.1491319  33.3166792
 107.1948284  40.6387772  33.5891409 105.6936028  40.5749374  33.7738662
 108.8560452  40.8618939  34.3740733 109.4504943  40.6214675  33.6634041
 108.9287036  40.1426069  35.0014269  91.0757608  54.7052550  34.6883897
  90.9412076  53.9452950  34.1221896  90.6589670  55.4293449  34.2212686
 102.2116571  49.8889473  23.6960473 102.9152421  50.0939476  24.3118128
 101.4879220  50.4566235  23.9609556 103.0414381  45.6399334  29.8162743
 102.9849583  46.0967886  28.9770375 103.5942724  44.8790019  29.6385586
 106.8519187  41.4289066  30.6412862 106.5956122  41.0285702  31.4721070
 106.2272055  42.1432860  30.5163002 111.1631525  44.1685139  33.1484154
 110.6031083  44.2378329  33.9215716 110.5575029  43.9926124  32.4283650
  94.2326734  55.6021867  34.9002340  94.1159118  56.5467299  34.7981030
  93.4119180  55.2995428  35.2888139 104.1203269  50.3272002  25.7458933
 104.9548872  49.8953201  25.5636408 103.9587611  50.1554016  26.6735827
 103.7749161  46.8304116  27.1115272 103.7197965  46.6648387  26.1703716
 103.1495216  47.5380148  27.2677462 101.0895068  49.1353027  46.4368835
 101.9586228  49.3093680  46.0755470 100.6101819  49.9547444  46.3144564
  97.0845286  36.3312225  26.6900591  97.0723956  37.2754064  26.8468861
  97.9768708  36.1482370  26.3960052  95.2581248  56.2550128  38.1158269
  96.1608495  56.2873739  38.4324763  95.0318618  55.3250579  38.1304604
  97.0134850  55.0081115  34.7768347  96.0630481  55.0082977  34.6632719
  97.3167336  54.2613850  34.2604382 100.8997406  32.9255001  30.9446527
 100.1329801  32.3713488  31.0903210 101.3108111  32.9976870  31.8060679
 112.7487544  60.8441653  35.8414110 113.3865954  60.7248401  35.1377450
 112.6308387  61.7922497  35.9002062 109.5577250  60.7969081  35.7775634
 109.2195761  60.6810146  34.8896169 110.4267018  60.3960247  35.7576640
 105.4164066  62.6504558  31.7672525 104.8528931  62.5594495  30.9988813
 105.3016461  61.8304462  32.2475018 110.0397033  61.9503933  41.7361840
 110.0285674  61.5556731  40.8642343 110.2017672  61.2170006  42.3295611
 102.9628498  64.1455749  34.6056746 103.7549789  63.8046574  34.1903045
 103.2025148  64.2550725  35.5258899 110.9963624  66.3175526  27.0786990
 110.3451604  66.9029606  26.6921004 111.7907987  66.8481720  27.1382028
 104.9219251  63.4064663  27.4774124 105.6950127  62.8593650  27.3387000
 105.2744650  64.2708912  27.6888586 106.7604294  64.7341045  40.6841024
 106.4694160  65.6386676  40.5687690 107.3961278  64.7757573  41.3985093
 107.6860501  62.1117894  37.2742383 108.2824073  61.8873916  36.5599346
 107.7435472  61.3702639  37.8767831 107.2585529  59.5657329  25.1092574
 107.5111050  59.0438850  24.3476037 106.3210088  59.4023474  25.2119258
 112.3028812  58.5693107  32.9167318 113.0891901  58.1512530  32.5657735
 112.5667516  59.4739199  33.0848966 112.4738889  64.0065958  27.6155974
 111.8384722  64.0800584  28.3276879 112.1436296  64.5959556  26.9375054
 117.7037239  58.5068340  33.8200296 118.4362411  57.9367557  34.0538126
 116.9476595  58.1189941  34.2606802 106.9781818  61.4685435  27.3116949
 106.8618076  60.7930338  27.9798034 107.0884078  60.9817809  26.4949102
 109.3213359  60.9295582  31.0163639 108.9571566  60.4026203  31.7276560
 110.1780475  60.5394051  30.8430124 115.2262660  52.2189915  38.2794905
 114.8945984  53.0885325  38.0556120 114.6308273  51.9026199  38.9588935
 108.9618846  55.9585482  26.0124987 109.1293248  56.8265718  26.3795458
 108.7716015  56.1212763  25.0886276 111.7194179  64.4202461  37.6790817
 111.4194902  65.3227499  37.5706625 111.3745239  64.1534644  38.5311970
 105.1706661  60.8716257  33.7127522 104.2457157  60.7392471  33.9205214
 105.4191074  61.6510477  34.2097464 115.1191323  56.9385001  35.3588255
 114.2108200  56.8700409  35.0647016 115.0678919  57.4156946  36.1870080
 108.9408067  58.4143139  26.9971654 108.8207692  58.8600190  27.8357134
 108.2460655  58.7628457  26.4385192 102.5315472  60.5149531  34.5471311
 102.6607853  60.7684010  35.4610723 101.8512923  61.1077239  34.2275966
 106.7014959  71.1846781  30.6461785 106.6238989  72.1354606  30.7250266
 106.0976603  70.8392653  31.3036711 109.1932189  58.3574646  43.3023152
 108.4165523  58.9168566  43.2926017 109.8322752  58.8431429  43.8238022
 116.9852969  55.1401439  37.1366129 116.3427350  55.4333972  36.4905923
 116.4807898  55.0254359  37.9419325 114.6393133  58.8864612  27.8251988
 115.5510989  59.1191999  27.6499685 114.1302780  59.4701656  27.2627067
 107.4478561  61.1660100  42.8641119 108.1893245  61.7045144  42.5875943
 106.7415546  61.7926388  43.0212671 112.9233901  63.3089240  41.4613281
 113.3317257  62.8671651  40.7167913 112.2011162  62.7341868  41.7147473
 109.2764971  58.2461847  38.8346837 110.1226166  58.6701260  38.9781486
 109.2163608  57.5895471  39.5285401 113.2462715  63.8690431  35.2165569
 112.6171578  64.0336145  34.5141637 112.8588377  64.2832040  35.9876533
 117.1251947  64.8044869  32.5709933 116.4402985  65.1843770  32.0206966
 117.2095797  65.4140195  33.3041881 112.4264416  55.9066215  40.4928011
 112.1825348  56.6608276  39.9562287 112.7024347  56.2851563  41.3275258
 114.3802879  62.4504828  39.1705277 114.5919774  63.0936587  38.4939658
 114.3332627  61.6167144  38.7027207 111.9829108  55.0622648  36.0741849
 111.1213587  55.3603902  36.3658586 112.0091542  55.2793047  35.1422881
 108.7990677  63.6064839  32.4815655 109.2629023  63.8852542  31.6920277
 108.5347475  62.7048283  32.2988745 105.6914758  63.1536320  35.4195418
 106.2616115  63.5823589  34.7812902 106.2822870  62.8718905  36.1179603
 107.7359563  59.7287991  29.2905220 108.4383607  60.1809035  29.7579146
 107.4040192  59.0871810  29.9185113 106.1839925  58.3199748  43.6656429
 105.5538585  59.0016029  43.8991826 106.0776013  58.2082829  42.7209567
 101.4784897  57.9871544  34.5922353 100.6883951  58.2429072  34.1162464
 101.9696145  58.8019882  34.6974394 115.4948707  65.3276783  37.3427634
 116.3166150  64.9256970  37.0610316 115.4911110  65.2245017  38.2943750
 103.4299643  58.3516123  31.5505830 102.6330806  58.4634817  32.0689326
 103.2025235  58.6902775  30.6846720 109.2605310  64.8760826  39.4988345
 109.3249743  65.3381234  40.3346516 108.5516234  64.2458191  39.6270654
  99.7622600  58.2402034  37.0237344 100.0130639  59.1249044  37.2894920
 100.2982149  58.0606636  36.2512436 108.9753328  66.5428934  29.3667325
 108.8399003  67.3880470  29.7952173 109.5163140  66.7448211  28.6033259
 105.4620667  52.6220514  46.0281680 105.0687613  52.0686712  46.7029324
 106.2786808  52.9331092  46.4188198 102.4282725  64.0604372  29.9395250
 102.9407246  64.8547622  30.0900815 103.0805438  63.3630662  29.8728851
 104.2377610  67.1770128  32.0218003 104.4144238  68.0988093  31.8338987
 105.0334443  66.8628547  32.4512383 108.3788628  54.0378393  43.6201937
 109.1198342  54.6385546  43.5406399 108.6106551  53.2956031  43.0619979
 103.5229966  59.2234760  41.8980166 103.4083482  58.3220017  42.1987265
 102.6674484  59.4698457  41.5464983 110.6021804  67.1652500  43.4967667
 110.1585658  66.3788879  43.1788571 111.2639018  67.3531651  42.8311558
 105.3608925  68.6948302  38.0228345 105.9116351  68.5665365  37.2505339
 104.5220401  68.9943191  37.6723238 112.7003042  67.4455300  41.5249068
 112.6821518  68.2664181  41.0329337 113.6222962  67.3209375  41.7499209
 109.1576096  64.9599430  42.3672577 109.6904433  64.1987718  42.1371885
 108.6290178  64.6673082  43.1096731 112.3245791  50.0659496  37.8966218
 111.9810061  50.9561137  37.8205329 112.6924754  49.8761153  37.0335803
 100.3931642  62.3893026  30.7154820 101.2306864  62.7990035  30.4988528
 100.5709910  61.4492468  30.6855014 112.2896074  60.0568107  26.4038653
 111.7742698  60.8272711  26.6427041 112.0173383  59.3833243  27.0271715
 109.8743185  54.9017808  31.4623892 109.0184782  54.5124658  31.2829531
 110.2870137  54.9809768  30.6023677 111.4042332  52.4364151  35.8615452
 110.9007127  52.3994286  35.0483257 111.6972939  53.3456894  35.9212108
 107.6485218  52.5202881  34.8681633 108.5138214  52.3245689  34.5087523
 107.7162727  52.2913232  35.7950990 117.2630348  62.8100461  28.3391827
 116.4859791  62.4711621  27.8946989 117.9421829  62.8153085  27.6646792
 112.0782377  57.9295199  28.2298435 111.7732513  58.2441348  29.0808578
 113.0312819  58.0076619  28.2725768 110.5228809  64.0885422  29.8791389
 109.9950171  63.3538182  29.5664626 110.0216312  64.8660099  29.6331357
 115.5021655  62.2834443  34.9958435 114.8445330  62.9733704  35.0838564
 116.3062054  62.6730875  35.3392421 105.2547537  54.7505088  32.2398000
 105.8291289  54.5280270  31.5071193 105.8418519  54.8193783  32.9926601
 114.3127114  60.6378815  33.0462377 114.8258996  61.2708807  33.5484086
 114.9628338  60.0380011  32.6805737 105.5817124  56.7809550  26.2593885
 104.7454436  57.1184236  26.5803160 105.4421894  56.6458529  25.3221022
 107.5570204  51.6246337  30.9673070 106.9034617  51.3095355  30.3429684
 107.5150679  51.0022078  31.6932892 108.6681409  61.9065632  22.8826362
 107.7608471  61.6754886  23.0817511 109.1652441  61.1103252  23.0700343
 111.5749488  70.6163140  25.8023048 110.9011187  70.9194836  26.4108006
 111.9615310  71.4192220  25.4528505 110.7907945  58.1128271  35.2920717
 109.8730506  58.3343218  35.1342405 111.2068088  58.1874581  34.4332425
 111.5742993  59.5119687  30.4223397 112.3214812  60.0241084  30.1130519
 111.8434582  59.1903739  31.2827791 109.8469643  62.0078227  27.4050352
 108.9380862  61.7237260  27.5022821 109.8764727  62.4277306  26.5453659
 115.0788910  65.6184817  31.1741519 114.6251237  64.7775727  31.2306710
 114.4482877  66.2546215  31.5116299 114.0221830  56.5476803  32.4042187
 113.2844587  56.0354189  32.7352429 114.2748603  56.1077184  31.5925464
 113.5221849  67.4561314  32.1091337 113.8144824  68.0166371  31.3903703
 114.0320470  67.7489875  32.8644497 114.1233457  49.3253055  32.9983956
 114.4292334  48.4650418  32.7109871 114.8486062  49.9170675  32.7982950
 100.4157813  59.7283741  31.3865554 100.2182213  59.1353102  30.6616621
  99.8604477  59.4235952  32.1041493 108.3954537  59.6206848  33.5060147
 108.4503147  58.6680684  33.4302624 107.5845739  59.7766287  33.9901445
 109.5445731  63.5486971  24.7438430 109.1065161  62.8322830  24.2844068
 110.2856171  63.7763086  24.1823522 106.3346897  58.2383908  31.2650526
 105.5214762  58.5378078  31.6715718 106.8305891  57.8439596  31.9825008
 108.4855475  68.2341665  33.1984791 108.4431653  68.4602511  32.2693323
 109.4018173  68.0005039  33.3470592 111.9321108  58.7025732  40.0965420
 112.2870496  58.9297205  40.9559886 112.5793240  59.0344109  39.4742675
 117.6618845  61.8244168  30.8014749 117.5236744  62.0145764  29.8735938
 117.3055064  62.5863551  31.2582800 105.8260972  55.8102263  36.8811761
 106.4660351  55.6691022  36.1834724 104.9938502  55.5236777  36.5050363
 117.6888225  63.8920695  35.8126020 118.1224732  63.7995984  36.6609074
 118.4019806  63.8678196  35.1746036 106.6021275  65.1104694  32.9946753
 107.3961874  64.6155014  32.7929328 105.8912968  64.5822557  32.6314459
 111.4216120  67.4922789  37.3459121 111.4753142  68.0613725  38.1136837
 110.5530901  67.6624674  36.9813158 102.9104039  59.2547775  29.0706506
 101.9801627  59.1932231  29.2876468 103.0061511  58.7323728  28.2743147
 102.8289588  55.7802588  31.6584748 103.0896405  56.6947921  31.5493908
 103.6506760  55.3127031  31.8081361 104.3014513  57.1940345  38.8283572
 104.9737567  56.9857707  38.1796221 103.4744300  56.9962431  38.3888805
 118.5503775  63.9344396  38.3458906 118.7439665  64.8390206  38.5918181
 118.4504393  63.4751815  39.1797491 110.2040085  53.8202286  40.8449233
 109.5568000  54.5192236  40.7513710 110.9741101  54.2538430  41.2125481
 113.6118883  64.0851138  43.9199786 113.4604390  63.8561690  43.0029870
 113.6023563  65.0421740  43.9331131 110.3804220  61.6583051  38.9046053
 111.3096280  61.8094211  38.7315020 109.9595250  61.7467072  38.0494699
 109.1792551  65.6833716  36.6744590 109.0403637  65.3152500  37.5470529
 108.3907148  66.1981355  36.5028548 109.7740703  70.7842812  28.0170127
 109.9492459  70.3130855  28.8315750 109.0873491  71.4108578  28.2451388
 110.7297767  65.0615318  34.0633428 110.3947599  65.0216088  34.9591078
 110.2301712  64.3960034  33.5903838 104.7042011  60.4682948  39.5886009
 104.5661808  59.7363187  40.1897548 105.6146934  60.3791848  39.3070197
 113.6656958  62.4071353  24.3370488 113.0486129  61.6818181  24.2403541
 113.1973447  63.1680713  23.9937562 107.3324311  60.1802908  39.0769689
 108.0423930  59.5396100  39.0356307 107.2893619  60.4315803  39.9995870
 115.3211090  67.1170261  41.9976268 115.2623636  66.4329481  41.3306851
 115.7230608  67.8589251  41.5456894 106.0453245  57.1668126  40.8965329
 105.5090602  56.7158864  41.5486925 105.4569954  57.3014034  40.1535793
 104.3401789  73.9332175  34.7909987 104.5798387  74.5650699  35.4689006
 103.4970985  73.5820215  35.0775346 105.4555504  56.6256777  23.4591792
 104.5784970  56.5045578  23.0954039 105.9313257  55.8342855  23.2070681
 115.3228497  65.0809845  40.2290248 114.4355276  64.7435767  40.3516647
 115.8927048  64.3492876  40.4659013  96.9757644  61.4133937  33.5533299
  97.6628684  61.0995667  32.9654315  96.8205773  62.3175301  33.2800551
 101.7792366  56.3024133  37.9818323 101.6950555  55.6949803  37.2468733
 100.9575073  56.7933152  37.9827819 108.8529651  69.7411297  37.1951491
 108.7799822  70.5466269  37.7070796 108.4107044  69.9403263  36.3699513
 108.6419430  68.9783067  30.7054313 107.8586952  69.5204748  30.7992537
 109.3412175  69.4957047  31.1048554 111.9516080  54.7877697  33.3488518
 112.4484780  54.0347659  33.0289588 111.1803062  54.8242013  32.7831727
 119.8045838  60.4918062  34.9906810 119.7935714  61.3742778  34.6200743
 118.9363217  60.1389613  34.7961347 111.3128334  69.6398131  39.3509650
 112.0256306  70.2745596  39.2785551 110.8218363  69.7361997  38.5349652
 113.0345861  63.5449384  30.9226941 112.1002140  63.6650846  30.7531646
 113.2122529  62.6421851  30.6586951 108.5351049  56.9295080  33.0760203
 108.1648837  56.3766120  33.7641108 109.0310141  56.3253213  32.5235203
 116.4218412  59.3866703  31.4576976 116.8878865  60.2194695  31.3837278
 116.8725913  58.9211685  32.1622234 106.3640248  67.3892575  40.1715221
 107.0649707  68.0229058  40.3244615 105.8935363  67.7307306  39.4110860
 114.4894643  65.7310525  28.4563128 114.7654487  65.6167119  29.3657002
 113.6199142  65.3328009  28.4175301 114.3935075  51.7547290  35.4967877
 113.4798155  51.9851517  35.6650084 114.8228177  51.8385734  36.3481909
 114.1641534  59.9437182  37.9967771 113.5112984  60.1913090  37.3420224
 114.5421913  59.1301320  37.6630248 111.1248707  69.9796875  32.0995941
 111.3071102  69.1618531  32.5623694 111.9481693  70.1964568  31.6620831
 111.4590873  68.9065061  29.3610990 111.9878639  68.3957515  28.7481152
 111.7219093  68.5907591  30.2256523 110.2129107  60.6856993  44.4833808
 109.5369744  60.5851123  45.1536183 111.0356740  60.5296207  44.9469805
 101.9607966  66.9228930  37.1046323 102.5461402  66.1772618  37.2374228
 101.7632804  67.2332887  37.9882987 104.8146621  69.9580177  32.1208766
 104.1456996  70.4426305  31.6372806 104.6759491  70.2049398  33.0352144
  96.5525620  59.4934530  35.8250766  96.5909720  58.9598121  36.6187885
  96.0465913  58.9669736  35.2061744 108.9551889  71.9923921  38.7191424
 109.5070197  72.1555542  39.4840509 109.2958083  72.5828359  38.0471449
 103.9316383  54.3399071  39.3213309 103.9957709  55.2013901  38.9090706
 103.8683503  53.7273072  38.5885667 103.4068655  56.4122203  42.9686343
 104.0340694  56.0299280  43.5823867 102.5496574  56.1936405  43.3342036
 113.8062764  66.8185178  44.5740078 114.3502668  67.4315137  44.0795033
 113.2249609  67.3764757  45.0907091 100.1834198  58.2198632  28.9004698
 100.4787639  57.3109311  28.8471752  99.2822234  58.1986372  28.5785700
 112.0920277  69.9405896  35.7055106 111.9671416  69.1395636  35.1966052
 112.7499368  70.4352090  35.2169076 103.7128445  56.2954629  34.8832246
 102.9915031  56.9090596  34.7439720 104.5021701  56.8312394  34.8048892
 114.1555185  67.7414916  37.3334656 113.2085521  67.6220268  37.2612983
 114.5037958  66.8537414  37.4160918 106.5154758  53.6309055  41.1572898
 107.0389160  53.8771352  41.9199207 106.2967092  54.4629090  40.7376036
 101.9122040  55.9012730  29.0244023 101.5834746  55.0210109  28.8419129
 102.2661410  55.8460399  29.9120412 111.1601618  67.5367633  33.5339009
 111.0126581  66.6084340  33.7146579 111.9855112  67.5587723  33.0496084
 105.0263863  56.1885700  29.3919501 105.3659935  56.7171621  28.6698109
 105.4735983  56.5266106  30.1678067 114.7635740  68.3596191  34.6203881
 115.6882288  68.1539053  34.4828332 114.5951044  68.1112592  35.5293223
 107.7207304  54.5722750  38.8422569 107.3804124  53.7730563  39.2443249
 107.0146310  54.8724461  38.2699402 108.3723775  51.6572063  37.2949892
 109.1949845  51.1832541  37.1728782 108.6161839  52.4362547  37.7948578
 107.0132010  54.6860321  27.5912793 107.7340372  55.0641574  27.0876510
 106.3897314  55.4049198  27.6947771 111.1563133  55.3905470  28.5271126
 111.3726747  56.2730108  28.2259954 110.6757200  54.9991684  27.7976768
 105.8962354  58.3491183  35.1041870 105.7506935  58.6631487  35.9966152
 105.4187558  58.9676084  34.5512769 107.7558737  55.3393731  35.1522760
 107.7420306  54.4434825  34.8155058 108.4731165  55.3464395  35.7861046
 109.6084868  55.7731072  37.1975887 109.3502646  56.6948142  37.1960218
 109.0769908  55.3761506  37.8876351 114.5531056  68.8781859  29.9765973
 114.7267934  68.3128281  29.2239825 115.0459948  69.6782754  29.7945463
 100.3708016  60.8896528  38.0429532  99.8261484  61.6656336  38.1749806
 101.2487366  61.2367332  37.8848653 107.1595633  54.2208112  30.4210330
 107.2811544  53.2924758  30.6201218 106.8697675  54.2346798  29.5088645
 110.0286823  51.9063022  33.5577050 110.0508520  51.9702355  32.6029029
 110.4454882  51.0667531  33.7517556 120.4070448  61.6418282  31.5956272
 120.8501594  60.8925607  31.1975396 119.5296958  61.6328418  31.2130004
 115.5406229  68.1948623  27.0762871 116.2357134  68.8155316  27.2950186
 115.8829379  67.3443974  27.3515249 101.1574038  60.0166424  40.9359688
 100.4155774  60.1649059  41.5224319 100.8366782  60.2774690  40.0726438
 117.4397652  65.6448329  28.6050202 117.9648976  65.9835601  27.8799522
 117.3520005  64.7095344  28.4213336 109.1017701  69.5582402  40.7340078
 109.4104827  69.3131549  41.6062778 109.8993183  69.7629041  40.2458949
 109.1238313  71.7120312  32.9645455 108.6843303  71.2196691  33.6578312
 109.8746430  71.1693280  32.7237530 101.6030652  67.9031853  32.9670083
 102.4288672  67.6035625  32.5868727 101.2524704  67.1339475  33.4159872
 106.5712185  67.2558321  35.0367757 105.9492194  66.5929026  34.7369984
 107.2417052  67.2819453  34.3541404  99.8039257  65.8218179  33.9259017
  98.9671165  65.3940354  33.7443018  99.7762902  66.0150623  34.8629808
 106.6436712  55.7340109  44.6300263 106.6924868  56.6102232  44.2478032
 107.1859227  55.1917502  44.0571906 117.1291558  66.2781232  43.9101400
 116.3387102  66.2605371  43.3705899 116.8924913  66.8169526  44.6650436
 117.2489433  63.1273699  41.2234128 117.2987438  62.9623706  42.1649651
 117.1403357  62.2600958  40.8332009 106.1325692  65.8062244  28.5126217
 106.2813812  66.4897709  27.8592890 106.9392135  65.7867334  29.0275673
 114.5393196  59.1104627  42.5393435 115.4403058  58.9711092  42.2477433
 114.6141170  59.2759082  43.4791612 108.8736001  56.4871481  41.3846621
 108.0039310  56.7805048  41.1129210 109.1095481  57.0711926  42.1053885
 118.7507630  65.5470640  41.4676150 118.4592438  65.9100621  42.3039611
 118.1379761  64.8337649  41.2889482 119.9503312  63.1123520  33.9878720
 120.7850204  63.5513324  34.1516280 120.0862441  62.6362173  33.1686966
 116.9994818  60.6703255  39.9356208 117.4748940  60.8630901  39.1275059
 116.0760384  60.7262441  39.6899591 103.8878325  61.8327422  29.5187286
 103.6424367  60.9289752  29.7167496 104.0574239  61.8344572  28.5766764
 111.5775035  52.7051098  38.9012042 112.0956979  53.4412125  38.5758530
 111.2230168  53.0115092  39.7358801 103.1573972  57.5655780  27.0173448
 102.4643217  57.6400135  26.3613484 102.9125724  56.8016123  27.5394964
 111.8287629  49.1251381  34.4212938 112.1089383  48.4574570  35.0473365
 112.6138236  49.3180477  33.9087602 109.6321097  68.3010375  25.9837965
 109.0595064  68.9200562  25.5308436 110.2053891  68.8509737  26.5177887
 115.6996487  57.5469015  38.1684513 116.6513910  57.6467113  38.1896737
 115.5299938  56.7547283  38.6782598 113.7210867  54.6324598  38.3543914
 113.1260799  54.9129611  37.6590403 113.4360563  55.1218499  39.1260655
 112.8518357  68.5847525  27.1146547 113.7849030  68.5193087  27.3179422
 112.7641570  69.4203792  26.6561080 115.4806374  67.9013395  24.0750494
 115.4020005  67.5673259  24.9686252 116.3016041  68.3935163  24.0741967
 118.1784565  60.7675135  37.2826813 118.1460885  59.8291135  37.4686497
 118.7885189  60.8459171  36.5492638 110.0167896  59.6371188  23.3254017
 110.9627001  59.5077396  23.3942435 109.6382141  58.8985850  23.8023445
 118.3279054  57.5586178  37.3285096 117.8118102  56.7744635  37.1415025
 119.2119002  57.2304895  37.4931616 115.9889780  51.3027194  33.2880909
 115.7914602  50.9942282  34.1724241 116.5989486  52.0288833  33.4178839
 109.9006588  63.6888934  44.7854674 110.8209598  63.8667533  44.9794721
 109.8656171  62.7444979  44.6334373 108.2010813  57.5621164  23.2608902
 107.2942268  57.2654277  23.3371616 108.4786794  57.2650982  22.3943189
  99.1188753  58.8827527  33.7107949  98.7991538  58.0292836  33.4182323
  98.5722182  59.0976106  34.4665916 102.8968661  61.5989968  37.4277455
 103.1154671  62.5307076  37.4465489 103.3094435  61.2397943  38.2132259
 109.8172879  52.1058054  29.4153144 109.0073607  51.7605139  29.7908390
 110.5057296  51.7965597  30.0040755 111.7463427  51.1836101  31.0377440
 112.2994466  51.6031554  31.6967463 111.9833513  50.2571849  31.0800396
 107.7696526  57.1723174  46.8180204 107.6693253  58.1217531  46.7492295
 107.5518068  56.8441413  45.9456274 106.9709598  54.4208099  23.4020882
 107.8328762  54.7462998  23.6616699 107.1559942  53.6339595  22.8893947
  98.9877013  62.5030439  35.6801070  98.2940485  62.0884392  35.1671025
  99.7350004  62.5450975  35.0834489 115.1242234  53.2936626  30.5456105
 114.5440903  53.9521430  30.1634157 114.8578167  52.4713970  30.1343522
 113.5745801  52.6941683  32.7477425 114.0745579  52.8058218  31.9391744
 114.2181408  52.3902736  33.3878233 107.6327796  60.6020313  45.6345266
 107.1494878  61.4020673  45.8409155 107.7188735  60.6128258  44.6812710
 100.9013756  62.4348693  33.5567085 100.8784444  62.5336380  32.6048968
 101.2114392  63.2813843  33.8784251 103.5601134  64.4924848  37.6713700
 104.5144387  64.4608790  37.6043631 103.3613657  64.0315471  38.4863926
 104.1500516  63.0625964  40.2384497 104.9693405  63.5570042  40.2619335
 104.4237324  62.1457932  40.2102065 113.9067112  55.4536716  29.6012453
 113.0192967  55.7386367  29.3832648 114.3221101  55.2930479  28.7539730
 117.2581648  55.4783237  33.3166792 118.0342038  55.9679689  33.5891409
 116.5329782  55.9041291  33.7738662 119.6954207  56.1910856  34.3740733
 120.2898698  55.9506592  33.6634041 119.7680791  55.4717987  35.0014269
 101.9151363  70.0344467  34.6883897 101.7805831  69.2744868  34.1221896
 101.4983425  70.7585367  34.2212686 113.0510326  65.2181391  23.6960473
 113.7546176  65.4231393  24.3118128 112.3272974  65.7858153  23.9609556
 113.8808136  60.9691252  29.8162743 113.8243337  61.4259803  28.9770375
 114.4336478  60.2081937  29.6385586 117.6912942  56.7580984  30.6412862
 117.4349876  56.3577620  31.4721070 117.0665810  57.4724778  30.5163002
 105.0720489  70.9313784  34.9002340 104.9552873  71.8759217  34.7981030
 104.2512935  70.6287346  35.2888139 114.9597023  65.6563920  25.7458933
 115.7942627  65.2245118  25.5636408 114.7981366  65.4845934  26.6735827
 114.6142915  62.1596033  27.1115272 114.5591719  61.9940305  26.1703716
 113.9888970  62.8672066  27.2677462  99.4035430  57.3964098  40.9376694
 100.0494294  56.8863052  41.4263920  99.1952581  58.1332779  41.5120120
 111.9288822  64.4644945  46.4368835 112.7979982  64.6385597  46.0755470
 111.4495574  65.2839362  46.3144564 107.9239041  51.6604142  26.6900591
 107.9117711  52.6045982  26.8468861 108.8162463  51.4774288  26.3960052
 106.0975003  71.5842046  38.1158269 107.0002249  71.6165656  38.4324763
 105.8712373  70.6542497  38.1304604 107.8528605  70.3373033  34.7768347
 106.9024236  70.3374894  34.6632719 108.1561091  69.5905767  34.2604382
 111.7391160  48.2546919  30.9446527 110.9723556  47.7005406  31.0903210
 112.1501865  48.3268788  31.8060679 103.7432921  54.5431715  45.0351709
 104.6064383  54.1868520  45.2455033 103.1698332  54.2045610  45.7227113
 120.3971004  76.1260999  35.7775634 120.0589516  76.0102064  34.8896169
 121.2660773  75.7252164  35.7576640 116.2557820  77.9796476  31.7672525
 115.6922685  77.8886412  30.9988813 116.1410215  77.1596380  32.2475018
 120.8790787  77.2795851  41.7361840 120.8679428  76.8848649  40.8642343
 121.0411427  76.5461923  42.3295611 113.8022252  79.4747667  34.6056746
 114.5943544  79.1338492  34.1903045 114.0418902  79.5842642  35.5258899
 115.7613006  78.7356580  27.4774124 116.5343882  78.1885567  27.3387000
 116.1138405  79.6000830  27.6888586 117.5998049  80.0632963  40.6841024
 117.3087915  80.9678594  40.5687690 118.2355033  80.1049490  41.3985093
 118.5254255  77.4409811  37.2742383 119.1217828  77.2165834  36.5599346
 118.5829227  76.6994557  37.8767831 118.0979284  74.8949247  25.1092574
 118.3504804  74.3730768  24.3476037 117.1603843  74.7315392  25.2119258
 117.8175573  76.7977352  27.3116949 117.7011831  76.1222256  27.9798034
 117.9277832  76.3109726  26.4949102 120.1607113  76.2587500  31.0163639
 119.7965321  75.7318121  31.7276560 121.0174229  75.8685969  30.8430124
 119.8012600  71.2877399  26.0124987 119.9687003  72.1557636  26.3795458
 119.6109770  71.4504681  25.0886276 116.0100415  76.2008175  33.7127522
 115.0850912  76.0684389  33.9205214 116.2584828  76.9802394  34.2097464
 119.7801821  73.7435057  26.9971654 119.6601447  74.1892108  27.8357134
 119.0854410  74.0920374  26.4385192 113.3709226  75.8441449  34.5471311
 113.5001607  76.0975928  35.4610723 112.6906677  76.4369157  34.2275966
 117.5408713  86.5138699  30.6461785 117.4632743  87.4646524  30.7250266
 116.9370357  86.1684571  31.3036711 120.0325943  73.6866564  43.3023152
 119.2559277  74.2460484  43.2926017 120.6716506  74.1723347  43.8238022
 118.2872316  76.4952017  42.8641119 119.0287000  77.0337061  42.5875943
 117.5809301  77.1218306  43.0212671 120.1158725  73.5753765  38.8346837
 120.9619920  73.9993178  38.9781486 120.0557363  72.9187389  39.5285401
 119.6384432  78.9356756  32.4815655 120.1022777  79.2144459  31.6920277
 119.3741230  78.0340201  32.2988745 116.5308513  78.4828238  35.4195418
 117.1009870  78.9115506  34.7812902 117.1216625  78.2010823  36.1179603
 118.5753318  75.0579909  29.2905220 119.2777361  75.5100953  29.7579146
 118.2433946  74.4163728  29.9185113 117.0233679  73.6491665  43.6656429
 116.3932340  74.3307946  43.8991826 116.9169767  73.5374747  42.7209567
 112.3178652  73.3163462  34.5922353 111.5277706  73.5720990  34.1162464
 112.8089899  74.1311799  34.6974394 114.2693397  73.6808041  31.5505830
 113.4724560  73.7926735  32.0689326 114.0418989  74.0194693  30.6846720
 120.0999065  80.2052744  39.4988345 120.1643497  80.6673151  40.3346516
 119.3909989  79.5750109  39.6270654 110.6016355  73.5693952  37.0237344
 110.8524393  74.4540962  37.2894920 111.1375903  73.3898554  36.2512436
 119.8147082  81.8720851  29.3667325 119.6792757  82.7172387  29.7952173
 120.3556895  82.0740129  28.6033259 116.3014422  67.9512431  46.0281680
 115.9081368  67.3978630  46.7029324 117.1180562  68.2623010  46.4188198
 113.2676480  79.3896290  29.9395250 113.7801000  80.1839540  30.0900815
 113.9199193  78.6922580  29.8728851 115.0771364  82.5062046  32.0218003
 115.2537993  83.4280010  31.8338987 115.8728198  82.1920465  32.4512383
 119.2182383  69.3670310  43.6201937 119.9592096  69.9677464  43.5406399
 119.4500306  68.6247948  43.0619979 114.3623721  74.5526678  41.8980166
 114.2477236  73.6511935  42.1987265 113.5068239  74.7990374  41.5464983
 116.2002680  84.0240220  38.0228345 116.7510105  83.8957283  37.2505339
 115.3614156  84.3235109  37.6723238 119.9969851  80.2891347  42.3672577
 120.5298188  79.5279636  42.1371885 119.4683932  79.9964999  43.1096731
 111.2325397  77.7184944  30.7154820 112.0700619  78.1281952  30.4988528
 111.4103664  76.7784386  30.6855014 120.7136940  70.2309725  31.4623892
 119.8578536  69.8416576  31.2829531 121.1263891  70.3101686  30.6023677
 118.4878972  67.8494798  34.8681633 119.3531969  67.6537607  34.5087523
 118.5556481  67.6205150  35.7950990 121.3622564  79.4177340  29.8791389
 120.8343925  78.6830099  29.5664626 120.8610066  80.1952016  29.6331357
 116.0941291  70.0797006  32.2398000 116.6685043  69.8572188  31.5071193
 116.6812274  70.1485701  32.9926601 116.4210878  72.1101467  26.2593885
 115.5848191  72.4476154  26.5803160 116.2815648  71.9750447  25.3221022
 118.3963959  66.9538255  30.9673070 117.7428371  66.6387272  30.3429684
 118.3544433  66.3313996  31.6932892 119.5075164  77.2357550  22.8826362
 118.6002226  77.0046804  23.0817511 120.0046196  76.4395169  23.0700343
 120.6863397  77.3370145  27.4050352 119.7774617  77.0529178  27.5022821
 120.7158481  77.7569224  26.5453659 111.2551568  75.0575659  31.3865554
 111.0575967  74.4645020  30.6616621 110.6998232  74.7527869  32.1041493
 119.2348291  74.9498766  33.5060147 119.2896901  73.9972602  33.4302624
 118.4239493  75.1058205  33.9901445 120.3839485  78.8778889  24.7438430
 119.9458915  78.1614748  24.2844068 121.1249926  79.1055004  24.1823522
 117.1740651  73.5675825  31.2650526 116.3608517  73.8669996  31.6715718
 117.6699645  73.1731514  31.9825008 119.3249229  83.5633582  33.1984791
 119.2825408  83.7894429  32.2693323 120.2411928  83.3296957  33.3470592
 116.6654726  71.1394181  36.8811761 117.3054105  70.9982940  36.1834724
 115.8332257  70.8528694  36.5050363 117.4415030  80.4396611  32.9946753
 118.2355628  79.9446931  32.7929328 116.7306722  79.9114474  32.6314459
 113.7497793  74.5839693  29.0706506 112.8195381  74.5224149  29.2876468
 113.8455265  74.0615646  28.2743147 113.6683342  71.1094506  31.6584748
 113.9290160  72.0239839  31.5493908 114.4900515  70.6418948  31.8081361
 115.1408268  72.5232263  38.8283572 115.8131321  72.3149625  38.1796221
 114.3138054  72.3254349  38.3888805 120.0186306  81.0125633  36.6744590
 119.8797392  80.6444418  37.5470529 119.2300902  81.5273273  36.5028548
 120.6134458  86.1134730  28.0170127 120.7886214  85.6422773  28.8315750
 119.9267246  86.7400496  28.2451388 121.5691521  80.3907236  34.0633428
 121.2341354  80.3508006  34.9591078 121.0695467  79.7251952  33.5903838
 115.5435765  75.7974866  39.5886009 115.4055563  75.0655105  40.1897548
 116.4540688  75.7083766  39.3070197 118.1718066  75.5094825  39.0769689
 118.8817684  74.8688018  39.0356307 118.1287374  75.7607720  39.9995870
 116.8847000  72.4960043  40.8965329 116.3484357  72.0450782  41.5486925
 116.2963708  72.6305952  40.1535793 115.1795543  89.2624093  34.7909987
 115.4192141  89.8942617  35.4689006 114.3364740  88.9112133  35.0775346
 116.2949259  71.9548695  23.4591792 115.4178725  71.8337495  23.0954039
 116.7707012  71.1634773  23.2070681 107.8151399  76.7425854  33.5533299
 108.5022439  76.4287584  32.9654315 107.6599527  77.6467219  33.2800551
 112.6186121  71.6316051  37.9818323 112.5344310  71.0241720  37.2468733
 111.7968827  72.1225069  37.9827819 119.6923405  85.0703215  37.1951491
 119.6193576  85.8758186  37.7070796 119.2500798  85.2695181  36.3699513
 119.4813185  84.3074985  30.7054313 118.6980707  84.8496665  30.7992537
 120.1805930  84.8248965  31.1048554 119.3744804  72.2586997  33.0760203
 119.0042591  71.7058038  33.7641108 119.8703896  71.6545131  32.5235203
 117.2034002  82.7184492  40.1715221 117.9043462  83.3520975  40.3244615
 116.7329117  83.0599224  39.4110860 112.8001720  82.2520848  37.1046323
 113.3855157  81.5064535  37.2374228 112.6026559  82.5624804  37.9882987
 115.6540375  85.2872095  32.1208766 114.9850751  85.7718223  31.6372806
 115.5153245  85.5341315  33.0352144 107.3919375  74.8226448  35.8250766
 107.4303474  74.2890038  36.6187885 106.8859668  74.2961653  35.2061744
 119.7945644  87.3215838  38.7191424 120.3463952  87.4847460  39.4840509
 120.1351837  87.9120276  38.0471449 114.7710137  69.6690988  39.3213309
 114.8351464  70.5305819  38.9090706 114.7077257  69.0564990  38.5885667
 114.2462410  71.7414121  42.9686343 114.8734449  71.3591198  43.5823867
 113.3890329  71.5228323  43.3342036 111.0227952  73.5490550  28.9004698
 111.3181394  72.6401228  28.8471752 110.1215988  73.5278289  28.5785700
 114.5522199  71.6246546  34.8832246 113.8308785  72.2382514  34.7439720
 115.3415455  72.1604311  34.8048892 117.3548513  68.9600973  41.1572898
 117.8782915  69.2063269  41.9199207 117.1360846  69.7921008  40.7376036
 112.7515794  71.2304648  29.0244023 112.4228500  70.3502026  28.8419129
 113.1055165  71.1752316  29.9120412 115.8657617  71.5177617  29.3919501
 116.2053690  72.0463539  28.6698109 116.3129738  71.8558023  30.1678067
 118.5601058  69.9014668  38.8422569 118.2197878  69.1022481  39.2443249
 117.8540064  70.2016379  38.2699402 119.2117530  66.9863980  37.2949892
 120.0343599  66.5124459  37.1728782 119.4555593  67.7654464  37.7948578
 117.8525764  70.0152239  27.5912793 118.5734127  70.3933492  27.0876510
 117.2291068  70.7341116  27.6947771 116.7356109  73.6783101  35.1041870
 116.5900689  73.9923404  35.9966152 116.2581312  74.2968001  34.5512769
 118.5952491  70.6685649  35.1522760 118.5814060  69.7726742  34.8155058
 119.3124920  70.6756313  35.7861046 120.4478622  71.1022989  37.1975887
 120.1896400  72.0240060  37.1960218 119.9163663  70.7053424  37.8876351
 111.2101771  76.2188446  38.0429532 110.6655239  76.9948253  38.1749806
 112.0881121  76.5659250  37.8848653 117.9989387  69.5500029  30.4210330
 118.1205299  68.6216676  30.6201218 117.7091430  69.5638715  29.5088645
 120.8680578  67.2354940  33.5577050 120.8902275  67.2994273  32.6029029
 121.2848637  66.3959448  33.7517556 111.9967793  75.3458342  40.9359688
 111.2549529  75.4940977  41.5224319 111.6760537  75.6066607  40.0726438
 119.9411455  84.8874320  40.7340078 120.2498582  84.6423467  41.6062778
 120.7386937  85.0920958  40.2458949 119.9632067  87.0412230  32.9645455
 119.5237058  86.5488608  33.6578312 120.7140184  86.4985197  32.7237530
 112.4424406  83.2323770  32.9670083 113.2682426  82.9327542  32.5868727
 112.0918458  82.4631393  33.4159872 117.4105939  82.5850239  35.0367757
 116.7885949  81.9220944  34.7369984 118.0810806  82.6111371  34.3541404
 110.6433011  81.1510097  33.9259017 109.8064920  80.7232271  33.7443018
 110.6156657  81.3442540  34.8629808 117.4830467  71.0632027  44.6300263
 117.5318622  71.9394150  44.2478032 118.0252981  70.5209420  44.0571906
 116.9719446  81.1354162  28.5126217 117.1207567  81.8189626  27.8592890
 117.7785890  81.1159252  29.0275673 119.7129755  71.8163399  41.3846621
 118.8433065  72.1096965  41.1129210 119.9489236  72.4003844  42.1053885
 114.7272079  77.1619340  29.5187286 114.4818121  76.2581670  29.7167496
 114.8967994  77.1636490  28.5766764 113.9967727  72.8947697  27.0173448
 113.3036972  72.9692052  26.3613484 113.7519479  72.1308041  27.5394964
 120.4714852  83.6302293  25.9837965 119.8988819  84.2492480  25.5308436
 121.0447646  84.1801654  26.5177887 119.0404568  72.8913082  23.2608902
 118.1336023  72.5946194  23.3371616 119.3180549  72.5942900  22.3943189
 109.9582508  74.2119445  33.7107949 109.6385292  73.3584753  33.4182323
 109.4115936  74.4268023  34.4665916 113.7362415  76.9281886  37.4277455
 113.9548425  77.8598994  37.4465489 114.1488189  76.5689860  38.2132259
 120.6566633  67.4349971  29.4153144 119.8467362  67.0897056  29.7908390
 121.3451050  67.1257515  30.0040755 118.6090281  72.5015092  46.8180204
 118.5087008  73.4509449  46.7492295 118.3911823  72.1733331  45.9456274
 117.8103352  69.7500017  23.4020882 118.6722516  70.0754915  23.6616699
 117.9953696  68.9631513  22.8893947 109.8270768  77.8322357  35.6801070
 109.1334239  77.4176309  35.1671025 110.5743759  77.8742893  35.0834489
 118.4721551  75.9312231  45.6345266 117.9888633  76.7312591  45.8409155
 118.5582490  75.9420176  44.6812710 111.7407510  77.7640610  33.5567085
 111.7178199  77.8628298  32.6048968 112.0508147  78.6105761  33.8784251
 114.3994888  79.8216765  37.6713700 115.3538142  79.7900708  37.6043631
 114.2007412  79.3607389  38.4863926 114.9894270  78.3917881  40.2384497
 115.8087159  78.8861960  40.2619335 115.2631078  77.4749850  40.2102065
 112.7545117  85.3636385  34.6883897 112.6199585  84.6036786  34.1221896
 112.3377179  86.0877285  34.2212686 115.9114243  86.2605702  34.9002340
 115.7946627  87.2051134  34.7981030 115.0906689  85.9579263  35.2888139
 110.2429185  72.7256015  40.9376694 110.8888048  72.2154969  41.4263920
 110.0346336  73.4624697  41.5120120 118.7632795  66.9896060  26.6900591
 118.7511465  67.9337900  26.8468861 119.6556217  66.8066205  26.3960052
 116.9368757  86.9133964  38.1158269 117.8396004  86.9457574  38.4324763
 116.7106127  85.9834415  38.1304604 118.6922359  85.6664950  34.7768347
 117.7417990  85.6666812  34.6632719 118.9954845  84.9197685  34.2604382
 114.5826676  69.8723632  45.0351709 115.4458137  69.5160437  45.2455033
 114.0092086  69.5337527  45.7227113 118.6545153  92.0717772  33.5533299
 119.3416193  91.7579502  32.9654315 118.4993282  92.9759137  33.2800551
 118.2313129  90.1518365  35.8250766 118.2697229  89.6181956  36.6187885
 117.7253422  89.6253571  35.2061744 121.4826766  96.4802015  33.9259017
 120.6458674  96.0524189  33.7443018 121.4550411  96.6734458  34.8629808
 120.7976262  89.5411363  33.7107949 120.4779047  88.6876671  33.4182323
 120.2509691  89.7559941  34.4665916 120.6664522  93.1614274  35.6801070
 119.9727994  92.7468227  35.1671025 121.4137513  93.2034811  35.0834489
  74.1833697   2.2033150  17.3707092  74.1057726   3.1540976  17.4495572
  73.5795340   1.8579023  18.0282018  71.8220526   4.9518544  21.5155294
  72.0617125   5.5837069  22.1934312  70.9789723   4.6006584  21.8020653
  72.2965359   0.9766547  18.8454072  71.6275734   1.4612674  18.3618112
  72.1578228   1.2235767  19.7597451  76.4370627   3.0110290  25.4436731
  76.9888935   3.1741912  26.2085816  76.7776821   3.6014728  24.7716756
  69.3970100   1.0530837  21.4129204  69.2624568   0.2931238  20.8467202
  68.9802163   1.7771737  20.9457993  72.5539226   1.9500154  21.6247647
  72.4371610   2.8945586  21.5226337  71.7331673   1.6473715  22.0133446
  73.5793740   2.6028416  24.8403575  74.4820987   2.6352026  25.1570070
  73.3531110   1.6728867  24.8549911  87.8789742   7.1447369  22.5020941
  87.5408254   7.0288433  21.6141476  88.7479510   6.7438534  22.4821947
  83.7376558   8.9982845  18.4917832  83.1741423   8.9072782  17.7234120
  83.6228953   8.1782750  18.9720324  88.3609525   8.2982220  28.4607146
  88.3498166   7.9035019  27.5887650  88.5230165   7.5648293  29.0540918
  81.2840990  10.4934037  21.3302052  82.0762282  10.1524861  20.9148352
  81.5237640  10.6029012  22.2504206  89.3176117  12.6653813  13.8032297
  88.6664096  13.2507893  13.4166311  90.1120479  13.1960008  13.8627334
  83.2431744   9.7542950  14.2019431  84.0162620   9.2071937  14.0632307
  83.5957143  10.6187199  14.4133892  85.0816786  11.0819332  27.4086330
  84.7906652  11.9864963  27.2932997  85.7173771  11.1235860  28.1230400
  86.0072993   8.4596181  23.9987690  86.6036565   8.2352203  23.2844653
  86.0647965   7.7180926  24.6013138  85.2994310   7.8163722  14.0362256
  85.1830568   7.1408625  14.7043340  85.4096570   7.3296096  13.2194409
  87.6425851   7.2773869  17.7408945  87.2784058   6.7504490  18.4521867
  88.4992967   6.8872338  17.5675431  90.0406671  10.7680748  24.4036124
  89.7407395  11.6705787  24.2951931  89.6957731  10.5012931  25.2557277
  83.4919153   7.2194545  20.4372829  82.5669649   7.0870759  20.6450520
  83.7403566   7.9988764  20.9342771  80.8527964   6.8627818  21.2716618
  80.9820345   7.1162297  22.1856029  80.1725415   7.4555526  20.9521273
  85.0227451  17.5325068  17.3707092  84.9451481  18.4832893  17.4495572
  84.4189095  17.1870941  18.0282018  85.7691053   7.5138387  29.5886426
  86.5105738   8.0523431  29.3121249  85.0628039   8.1404676  29.7457977
  91.2446393   9.6567527  28.1858587  91.6529749   9.2149938  27.4413220
  90.5223654   9.0820155  28.4392780  91.5675208  10.2168718  21.9410876
  90.9384070  10.3814432  21.2386944  91.1800870  10.6310328  22.7121840
  95.4464439  11.1523156  19.2955240  94.7615478  11.5322057  18.7452273
  95.5308289  11.7618482  20.0287188  92.7015371   8.7983115  25.8950583
  92.9132266   9.4414875  25.2184964  92.6545119   7.9645431  25.4272513
  87.1203169   9.9543126  19.2060961  87.5841515  10.2330829  18.4165584
  86.8559968   9.0526571  19.0234052  84.0127251   9.5014608  22.1440724
  84.5828608   9.9301876  21.5058209  84.6035362   9.2197192  22.8424910
  79.7997389   4.3349831  21.3167660  79.0096443   4.5907360  20.8407770
  80.2908637   5.1498169  21.4219700  93.8161199  11.6755070  24.0672941
  94.6378643  11.2735258  23.7855622  93.8123602  11.5723304  25.0189056
  81.7512135   4.6994410  18.2751137  80.9543298   4.8113105  18.7934632
  81.5237727   5.0381063  17.4092027  87.5817802  11.2239114  26.2233651
  87.6462235  11.6859521  27.0591823  86.8728726  10.5936478  26.3515961
  78.0835092   4.5880322  23.7482651  78.3343131   5.4727331  24.0140227
  78.6194641   4.4084923  22.9757742  87.2965820  12.8907221  16.0912631
  87.1611495  13.7358757  16.5197479  87.8375633  13.0926499  15.3278565
  80.7495218  10.4082659  16.6640557  81.2619738  11.2025909  16.8146121
  81.4017930   9.7108950  16.5974158  82.5590102  13.5248415  18.7463310
  82.7356731  14.4466380  18.5584294  83.3546936  13.2106835  19.1757690
  81.8442459   5.5713047  28.6225473  81.7295974   4.6698304  28.9232572
  80.9886977   5.8176744  28.2710290  88.9234297  13.5130788  30.2212974
  88.4798151  12.7267166  29.9033878  89.5851510  13.7009938  29.5556864
  83.6821418  15.0426589  24.7473652  84.2328843  14.9143653  23.9750646
  82.8432894  15.3421478  24.3968545  91.0215535  13.7933587  28.2494375
  91.0034010  14.6142469  27.7574644  91.9435455  13.6687663  28.4744516
  87.4788589  11.3077717  29.0917883  88.0116926  10.5466005  28.8617191
  86.9502670  11.0151369  29.8342038  78.7144134   8.7371313  17.4400127
  79.5519356   9.1468322  17.2233835  78.8922402   7.7970756  17.4100321
  88.8441301  10.4363709  16.6036695  88.3162663   9.7016469  16.2909933
  88.3428804  11.2138386  16.3576664  93.8234147   8.6312730  21.7203742
  93.1657822   9.3211991  21.8083870  94.6274547   9.0209162  22.0637728
  89.8961981  16.9641427  12.5268354  89.2223679  17.2673124  13.1353312
  90.2827802  17.7670507  12.1773811  93.4001402  11.9663104  17.8986826
  92.9463730  11.1254014  17.9552016  92.7695369  12.6024502  18.2361606
  91.8434342  13.8039601  18.8336644  92.1357316  14.3644658  18.1149010
  92.3532962  14.0968162  19.5889803  78.7370305   6.0762029  18.1110861
  78.5394705   5.4831389  17.3861927  78.1816969   5.7714239  18.8286799
  86.8067967  14.5819952  19.9230097  86.7644146  14.8080798  18.9938629
  87.7230666  14.3483326  20.0715898  96.0100717  10.2398982  22.5371327
  96.4437224  10.1474271  23.3854381  96.7232298  10.2156483  21.8991343
  84.9233768  11.4582981  19.7192060  85.7174366  10.9633301  19.5174635
  84.2125460  10.9300844  19.3559766  89.7428612  13.8401076  24.0704428
  89.7965634  14.4092013  24.8382144  88.8743394  14.0102961  23.7058465
  81.2316531   5.6026063  15.7951813  80.3014119   5.5410518  16.0121775
  81.3274003   5.0802015  14.9988454  91.9331375  10.4329426  30.6445093
  91.7816882  10.2039977  29.7275177  91.9236055  11.3900027  30.6576438
  88.7016712   8.0061338  25.6291359  89.6308772   8.1572498  25.4560327
  88.2807742   8.0945359  24.7740006  87.5005044  12.0312003  23.3989897
  87.3616129  11.6630787  24.2715835  86.7119640  12.5459642  23.2273855
  88.0953196  17.1321099  14.7415434  88.2704951  16.6609143  15.5561056
  87.4085984  17.7586866  14.9696694  89.0510259  11.4093606  20.7878735
  88.7160091  11.3694376  21.6836385  88.5514205  10.7438321  20.3149145
  83.0254503   6.8161236  26.3131316  82.8874301   6.0841474  26.9142855
  83.9359426   6.7270136  26.0315504  85.6536803   6.5281195  25.8014996
  86.3636422   5.8874387  25.7601614  85.6106112   6.7794090  26.7241176
  93.6423582  13.4648548  28.7221575  93.5836128  12.7807768  28.0552158
  94.0443101  14.2067538  28.2702201  82.6614281  20.2810462  21.5155294
  82.9010879  20.9128986  22.1934312  81.8183477  19.9298502  21.8020653
  93.6440989  11.4288132  26.9535555  92.7567768  11.0914054  27.0761953
  94.2139540  10.6971163  27.1904320  75.2970137   7.7612224  20.2778606
  75.9841176   7.4473954  19.6899621  75.1418265   8.6653589  20.0045857
  87.1742143  16.0889585  23.9196798  87.1012314  16.8944556  24.4316102
  86.7319536  16.2881550  23.0944819  86.9631922  15.3261355  17.4299619
  86.1799444  15.8683035  17.5237844  87.6624668  15.8435334  17.8293860
  89.6340826  15.9876419  26.0754956  90.3468799  16.6223883  26.0030858
  89.1430855  16.0840285  25.2594958  91.3558353   9.8927671  17.6472248
  90.4214632  10.0129134  17.4776952  91.5335022   8.9900138  17.3832258
  84.6852740  13.7370862  26.8960527  85.3862199  14.3707345  27.0489921
  84.2147855  14.0785594  26.1356167  89.4461200  16.3275163  18.8241248
  89.6283594  15.5096819  19.2869000  90.2694186  16.5442855  18.3866138
  89.7803365  15.2543348  16.0856296  90.3091132  14.7435802  15.4726458
  90.0431585  14.9385878  16.9501829  88.5341599   7.0335281  31.2079115
  87.8582236   6.9329410  31.8781490  89.3569233   6.8774494  31.6715112
  80.2820458  13.2707217  23.8291630  80.8673895  12.5250905  23.9619534
  80.0845296  13.5811174  24.7128294  83.1359113  16.3058464  18.8454072
  82.4669488  16.7904592  18.3618112  82.9971983  16.5527685  19.7597451
  74.8738113   5.8412817  22.5496073  74.9122212   5.3076408  23.3433191
  74.3678405   5.3148023  21.9307050  87.2764382  18.3402208  25.4436731
  87.8282690  18.5033829  26.2085816  87.6170575  18.9306646  24.7716756
  92.1275256  13.1663465  31.2985385  92.6715160  13.7793424  30.8040340
  91.5462101  13.7243044  31.8152398  78.5046690   4.5676919  15.6250004
  78.8000131   3.6587598  15.5717058  77.6034726   4.5464659  15.3031007
  90.4132769  16.2884184  22.4300413  90.2883908  15.4873923  21.9211358
  91.0711860  16.7830377  21.9414383  92.4767677  14.0893204  24.0579963
  91.5298013  13.9698555  23.9858290  92.8250450  13.2015702  24.1406224
  89.4814111  13.8845920  20.2584315  89.3339073  12.9562627  20.4391885
  90.3067604  13.9066011  19.7741390  93.0848233  14.7074479  21.3449188
  94.0094780  14.5017340  21.2073639  92.9163536  14.4590880  22.2538529
  92.8743549  15.2260146  16.7011279  93.0480426  14.6606568  15.9485132
  93.3672440  16.0261041  16.5190769  78.6920509   7.2374815  24.7674838
  78.1473977   8.0134623  24.8995112  79.5699858   7.5845620  24.6093960
  79.4786530   6.3644711  27.6604995  78.7368266   6.5127347  28.2469625
  79.1579275   6.6252977  26.7971744  87.4230193  15.9060690  27.4585385
  87.7317319  15.6609836  28.3308085  88.2205675  16.1107328  26.9704255
  87.4450805  18.0598599  19.6890762  87.0055795  17.5674978  20.3823618
  88.1958922  17.5171567  19.4482837  79.9243144  14.2510140  19.6915390
  80.7501164  13.9513912  19.3114033  79.5737196  13.4817763  20.1405178
  84.8924677  13.6036608  21.7613063  84.2704687  12.9407313  21.4615291
  85.5629544  13.6297740  21.0786711  78.1251749  12.1696467  20.6504323
  77.2883657  11.7418641  20.4688325  78.0975395  12.3628910  21.5875114
  95.4504050  12.6259520  30.6346706  94.6599594  12.6083658  30.0951206
  95.2137405  13.1647813  31.3895743  84.4538184  12.1540532  15.2371524
  84.6026305  12.8375996  14.5838197  85.2604628  12.1345622  15.7520980
  82.2090817   8.1805709  16.2432593  81.9636859   7.2768039  16.4412803
  82.3786732   8.1822860  15.3012071  87.9533590  14.6488662  12.7083271
  87.3807557  15.2678849  12.2553743  88.5266383  15.1988024  13.2423193
  88.2219081  10.0367221  31.5099981  89.1422090  10.2145820  31.7040027
  88.1868664   9.0923266  31.3579680  77.4401246   5.2305815  20.4353255
  77.1204030   4.3771123  20.1427629  76.8934674   5.4454393  21.1911223
  81.2181153   7.9468256  24.1522762  81.4367163   8.8785363  24.1710796
  81.6306927   7.5876230  24.9377566  77.3089506   8.8508726  22.4046377
  76.6152977   8.4362679  21.8916331  78.0562497   8.8929263  21.8079796
  85.9540289   6.9498600  32.3590572  85.4707370   7.7498960  32.5654461
  86.0401228   6.9606545  31.4058016  79.2226248   8.7826980  20.2812392
  79.1996936   8.8814667  19.3294275  79.5326885   9.6292131  20.6029558
  81.8813626  10.8403135  24.3959006  82.8356880  10.8087077  24.3288938
  81.6826150  10.3793759  25.2109232  82.4713008   9.4104251  26.9629804
  83.2905897   9.9048330  26.9864641  82.7449816   8.4936219  26.9347371
  80.2363855  16.3822754  21.4129204  80.1018323  15.6223155  20.8467202
  79.8195917  17.1063654  20.9457993  83.3932981  17.2792071  21.6247647
  83.2765365  18.2237504  21.5226337  82.5725427  16.9765633  22.0133446
  77.7247922   3.7442385  27.6622001  78.3706786   3.2341339  28.1509226
  77.5165074   4.4811066  28.2365426  90.2501315  10.8123232  33.1614142
  91.1192474  10.9863885  32.8000776  89.7708066  11.6317649  33.0389871
  84.4187495  17.9320333  24.8403575  85.3214742  17.9643944  25.1570070
  84.1924865  17.0020784  24.8549911  86.1741097  16.6851320  21.5013654
  85.2236728  16.6853181  21.3878026  86.4773583  15.9384054  20.9849688
 101.9093790  22.5211858  22.5659416 102.5472200  22.4018606  21.8622756
 101.7914633  23.4692702  22.6247368  98.7183497  22.4739286  22.5020941
  98.3802008  22.3580351  21.6141476  99.5873265  22.0730451  22.4821947
  99.2003280  23.6274138  28.4607146  99.1891920  23.2326936  27.5887650
  99.3623919  22.8940211  29.0540918  92.1234744  25.8225954  21.3302052
  92.9156036  25.4816779  20.9148352  92.3631394  25.9320929  22.2504206
 100.1569871  27.9945730  13.8032297  99.5057851  28.5799811  13.4166311
 100.9514234  28.5251925  13.8627334  94.0825498  25.0834868  14.2019431
  94.8556374  24.5363855  14.0632307  94.4350897  25.9479117  14.4133892
  95.9210541  26.4111250  27.4086330  95.6300407  27.3156881  27.2932997
  96.5567525  26.4527778  28.1230400  96.8466748  23.7888098  23.9987690
  97.4430320  23.5644121  23.2844653  96.9041719  23.0472844  24.6013138
 104.3868906  13.8960119  25.0040211 104.0552231  14.7655530  24.7801426
 103.7914520  13.5796403  25.6834242 100.8800426  26.0972665  24.4036124
 100.5801149  26.9997704  24.2951931 100.5351485  25.8304849  25.2557277
  94.3312907  22.5486462  20.4372829  93.4063404  22.4162676  20.6450520
  94.5797321  23.3280682  20.9342771 104.2797570  18.6155206  22.0833561
 103.3714447  18.5470614  21.7892322 104.2285165  19.0927151  22.9115387
  91.6921718  22.1919736  21.2716618  91.8214100  22.4454215  22.1856029
  91.0119170  22.7847444  20.9521273  95.8621206  32.8616986  17.3707092
  95.7845235  33.8124811  17.4495572  95.2582849  32.5162858  18.0282018
  98.3538435  20.0344851  30.0268459  97.5771770  20.5938771  30.0171323
  98.9928999  20.5201634  30.5483329  96.6084808  22.8430305  29.5886426
  97.3499492  23.3815349  29.3121249  95.9021793  23.4696593  29.7457977
 102.0840147  24.9859445  28.1858587 102.4923503  24.5441856  27.4413220
 101.3617409  24.4112073  28.4392780  98.4371217  19.9232052  25.5592144
  99.2832413  20.3471465  25.7026793  98.3769855  19.2665676  26.2530707
 102.4068962  25.5460636  21.9410876 101.7777825  25.7106350  21.2386944
 102.0194624  25.9602245  22.7121840 106.2858194  26.4815073  19.2955240
 105.6009232  26.8613975  18.7452273 106.3702043  27.0910400  20.0287188
 101.5870663  17.5836420  27.2173318 101.3431595  18.3378481  26.6807593
 101.8630593  17.9621768  28.0520565 103.5409126  24.1275033  25.8950583
 103.7526021  24.7706792  25.2184964 103.4938874  23.2937349  25.4272513
  94.8521005  24.8306525  22.1440724  95.4222362  25.2593794  21.5058209
  95.4429117  24.5489110  22.8424910  96.8965810  21.4058196  16.0150526
  97.5989853  21.8579240  16.4824453  96.5646439  20.7642015  16.6430419
  95.3446172  19.9969953  30.3901736  94.7144832  20.6786234  30.6237132
  95.2382259  19.8853034  29.4454874  90.6391144  19.6641749  21.3167660
  89.8490198  19.9199277  20.8407770  91.1302391  20.4790087  21.4219700
 104.6554954  27.0046988  24.0672941 105.4772397  26.6027175  23.7855622
 104.6517356  26.9015222  25.0189056  92.5905889  20.0286328  18.2751137
  91.7937053  20.1405022  18.7934632  92.3631482  20.3672980  17.4092027
  98.4211557  26.5531031  26.2233651  98.4855989  27.0151438  27.0591823
  97.7122481  25.9228396  26.3515961  88.9228847  19.9172239  23.7482651
  89.1736885  20.8019249  24.0140227  89.4588395  19.7376841  22.9757742
  98.1359575  28.2199139  16.0912631  98.0005249  29.0650674  16.5197479
  98.6769387  28.4218416  15.3278565  94.6226914  14.2990719  32.7526987
  94.2293860  13.7456917  33.4274631  95.4393055  14.6101297  33.1433504
  91.5888972  25.7374577  16.6640557  92.1013493  26.5317827  16.8146121
  92.2411685  25.0400867  16.5974158  93.3983857  28.8540333  18.7463310
  93.5750485  29.7758298  18.5584294  94.1940690  28.5398752  19.1757690
  97.5394875  15.7148598  30.3447243  98.2804589  16.3155751  30.2651706
  97.7712798  14.9726235  29.7865286  92.6836213  20.9004965  28.6225473
  92.5689728  19.9990222  28.9232572  91.8280731  21.1468662  28.2710290
  99.7628051  28.8422705  30.2212974  99.3191905  28.0559084  29.9033878
 100.4245265  29.0301856  29.5556864  94.5215172  30.3718507  24.7473652
  95.0722597  30.2435570  23.9750646  93.6826648  30.6713396  24.3968545
 101.8609289  29.1225505  28.2494375 101.8427764  29.9434386  27.7574644
 102.7829209  28.9979580  28.4744516  98.3182343  26.6369635  29.0917883
  98.8510680  25.8757923  28.8617191  97.7896424  26.3443286  29.8342038
  89.5537889  24.0663231  17.4400127  90.3913111  24.4760239  17.2233835
  89.7316156  23.1262673  17.4100321 100.5648579  14.1134356  22.5860758
 100.0613374  14.0764491  21.7728563 100.8579185  15.0227098  22.6457415
  96.8091464  14.1973085  21.5926940  97.6744461  14.0015894  21.2332829
  96.8768973  13.9683437  22.5196297  99.6835056  25.7655627  16.6036695
  99.1556418  25.0308387  16.2909933  99.1822559  26.5430303  16.3576664
 104.6627902  23.9604648  21.7203742 104.0051576  24.6503909  21.8083870
 105.4668301  24.3501080  22.0637728  94.4153784  16.4275293  18.9643307
  94.9897535  16.2050475  18.2316500  95.0024766  16.4963988  19.7171908
 100.7355735  32.2933345  12.5268354 100.0617434  32.5965041  13.1353312
 101.1221557  33.0962425  12.1773811  99.9514192  19.7898476  22.0166024
  99.0336753  20.0113423  21.8587712 100.3674335  19.8644786  21.1577731
 104.2395157  27.2955022  17.8986826 103.7857484  26.4545932  17.9552016
 103.6089124  27.9316420  18.2361606 102.6828096  29.1331518  18.8336644
 102.9751071  29.6936576  18.1149010 103.1926717  29.4260079  19.5889803
  97.5560784  21.2977053  20.2305454  97.6109393  20.3450889  20.1547930
  96.7451986  21.4536492  20.7146752  97.6461721  29.9111870  19.9230097
  97.6037900  30.1372716  18.9938629  98.5624420  29.6775244  20.0715898
 101.0927355  20.3795937  26.8210726 101.4476743  20.6067410  27.6805192
 101.7399486  20.7114314  26.1987982  94.9867218  17.4872468  23.6057068
  95.6266598  17.3461227  22.9080031  94.1544749  17.2006982  23.2295670
 106.8494472  25.5690900  22.5371327 107.2830978  25.4766189  23.3854381
 107.5626052  25.5448400  21.8991343  95.7627522  26.7874899  19.7192060
  96.5568121  26.2925219  19.5174635  95.0519215  26.2592762  19.3559766
 100.5822367  29.1692994  24.0704428 100.6359389  29.7383930  24.8382144
  99.7137148  29.3394879  23.7058465  92.0710286  20.9317980  15.7951813
  91.1407874  20.8702436  16.0121775  92.1667758  20.4093933  14.9988454
  91.9895835  17.4572793  18.3830054  92.2502652  18.3718126  18.2739215
  92.8113007  16.9897236  18.5326667  93.4620760  18.8710550  25.5528879
  94.1343813  18.6627912  24.9041528  92.6350547  18.6732636  25.1134111
 107.7110021  25.6114601  25.0704212 107.9045911  26.5160411  25.3163487
 107.6110639  25.1522020  25.9042797  99.3646332  15.4972491  27.5694540
  98.7174247  16.1962441  27.4759016 100.1347347  15.9308635  27.9370788
 102.7725130  25.7621343  30.6445093 102.6210636  25.5331895  29.7275177
 102.7629809  26.7191945  30.6576438  99.5410466  23.3353256  25.6291359
 100.4702526  23.4864416  25.4560327  99.1201496  23.4237277  24.7740006
  98.3398798  27.3603921  23.3989897  98.2009884  26.9922705  24.2715835
  97.5513394  27.8751560  23.2273855  98.9346950  32.4613017  14.7415434
  99.1098706  31.9901060  15.5561056  98.2479738  33.0878783  14.9696694
  99.8904013  26.7385523  20.7878735  99.5553846  26.6986293  21.6836385
  99.3907959  26.0730239  20.3149145  93.8648257  22.1453153  26.3131316
  93.7268055  21.4133392  26.9142855  94.7753181  22.0562053  26.0315504
  96.4930558  21.8573113  25.8014996  97.2030176  21.2166305  25.7601614
  96.4499866  22.1086007  26.7241176 104.4817337  28.7940466  28.7221575
 104.4229883  28.1099686  28.0552158 104.8836855  29.5359456  28.2702201
  95.2059492  18.8438330  27.6210635  94.6696849  18.3929069  28.2732231
  94.6176200  18.9784239  26.8781100  93.5008035  35.6102380  21.5155294
  93.7404634  36.2420904  22.1934312  92.6577232  35.2590420  21.8020653
 104.4834744  26.7580050  26.9535555 103.5961523  26.4205972  27.0761953
 105.0533295  26.0263081  27.1904320  86.1363891  23.0904142  20.2778606
  86.8234931  22.7765872  19.6899621  85.9812020  23.9945506  20.0045857
  90.9398613  17.9794338  24.7063630  90.8556802  17.3720008  23.9714040
  90.1181320  18.4703356  24.7073126  98.0135897  31.4181502  23.9196798
  97.9406069  32.2236474  24.4316102  97.5713290  31.6173468  23.0944819
  97.8025677  30.6553272  17.4299619  97.0193199  31.1974952  17.5237844
  98.5018422  31.1727252  17.8293860 100.4734581  31.3168336  26.0754956
 101.1862553  31.9515801  26.0030858  99.9824609  31.4132202  25.2594958
 102.1952108  25.2219589  17.6472248 101.2608386  25.3421051  17.4776952
 102.3728776  24.3192056  17.3832258  95.5246494  29.0662780  26.8960527
  96.2255954  29.6999263  27.0489921  95.0541609  29.4077511  26.1356167
 103.3247780  21.6207387  24.7213078 102.6719231  21.8683295  24.0665530
 103.7028160  20.8071525  24.3875555 100.2854954  31.6567080  18.8241248
 100.4677349  30.8388736  19.2869000 101.1087940  31.8734773  18.3866138
 100.6197120  30.5835265  16.0856296 101.1484886  30.0727720  15.4726458
 100.8825339  30.2677796  16.9501829  99.3735353  22.3627198  31.2079115
  98.6975990  22.2621328  31.8781490 100.1962987  22.2066412  31.6715112
  91.1214212  28.5999135  23.8291630  91.7067649  27.8542823  23.9619534
  90.9239051  28.9103091  24.7128294  93.9752868  31.6350382  18.8454072
  93.3063243  32.1196510  18.3618112  93.8365737  31.8819603  19.7597451
  85.7131867  21.1704735  22.5496073  85.7515967  20.6368326  23.3433191
  85.2072160  20.6439940  21.9307050  98.1158136  33.6694126  25.4436731
  98.6676444  33.8325747  26.2085816  98.4564330  34.2598563  24.7716756
  93.0922629  16.0169275  26.0458615  93.1563956  16.8784106  25.6336013
  93.0289750  15.4043277  25.3130974  92.5674902  18.0892408  29.6931650
  93.1946941  17.7069485  30.3069174  91.7102821  17.8706610  30.0587342
 102.9669011  28.4955383  31.2985385 103.5108915  29.1085341  30.8040340
 102.3855855  29.0534962  31.8152398  89.3440445  19.8968837  15.6250004
  89.6393886  18.9879516  15.5717058  88.4428480  19.8756577  15.3031007
 101.2526523  31.6176101  22.4300413 101.1277663  30.8165841  21.9211358
 101.9105615  32.1122295  21.9414383  92.8734692  17.9724834  21.6077553
  92.1521277  18.5860801  21.4685026  93.6627947  18.5082599  21.5294199
 103.3161432  29.4185121  24.0579963 102.3691767  29.2990472  23.9858290
 103.6644205  28.5307619  24.1406224  95.6761005  15.3079260  27.8818205
  96.1995407  15.5541557  28.6444514  95.4573339  16.1399295  27.4621342
  91.0728286  17.5782935  15.7489330  90.7440992  16.6980314  15.5664436
  91.4267657  17.5230603  16.6365719 100.3207865  29.2137837  20.2584315
 100.1732828  28.2854545  20.4391885 101.1461359  29.2357928  19.7741390
  94.1870109  17.8655905  16.1164807  94.5266182  18.3941826  15.3943416
  94.6342230  18.2036311  16.8923374 103.9241987  30.0366396  21.3449188
 104.8488534  29.8309258  21.2073639 103.7557290  29.7882797  22.2538529
  96.8813550  16.2492955  25.5667875  96.5410371  15.4500768  25.9688555
  96.1752557  16.5494666  24.9944709  97.5330022  13.3342268  24.0195198
  98.3556091  12.8602746  23.8974089  97.7768086  14.1132751  24.5193885
  95.0568601  20.0261388  21.8287177  94.9113182  20.3401691  22.7211458
  94.5793804  20.6446289  21.2758076  96.9164984  17.0163936  21.8768067
  96.9026553  16.1205030  21.5400364  97.6337412  17.0234600  22.5106353
  98.7691114  17.4501277  23.9221194  98.5108892  18.3718347  23.9205524
  98.2376155  17.0531711  24.6121658 103.7137303  30.5552064  16.7011279
 103.8874181  29.9898486  15.9485132 104.2066194  31.3552959  16.5190769
  89.5314263  22.5666733  24.7674838  88.9867731  23.3426541  24.8995112
  90.4093613  22.9137537  24.6093960  90.3180285  21.6936629  27.6604995
  89.5762021  21.8419264  28.2469625  89.9973029  21.9544895  26.7971744
  98.2623948  31.2352607  27.4585385  98.5711074  30.9901754  28.3308085
  99.0599430  31.4399246  26.9704255  98.2844560  33.3890517  19.6890762
  97.8449550  32.8966896  20.3823618  99.0352677  32.8463485  19.4482837
  90.7636899  29.5802058  19.6915390  91.5894918  29.2805830  19.3114033
  90.4130951  28.8109680  20.1405178  95.7318432  28.9328526  21.7613063
  95.1098441  28.2699231  21.4615291  96.4023299  28.9589658  21.0786711
  88.9645504  27.4988384  20.6504323  88.1277412  27.0710559  20.4688325
  88.9369149  27.6920828  21.5875114  95.8042959  17.4110314  31.3545569
  95.8531115  18.2872437  30.9723339  96.3465473  16.8687707  30.7817213
 106.2897805  27.9551437  30.6346706 105.4993349  27.9375576  30.0951206
 106.0531159  28.4939731  31.3895743 106.4095680  24.8043904  27.9479435
 106.4593685  24.6393911  28.8894958 106.3009603  23.9371163  27.5577316
 103.6999442  20.7874832  29.2638742 104.6009305  20.6481297  28.9722739
 103.7747417  20.9529286  30.2036919  98.0342248  18.1641686  28.1091928
  97.1645557  18.4575252  27.8374516  98.2701728  18.7482131  28.8299192
 107.9113877  27.2240845  28.1921456 107.6198685  27.5870826  29.0284917
 107.2986008  26.5107853  28.0134789 106.1601065  22.3473460  26.6601514
 106.6355187  22.5401106  25.8520366 105.2366630  22.4032646  26.4144898
  93.0484572  23.5097627  16.2432593  92.8030614  22.6059957  16.4412803
  93.2180486  23.5114777  15.3012071  92.3180219  19.2425985  13.7418754
  91.6249464  19.3170340  13.0858790  92.0731971  18.4786328  14.2640271
  98.7927344  29.9780580  12.7083271  98.2201311  30.5970767  12.2553743
  99.3660138  30.5279941  13.2423193 104.8602734  19.2239220  24.8929820
 105.8120157  19.3237318  24.9142044 104.6906184  18.4317488  25.4027904
 102.8817113  16.3094803  25.0789221 102.2867046  16.5899816  24.3835710
 102.5966810  16.7988704  25.8505962 107.3390812  22.4445340  24.0072120
 107.3067132  21.5061340  24.1931804 107.9491435  22.5229376  23.2737945
  99.0612835  25.3659139  31.5099981  99.9815845  25.5437738  31.7040027
  99.0262418  24.4215184  31.3579680  88.2795000  20.5597732  20.4353255
  87.9597785  19.7063041  20.1427629  87.7328428  20.7746310  21.1911223
  92.0574908  23.2760173  24.1522762  92.2760918  24.2077281  24.1710796
  92.4700682  22.9168148  24.9377566  96.9302773  18.8493379  33.5425511
  96.8299500  19.7987736  33.4737602  96.7124315  18.5211618  32.6701581
  88.1483260  24.1800644  22.4046377  87.4546732  23.7654597  21.8916331
  88.8956251  24.2221180  21.8079796  96.7934043  22.2790518  32.3590572
  96.3101125  23.0790878  32.5654461  96.8794982  22.2898463  31.4058016
  90.0620003  24.1118898  20.2812392  90.0390691  24.2106585  19.3294275
  90.3720639  24.9584048  20.6029558  92.7207381  26.1695053  24.3959006
  93.6750634  26.1378995  24.3288938  92.5219904  25.7085676  25.2109232
  93.3106763  24.7396169  26.9629804  94.1299652  25.2340247  26.9864641
  93.5843570  23.8228137  26.9347371  91.0757609  31.7114672  21.4129204
  90.9412077  30.9515073  20.8467202  90.6589672  32.4355572  20.9457993
  94.2326735  32.6083989  21.6247647  94.1159119  33.5529422  21.5226337
  93.4119182  32.3057551  22.0133446  88.5641677  19.0734303  27.6622001
  89.2100541  18.5633257  28.1509226  88.3558828  19.8102984  28.2365426
 101.0895069  26.1415150  33.1614142 101.9586229  26.3155802  32.8000776
 100.6101821  26.9609567  33.0389871  95.2581249  33.2612251  24.8403575
  96.1608496  33.2935861  25.1570070  95.0318619  32.3312702  24.8549911
  97.0134851  32.0143238  21.5013654  96.0630482  32.0145099  21.3878026
  97.3167338  31.2675972  20.9849688  92.9039168  16.2201920  31.7597015
  93.7670630  15.8638724  31.9700340  92.3304579  15.8815814  32.4472419
 112.7487545  37.8503776  22.5659416 113.3865955  37.7310523  21.8622756
 112.6308388  38.7984620  22.6247368 109.5577251  37.8031204  22.5020941
 109.2195763  37.6872269  21.6141476 110.4267019  37.4022369  22.4821947
 105.4164067  39.6566680  18.4917832 104.8528932  39.5656617  17.7234120
 105.3016462  38.8366585  18.9720324 110.0397034  38.9566056  28.4607146
 110.0285675  38.5618854  27.5887650 110.2017674  38.2232128  29.0540918
 102.9628499  41.1517872  21.3302052 103.7549791  40.8108697  20.9148352
 103.2025149  41.2612847  22.2504206 110.9963626  43.3237648  13.8032297
 110.3451605  43.9091729  13.4166311 111.7907988  43.8543843  13.8627334
 104.9219253  40.4126785  14.2019431 105.6950129  39.8655772  14.0632307
 105.2744652  41.2771035  14.4133892 106.7604295  41.7403168  27.4086330
 106.4694161  42.6448798  27.2932997 107.3961280  41.7819695  28.1230400
 107.6860502  39.1180016  23.9987690 108.2824074  38.8936039  23.2844653
 107.7435474  38.3764762  24.6013138 106.9781819  38.4747557  14.0362256
 106.8618077  37.7992461  14.7043340 107.0884079  37.9879931  13.2194409
 109.3213360  37.9357704  17.7408945 108.9571567  37.4088325  18.4521867
 110.1780476  37.5456174  17.5675431 115.2262661  29.2252037  25.0040211
 114.8945986  30.0947448  24.7801426 114.6308274  28.9088321  25.6834242
 111.7194180  41.4264583  24.4036124 111.4194903  42.3289622  24.2951931
 111.3745240  41.1596766  25.2557277 105.1706662  37.8778380  20.4372829
 104.2457158  37.7454594  20.6450520 105.4191075  38.6572599  20.9342771
 115.1191324  33.9447123  22.0833561 114.2108202  33.8762532  21.7892322
 115.0678920  34.4219068  22.9115387 102.5315473  37.5211653  21.2716618
 102.6607854  37.7746132  22.1856029 101.8512924  38.1139361  20.9521273
 106.7014960  48.1908903  17.3707092 106.6238990  49.1416729  17.4495572
 106.0976604  47.8454776  18.0282018 109.1932190  35.3636769  30.0268459
 108.4165524  35.9230689  30.0171323 109.8322753  35.8493552  30.5483329
 107.4478562  38.1722222  29.5886426 108.1893247  38.7107266  29.3121249
 106.7415548  38.7988511  29.7457977 112.9233902  40.3151363  28.1858587
 113.3317258  39.8733773  27.4413220 112.2011163  39.7403990  28.4392780
 109.2764972  35.2523969  25.5592144 110.1226167  35.6763383  25.7026793
 109.2163610  34.5957594  26.2530707 113.2462717  40.8752553  21.9410876
 112.6171579  41.0398267  21.2386944 112.8588379  41.2894163  22.7121840
 117.1251948  41.8106991  19.2955240 116.4402987  42.1905893  18.7452273
 117.2095798  42.4202318  20.0287188 112.4264417  32.9128338  27.2173318
 112.1825349  33.6670398  26.6807593 112.7024348  33.2913685  28.0520565
 114.3802880  39.4566950  25.8950583 114.5919775  40.0998710  25.2184964
 114.3332628  38.6229267  25.4272513 111.9829109  32.0684771  22.7987155
 111.1213588  32.3666024  23.0903893 112.0091544  32.2855170  21.8668188
 108.7990678  40.6126961  19.2060961 109.2629024  40.8914664  18.4165584
 108.5347477  39.7110406  19.0234052 105.6914760  40.1598443  22.1440724
 106.2616117  40.5885711  21.5058209 106.2822871  39.8781028  22.8424910
 107.7359565  36.7350114  16.0150526 108.4383608  37.1871157  16.4824453
 107.4040193  36.0933933  16.6430419 106.1839926  35.3261870  30.3901736
 105.5538587  36.0078151  30.6237132 106.0776014  35.2144952  29.4454874
 101.4784898  34.9933666  21.3167660 100.6883952  35.2491195  20.8407770
 101.9696146  35.8082004  21.4219700 115.4948708  42.3338906  24.0672941
 116.3166152  41.9319093  23.7855622 115.4911111  42.2307140  25.0189056
 103.4299644  35.3578246  18.2751137 102.6330807  35.4696940  18.7934632
 103.2025236  35.6964898  17.4092027 109.2605311  41.8822949  26.2233651
 109.3249744  42.3443356  27.0591823 108.5516235  41.2520314  26.3515961
  99.7622601  35.2464157  23.7482651 100.0130640  36.1311167  24.0140227
 100.2982150  35.0668758  22.9757742 108.9753329  43.5491056  16.0912631
 108.8399004  44.3942592  16.5197479 109.5163142  43.7510334  15.3278565
 105.4620669  29.6282636  32.7526987 105.0687614  29.0748835  33.4274631
 106.2786809  29.9393215  33.1433504 102.4282727  41.0666494  16.6640557
 102.9407247  41.8609745  16.8146121 103.0805439  40.3692785  16.5974158
 104.2377611  44.1832251  18.7463310 104.4144240  45.1050215  18.5584294
 105.0334445  43.8690670  19.1757690 108.3788630  31.0440515  30.3447243
 109.1198343  31.6447668  30.2651706 108.6106553  30.3018153  29.7865286
 103.5229968  36.2296883  28.6225473 103.4083483  35.3282140  28.9232572
 102.6674486  36.4760579  28.2710290 110.6021805  44.1714623  30.2212974
 110.1585660  43.3851001  29.9033878 111.2639019  44.3593773  29.5556864
 105.3608927  45.7010425  24.7473652 105.9116352  45.5727488  23.9750646
 104.5220403  46.0005314  24.3968545 112.7003044  44.4517423  28.2494375
 112.6821519  45.2726304  27.7574644 113.6222964  44.3271498  28.4744516
 109.1576098  41.9661552  29.0917883 109.6904435  41.2049841  28.8617191
 108.6290179  41.6735204  29.8342038 100.3931643  39.3955149  17.4400127
 101.2306865  39.8052157  17.2233835 100.5709911  38.4554591  17.4100321
 111.4042333  29.4426273  22.5860758 110.9007129  29.4056409  21.7728563
 111.6972940  30.3519016  22.6457415 107.6485219  29.5265003  21.5926940
 108.5138216  29.3307812  21.2332829 107.7162728  29.2975355  22.5196297
 110.5228810  41.0947545  16.6036695 109.9950172  40.3600304  16.2909933
 110.0216313  41.8722221  16.3576664 115.5021656  39.2896565  21.7203742
 114.8445331  39.9795827  21.8083870 116.3062056  39.6792997  22.0637728
 105.2547538  31.7567211  18.9643307 105.8291290  31.5342393  18.2316500
 105.8418520  31.8255906  19.7171908 111.5749489  47.6225262  12.5268354
 110.9011188  47.9256959  13.1353312 111.9615311  48.4254343  12.1773811
 110.7907946  35.1190394  22.0166024 109.8730507  35.3405341  21.8587712
 111.2068090  35.1936704  21.1577731 115.0788911  42.6246939  17.8986826
 114.6251239  41.7837849  17.9552016 114.4482878  43.2608338  18.2361606
 113.5221851  44.4623436  18.8336644 113.8144825  45.0228493  18.1149010
 114.0320471  44.7551997  19.5889803 100.4157814  36.7345864  18.1110861
 100.2182214  36.1415225  17.3861927  99.8604478  36.4298074  18.8286799
 108.3954538  36.6268971  20.2305454 108.4503148  35.6742807  20.1547930
 107.5845740  36.7828410  20.7146752 106.3346898  35.2446030  17.9895833
 105.5214764  35.5440201  18.3961025 106.8305892  34.8501719  18.7070315
 108.4855476  45.2403787  19.9230097 108.4431655  45.4664634  18.9938629
 109.4018175  45.0067162  20.0715898 111.9321110  35.7087855  26.8210726
 112.2870497  35.9359328  27.6805192 112.5793241  36.0406232  26.1987982
 105.8260973  32.8164386  23.6057068 106.4660352  32.6753145  22.9080031
 104.9938503  32.5298899  23.2295670 117.6888226  40.8982818  22.5371327
 118.1224733  40.8058107  23.3854381 118.4019807  40.8740318  21.8991343
 106.6021277  42.1166816  19.7192060 107.3961875  41.6217136  19.5174635
 105.8912969  41.5884679  19.3559766 111.4216121  44.4984912  24.0704428
 111.4753143  45.0675848  24.8382144 110.5530903  44.6686797  23.7058465
 102.9104040  36.2609898  15.7951813 101.9801628  36.1994353  16.0121775
 103.0061512  35.7385851  14.9988454 102.8289589  32.7864711  18.3830054
 103.0896406  33.7010044  18.2739215 103.6506762  32.3189153  18.5326667
 104.3014515  34.2002468  25.5528879 104.9737568  33.9919830  24.9041528
 103.4744301  34.0024554  25.1134111 118.5503776  40.9406518  25.0704212
 118.7439666  41.8452329  25.3163487 118.4504394  40.4813937  25.9042797
 110.2040087  30.8264409  27.5694540 109.5568002  31.5254359  27.4759016
 110.9741102  31.2600553  27.9370788 113.6118884  41.0913261  30.6445093
 113.4604391  40.8623813  29.7275177 113.6023564  42.0483862  30.6576438
 110.3804221  38.6645174  25.6291359 111.3096281  38.8156333  25.4560327
 109.9595251  38.7529195  24.7740006 109.1792553  42.6895838  23.3989897
 109.0403638  42.3214623  24.2715835 108.3907149  43.2043478  23.2273855
 109.7740705  47.7904935  14.7415434 109.9492460  47.3192978  15.5561056
 109.0873493  48.4170701  14.9696694 110.7297768  42.0677441  20.7878735
 110.3947600  42.0278211  21.6836385 110.2301713  41.4022157  20.3149145
 104.7042012  37.4745071  26.3131316 104.5661810  36.7425310  26.9142855
 105.6146935  37.3853971  26.0315504 107.3324312  37.1865030  25.8014996
 108.0423931  36.5458222  25.7601614 107.2893621  37.4377925  26.7241176
 115.3211091  44.1232384  28.7221575 115.2623637  43.4391604  28.0552158
 115.7230609  44.8651374  28.2702201 106.0453246  34.1730248  27.6210635
 105.5090603  33.7220987  28.2732231 105.4569955  34.3076157  26.8781100
 104.3401790  50.9394297  21.5155294 104.5798388  51.5712822  22.1934312
 103.4970986  50.5882337  21.8020653 115.3228498  42.0871968  26.9535555
 114.4355277  41.7497889  27.0761953 115.8927049  41.3554999  27.1904320
  96.9757646  38.4196059  20.2778606  97.6628685  38.1057789  19.6899621
  96.8205774  39.3237424  20.0045857 101.7792368  33.3086256  24.7063630
 101.6950556  32.7011925  23.9714040 100.9575074  33.7995274  24.7073126
 108.8529652  46.7473420  23.9196798 108.7799823  47.5528391  24.4316102
 108.4107045  46.9465386  23.0944819 108.6419431  45.9845190  17.4299619
 107.8586953  46.5266870  17.5237844 109.3412177  46.5019170  17.8293860
 111.3128335  46.6460254  26.0754956 112.0256308  47.2807719  26.0030858
 110.8218364  46.7424120  25.2594958 113.0345862  40.5511507  17.6472248
 112.1002141  40.6712969  17.4776952 113.2122531  39.6483973  17.3832258
 108.5351050  33.9357202  19.8005509 108.1648838  33.3828243  20.4886415
 109.0310143  33.3315336  19.2480509 106.3640249  44.3954697  26.8960527
 107.0649708  45.0291180  27.0489921 105.8935364  44.7369429  26.1356167
 114.1641535  36.9499305  24.7213078 113.5112985  37.1975212  24.0665530
 114.5421915  36.1363443  24.3875555 111.1248709  46.9858998  18.8241248
 111.3071103  46.1680654  19.2869000 111.9481695  47.2026690  18.3866138
 111.4590874  45.9127183  16.0856296 111.9878641  45.4019638  15.4726458
 111.7219094  45.5969713  16.9501829 110.2129108  37.6919116  31.2079115
 109.5369745  37.5913245  31.8781490 111.0356742  37.5358330  31.6715112
 101.9607967  43.9291052  23.8291630 102.5461404  43.1834740  23.9619534
 101.7632805  44.2395009  24.7128294 104.8146622  46.9642300  18.8454072
 104.1456997  47.4488427  18.3618112 104.6759492  47.2111520  19.7597451
  96.5525622  36.4996653  22.5496073  96.5909721  35.9660243  23.3433191
  96.0465914  35.9731858  21.9307050 108.9551891  48.9986043  25.4436731
 109.5070199  49.1617665  26.2085816 109.2958084  49.5890481  24.7716756
 103.9316384  31.3461193  26.0458615 103.9957710  32.2076024  25.6336013
 103.8683504  30.7335195  25.3130974 103.4068656  33.4184326  29.6931650
 104.0340695  33.0361403  30.3069174 102.5496575  33.1998528  30.0587342
 113.8062765  43.8247301  31.2985385 114.3502669  44.4377259  30.8040340
 113.2249610  44.3826879  31.8152398 100.1834199  35.2260755  15.6250004
 100.4787640  34.3171433  15.5717058  99.2822235  35.2048494  15.3031007
 112.0920278  46.9468019  22.4300413 111.9671417  46.1457759  21.9211358
 112.7499369  47.4414212  21.9414383 103.7128446  33.3016751  21.6077553
 102.9915032  33.9152719  21.4685026 104.5021702  33.8374516  21.5294199
 114.1555186  44.7477039  24.0579963 113.2085522  44.6282390  23.9858290
 114.5037959  43.8599537  24.1406224 106.5154760  30.6371178  27.8818205
 107.0389162  30.8833474  28.6444514 106.2967093  31.4691213  27.4621342
 101.9122041  32.9074852  15.7489330 101.5834747  32.0272231  15.5664436
 102.2661411  32.8522521  16.6365719 111.1601620  44.5429755  20.2584315
 111.0126582  43.6146463  20.4391885 111.9855113  44.5649846  19.7741390
 105.0263864  33.1947822  16.1164807 105.3659936  33.7233744  15.3943416
 105.4735984  33.5328228  16.8923374 114.7635742  45.3658314  21.3449188
 115.6882289  45.1601175  21.2073639 114.5951045  45.1174715  22.2538529
 107.7207305  31.5784873  25.5667875 107.3804125  30.7792686  25.9688555
 107.0146311  31.8786584  24.9944709 108.3723777  28.6634185  24.0195198
 109.1949846  28.1894664  23.8974089 108.6161840  29.4424669  24.5193885
 105.8962355  35.3553306  21.8287177 105.7506936  35.6693609  22.7211458
 105.4187559  35.9738206  21.2758076 107.7558738  32.3455854  21.8768067
 107.7420307  31.4496947  21.5400364 108.4731166  32.3526518  22.5106353
 109.6084869  32.7793194  23.9221194 109.3502647  33.7010265  23.9205524
 109.0769909  32.3823629  24.6121658 114.5531058  45.8843981  16.7011279
 114.7267935  45.3190404  15.9485132 115.0459949  46.6844876  16.5190769
 100.3708018  37.8958650  24.7674838  99.8261486  38.6718458  24.8995112
 101.2487367  38.2429455  24.6093960 101.1574039  37.0228547  27.6604995
 100.4155775  37.1711182  28.2469625 100.8366784  37.2836812  26.7971744
 109.1017702  46.5644525  27.4585385 109.4104828  46.3193672  28.3308085
 109.8993184  46.7691163  26.9704255 109.1238314  48.7182435  19.6890762
 108.6843304  48.2258813  20.3823618 109.8746431  48.1755402  19.4482837
 101.6030653  44.9093975  19.6915390 102.4288673  44.6097747  19.3114033
 101.2524705  44.1401598  20.1405178 106.5712186  44.2620444  21.7613063
 105.9492196  43.5991149  21.4615291 107.2417053  44.2881576  21.0786711
  99.8039258  42.8280302  20.6504323  98.9671166  42.4002476  20.4688325
  99.7762904  43.0212745  21.5875114 106.6436714  32.7402232  31.3545569
 106.6924869  33.6164354  30.9723339 107.1859228  32.1979625  30.7817213
 117.1291559  43.2843355  30.6346706 116.3387103  43.2667494  30.0951206
 116.8924914  43.8231649  31.3895743 117.2489434  40.1335821  27.9479435
 117.2987439  39.9685829  28.8894958 117.1403358  39.2663080  27.5577316
 106.1325693  42.8124367  15.2371524 106.2813814  43.4959831  14.5838197
 106.9392137  42.7929457  15.7520980 114.5393197  36.1166749  29.2638742
 115.4403060  35.9773214  28.9722739 114.6141171  36.2821204  30.2036919
 108.8736002  33.4933604  28.1091928 108.0039312  33.7867170  27.8374516
 109.1095483  34.0774049  28.8299192 118.7507631  42.5532763  28.1921456
 118.4592440  42.9162743  29.0284917 118.1379763  41.8399771  28.0134789
 116.9994820  37.6765377  26.6601514 117.4748941  37.8693024  25.8520366
 116.0760385  37.7324563  26.4144898 103.8878326  38.8389545  16.2432593
 103.6424368  37.9351875  16.4412803 104.0574241  38.8406695  15.3012071
 111.5775036  29.7113221  25.6257348 112.0956980  30.4474248  25.3003837
 111.2230169  30.0177214  26.4604107 103.1573974  34.5717902  13.7418754
 102.4643219  34.6462257  13.0858790 102.9125726  33.8078246  14.2640271
 109.6321099  45.3072497  12.7083271 109.0595066  45.9262685  12.2553743
 110.2053892  45.8571859  13.2423193 115.6996489  34.5531138  24.8929820
 116.6513911  34.6529235  24.9142044 115.5299939  33.7609406  25.4027904
 113.7210868  31.6386721  25.0789221 113.1260800  31.9191733  24.3835710
 113.4360565  32.1280622  25.8505962 118.1784566  37.7737257  24.0072120
 118.1460886  36.8353258  24.1931804 118.7885190  37.8521294  23.2737945
 109.9006590  40.6951056  31.5099981 110.8209599  40.8729655  31.7040027
 109.8656173  39.7507102  31.3579680  99.1188755  35.8889650  20.4353255
  98.7991539  35.0354958  20.1427629  98.5722183  36.1038228  21.1911223
 102.8968662  38.6052091  24.1522762 103.1154672  39.5369199  24.1710796
 103.3094436  38.2460065  24.9377566 107.7696528  34.1785297  33.5425511
 107.6693254  35.1279654  33.4737602 107.5518070  33.8503536  32.6701581
  98.9877015  39.5092561  22.4046377  98.2940486  39.0946514  21.8916331
  99.7350006  39.5513098  21.8079796 107.6327798  37.6082436  32.3590572
 107.1494879  38.4082796  32.5654461 107.7188737  37.6190380  31.4058016
 100.9013757  39.4410815  20.2812392 100.8784445  39.5398503  19.3294275
 101.2114394  40.2875966  20.6029558 103.5601135  41.4986970  24.3959006
 104.5144389  41.4670913  24.3288938 103.3613659  41.0377594  25.2109232
 104.1500517  40.0688086  26.9629804 104.9693406  40.5632165  26.9864641
 104.4237325  39.1520054  26.9347371 101.9151364  47.0406590  21.4129204
 101.7805832  46.2806991  20.8467202 101.4983426  47.7647490  20.9457993
 105.0720490  47.9375907  21.6247647 104.9552874  48.8821339  21.5226337
 104.2512936  47.6349468  22.0133446  99.4035431  34.4026220  27.6622001
 100.0494295  33.8925174  28.1509226  99.1952583  35.1394902  28.2365426
 111.9288824  41.4707068  33.1614142 112.7979983  41.6447720  32.8000776
 111.4495575  42.2901485  33.0389871 106.0975004  48.5904169  24.8403575
 107.0002251  48.6227779  25.1570070 105.8712374  47.6604620  24.8549911
 107.8528606  47.3435155  21.5013654 106.9024237  47.3437017  21.3878026
 108.1561092  46.5967890  20.9849688 103.7432922  31.5493837  31.7597015
 104.6064384  31.1930642  31.9700340 103.1698333  31.2107732  32.4472419
 120.3971006  53.1323122  22.5020941 120.0589517  53.0164186  21.6141476
 121.2660774  52.7314287  22.4821947 116.2557821  54.9858598  18.4917832
 115.6922687  54.8948535  17.7234120 116.1410216  54.1658503  18.9720324
 120.8790789  54.2857973  28.4607146 120.8679429  53.8910772  27.5887650
 121.0411428  53.5524046  29.0540918 113.8022253  56.4809790  21.3302052
 114.5943545  56.1400614  20.9148352 114.0418903  56.5904765  22.2504206
 115.7613007  55.7418703  14.2019431 116.5343883  55.1947690  14.0632307
 116.1138406  56.6062952  14.4133892 117.5998050  57.0695085  27.4086330
 117.3087916  57.9740716  27.2932997 118.2355034  57.1111613  28.1230400
 118.5254257  54.4471934  23.9987690 119.1217829  54.2227956  23.2844653
 118.5829228  53.7056679  24.6013138 117.8175574  53.8039475  14.0362256
 117.7011832  53.1284378  14.7043340 117.9277834  53.3171849  13.2194409
 120.1607115  53.2649622  17.7408945 119.7965322  52.7380243  18.4521867
 121.0174231  52.8748091  17.5675431 116.0100416  53.2070298  20.4372829
 115.0850913  53.0746512  20.6450520 116.2584830  53.9864517  20.9342771
 113.3709227  52.8503571  21.2716618 113.5001609  53.1038050  22.1856029
 112.6906679  53.4431279  20.9521273 117.5408715  63.5200821  17.3707092
 117.4632744  64.4708646  17.4495572 116.9370358  63.1746694  18.0282018
 120.0325944  50.6928687  30.0268459 119.2559279  51.2522607  30.0171323
 120.6716508  51.1785470  30.5483329 118.2872317  53.5014140  29.5886426
 119.0287001  54.0399184  29.3121249 117.5809302  54.1280429  29.7457977
 120.1158726  50.5815887  25.5592144 120.9619922  51.0055301  25.7026793
 120.0557364  49.9249511  26.2530707 119.6384433  55.9418879  19.2060961
 120.1022778  56.2206582  18.4165584 119.3741231  55.0402324  19.0234052
 116.5308514  55.4890361  22.1440724 117.1009871  55.9177629  21.5058209
 117.1216626  55.2072945  22.8424910 118.5753319  52.0642031  16.0150526
 119.2777362  52.5163075  16.4824453 118.2433947  51.4225850  16.6430419
 117.0233681  50.6553788  30.3901736 116.3932341  51.3370069  30.6237132
 116.9169768  50.5436870  29.4454874 112.3178653  50.3225584  21.3167660
 111.5277707  50.5783113  20.8407770 112.8089900  51.1373922  21.4219700
 114.2693398  50.6870163  18.2751137 113.4724562  50.7988858  18.7934632
 114.0418991  51.0256816  17.4092027 120.0999066  57.2114867  26.2233651
 120.1643498  57.6735274  27.0591823 119.3909990  56.5812232  26.3515961
 110.6016356  50.5756075  23.7482651 110.8524394  51.4603084  24.0140227
 111.1375904  50.3960676  22.9757742 119.8147084  58.8782974  16.0912631
 119.6792758  59.7234510  16.5197479 120.3556896  59.0802252  15.3278565
 116.3014423  44.9574554  32.7526987 115.9081369  44.4040752  33.4274631
 117.1180564  45.2685132  33.1433504 113.2676481  56.3958412  16.6640557
 113.7801002  57.1901662  16.8146121 113.9199194  55.6984703  16.5974158
 115.0771366  59.5124168  18.7463310 115.2537994  60.4342133  18.5584294
 115.8728199  59.1982588  19.1757690 119.2182384  46.3732433  30.3447243
 119.9592098  46.9739586  30.2651706 119.4500307  45.6310071  29.7865286
 114.3623722  51.5588800  28.6225473 114.2477237  50.6574058  28.9232572
 113.5068240  51.8052497  28.2710290 116.2002681  61.0302342  24.7473652
 116.7510106  60.9019406  23.9750646 115.3614157  61.3297231  24.3968545
 119.9969852  57.2953470  29.0917883 120.5298189  56.5341758  28.8617191
 119.4683933  57.0027122  29.8342038 111.2325398  54.7247066  17.4400127
 112.0700620  55.1344075  17.2233835 111.4103665  53.7846509  17.4100321
 118.4878973  44.8556921  21.5926940 119.3531970  44.6599730  21.2332829
 118.5556482  44.6267273  22.5196297 121.3622565  56.4239462  16.6036695
 120.8343926  55.6892222  16.2909933 120.8610068  57.2014139  16.3576664
 116.0941293  47.0859129  18.9643307 116.6685044  46.8634310  18.2316500
 116.6812275  47.1547823  19.7171908 111.2551569  52.0637782  18.1110861
 111.0575969  51.4707142  17.3861927 110.6998233  51.7589992  18.8286799
 119.2348293  51.9560888  20.2305454 119.2896902  51.0034725  20.1547930
 118.4239495  52.1120327  20.7146752 117.1740652  50.5737948  17.9895833
 116.3608518  50.8732119  18.3961025 117.6699647  50.1793637  18.7070315
 119.3249230  60.5695705  19.9230097 119.2825409  60.7956551  18.9938629
 120.2411929  60.3359079  20.0715898 116.6654727  48.1456303  23.6057068
 117.3054107  48.0045063  22.9080031 115.8332258  47.8590817  23.2295670
 117.4415031  57.4458734  19.7192060 118.2355630  56.9509054  19.5174635
 116.7306724  56.9176597  19.3559766 113.7497795  51.5901816  15.7951813
 112.8195383  51.5286271  16.0121775 113.8455267  51.0677768  14.9988454
 113.6683344  48.1156628  18.3830054 113.9290161  49.0301962  18.2739215
 114.4900516  47.6481071  18.5326667 115.1408269  49.5294386  25.5528879
 115.8131322  49.3211748  24.9041528 114.3138056  49.3316472  25.1134111
 120.0186307  58.0187756  23.3989897 119.8797393  57.6506540  24.2715835
 119.2300903  58.5335395  23.2273855 120.6134459  63.1196852  14.7415434
 120.7886215  62.6484896  15.5561056 119.9267247  63.7462619  14.9696694
 121.5691522  57.3969359  20.7878735 121.2341355  57.3570129  21.6836385
 121.0695468  56.7314075  20.3149145 115.5435766  52.8036989  26.3131316
 115.4055564  52.0717227  26.9142855 116.4540690  52.7145889  26.0315504
 118.1718067  52.5156948  25.8014996 118.8817685  51.8750140  25.7601614
 118.1287375  52.7669843  26.7241176 116.8847001  49.5022166  27.6210635
 116.3484358  49.0512904  28.2732231 116.2963709  49.6368075  26.8781100
 115.1795544  66.2686215  21.5155294 115.4192143  66.9004739  22.1934312
 114.3364741  65.9174255  21.8020653 107.8151400  53.7487977  20.2778606
 108.5022440  53.4349707  19.6899621 107.6599529  54.6529342  20.0045857
 112.6186122  48.6378174  24.7063630 112.5344311  48.0303843  23.9714040
 111.7968829  49.1287192  24.7073126 119.6923406  62.0765338  23.9196798
 119.6193578  62.8820309  24.4316102 119.2500799  62.2757303  23.0944819
 119.4813186  61.3137108  17.4299619 118.6980708  61.8558788  17.5237844
 120.1805931  61.8311087  17.8293860 119.3744805  49.2649120  19.8005509
 119.0042592  48.7120160  20.4886415 119.8703897  48.6607254  19.2480509
 117.2034003  59.7246615  26.8960527 117.9043463  60.3583098  27.0489921
 116.7329118  60.0661347  26.1356167 112.8001721  59.2582970  23.8291630
 113.3855158  58.5126658  23.9619534 112.6026560  59.5686927  24.7128294
 115.6540377  62.2934217  18.8454072 114.9850752  62.7780345  18.3618112
 115.5153246  62.5403438  19.7597451 107.3919376  51.8288570  22.5496073
 107.4303476  51.2952161  23.3433191 106.8859669  51.3023776  21.9307050
 119.7945645  64.3277961  25.4436731 120.3463953  64.4909583  26.2085816
 120.1351839  64.9182399  24.7716756 114.7710138  46.6753111  26.0458615
 114.8351465  47.5367942  25.6336013 114.7077259  46.0627112  25.3130974
 114.2462411  48.7476243  29.6931650 114.8734450  48.3653321  30.3069174
 113.3890330  48.5290445  30.0587342 111.0227954  50.5552672  15.6250004
 111.3181395  49.6463351  15.5717058 110.1215989  50.5340412  15.3031007
 114.5522201  48.6308669  21.6077553 113.8308786  49.2444637  21.4685026
 115.3415456  49.1666434  21.5294199 117.3548514  45.9663096  27.8818205
 117.8782916  46.2125392  28.6444514 117.1360847  46.7983130  27.4621342
 112.7515795  48.2366770  15.7489330 112.4228501  47.3564149  15.5664436
 113.1055166  48.1814439  16.6365719 115.8657618  48.5239740  16.1164807
 116.2053691  49.0525661  15.3943416 116.3129739  48.8620146  16.8923374
 118.5601059  46.9076791  25.5667875 118.2197880  46.1084604  25.9688555
 117.8540066  47.2078501  24.9944709 119.2117531  43.9926103  24.0195198
 120.0343600  43.5186581  23.8974089 119.4555595  44.7716587  24.5193885
 116.7356110  50.6845224  21.8287177 116.5900691  50.9985527  22.7211458
 116.2581313  51.3030124  21.2758076 118.5952493  47.6747772  21.8768067
 118.5814061  46.7788865  21.5400364 119.3124921  47.6818435  22.5106353
 120.4478623  48.1085112  23.9221194 120.1896401  49.0302183  23.9205524
 119.9163664  47.7115546  24.6121658 111.2101772  53.2250568  24.7674838
 110.6655240  54.0010376  24.8995112 112.0881122  53.5721373  24.6093960
 111.9967794  52.3520464  27.6604995 111.2549530  52.5003100  28.2469625
 111.6760538  52.6128730  26.7971744 119.9411457  61.8936443  27.4585385
 120.2498583  61.6485589  28.3308085 120.7386939  62.0983081  26.9704255
 119.9632069  64.0474352  19.6890762 119.5237059  63.5550731  20.3823618
 120.7140186  63.5047320  19.4482837 112.4424408  60.2385893  19.6915390
 113.2682427  59.9389665  19.3114033 112.0918460  59.4693516  20.1405178
 117.4105941  59.5912361  21.7613063 116.7885950  58.9283066  21.4615291
 118.0810808  59.6173493  21.0786711 110.6433013  58.1572220  20.6504323
 109.8064921  57.7294394  20.4688325 110.6156658  58.3504663  21.5875114
 117.4830468  48.0694149  31.3545569 117.5318624  48.9456272  30.9723339
 118.0252982  47.5271542  30.7817213 116.9719448  58.1416285  15.2371524
 117.1207568  58.8251749  14.5838197 117.7785891  58.1221375  15.7520980
 119.7129757  48.8225522  28.1091928 118.8433066  49.1159088  27.8374516
 119.9489237  49.4065967  28.8299192 114.7272081  54.1681462  16.2432593
 114.4818123  53.2643792  16.4412803 114.8967995  54.1698613  15.3012071
 113.9967728  49.9009820  13.7418754 113.3036973  49.9754175  13.0858790
 113.7519480  49.1370164  14.2640271 120.4714853  60.6364415  12.7083271
 119.8988820  61.2554602  12.2553743 121.0447647  61.1863777  13.2423193
 109.9582509  51.2181568  20.4353255 109.6385294  50.3646876  20.1427629
 109.4115937  51.4330146  21.1911223 113.7362417  53.9344009  24.1522762
 113.9548427  54.8661116  24.1710796 114.1488191  53.5751983  24.9377566
 118.6090282  49.5077214  33.5425511 118.5087009  50.4571571  33.4737602
 118.3911824  49.1795453  32.6701581 109.8270769  54.8384479  22.4046377
 109.1334241  54.4238432  21.8916331 110.5743760  54.8805016  21.8079796
 118.4721552  52.9374353  32.3590572 117.9888634  53.7374713  32.5654461
 118.5582491  52.9482298  31.4058016 111.7407512  54.7702733  20.2812392
 111.7178200  54.8690420  19.3294275 112.0508148  55.6167884  20.6029558
 114.3994890  56.8278888  24.3959006 115.3538143  56.7962830  24.3288938
 114.2007413  56.3669512  25.2109232 114.9894272  55.3980004  26.9629804
 115.8087161  55.8924083  26.9864641 115.2631079  54.4811972  26.9347371
 112.7545118  62.3698507  21.4129204 112.6199586  61.6098908  20.8467202
 112.3377181  63.0939407  20.9457993 115.9114244  63.2667824  21.6247647
 115.7946628  64.2113257  21.5226337 115.0906691  62.9641386  22.0133446
 110.2429186  49.7318138  27.6622001 110.8888050  49.2217092  28.1509226
 110.0346337  50.4686820  28.2365426 116.9368758  63.9196086  24.8403575
 117.8396005  63.9519697  25.1570070 116.7106128  62.9896537  24.8549911
 118.6922360  62.6727073  21.5013654 117.7417991  62.6728935  21.3878026
 118.9954847  61.9259807  20.9849688 114.5826677  46.8785755  31.7597015
 115.4458139  46.5222560  31.9700340 114.0092088  46.5399650  32.4472419
 118.6545154  69.0779895  20.2778606 119.3416194  68.7641625  19.6899621
 118.4993283  69.9821259  20.0045857 118.2313131  67.1580488  22.5496073
 118.2697230  66.6244079  23.3433191 117.7253423  66.6315694  21.9307050
 121.4826767  73.4864137  20.6504323 120.6458675  73.0586312  20.4688325
 121.4550413  73.6796581  21.5875114 120.7976264  66.5473485  20.4353255
 120.4779048  65.6938794  20.1427629 120.2509692  66.7622063  21.1911223
 120.6664524  70.1676397  22.4046377 119.9727995  69.7530350  21.8916331
 121.4137515  70.2096933  21.8079796   4.3523394  54.0069577 100.0686069
   3.5987103  53.4376975  99.9130074   4.4870935  53.9732242 101.0156704
   0.7172007  55.4477566 100.3652184   1.5518898  55.8867370 100.5289744
   0.8531135  54.9716219  99.5460430   4.7629809  54.1645187 102.8006314
   5.4933198  53.9030475 103.3614017   4.1536755  53.4273909 102.8408382
   2.8445106  52.3053050 103.3980765   2.1178270  52.1709015 102.7897256
   2.4292393  52.6129878 104.2037483   0.4622901  48.5264902 100.7514196
   1.0567392  48.2860638 100.0407505   0.5349485  47.8072032 101.3787733
   2.7693974  51.8331103  99.5257618   2.2093532  51.9024292 100.2989180
   2.1637477  51.6572087  98.8057114   4.3549992  68.5087617 102.2187573
   4.9928402  68.3894364 101.5150913   4.2370835  69.4568461 102.2775525
   1.1639699  68.4615045 102.1549098   0.8258210  68.3456109 101.2669633
   2.0329467  68.0606210 102.1350104   2.6026073  73.9821489  93.4560454
   1.9514053  74.5675569  93.0694468   3.3970436  74.5127684  93.5155491
   3.9091261  66.2339070  99.2940781   4.6954350  65.8158494  98.9431198
   4.1729965  67.1385163  99.4622430   4.0801338  71.6711921  93.9929438
   3.4447171  71.7446547  94.7050343   3.7498745  72.2605520  93.3148517
   9.3099688  66.1714304 100.1973760  10.0424860  65.6013520 100.4311589
   8.5539044  65.7835904 100.6380265   0.9275808  68.5941545  97.3937102
   0.5634015  68.0672166  98.1050024   1.7842924  68.2040014  97.2203588
   6.8325108  59.8835878 104.6568368   6.5008433  60.7531289 104.4329583
   6.2370722  59.5672162 105.3362399   3.3256628  72.0848424 104.0564281
   3.0257351  72.9873463 103.9480088   2.9807687  71.8180607 104.9085434
   6.7253772  64.6030964 101.7361718   5.8170649  64.5346372 101.4420479
   6.6741368  65.0802909 102.5643544   8.5915418  62.8047402 103.5139592
   7.9489798  63.0979936 102.8679387   8.0870347  62.6900323 104.3192789
   6.2455582  66.5510576  94.2025452   7.1573438  66.7837962  94.0273149
   5.7365229  67.1347620  93.6400530   0.8827420  65.9107810 105.2120301
   1.7288615  66.3347224 105.3554950   0.8226057  65.2541434 105.9058864
   4.8525164  71.5336394 101.5939033   4.2234027  71.6982108 100.8915101
   4.4650826  71.9478004 102.3649997   8.7314396  72.4690832  98.9483397
   8.0465434  72.8489733  98.3980430   8.8158245  73.0786159  99.6815345
   4.0326865  63.5712179 106.8701475   3.7887797  64.3254239 106.3335751
   4.3086795  63.9497526 107.7048722   5.9865328  70.1150791 105.5478740
   6.1982223  70.7582551 104.8713122   5.9395076  69.2813107 105.0800671
   3.5891557  62.7268612 102.4515313   2.7276036  63.0249865 102.7432050
   3.6153991  62.9439010 101.5196345   7.1011156  72.9922746 103.7201098
   7.9228599  72.5902934 103.4383779   7.0973558  72.8890980 104.6717214
  15.1917149  69.3361495 100.0686069  14.4380857  68.7668893  99.9130074
  15.3264690  69.3024159 101.0156704   0.5815777  74.2074897  95.7440789
   0.4461451  75.0526433  96.1725636   1.1225589  74.4094175  94.9806722
   3.9308240  57.7305459 104.2739682   3.5872510  58.6207101 104.1978793
   4.2987203  57.5407117 103.4109267   3.8958523  67.7214070  92.7812117
   3.3805146  68.4918675  93.0200505   3.6235831  67.0479206  93.4045179
   1.4805634  62.5663771  97.8397356   0.6247230  62.1770621  97.6602994
   1.8932586  62.6455732  96.9797141   3.0104781  60.1010114 102.2388915
   2.5069576  60.0640249 101.4256721   3.3035387  61.0102857 102.2985572
   8.8692797  70.4746425  94.7165291   8.0922240  70.1357584  94.2720453
   9.5484278  70.4799048  94.0420256   3.6844826  65.5941162  94.6071898
   3.3794962  65.9087311  95.4582042   4.6375268  65.6722582  94.6499231
   2.1291258  71.7531385  96.2564852   1.6012620  71.0184145  95.9438090
   1.6278761  72.5306062  96.0104821   7.1084104  69.9480406 101.3731899
   6.4507778  70.6379667 101.4612027   7.9124503  70.3376838 101.7165885
   5.9189563  68.3024779  99.4235840   6.4321445  68.9354771  99.9257550
   6.5690787  67.7025974  99.0579200   3.1811937  78.2809103  92.1796512
   2.5073636  78.5840800  92.7881469   3.5677759  79.0838183  91.8301969
   2.3970394  65.7774234 101.6694181   1.4792955  65.9989181 101.5115869
   2.8130537  65.8520545 100.8105888   3.1805441  67.1765650  96.7996861
   3.9277260  67.6887047  96.4903983   3.4497031  66.8549703  97.6601255
   1.4532092  69.6724191  93.7823815   0.5443311  69.3883223  93.8796285
   1.4827175  70.0923269  92.9227122   6.6851359  73.2830780  97.5514983
   6.2313686  72.4421690  97.6080173   6.0545326  73.9192178  97.8889763
   5.6284279  64.2122766  98.7815650   4.8907035  63.7000152  99.1125893
   5.8811052  63.7723148  97.9698927   5.1284298  75.1207277  98.4864801
   5.4207273  75.6812334  97.7677167   5.6382919  75.4135838  99.2417960
   5.7295906  56.9899018  99.3757420   6.0354783  56.1296382  99.0883335
   6.4548511  57.5816638  99.1756414   1.1508179  71.2132934  91.1211894
   0.7127609  70.4968793  90.6617531   1.8918620  71.4409049  90.5596985
   3.5383557  66.3671695 106.4738884   3.8932945  66.5943169 107.3333349
   4.1855688  66.6990072 105.8516139   9.2681294  69.4890131  97.1788213
   9.1299193  69.6791727  96.2509402   8.9117513  70.2509514  97.6356264
   9.2950674  71.5566658 102.1899484   9.7287180  71.4641947 103.0382538
  10.0082254  71.5324159 101.5519500  10.1566223  71.5990359 104.7232370
  10.3502113  72.5036169 104.9691644  10.0566842  71.1397778 105.5570955
   1.8102534  61.4848250 107.2222697   1.1630449  62.1838199 107.1287173
   2.5803549  61.9184393 107.5898945   1.9866668  69.3229014 105.2819517
   2.9158728  69.4740174 105.1088484   1.5657698  69.4113035 104.4268163
   1.3803152  78.4488775  94.3943591   1.5554908  77.9776819  95.2089213
   0.6935940  79.0754542  94.6224851   2.3360215  72.7261282 100.4406892
   2.0010048  72.6862052 101.3364542   1.8364161  72.0605998  99.9677302
   5.2719407  70.0717316  90.7143952   4.6548578  69.3464144  90.6177004
   4.8035895  70.8326676  90.3711026   6.9290946  72.7455808 106.6063712
   6.0417725  72.4081730 106.7290111   7.4989497  72.0138839 106.8432477
   3.5578529  62.4523660  99.7261982   4.0547229  61.6993622  99.4063052
   2.7865511  62.4887977  99.1605191  11.4108286  68.1564026 101.3680273
  11.3998163  69.0388741 100.9974206  10.5425666  67.8035576 101.1734810
   4.6408310  71.2095347  97.3000405   3.7064588  71.3296810  97.1305110
   4.8184978  70.3067814  97.0360415   8.0280861  67.0512667  97.8350439
   8.4941313  67.8840658  97.7610742   8.4788362  66.5857648  98.5395698
   6.0957092  73.3956488  94.8336591   6.3716936  73.2813082  95.7430465
   5.2261591  72.9973973  94.7948764   5.9997524  59.4193254 101.8741341
   5.0860604  59.6497480 102.0423548   6.4290625  59.5031698 102.7255373
   5.7703982  67.6083146 104.3741235   5.1175433  67.8559053 103.7193687
   6.1484362  66.7947284 104.0403712   2.7311156  77.6442839  98.4769405
   2.9133551  76.8264495  98.9397157   3.5544142  77.8610531  98.0394295
   3.0653322  76.5711024  95.7384453   3.5941088  76.0603478  95.1254616
   3.3281541  76.2553554  96.6029986   3.6982726  77.6051860 102.0828570
   3.5733865  76.8041599 101.5739515   4.3561817  78.0998053 101.5942540
   5.7617634  75.4060880 103.7108120   4.8147969  75.2866231 103.6386447
   6.1100407  74.5183378 103.7934381   2.7664067  75.2013596  99.9112472
   2.6189030  74.2730303 100.0920042   3.5917561  75.2233687  99.4269547
   6.3698189  76.0242155 100.9977345   7.2944737  75.8185016 100.8601796
   6.2013492  75.7758556 101.9066686   2.7625582  63.0551434  94.9044589
   2.9789196  63.9376071  94.6033418   2.2819649  62.6637647  94.1750231
   1.2147317  63.4377035 103.5749351   0.9565094  64.3594106 103.5733681
   0.6832357  63.0407469 104.2649815   6.1593505  76.5427822  96.3539436
   6.3330383  75.9774245  95.6013289   6.6522397  77.3428717  96.1718926
   1.6349272  59.5708985  99.9350514   1.6570969  59.6348319  98.9802493
   2.0517331  58.7313494 100.1291020  12.0132896  69.3064245  97.9729736
  12.4564042  68.5571570  97.5748859  11.1359407  69.2974381  97.5903468
   7.1468678  75.8594586  93.4536335   7.8419582  76.4801279  93.6723649
   7.4891828  75.0089938  93.7288713   9.0460101  73.3094292  94.9823665
   9.5711425  73.6481565  94.2572986   8.9582453  72.3741307  94.7986800
   8.8551882  70.7919662 107.6007592   8.9049887  70.6269669 108.5423115
   8.7465805  69.9246921 107.2105473   6.1455644  66.7750590 108.9166899
   7.0465507  66.6357055 108.6250897   6.2203619  66.9405045 109.8565076
  10.3570079  73.2116604 107.8449614  10.0654887  73.5746584 108.6813075
   9.7442210  72.4983612 107.6662946  11.5565761  70.7769483 100.3652184
  12.3912653  71.2159287 100.5289744  11.6924890  70.3008136  99.5460430
   8.6057267  68.3349218 106.3129672   9.0811389  68.5276864 105.5048523
   7.6822832  68.3908404 106.0673055   3.1837484  60.3697062 105.2785505
   3.7019427  61.1058089 104.9531994   2.8292616  60.6761055 106.1132265
   3.4350078  56.7897344 100.7986402   3.7151831  56.1220533 101.4246829
   4.2200685  56.9826440 100.2861066   1.2383546  75.9656338  92.3611428
   0.6657513  76.5846525  91.9081900   1.8116340  76.5155700  92.8951350
   7.3058936  65.2114978 104.5457977   8.2576359  65.3113076 104.5670201
   7.1362386  64.4193247 105.0556061   5.3273316  62.2970561 104.7317378
   4.7323248  62.5775574 104.0363867   5.0423012  62.7864462 105.5034119
   4.4580806  76.2493488  93.4920011   5.3911479  76.1839050  93.6952886
   4.3704019  77.0849755  93.0334543   7.0868823  75.5659359  90.4523958
   7.0082454  75.2319222  91.3459716   7.9078489  76.0581127  90.4515431
   9.7847014  68.4321098 103.6600277   9.7523334  67.4937099 103.8459961
  10.3947637  68.5105135 102.9266102   1.6230345  67.3017151  89.7027481
   2.5689449  67.1723359  89.7715899   1.2444590  66.5631813  90.1796909
   9.9341502  65.2232141 103.7058560   9.4180551  64.4390598 103.5188489
  10.8181451  64.8950858 103.8705079   7.5952229  58.9673157  99.6654373
   7.3977050  58.6588245 100.5497705   8.2051935  59.6934796  99.7952302
  15.6023564  69.4937105 102.8006314  16.3326952  69.2322393 103.3614017
  14.9930509  68.7565827 102.8408382  13.6838861  67.6344967 103.3980765
  12.9572024  67.5000932 102.7897256  13.2686148  67.9421796 104.2037483
   1.4235328  59.7704017  95.7926607   0.6136056  59.4251102  96.1681853
   2.1119745  59.4611561  96.3814219   3.3525876  58.8482064  97.4150904
   3.9056914  59.2677517  98.0740927   3.5895962  57.9217812  97.4573860
   6.7304683  60.9582589  96.9229568   6.1503352  61.6167393  96.5407621
   6.4640616  60.1359934  96.5116986   5.1808249  60.3587647  99.1250889
   5.6808028  60.4704181  98.3165207   5.8243857  60.0548700  99.7651697
   5.5129561  63.1182679  95.9785917   4.6255416  63.4032330  95.7606111
   5.9283550  62.9576443  95.1313193   8.8644097  63.1429200  99.6940256
   9.6404487  63.6325653  99.9664873   8.1392231  63.5687255 100.1512125
  11.3016656  63.8556820 100.7514196  11.8961147  63.6152555 100.0407505
  11.3743239  63.1363950 101.3787733   4.6572774  72.8827354  90.0733936
   5.3608625  73.0877357  90.6891592   3.9335423  73.4504116  90.3383020
   5.4870585  68.6337215  96.1936207   5.4305786  69.0905767  95.3543839
   6.0398927  67.8727900  96.0159049   9.2975391  64.4226947  97.0186326
   9.0412325  64.0223583  97.8494534   8.6728259  65.1370741  96.8936465
  13.6087728  67.1623020  99.5257618  13.0487286  67.2316210 100.2989180
  13.0031232  66.9864005  98.8057114   6.5659472  73.3209883  92.1232397
   7.4005076  72.8891082  91.9409871   6.4043815  73.1491897  93.0509291
   6.2205364  69.8241997  93.4888736   6.1654168  69.6586268  92.5477180
   5.5951419  70.5318029  93.6450926   3.3453609  55.9192882  97.3219991
   2.5786005  55.3651369  97.4676673   3.7564314  55.9914751  98.1834143
  15.1943747  83.8379534 102.2187573  15.8322157  83.7186282 101.5150913
  15.0764590  84.7860378 102.2775525  12.0033453  83.7906962 102.1549098
  11.6651965  83.6748027 101.2669633  12.8723221  83.3898128 102.1350104
   7.8620269  85.6442439  98.1445989   7.2985134  85.5532376  97.3762277
   7.7472664  84.8242343  98.6248481  13.4419828  89.3113407  93.4560454
  12.7907807  89.8967487  93.0694468  14.2364190  89.8419601  93.5155491
   7.3675455  86.4002544  93.8547588   8.1406331  85.8531531  93.7160464
   7.7200854  87.2646793  94.0662050  10.1316704  85.1055774 103.6515847
  10.7280276  84.8811797 102.9372810  10.1891676  84.3640520 104.2541295
   9.7041733  82.5595210  91.4866038   9.9567253  82.0376731  90.7249501
   8.7666292  82.3961355  91.5892722  14.7485015  81.5630988  99.2940781
  15.5348105  81.1450411  98.9431198  15.0123720  82.4677080  99.4622430
  14.9195093  87.0003838  93.9929438  14.2840926  87.0738465  94.7050343
  14.5892499  87.5897437  93.3148517  20.1493443  81.5006221 100.1973760
  20.8818615  80.9305438 100.4311589  19.3932798  81.1127822 100.6380265
   9.4238021  84.4623316  93.6890413   9.3074279  83.7868219  94.3571497
   9.5340281  83.9755690  92.8722566  11.7669562  83.9233463  97.3937102
  11.4027770  83.3964084  98.1050024  12.6236678  83.5331932  97.2203588
  17.6718863  75.2127795 104.6568368  17.3402188  76.0823206 104.4329583
  17.0764476  74.8964079 105.3362399  11.4075049  78.9523363  92.3898451
  11.5749452  79.8203599  92.7568922  11.2172218  79.1150644  91.4659740
  14.1650382  87.4140341 104.0564281  13.8651106  88.3165380 103.9480088
  13.8201442  87.1472525 104.9085434   7.6162864  83.8654138 100.0900986
   6.6913360  83.7330352 100.2978677   7.8647277  84.6448358 100.5870928
  17.5647526  79.9322882 101.7361718  16.6564404  79.8638290 101.4420479
  17.5135122  80.4094827 102.5643544  11.3864270  81.4081020  93.3745118
  11.2663895  81.8538071  94.2130598  10.6916859  81.7566338  92.8158656
   9.1471162  94.1784662  97.0235249   9.0695192  95.1292487  97.1023729
   8.5432806  93.8330534  97.6810175  19.4309173  78.1339320 103.5139592
  18.7883553  78.4271853 102.8679387  18.9264101  78.0192240 104.3192789
  17.0849336  81.8802493  94.2025452  17.9967192  82.1129880  94.0273149
  16.5758983  82.4639537  93.6400530  11.7221174  81.2399728 105.2120301
  12.5682369  81.6639141 105.3554950  11.6619812  80.5833352 105.9058864
  15.6918919  86.8628312 101.5939033  15.0627781  87.0274026 100.8915101
  15.3044581  87.2769921 102.3649997  19.5708151  87.7982750  98.9483397
  18.8859189  88.1781651  98.3980430  19.6552000  88.4078076  99.6815345
  14.8720619  78.9004096 106.8701475  14.6281551  79.6546157 106.3335751
  15.1480550  79.2789444 107.7048722  16.8259082  85.4442709 105.5478740
  17.0375977  86.0874468 104.8713122  16.7788830  84.6105025 105.0800671
  14.4285311  78.0560529 102.4515313  13.5669790  78.3541783 102.7432050
  14.4547746  78.2730928 101.5196345  11.2446880  86.6002720  98.8589118
  11.7085226  86.8790423  98.0693741  10.9803679  85.6986164  98.6762209
   8.1370962  86.1474201 101.7968881   8.7072319  86.5761470 101.1586366
   8.7279073  85.8656786 102.4953067  10.1815767  82.7225872  95.6678683
  10.8839810  83.1746916  96.1352610   9.8496395  82.0809691  96.2958576
   3.9241100  80.9809425 100.9695817   3.1340154  81.2366953 100.4935928
   4.4152348  81.7957763 101.0747857  17.9404910  88.3214664 103.7201098
  18.7622354  87.9194851 103.4383779  17.9367313  88.2182898 104.6717214
   5.8755846  81.3454004  97.9279294   5.0787009  81.4572698  98.4462789
   5.6481438  81.6840656  97.0620184  26.0310903  84.6653412 100.0686069
  25.2774611  84.0960811  99.9130074  26.1658444  84.6316077 101.0156704
  11.4209531  89.5366815  95.7440789  11.2855206  90.3818350  96.1725636
  11.9619344  89.7386092  94.9806722   4.8738929  87.0542253  96.3168714
   5.3863449  87.8485503  96.4674278   5.5261641  86.3568543  96.2502315
   6.6833813  90.1708009  98.3991467   6.8600442  91.0925974  98.2112451
   7.4790647  89.8566428  98.8285847  14.7701995  73.0597377 104.2739682
  14.4266264  73.9499018 104.1978793  15.1380957  72.8699034 103.4109267
   2.8387845  85.3830907  97.0928284   3.6763067  85.7927915  96.8761992
   3.0166113  84.4430349  97.0628478  14.7352277  83.0505988  92.7812117
  14.2198901  83.8210592  93.0200505  14.4629586  82.3771124  93.4045179
  12.3199388  77.8955689  97.8397356  11.4640985  77.5062539  97.6602994
  12.7326340  77.9747649  96.9797141  13.8498535  75.4302032 102.2388915
  13.3463331  75.3932167 101.4256721  14.1429142  76.3394775 102.2985572
  10.0941421  75.5140762 101.2455097  10.9594418  75.3183570 100.8860987
  10.1618930  75.2851113 102.1724454  19.7086552  85.8038342  94.7165291
  18.9315994  85.4649502  94.2720453  20.3878033  85.8090966  94.0420256
  14.5238581  80.9233080  94.6071898  14.2188716  81.2379229  95.4582042
  15.4769023  81.0014500  94.6499231  12.9685012  87.0823303  96.2564852
  12.4406374  86.3476063  95.9438090  12.4672515  87.8597980  96.0104821
  17.9477858  85.2772324 101.3731899  17.2901533  85.9671585 101.4612027
  18.7518258  85.6668756 101.7165885   7.7003740  77.7442969  98.6171464
   8.2747492  77.5218151  97.8844657   8.2874723  77.8131664  99.3700065
  16.7583317  83.6316696  99.4235840  17.2715199  84.2646688  99.9257550
  17.4084541  83.0317892  99.0579200   8.0273327  79.7747430  92.6367349
   7.1910639  80.1122117  92.9576624   7.8878097  79.6396410  91.6994486
  10.0026408  74.6184218  97.3446533   9.3490820  74.3033236  96.7203148
   9.9606882  73.9959959  98.0706356  11.1137613  84.9003513  89.2599825
  10.2064674  84.6692767  89.4590974  11.6108645  84.1041133  89.4473807
  14.0205692  93.6101021  92.1796512  13.3467390  93.9132717  92.7881469
  14.4071513  94.4130101  91.8301969  13.2364148  81.1066152 101.6694181
  12.3186710  81.3281099 101.5115869  13.6524292  81.1812462 100.8105888
  14.0199196  82.5057568  96.7996861  14.7671015  83.0178965  96.4903983
  14.2890785  82.1841620  97.6601255  12.2925846  85.0016108  93.7823815
  11.3837065  84.7175141  93.8796285  12.3220930  85.4215187  92.9227122
  17.5245113  88.6122698  97.5514983  17.0707441  87.7713608  97.6080173
  16.8939080  89.2484096  97.8889763  16.4678033  79.5414684  98.7815650
  15.7300790  79.0292070  99.1125893  16.7204807  79.1015065  97.9698927
  15.9678053  90.4499194  98.4864801  16.2601027  91.0104252  97.7677167
  16.4776673  90.7427755  99.2417960  16.5689660  72.3190936  99.3757420
  16.8748537  71.4588299  99.0883335  17.2942265  72.9108556  99.1756414
   2.8614016  82.7221622  97.7639018   2.6638416  82.1290983  97.0390084
   2.3060680  82.4173833  98.4814956  10.8410740  82.6144729  99.8833611
  10.8959350  81.6618565  99.8076087  10.0301942  82.7704168 100.3674909
  11.9901934  86.5424852  91.1211894  11.5521364  85.8260711  90.6617531
  12.7312375  86.7700967  90.5596985   8.7803100  81.2321789  97.6423990
   7.9670966  81.5315959  98.0489182   9.2762094  80.8377477  98.3598472
  10.9311678  91.2279546  99.5758254  10.8887857  91.4540392  98.6466786
  11.8474377  90.9942920  99.7244056  14.3777312  81.6963613 106.4738884
  14.7326699  81.9235086 107.3333349  15.0249443  82.0281990 105.8516139
  20.1075049  84.8182049  97.1788213  19.9692947  85.0083645  96.2509402
  19.7511267  85.5801432  97.6356264   8.2717175  78.8040144 103.2585225
   8.9116554  78.6628903 102.5608188   7.4394705  78.5174658 102.8823827
  20.1344428  86.8858576 102.1899484  20.5680935  86.7933865 103.0382538
  20.8476009  86.8616076 101.5519500   9.0477479  88.1042575  99.3720217
   9.8418077  87.6092895  99.1702792   8.3369171  87.5760438  99.0087923
   5.3560242  82.2485656  95.4479970   4.4257830  82.1870112  95.6649932
   5.4517714  81.7261609  94.6516611   5.2745791  78.7740469  98.0358211
   5.5352609  79.6885802  97.9267372   6.0962964  78.3064912  98.1854824
  20.9959978  86.9282277 104.7232370  21.1895868  87.8328087 104.9691644
  20.8960596  86.4689696 105.5570955  12.6496289  76.8140167 107.2222697
  12.0024204  77.5130117 107.1287173  13.4197304  77.2476311 107.5898945
  12.8260423  84.6520932 105.2819517  13.7552483  84.8032092 105.1088484
  12.4051453  84.7404953 104.4268163  12.2196907  93.7780693  94.3943591
  12.3948662  93.3068736  95.2089213  11.5329695  94.4046459  94.6224851
  13.1753970  88.0553199 100.4406892  12.8403802  88.0153969 101.3364542
  12.6757916  87.3897915  99.9677302  16.1113161  85.4009234  90.7143952
  15.4942332  84.6756062  90.6177004  15.6429650  86.1618594  90.3711026
   7.9011707  79.6194658  89.8365256   7.0241174  79.4983459  89.4727503
   8.3769460  78.8280736  89.5844145  17.7684700  88.0747726 106.6063712
  16.8811479  87.7373648 106.7290111  18.3383251  87.3430757 106.8432477
  11.0875633  91.9720948  97.0827776  10.3043155  92.5142628  97.1766001
  11.7868379  92.4894928  97.4822018  14.3972284  77.7815578  99.7261982
  14.8940983  77.0285540  99.4063052  13.6259265  77.8179894  99.1605191
  22.2502041  83.4855943 101.3680273  22.2391917  84.3680659 100.9974206
  21.3819420  83.1327494 101.1734810  15.4802064  86.5387265  97.3000405
  14.5458343  86.6588727  97.1305110  15.6578733  85.6359732  97.0360415
  10.9807252  79.9232961  99.4533666  10.6105040  79.3704001 100.1414572
  11.4766345  79.3191094  98.9008666  18.8674616  82.3804584  97.8350439
  19.3335068  83.2132576  97.7610742  19.3182116  81.9149566  98.5395698
  16.9350847  88.7248406  94.8336591  17.2110691  88.6105000  95.7430465
  16.0655345  88.3265890  94.7948764  16.8391278  74.7485171 101.8741341
  15.9254358  74.9789398 102.0423548  17.2684380  74.8323615 102.7255373
  16.6097737  82.9375063 104.3741235  15.9569187  83.1850971 103.7193687
  16.9878117  82.1239201 104.0403712  13.5704911  92.9734756  98.4769405
  13.7527305  92.1556412  98.9397157  14.3937897  93.1902449  98.0394295
  13.9047076  91.9002942  95.7384453  14.4334843  91.3895396  95.1254616
  14.1675296  91.5845472  96.6029986   6.3772586  77.3336952 105.6986772
   6.4413912  78.1951782 105.2864170   6.3139706  76.7210953 104.9659131
   2.6290401  81.2136513  95.2778162   2.9243842  80.3047192  95.2245215
   1.7278437  81.1924253  94.9559164  14.5376480  92.9343777 102.0828570
  14.4127619  92.1333517 101.5739515  15.1955571  93.4289971 101.5942540
   6.1584648  79.2892510 101.2605710   5.4371234  79.9028477 101.1213183
   6.9477904  79.8250275 101.1822356  16.6011388  90.7352797 103.7108120
  15.6541724  90.6158149 103.6386447  16.9494162  89.8475295 103.7934381
   8.9610962  76.6246936 107.5346362   9.4845364  76.8709233 108.2972671
   8.7423295  77.4566971 107.1149499   4.3578243  78.8950611  95.4017487
   4.0290949  78.0147990  95.2192593   4.7117614  78.8398280  96.2893876
  13.6057822  90.5305514  99.9112472  13.4582784  89.6022221 100.0920042
  14.4311315  90.5525604  99.4269547   7.4720066  79.1823581  95.7692964
   7.8116138  79.7109502  95.0471573   7.9192186  79.5203987  96.5451531
  17.2091944  91.3534072 100.9977345  18.1338491  91.1476934 100.8601796
  17.0407247  91.1050473 101.9066686  10.1663507  77.5660631 105.2196032
   9.8260327  76.7668444 105.6216712   9.4602513  77.8662342 104.6472866
  10.8179979  74.6509944 103.6723355  11.6406048  74.1770422 103.5502246
  11.0618042  75.4300428 104.1722042   9.4588213  77.6798202  93.9686257
  10.1796576  78.0579455  93.4649974   8.8353517  78.3987079  94.0721235
  13.6019336  78.3843351  94.9044589  13.8182950  79.2667989  94.6033418
  13.1213403  77.9929565  94.1750231   8.3418557  81.3429064 101.4815334
   8.1963138  81.6569367 102.3739616   7.8643761  81.9613965 100.9286233
  10.2014940  78.3331612 101.5296224  10.1876509  77.4372706 101.1928522
  10.9187368  78.3402276 102.1634510  12.0541071  78.7668953 103.5749351
  11.7958849  79.6886023 103.5733681  11.5226111  78.3699387 104.2649815
  16.9987260  91.8719740  96.3539436  17.1724137  91.3066162  95.6013289
  17.4916151  92.6720635  96.1718926   9.6051836  77.2145993  96.7983794
   9.7267747  76.2862639  96.9974681   9.3153879  77.2284679  95.8862109
  12.4743027  74.9000903  99.9350514  12.4964723  74.9640236  98.9802493
  12.8911086  74.0605412 100.1291020  22.8526651  84.6356163  97.9729736
  23.2957797  83.8863488  97.5748859  21.9753161  84.6266299  97.5903468
  17.9862432  91.1886504  93.4536335  18.6813337  91.8093197  93.6723649
  18.3285582  90.3381855  93.7288713  19.8853855  88.6386210  94.9823665
  20.4105179  88.9773482  94.2572986  19.7976208  87.7033225  94.7986800
  19.6945636  86.1211580 107.6007592  19.7443641  85.9561587 108.5423115
  19.5859560  85.2538839 107.2105473   8.5781895  88.8000125  94.8899681
   8.7270016  89.4835590  94.2366354   9.3848339  88.7805215  95.4049137
  16.9849399  82.1042508 108.9166899  17.8859262  81.9648973 108.6250897
  17.0597373  82.2696963 109.8565076  11.3192204  79.4809362 107.7620085
  10.4495514  79.7742929 107.4902674  11.5551685  80.0649807 108.4827349
  21.1963833  88.5408521 107.8449614  20.9048642  88.9038502 108.6813075
  20.5835965  87.8275529 107.6662946  22.3959516  86.1061401 100.3652184
  23.2306407  86.5451205 100.5289744  22.5318644  85.6300054  99.5460430
  19.4451022  83.6641136 106.3129672  19.9205143  83.8568782 105.5048523
  18.5216587  83.7200322 106.0673055   6.3334528  84.8265303  95.8960750
   6.0880570  83.9227633  96.0940960   6.5030443  84.8282453  94.9540228
  14.0231238  75.6988979 105.2785505  14.5413182  76.4350006 104.9531994
  13.6686371  76.0052973 106.1132265   5.6030176  80.5593661  93.3946911
   4.9099421  80.6338016  92.7386947   5.3581928  79.7954004  93.9168428
  14.2743832  72.1189262 100.7986402  14.5545586  71.4512451 101.4246829
  15.0594439  72.3118358 100.2861066  12.0777301  91.2948256  92.3611428
  11.5051268  91.9138443  91.9081900  12.6510094  91.8447617  92.8951350
  18.1452691  80.5406896 104.5457977  19.0970113  80.6404994 104.5670201
  17.9756141  79.7485164 105.0556061  16.1667070  77.6262479 104.7317378
  15.5717002  77.9067492 104.0363867  15.8816767  78.1156380 105.5034119
  15.2974560  91.5785406  93.4920011  16.2305234  91.5130968  93.6952886
  15.2097773  92.4141673  93.0334543  17.9262577  90.8951276  90.4523958
  17.8476209  90.5611140  91.3459716  18.7472244  91.3873044  90.4515431
  20.6240768  83.7613016 103.6600277  20.5917088  82.8229016 103.8459961
  21.2341392  83.8397052 102.9266102  12.4624099  82.6309069  89.7027481
  13.4083204  82.5015277  89.7715899  12.0838344  81.8923730  90.1796909
  20.7735257  80.5524059 103.7058560  20.2574305  79.7682516 103.5188489
  21.6575205  80.2242776 103.8705079  18.4345984  74.2965075  99.6654373
  18.2370805  73.9880163 100.5497705  19.0445689  75.0226713  99.7952302
  26.4417318  84.8229022 102.8006314  27.1720707  84.5614311 103.3614017
  25.8324264  84.0857744 102.8408382  24.5232615  82.9636885 103.3980765
  23.7965779  82.8292850 102.7897256  24.1079902  83.2713714 104.2037483
  10.6467016  80.5559045  89.6382366   9.7398472  80.2592158  89.7145080
  10.9242997  80.2588863  88.7716652  12.2629082  75.0995935  95.7926607
  11.4529810  74.7543020  96.1681853  12.9513499  74.7903478  96.3814219
  14.1919630  74.1773981  97.4150904  14.7450669  74.5969435  98.0740927
  14.4289717  73.2509730  97.4573860   9.4165801  77.4145980  89.7794345
  10.2784965  77.7400878  90.0390163   9.6016145  76.6277476  89.2667411
  17.5698437  76.2874507  96.9229568  16.9897107  76.9459311  96.5407621
  17.3034370  75.4651851  96.5116986  16.0202004  75.6879564  99.1250889
  16.5201782  75.7996099  98.3165207  16.6637612  75.3840617  99.7651697
  16.3523315  78.4474597  95.9785917  15.4649170  78.7324248  95.7606111
  16.7677305  78.2868360  95.1313193  19.7037852  78.4721118  99.6940256
  20.4798242  78.9617570  99.9664873  18.9785986  78.8979172 100.1512125
  22.1410410  79.1848737 100.7514196  22.7354901  78.9444473 100.0407505
  22.2136994  78.4655868 101.3787733  15.4966529  88.2119272  90.0733936
  16.2002379  88.4169274  90.6891592  14.7729178  88.7796034  90.3383020
  16.3264339  83.9629133  96.1936207  16.2699541  84.4197684  95.3543839
  16.8792682  83.2019818  96.0159049  20.1369145  79.7518865  97.0186326
  19.8806079  79.3515500  97.8494534  19.5122013  80.4662659  96.8936465
  24.4481483  82.4914938  99.5257618  23.8881041  82.5608127 100.2989180
  23.8424986  82.3155923  98.8057114  17.4053226  88.6501801  92.1232397
  18.2398830  88.2182999  91.9409871  17.2437569  88.4783815  93.0509291
  17.0599119  85.1533914  93.4888736  17.0047922  84.9878186  92.5477180
  16.4345174  85.8609947  93.6450926  10.3695244  74.6542023  93.0674054
  10.3573914  75.5983863  93.2242325  11.2618666  74.4712169  92.7733515
  14.1847363  71.2484800  97.3219991  13.4179759  70.6943287  97.4676673
  14.5958068  71.3206669  98.1834143  26.0337501  99.1671452 102.2187573
  26.6715911  99.0478199 101.5150913  25.9158344 100.1152296 102.2775525
  22.8427208  99.1198880 102.1549098  22.5045719  99.0039945 101.2669633
  23.7116976  98.7190045 102.1350104  18.7014023 100.9734357  98.1445989
  18.1378889 100.8824293  97.3762277  18.5866418 100.1534261  98.6248481
  24.2813582 104.6405324  93.4560454  23.6301562 105.2259405  93.0694468
  25.0757945 105.1711519  93.5155491  18.2069209 101.7294461  93.8547588
  18.9800085 101.1823448  93.7160464  18.5594608 102.5938711  94.0662050
  20.9710459 100.4347692 103.6515847  21.5674031 100.2103715 102.9372810
  21.0285430  99.6932438 104.2541295  20.5435487  97.8887127  91.4866038
  20.7961008  97.3668649  90.7249501  19.6060046  97.7253273  91.5892722
  25.5878770  96.8922906  99.2940781  26.3741859  96.4742329  98.9431198
  25.8517474  97.7968998  99.4622430  25.7588847 102.3295756  93.9929438
  25.1234680 102.4030383  94.7050343  25.4286254 102.9189355  93.3148517
  30.9887197  96.8298139 100.1973760  31.7212369  96.2597356 100.4311589
  30.2326553  96.4419739 100.6380265  20.2631776  99.7915233  93.6890413
  20.1468034  99.1160137  94.3571497  20.3734036  99.3047607  92.8722566
  22.6063317  99.2525381  97.3937102  22.2421524  98.7256002  98.1050024
  23.4630433  98.8623850  97.2203588  28.5112617  90.5419713 104.6568368
  28.1795942  91.4115124 104.4329583  27.9158231  90.2255997 105.3362399
  22.2468804  94.2815280  92.3898451  22.4143206  95.1495517  92.7568922
  22.0565973  94.4442562  91.4659740  25.0044137 102.7432259 104.0564281
  24.7044860 103.6457298 103.9480088  24.6595196 102.4764442 104.9085434
  18.4556618  99.1946056 100.0900986  17.5307115  99.0622270 100.2978677
  18.7041032  99.9740275 100.5870928  28.4041281  95.2614799 101.7361718
  27.4958158  95.1930208 101.4420479  28.3528877  95.7386744 102.5643544
  22.2258025  96.7372938  93.3745118  22.1057650  97.1829989  94.2130598
  21.5310613  97.0858255  92.8158656  19.9864917 109.5076579  97.0235249
  19.9088946 110.4584405  97.1023729  19.3826560 109.1622452  97.6810175
  30.2702927  93.4631238 103.5139592  29.6277307  93.7563771 102.8679387
  29.7657856  93.3484158 104.3192789  27.9243091  97.2094411  94.2025452
  28.8360947  97.4421798  94.0273149  27.4152738  97.7931455  93.6400530
  22.5614928  96.5691646 105.2120301  23.4076124  96.9931059 105.3554950
  22.5013566  95.9125270 105.9058864  26.5312673 102.1920229 101.5939033
  25.9021536 102.3565943 100.8915101  26.1438335 102.6061839 102.3649997
  30.4101905 103.1274667  98.9483397  29.7252943 103.5073569  98.3980430
  30.4945754 103.7369994  99.6815345  25.7114374  94.2296014 106.8701475
  25.4675306  94.9838074 106.3335751  25.9874304  94.6081361 107.7048722
  27.6652837 100.7734626 105.5478740  27.8769732 101.4166386 104.8713122
  27.6182585  99.9396943 105.0800671  25.2679066  93.3852447 102.4515313
  24.4063545  93.6833700 102.7432050  25.2941500  93.6022846 101.5196345
  22.0840635 101.9294637  98.8589118  22.5478981 102.2082340  98.0693741
  21.8197433 101.0278082  98.6762209  18.9764716 101.4766119 101.7968881
  19.5466073 101.9053387 101.1586366  19.5672828 101.1948704 102.4953067
  21.0209521  98.0517790  95.6678683  21.7233564  98.5038833  96.1352610
  20.6890150  97.4101609  96.2958576  14.7634855  96.3101342 100.9695817
  13.9733909  96.5658871 100.4935928  15.2546102  97.1249680 101.0747857
  28.7798665 103.6506582 103.7201098  29.6016108 103.2486769 103.4383779
  28.7761067 103.5474816 104.6717214  16.7149600  96.6745922  97.9279294
  15.9180764  96.7864616  98.4462789  16.4875193  97.0132574  97.0620184
  36.8704658  99.9945330 100.0686069  36.1168366  99.4252728  99.9130074
  37.0052199  99.9607995 101.0156704  22.2603286 104.8658732  95.7440789
  22.1248960 105.7110268  96.1725636  22.8013098 105.0678010  94.9806722
  15.7132683 102.3834170  96.3168714  16.2257204 103.1777421  96.4674278
  16.3655396 101.6860461  96.2502315  17.5227568 105.4999927  98.3991467
  17.6994196 106.4217891  98.2112451  18.3184401 105.1858346  98.8285847
  25.6095749  88.3889294 104.2739682  25.2660019  89.2790936 104.1978793
  25.9774712  88.1990952 103.4109267  13.6781600 100.7122825  97.0928284
  14.5156822 101.1219833  96.8761992  13.8559868  99.7722267  97.0628478
  25.5746032  98.3797905  92.7812117  25.0592655  99.1502510  93.0200505
  25.3023340  97.7063042  93.4045179  23.1593143  93.2247606  97.8397356
  22.3034739  92.8354457  97.6602994  23.5720095  93.3039567  96.9797141
  24.6892290  90.7593949 102.2388915  24.1857085  90.7224085 101.4256721
  24.9822896  91.6686692 102.2985572  20.9335175  90.8432679 101.2455097
  21.7988172  90.6475488 100.8860987  21.0012684  90.6143031 102.1724454
  30.5480306 101.1330260  94.7165291  29.7709749 100.7941420  94.2720453
  31.2271787 101.1382883  94.0420256  25.3632335  96.2524998  94.6071898
  25.0582471  96.5671147  95.4582042  26.3162777  96.3306417  94.6499231
  23.8078767 102.4115221  96.2564852  23.2800129 101.6767980  95.9438090
  23.3066270 103.1889897  96.0104821  28.7871613 100.6064241 101.3731899
  28.1295287 101.2963503 101.4612027  29.5912012 100.9960673 101.7165885
  18.5397495  93.0734887  98.6171464  19.1141246  92.8510069  97.8844657
  19.1268477  93.1423582  99.3700065  27.5977072  98.9608614  99.4235840
  28.1108954  99.5938606  99.9257550  28.2478296  98.3609810  99.0579200
  18.8667082  95.1039348  92.6367349  18.0304394  95.4414035  92.9576624
  18.7271851  94.9688328  91.6994486  20.8420162  89.9476136  97.3446533
  20.1884575  89.6325153  96.7203148  20.8000636  89.3251876  98.0706356
  21.9531367 100.2295431  89.2599825  21.0458429  99.9984685  89.4590974
  22.4502399  99.4333050  89.4473807  24.8599446 108.9392938  92.1796512
  24.1861145 109.2424635  92.7881469  25.2465268 109.7422019  91.8301969
  24.0757903  96.4358070 101.6694181  23.1580464  96.6573017 101.5115869
  24.4918046  96.5104380 100.8105888  24.8592950  97.8349485  96.7996861
  25.6064769  98.3470882  96.4903983  25.1284540  97.5133538  97.6601255
  23.1319601 100.3308026  93.7823815  22.2230820 100.0467059  93.8796285
  23.1614684 100.7507105  92.9227122  28.3638868 103.9414615  97.5514983
  27.9101195 103.1005525  97.6080173  27.7332835 104.5776014  97.8889763
  27.3071788  94.8706602  98.7815650  26.5694544  94.3583988  99.1125893
  27.5598561  94.4306983  97.9698927  26.8071807 105.7791112  98.4864801
  27.0994782 106.3396169  97.7677167  27.3170428 106.0719673  99.2417960
  27.4083415  87.6482854  99.3757420  27.7142292  86.7880217  99.0883335
  28.1336020  88.2400474  99.1756414  13.7007771  98.0513540  97.7639018
  13.5032171  97.4582901  97.0390084  13.1454435  97.7465750  98.4814956
  21.6804495  97.9436647  99.8833611  21.7353104  96.9910483  99.8076087
  20.8695697  98.0996086 100.3674909  22.8295688 101.8716770  91.1211894
  22.3915118 101.1552629  90.6617531  23.5706129 102.0992884  90.5596985
  19.6196855  96.5613706  97.6423990  18.8064720  96.8607877  98.0489182
  20.1155849  96.1669395  98.3598472  21.7705432 106.5571463  99.5758254
  21.7281611 106.7832310  98.6466786  22.6868131 106.3234838  99.7244056
  25.2171066  97.0255531 106.4738884  25.5720454  97.2527004 107.3333349
  25.8643197  97.3573908 105.8516139  30.9468803 100.1473967  97.1788213
  30.8086702 100.3375563  96.2509402  30.5905022 100.9093350  97.6356264
  19.1110929  94.1332062 103.2585225  19.7510309  93.9920821 102.5608188
  18.2788460  93.8466575 102.8823827  30.9738183 102.2150494 102.1899484
  31.4074689 102.1225783 103.0382538  31.6869763 102.1907994 101.5519500
  19.8871233 103.4334492  99.3720217  20.6811832 102.9384812  99.1702792
  19.1762926 102.9052355  99.0087923  16.1953997  97.5777574  95.4479970
  15.2651585  97.5162029  95.6649932  16.2911469  97.0553527  94.6516611
  16.1139546  94.1032387  98.0358211  16.3746363  95.0177720  97.9267372
  16.9356718  93.6356829  98.1854824  31.8353732 102.2574194 104.7232370
  32.0289622 103.1620005 104.9691644  31.7354350 101.7981613 105.5570955
  23.4890043  92.1432085 107.2222697  22.8417958  92.8422035 107.1287173
  24.2591058  92.5768229 107.5898945  23.6654177  99.9812850 105.2819517
  24.5946237 100.1324009 105.1088484  23.2445207 100.0696871 104.4268163
  23.0590661 109.1072611  94.3943591  23.2342417 108.6360654  95.2089213
  22.3723449 109.7338377  94.6224851  24.0147724 103.3845117 100.4406892
  23.6797557 103.3445887 101.3364542  23.5151670 102.7189833  99.9677302
  26.9506916 100.7301151  90.7143952  26.3336087 100.0047979  90.6177004
  26.4823404 101.4910512  90.3711026  18.7405462  94.9486576  89.8365256
  17.8634928  94.8275376  89.4727503  19.2163215  94.1572654  89.5844145
  28.6078455 103.4039644 106.6063712  27.7205234 103.0665565 106.7290111
  29.1777006 102.6722675 106.8432477  21.9269388 107.3012866  97.0827776
  21.1436910 107.8434546  97.1766001  22.6262133 107.8186846  97.4822018
  25.2366038  93.1107495  99.7261982  25.7334738  92.3577458  99.4063052
  24.4653020  93.1471812  99.1605191  33.0895795  98.8147861 101.3680273
  33.0785672  99.6972576 100.9974206  32.2213175  98.4619412 101.1734810
  26.3195819 101.8679183  97.3000405  25.3852097 101.9880645  97.1305110
  26.4972487 100.9651649  97.0360415  21.8201007  95.2524878  99.4533666
  21.4498794  94.6995919 100.1414572  22.3160099  94.6483012  98.9008666
  29.7068370  97.7096502  97.8350439  30.1728822  98.5424494  97.7610742
  30.1575871  97.2441483  98.5395698  27.7744601 104.0540323  94.8336591
  28.0504445 103.9396918  95.7430465  26.9049100 103.6557808  94.7948764
  27.6785033  90.0777089 101.8741341  26.7648113  90.3081316 102.0423548
  28.1078134  90.1615533 102.7255373  27.4491491  98.2666981 104.3741235
  26.7962942  98.5142888 103.7193687  27.8271871  97.4531119 104.0403712
  24.4098665 108.3026674  98.4769405  24.5921060 107.4848330  98.9397157
  25.2331651 108.5194366  98.0394295  24.7440831 107.2294859  95.7384453
  25.2728597 106.7187314  95.1254616  25.0069050 106.9137389  96.6029986
  17.2166340  92.6628869 105.6986772  17.2807667  93.5243700 105.2864170
  17.1533461  92.0502871 104.9659131  13.4684156  96.5428431  95.2778162
  13.7637597  95.6339109  95.2245215  12.5672192  96.5216170  94.9559164
  25.3770235 108.2635695 102.0828570  25.2521374 107.4625435 101.5739515
  26.0349326 108.7581888 101.5942540  16.9978403  94.6184427 101.2605710
  16.2764988  95.2320395 101.1213183  17.7871659  95.1542192 101.1822356
  27.4405143 106.0644715 103.7108120  26.4935478 105.9450066 103.6386447
  27.7887916 105.1767213 103.7934381  19.8004716  91.9538854 107.5346362
  20.3239118  92.2001150 108.2972671  19.5817050  92.7858889 107.1149499
  15.1971997  94.2242528  95.4017487  14.8684703  93.3439907  95.2192593
  15.5511368  94.1690197  96.2893876  24.4451576 105.8597431  99.9112472
  24.2976539 104.9314139 100.0920042  25.2705070 105.8817522  99.4269547
  18.3113820  94.5115498  95.7692964  18.6509893  95.0401420  95.0471573
  18.7585941  94.8495904  96.5451531  28.0485698 106.6825990 100.9977345
  28.9732246 106.4768851 100.8601796  27.8801001 106.4342391 101.9066686
  21.0057261  92.8952549 105.2196032  20.6654082  92.0960362 105.6216712
  20.2996268  93.1954260 104.6472866  21.6573733  89.9801861 103.6723355
  22.4799802  89.5062340 103.5502246  21.9011797  90.7592345 104.1722042
  20.2981968  93.0090120  93.9686257  21.0190330  93.3871373  93.4649974
  19.6747272  93.7278997  94.0721235  24.4413091  93.7135269  94.9044589
  24.6576705  94.5959907  94.6033418  23.9607158  93.3221482  94.1750231
  19.1812312  96.6720982 101.4815334  19.0356893  96.9861285 102.3739616
  18.7037516  97.2905882 100.9286233  21.0408695  93.6623530 101.5296224
  21.0270264  92.7664623 101.1928522  21.7581123  93.6694194 102.1634510
  22.8934825  94.0960870 103.5749351  22.6352603  95.0177941 103.5733681
  22.3619866  93.6991305 104.2649815  27.8381014 107.2011657  96.3539436
  28.0117892 106.6358080  95.6013289  28.3309905 108.0012552  96.1718926
  20.4445591  92.5437910  96.7983794  20.5661502  91.6154557  96.9974681
  20.1547633  92.5576596  95.8862109  23.3136781  90.2292821  99.9350514
  23.3358478  90.2932154  98.9802493  23.7304840  89.3897329 100.1291020
  33.6920405  99.9648080  97.9729736  34.1351551  99.2155406  97.5748859
  32.8146916  99.9558217  97.5903468  28.8256187 106.5178422  93.4536335
  29.5207091 107.1385114  93.6723649  29.1679337 105.6673773  93.7288713
  30.7247610 103.9678127  94.9823665  31.2498934 104.3065400  94.2572986
  30.6369962 103.0325143  94.7986800  30.5339391 101.4503497 107.6007592
  30.5837396 101.2853505 108.5423115  30.4253314 100.5830756 107.2105473
  19.4175650 104.1292043  94.8899681  19.5663770 104.8127507  94.2366354
  20.2242093 104.1097133  95.4049137  27.8243153  97.4334425 108.9166899
  28.7253016  97.2940890 108.6250897  27.8991128  97.5988880 109.8565076
  22.1585959  94.8101280 107.7620085  21.2889268  95.1034846 107.4902674
  22.3945439  95.3941725 108.4827349  32.0357588 103.8700439 107.8449614
  31.7442396 104.2330419 108.6813075  31.4229719 103.1567447 107.6662946
  33.2353270 101.4353319 100.3652184  34.0700162 101.8743123 100.5289744
  33.3712399 100.9591972  99.5460430  30.2844776  98.9933053 106.3129672
  30.7598898  99.1860700 105.5048523  29.3610341  99.0492239 106.0673055
  17.1728283 100.1557221  95.8960750  16.9274325  99.2519551  96.0940960
  17.3424197 100.1574371  94.9540228  24.8624993  91.0280897 105.2785505
  25.3806936  91.7641924 104.9531994  24.5080125  91.3344890 106.1132265
  16.4423930  95.8885578  93.3946911  15.7493175  95.9629933  92.7386947
  16.1975682  95.1245922  93.9168428  25.1137587  87.4481180 100.7986402
  25.3939340  86.7804369 101.4246829  25.8988194  87.6410275 100.2861066
  22.9171055 106.6240173  92.3611428  22.3445022 107.2430361  91.9081900
  23.4903849 107.1739535  92.8951350  28.9846445  95.8698814 104.5457977
  29.9363868  95.9696911 104.5670201  28.8149895  95.0777082 105.0556061
  27.0060825  92.9554397 104.7317378  26.4110757  93.2359410 104.0363867
  26.7210521  93.4448298 105.5034119  26.1368315 106.9077324  93.4920011
  27.0698988 106.8422885  93.6952886  26.0491528 107.7433590  93.0334543
  28.7656332 106.2243194  90.4523958  28.6869963 105.8903058  91.3459716
  29.5865998 106.7164962  90.4515431  31.4634523  99.0904933 103.6600277
  31.4310843  98.1520934 103.8459961  32.0735146  99.1688970 102.9266102
  23.3017854  97.9600986  89.7027481  24.2476958  97.8307194  89.7715899
  22.9232099  97.2215648  90.1796909  31.6129011  95.8815977 103.7058560
  31.0968060  95.0974433 103.5188489  32.4968960  95.5534693 103.8705079
  29.2739738  89.6256992  99.6654373  29.0764559  89.3172080 100.5497705
  29.8839444  90.3518631  99.7952302  37.2811073 100.1520940 102.8006314
  38.0114461  99.8906228 103.3614017  36.6718018  99.4149662 102.8408382
  35.3626370  98.2928803 103.3980765  34.6359533  98.1584768 102.7897256
  34.9473657  98.6005631 104.2037483  21.4860771  95.8850963  89.6382366
  20.5792226  95.5884075  89.7145080  21.7636752  95.5880781  88.7716652
  23.1022837  90.4287852  95.7926607  22.2923565  90.0834937  96.1681853
  23.7907253  90.1195396  96.3814219  25.0313385  89.5065899  97.4150904
  25.5844423  89.9261353  98.0740927  25.2683471  88.5801647  97.4573860
  20.2559555  92.7437898  89.7794345  21.1178719  93.0692796  90.0390163
  20.4409900  91.9569394  89.2667411  28.4092192  91.6166424  96.9229568
  27.8290861  92.2751228  96.5407621  28.1428125  90.7943769  96.5116986
  26.8595758  91.0171482  99.1250889  27.3595537  91.1288017  98.3165207
  27.5031366  90.7132535  99.7651697  27.1917070  93.7766515  95.9785917
  26.3042925  94.0616165  95.7606111  27.6071059  93.6160278  95.1313193
  30.5431606  93.8013036  99.6940256  31.3191996  94.2909488  99.9664873
  29.8179740  94.2271090 100.1512125  32.9804165  94.5140655 100.7514196
  33.5748656  94.2736391 100.0407505  33.0530748  93.7947785 101.3787733
  26.3360283 103.5411189  90.0733936  27.0396134 103.7461192  90.6891592
  25.6122932 104.1087951  90.3383020  27.1658094  99.2921051  96.1936207
  27.1093295  99.7489602  95.3543839  27.7186436  98.5311735  96.0159049
  30.9762900  95.0810782  97.0186326  30.7199834  94.6807418  97.8494534
  30.3515768  95.7954576  96.8936465  35.2875237  97.8206856  99.5257618
  34.7274795  97.8900045 100.2989180  34.6818741  97.6447840  98.8057114
  28.2446981 103.9793719  92.1232397  29.0792585 103.5474917  91.9409871
  28.0831324 103.8075732  93.0509291  27.8992873 100.4825832  93.4888736
  27.8441677 100.3170103  92.5477180  27.2738928 101.1901865  93.6450926
  21.2088998  89.9833941  93.0674054  21.1967668  90.9275781  93.2242325
  22.1012420  89.8004086  92.7733515  25.0241118  86.5776718  97.3219991
  24.2573514  86.0235204  97.4676673  25.4351823  86.6498586  98.1834143
  36.8731256 114.4963370 102.2187573  37.5109666 114.3770117 101.5150913
  36.7552099 115.4444214 102.2775525  33.6820962 114.4490798 102.1549098
  33.3439474 114.3331862 101.2669633  34.5510730 114.0481963 102.1350104
  31.3829242 113.2179045  91.4866038  31.6354762 112.6960566  90.7249501
  30.4453801 113.0545191  91.5892722  36.4272524 112.2214824  99.2940781
  37.2135614 111.8034247  98.9431198  36.6911229 113.1260916  99.4622430
  41.8280952 112.1590057 100.1973760  42.5606123 111.5889274 100.4311589
  41.0720307 111.7711657 100.6380265  33.4457071 114.5817298  97.3937102
  33.0815278 114.0547919  98.1050024  34.3024187 114.1915767  97.2203588
  39.3506372 105.8711631 104.6568368  39.0189697 106.7407042 104.4329583
  38.7551985 105.5547915 105.3362399  33.0862558 109.6107198  92.3898451
  33.2536961 110.4787434  92.7568922  32.8959727 109.7734480  91.4659740
  39.2435035 110.5906717 101.7361718  38.3351913 110.5222125 101.4420479
  39.1922631 111.0678662 102.5643544  33.0651779 112.0664855  93.3745118
  32.9451404 112.5121906  94.2130598  32.3704367 112.4150173  92.8158656
  41.1096682 108.7923155 103.5139592  40.4671062 109.0855689 102.8679387
  40.6051610 108.6776076 104.3192789  38.7636845 112.5386329  94.2025452
  39.6754701 112.7713715  94.0273149  38.2546492 113.1223373  93.6400530
  33.4008683 111.8983563 105.2120301  34.2469878 112.3222977 105.3554950
  33.3407321 111.2417188 105.9058864  36.5508128 109.5587932 106.8701475
  36.3069060 110.3129992 106.3335751  36.8268059 109.9373279 107.7048722
  38.5046591 116.1026544 105.5478740  38.7163486 116.7458304 104.8713122
  38.4576339 115.2688860 105.0800671  36.1072820 108.7144365 102.4515313
  35.2457299 109.0125618 102.7432050  36.1335255 108.9314763 101.5196345
  31.8603276 113.3809708  95.6678683  32.5627319 113.8330751  96.1352610
  31.5283904 112.7393526  96.2958576  25.6028609 111.6393260 100.9695817
  24.8127663 111.8950789 100.4935928  26.0939857 112.4541598 101.0747857
  27.5543355 112.0037839  97.9279294  26.7574518 112.1156534  98.4462789
  27.3268947 112.3424492  97.0620184  47.7098412 115.3237248 100.0686069
  46.9562120 114.7544646  99.9130074  47.8445953 115.2899912 101.0156704
  36.4489504 103.7181212 104.2739682  36.1053773 104.6082854 104.1978793
  36.8168466 103.5282870 103.4109267  36.4139786 113.7089823  92.7812117
  35.8986410 114.4794428  93.0200505  36.1417095 113.0354959  93.4045179
  33.9986897 108.5539524  97.8397356  33.1428494 108.1646374  97.6602994
  34.4113849 108.6331485  96.9797141  35.5286044 106.0885867 102.2388915
  35.0250840 106.0516002 101.4256721  35.8216651 106.9978610 102.2985572
  31.7728930 106.1724597 101.2455097  32.6381927 105.9767406 100.8860987
  31.8406439 105.9434949 102.1724454  41.3874061 116.4622178  94.7165291
  40.6103503 116.1233337  94.2720453  42.0665542 116.4674801  94.0420256
  36.2026090 111.5816915  94.6071898  35.8976225 111.8963064  95.4582042
  37.1556532 111.6598335  94.6499231  39.6265367 115.9356159 101.3731899
  38.9689042 116.6255420 101.4612027  40.4305767 116.3252591 101.7165885
  29.3791249 108.4026805  98.6171464  29.9535001 108.1801986  97.8844657
  29.9662231 108.4715499  99.3700065  38.4370826 114.2900532  99.4235840
  38.9502708 114.9230524  99.9257550  39.0872050 113.6901727  99.0579200
  29.7060836 110.4331266  92.6367349  28.8698148 110.7705952  92.9576624
  29.5665606 110.2980246  91.6994486  31.6813917 105.2768054  97.3446533
  31.0278329 104.9617071  96.7203148  31.6394391 104.6543794  98.0706356
  34.9151657 111.7649987 101.6694181  33.9974219 111.9864934 101.5115869
  35.3311801 111.8396298 100.8105888  35.6986705 113.1641403  96.7996861
  36.4458524 113.6762800  96.4903983  35.9678294 112.8425456  97.6601255
  38.1465542 110.1998519  98.7815650  37.4088299 109.6875905  99.1125893
  38.3992316 109.7598901  97.9698927  38.2477169 102.9774771  99.3757420
  38.5536046 102.1172135  99.0883335  38.9729774 103.5692391  99.1756414
  32.5198249 113.2728564  99.8833611  32.5746859 112.3202401  99.8076087
  31.7089451 113.4288003 100.3674909  30.4590609 111.8905624  97.6423990
  29.6458475 112.1899795  98.0489182  30.9549603 111.4961313  98.3598472
  36.0564821 112.3547448 106.4738884  36.4114208 112.5818922 107.3333349
  36.7036952 112.6865825 105.8516139  41.7862558 115.4765884  97.1788213
  41.6480456 115.6667480  96.2509402  41.4298776 116.2385267  97.6356264
  29.9504684 109.4623980 103.2585225  30.5904063 109.3212739 102.5608188
  29.1182214 109.1758493 102.8823827  41.8131937 117.5442411 102.1899484
  42.2468444 117.4517700 103.0382538  42.5263518 117.5199912 101.5519500
  27.0347751 112.9069492  95.4479970  26.1045339 112.8453947  95.6649932
  27.1305223 112.3845444  94.6516611  26.9533300 109.4324305  98.0358211
  27.2140118 110.3469638  97.9267372  27.7750473 108.9648747  98.1854824
  42.6747487 117.5866112 104.7232370  42.8683377 118.4911923 104.9691644
  42.5748105 117.1273531 105.5570955  34.3283798 107.4724003 107.2222697
  33.6811713 108.1713952 107.1287173  35.0984813 107.9060147 107.5898945
  34.5047932 115.3104768 105.2819517  35.4339992 115.4615927 105.1088484
  34.0838962 115.3988788 104.4268163  37.7900670 116.0593069  90.7143952
  37.1729841 115.3339897  90.6177004  37.3217159 116.8202429  90.3711026
  29.5799216 110.2778493  89.8365256  28.7028683 110.1567294  89.4727503
  30.0556969 109.4864572  89.5844145  36.0759793 108.4399413  99.7261982
  36.5728492 107.6869375  99.4063052  35.3046774 108.4763730  99.1605191
  43.9289550 114.1439779 101.3680273  43.9179426 115.0264494 100.9974206
  43.0606929 113.7911329 101.1734810  32.6594761 110.5816796  99.4533666
  32.2892549 110.0287836 100.1414572  33.1553854 109.9774930  98.9008666
  40.5462125 113.0388420  97.8350439  41.0122577 113.8716411  97.7610742
  40.9969625 112.5733401  98.5395698  38.5178787 105.4069007 101.8741341
  37.6041867 105.6373233 102.0423548  38.9471889 105.4907451 102.7255373
  38.2885246 113.5958899 104.3741235  37.6356696 113.8434806 103.7193687
  38.6665626 112.7823037 104.0403712  28.0560095 107.9920787 105.6986772
  28.1201421 108.8535618 105.2864170  27.9927215 107.3794789 104.9659131
  24.3077910 111.8720349  95.2778162  24.6031351 110.9631027  95.2245215
  23.4065946 111.8508088  94.9559164  27.8372157 109.9476345 101.2605710
  27.1158743 110.5612313 101.1213183  28.6265413 110.4834110 101.1822356
  30.6398471 107.2830772 107.5346362  31.1632873 107.5293068 108.2972671
  30.4210804 108.1150806 107.1149499  26.0365752 109.5534446  95.4017487
  25.7078458 108.6731825  95.2192593  26.3905123 109.4982115  96.2893876
  29.1507575 109.8407416  95.7692964  29.4903647 110.3693337  95.0471573
  29.5979695 110.1787822  96.5451531  31.8451016 108.2244467 105.2196032
  31.5047836 107.4252280 105.6216712  31.1390022 108.5246178 104.6472866
  32.4967488 105.3093779 103.6723355  33.3193557 104.8354257 103.5502246
  32.7405551 106.0884263 104.1722042  31.1375722 108.3382038  93.9686257
  31.8584085 108.7163290  93.4649974  30.5141026 109.0570914  94.0721235
  35.2806845 109.0427187  94.9044589  35.4970459 109.9251824  94.6033418
  34.8000912 108.6513400  94.1750231  30.0206066 112.0012900 101.4815334
  29.8750647 112.3153203 102.3739616  29.5431270 112.6197800 100.9286233
  31.8802449 108.9915448 101.5296224  31.8664018 108.0956541 101.1928522
  32.5974877 108.9986111 102.1634510  33.7328580 109.4252788 103.5749351
  33.4746358 110.3469859 103.5733681  33.2013620 109.0283222 104.2649815
  31.2839345 107.8729828  96.7983794  31.4055256 106.9446474  96.9974681
  30.9941388 107.8868514  95.8862109  34.1530536 105.5584738  99.9350514
  34.1752232 105.6224072  98.9802493  34.5698595 104.7189247 100.1291020
  44.5314160 115.2939998  97.9729736  44.9745306 114.5447323  97.5748859
  43.6540670 115.2850134  97.5903468  41.3733145 116.7795415 107.6007592
  41.4231150 116.6145422 108.5423115  41.2647069 115.9122674 107.2105473
  38.6636908 112.7626343 108.9166899  39.5646771 112.6232808 108.6250897
  38.7384882 112.9280798 109.8565076  32.9979713 110.1393198 107.7620085
  32.1283023 110.4326764 107.4902674  33.2339194 110.7233643 108.4827349
  44.0747025 116.7645236 100.3652184  44.9093916 117.2035040 100.5289744
  44.2106153 116.2883890  99.5460430  41.1238531 114.3224971 106.3129672
  41.5992652 114.5152617 105.5048523  40.2004096 114.3784157 106.0673055
  35.7018747 106.3572815 105.2785505  36.2200691 107.0933842 104.9531994
  35.3473880 106.6636808 106.1132265  27.2817685 111.2177496  93.3946911
  26.5886930 111.2921851  92.7386947  27.0369437 110.4537840  93.9168428
  35.9531341 102.7773097 100.7986402  36.2333095 102.1096286 101.4246829
  36.7381948 102.9702193 100.2861066  39.8240200 111.1990731 104.5457977
  40.7757622 111.2988829 104.5670201  39.6543650 110.4069000 105.0556061
  37.8454579 108.2846314 104.7317378  37.2504511 108.5651327 104.0363867
  37.5604276 108.7740215 105.5034119  42.3028277 114.4196851 103.6600277
  42.2704597 113.4812852 103.8459961  42.9128901 114.4980888 102.9266102
  34.1411608 113.2892904  89.7027481  35.0870713 113.1599112  89.7715899
  33.7625853 112.5507566  90.1796909  42.4522766 111.2107894 103.7058560
  41.9361814 110.4266351 103.5188489  43.3362714 110.8826611 103.8705079
  40.1133493 104.9548910  99.6654373  39.9158314 104.6463998 100.5497705
  40.7233198 105.6810549  99.7952302  48.1204827 115.4812858 102.8006314
  48.8508216 115.2198146 103.3614017  47.5111773 114.7441580 102.8408382
  46.2020124 113.6220720 103.3980765  45.4753288 113.4876685 102.7897256
  45.7867411 113.9297549 104.2037483  32.3254525 111.2142880  89.6382366
  31.4185981 110.9175993  89.7145080  32.6030506 110.9172698  88.7716652
  33.9416591 105.7579770  95.7926607  33.1317319 105.4126855  96.1681853
  34.6301008 105.4487314  96.3814219  35.8707139 104.8357817  97.4150904
  36.4238178 105.2553270  98.0740927  36.1077226 103.9093565  97.4573860
  31.0953310 108.0729816  89.7794345  31.9572474 108.3984714  90.0390163
  31.2803654 107.2861311  89.2667411  39.2485946 106.9458342  96.9229568
  38.6684615 107.6043146  96.5407621  38.9821879 106.1235687  96.5116986
  37.6989513 106.3463400  99.1250889  38.1989291 106.4579934  98.3165207
  38.3425121 106.0424453  99.7651697  38.0310824 109.1058432  95.9785917
  37.1436679 109.3908083  95.7606111  38.4464814 108.9452196  95.1313193
  41.3825361 109.1304953  99.6940256  42.1585751 109.6201406  99.9664873
  40.6573495 109.5563008 100.1512125  43.8197919 109.8432573 100.7514196
  44.4142410 109.6028309 100.0407505  43.8924503 109.1239703 101.3787733
  38.0051848 114.6212968  96.1936207  37.9487050 115.0781520  95.3543839
  38.5580191 113.8603653  96.0159049  41.8156654 110.4102700  97.0186326
  41.5593588 110.0099336  97.8494534  41.1909522 111.1246494  96.8936465
  46.1268992 113.1498773  99.5257618  45.5668550 113.2191963 100.2989180
  45.5212495 112.9739758  98.8057114  38.7386628 115.8117750  93.4888736
  38.6835431 115.6462021  92.5477180  38.1132683 116.5193782  93.6450926
  32.0482753 105.3125859  93.0674054  32.0361423 106.2567698  93.2242325
  32.9406175 105.1296004  92.7733515  35.8634872 101.9068635  97.3219991
  35.0967268 101.3527122  97.4676673  36.2745577 101.9790504  98.1834143
  47.2883258 119.0473130 104.2739682  46.9447528 119.9374771 104.1978793
  47.6562221 118.8574787 103.4109267  49.0870924 118.3066689  99.3757420
  49.3929801 117.4464052  99.0883335  49.8123529 118.8984309  99.1756414
  46.7925096 118.1065015 100.7986402  47.0726849 117.4388204 101.4246829
  47.5775703 118.2994111 100.2861066  50.9527247 120.2840828  99.6654373
  50.7552068 119.9755916 100.5497705  51.5626953 121.0102467  99.7952302
  46.7028627 117.2360553  97.3219991  45.9361023 116.6819040  97.4676673
  47.1139332 117.3082422  98.1834143   4.3523395  31.0131700  86.7931376
   3.5987104  30.4439098  86.6375380   4.4870937  30.9794364  87.7402011
   0.7172008  32.4539688  87.0897490   1.5518899  32.8929492  87.2535051
   0.8531137  31.9778341  86.2705736   4.7629810  31.1707310  89.5251620
   5.4933199  30.9092598  90.0859324   4.1536756  30.4336032  89.5653688
   2.8445108  29.3115172  90.1226071   2.1178271  29.1771137  89.5142563
   2.4292394  29.6192001  90.9282789   0.4622903  25.5327024  87.4759503
   1.0567393  25.2922760  86.7652811   0.5349486  24.8134155  88.1033039
   2.7693975  28.8393225  86.2502924   2.2093533  28.9086415  87.0234486
   2.1637479  28.6634210  85.5302420   4.3549994  45.5149739  88.9432880
   4.9928404  45.3956487  88.2396220   4.2370837  46.4630583  89.0020832
   1.1639700  45.4677167  88.8794405   0.8258212  45.3518232  87.9914939
   2.0329468  45.0668332  88.8595411   1.6459483  46.6212019  94.8380610
   1.6348124  46.2264817  93.9661114   1.8080122  45.8878092  95.4314382
   2.6026074  50.9883611  80.1805760   1.9514054  51.5737692  79.7939774
   3.3970437  51.5189806  80.2400798   3.9091262  43.2401193  86.0186088
   4.6954351  42.8220616  85.6676505   4.1729967  44.1447285  86.1867736
   4.0801340  48.6774043  80.7174745   3.4447173  48.7508670  81.4295649
   3.7498746  49.2667642  80.0393824   9.3099689  43.1776426  86.9219066
  10.0424861  42.6075643  87.1556896   8.5539045  42.7898027  87.3625572
   0.9275809  45.6003668  84.1182409   0.5634016  45.0734289  84.8295330
   1.7842925  45.2102137  83.9448894   6.8325110  36.8898000  91.3813675
   6.5008434  37.7593411  91.1574890   6.2370723  36.5734284  92.0607705
   3.3256629  49.0910546  90.7809588   3.0257352  49.9935585  90.6725395
   2.9807689  48.8242730  91.6330741   6.7253773  41.6093087  88.4607025
   5.8170650  41.5408495  88.1665786   6.6741369  42.0865031  89.2888851
   8.5915419  39.8109525  90.2384899   7.9489800  40.1042058  89.5924694
   8.0870348  39.6962445  91.0438096   6.2455583  43.5572698  80.9270758
   7.1573439  43.7900085  80.7518456   5.7365230  44.1409742  80.3645837
   4.5296351  47.9797326  94.5632051   4.9379707  47.5379737  93.8186683
   3.8073612  47.4049953  94.8166244   0.8827421  42.9169933  91.9365608
   1.7288616  43.3409346  92.0800257   0.8226058  42.2603557  92.6304171
   4.8525165  48.5398517  88.3184340   4.2234028  48.7044231  87.6160408
   4.4650827  48.9540126  89.0895304   8.7314397  49.4752954  85.6728704
   8.0465435  49.8551856  85.1225737   8.8158247  50.0848281  86.4060651
   4.0326866  40.5774301  93.5946781   3.7887798  41.3316362  93.0581057
   4.3086797  40.9559649  94.4294029   5.9865329  47.1212913  92.2724047
   6.1982224  47.7644673  91.5958428   5.9395077  46.2875230  91.8045977
   3.5891558  39.7330734  89.1760619   2.7276037  40.0311988  89.4677357
   3.6153992  39.9501133  88.2441652   7.1011157  49.9984869  90.4446404
   7.9228601  49.5965056  90.1629086   7.0973560  49.8953103  91.3962520
  15.1917150  46.3423617  86.7931376  14.4380858  45.7731015  86.6375380
  15.3264691  46.3086282  87.7402011   0.5815778  51.2137020  82.4686095
   0.4461453  52.0588555  82.8970943   1.1225590  51.4156297  81.7052029
   2.2084254  51.8360586  96.5986437   1.7648108  51.0496965  96.2807342
   2.8701468  52.0239737  95.9330328   4.3065492  52.1163386  94.6267839
   4.2883968  52.9372267  94.1348108   5.2285412  51.9917461  94.8517980
   3.9308241  34.7367582  90.9984989   3.5872511  35.6269223  90.9224099
   4.2987204  34.5469239  90.1354574   3.8958524  44.7276193  79.5057424
   3.3805148  45.4980797  79.7445811   3.6235833  44.0541329  80.1290485
   1.4805635  39.5725893  84.5642662   0.6247232  39.1832744  84.3848301
   1.8932587  39.6517854  83.7042448   3.0104782  37.1072237  88.9634222
   2.5069577  37.0702372  88.1502027   3.3035389  38.0164979  89.0230879
   8.8692798  47.4808547  81.4410597   8.0922241  47.1419707  80.9965759
   9.5484279  47.4861170  80.7665562   3.6844827  42.6003285  81.3317205
   3.3794963  42.9149434  82.1827348   4.6375270  42.6784705  81.3744538
   2.1291259  48.7593508  82.9810159   1.6012621  48.0246268  82.6683396
   1.6278762  49.5368184  82.7350127   7.1084105  46.9542529  88.0977205
   6.4507780  47.6441790  88.1857334   7.9124504  47.3438961  88.4411192
   5.9189564  45.3086901  86.1481147   6.4321446  45.9416893  86.6502857
   6.5690788  44.7088097  85.7824507   3.1811938  55.2871226  78.9041818
   2.5073637  55.5902922  79.5126776   3.5677760  56.0900306  78.5547275
   2.3970395  42.7836357  88.3939488   1.4792956  43.0051304  88.2361176
   2.8130539  42.8582667  87.5351195   3.1805443  44.1827772  83.5242168
   3.9277262  44.6949170  83.2149290   3.4497032  43.8611825  84.3846561
   1.4532093  46.6786313  80.5069122   0.5443312  46.3945346  80.6041592
   1.4827177  47.0985392  79.6472429   6.6851360  50.2892903  84.2760290
   6.2313687  49.4483813  84.3325480   6.0545327  50.9254301  84.6135070
   5.6284280  41.2184889  85.5060957   4.8907037  40.7062275  85.8371200
   5.8811053  40.7785270  84.6944234   5.1284300  52.1269399  85.2110108
   5.4207274  52.6874457  84.4922473   5.6382920  52.4197960  85.9663267
   5.7295907  33.9961141  86.1002726   6.0354784  33.1358504  85.8128641
   6.4548512  34.5878761  85.9001720   1.1508181  48.2195057  77.8457201
   0.7127611  47.5030916  77.3862838   1.8918622  48.4471172  77.2842292
   3.5383558  43.3733818  93.1984190   3.8932946  43.6005291  94.0578656
   4.1855690  43.7052195  92.5761446   9.2681295  46.4952254  83.9033519
   9.1299194  46.6853850  82.9754708   8.9117514  47.2571637  84.3601570
   9.2950675  48.5628781  88.9144791   9.7287182  48.4704070  89.7627845
  10.0082256  48.5386281  88.2764807   3.0278570  52.1630875  90.4477891
   3.0815592  52.7321811  91.2155607   2.1593351  52.3332760  90.0831928
  10.1566225  48.6052482  91.4477676  10.3502115  49.5098292  91.6936951
  10.0566843  48.1459901  92.2816261   1.8102535  38.4910372  93.9468003
   1.1630450  39.1900322  93.8532480   2.5803551  38.9246516  94.3144252
   5.2181333  48.7559224  97.0218557   5.0666840  48.5269776  96.1048640
   5.2086013  49.7129826  97.0349902   1.9866670  46.3291137  92.0064823
   2.9158730  46.4802297  91.8333791   1.5657700  46.4175158  91.1513470
   1.3803153  55.4550898  81.1188897   1.5554909  54.9838941  81.9334520
   0.6935941  56.0816664  81.3470158   2.3360217  49.7323404  87.1652199
   2.0010049  49.6924174  88.0609848   1.8364162  49.0668120  86.6922609
   5.2719408  47.0779439  77.4389258   4.6548579  46.3526267  77.3422311
   4.8035897  47.8388799  77.0956333   6.9273540  51.7878347  95.0995039
   6.8686086  51.1037567  94.4325622   7.3293058  52.5297337  94.6475665
   6.9290947  49.7517931  93.3309018   6.0417726  49.4143853  93.4535417
   7.4989498  49.0200962  93.5677784   3.5578530  39.4585783  86.4507288
   4.0547230  38.7055745  86.1308359   2.7865512  39.4950099  85.8850498
  11.4108288  45.1626148  88.0925580  11.3998164  46.0450864  87.7219513
  10.5425667  44.8097699  87.8980117   2.9190784  54.3106217  92.4528420
   3.6318756  54.9453682  92.3804322   2.4280813  54.4070083  91.6368422
   4.6408311  48.2157470  84.0245712   3.7064590  48.3358932  83.8550416
   4.8184979  47.3129937  83.7605722   8.0280862  44.0574789  84.5595746
   8.4941315  44.8902781  84.4856049   8.4788363  43.5919771  85.2641004
   6.0957093  50.4018610  81.5581898   6.3716937  50.2875205  82.4675772
   5.2261592  50.0036095  81.5194071   5.9997525  36.4255376  88.5986647
   5.0860605  36.6559603  88.7668854   6.4290627  36.5093820  89.4500680
   5.7703984  44.6145268  91.0986541   5.1175434  44.8621176  90.4438994
   6.1484364  43.8009406  90.7649019   2.7311157  54.6504961  85.2014712
   2.9133552  53.8326617  85.6642464   3.5544144  54.8672654  84.7639602
   3.0653323  53.5773146  82.4629760   3.5941089  53.0665601  81.8499922
   3.3281543  53.2615677  83.3275293   1.8191557  45.3565079  97.5852578
   1.1432194  45.2559209  98.2554954   2.6419191  45.2004293  98.0488576
   0.5614340  56.6632007  91.8210194   1.1132648  56.8263628  92.5859280
   0.9020533  57.2536444  91.1490219   5.4125214  51.4893264  97.6758849
   5.9565118  52.1023222  97.1813804   4.8312059  52.0472843  98.1925862
   3.6982727  54.6113982  88.8073877   3.5733866  53.8103722  88.2984822
   4.3561818  55.1060176  88.3187847   5.7617635  52.4123002  90.4353427
   4.8147971  52.2928353  90.3631753   6.1100408  51.5245500  90.5179688
   2.7664068  52.2075718  86.6357779   2.6189031  51.2792426  86.8165349
   3.5917562  52.2295809  86.1514854   6.3698190  53.0304277  87.7222652
   7.2944738  52.8247139  87.5847103   6.2013494  52.7820678  88.6311993
   2.7625583  40.0613556  81.6289896   2.9789197  40.9438194  81.3278724
   2.2819650  39.6699770  80.8995538   1.2147318  40.4439158  90.2994658
   0.9565096  41.3656228  90.2978988   0.6832358  40.0469592  90.9895122
   6.1593507  53.5489945  83.0784743   6.3330384  52.9836367  82.3258596
   6.6522398  54.3490840  82.8964233   1.6349273  36.5771108  86.6595820
   1.6570970  36.6410441  85.7047800   2.0517332  35.7375617  86.8536326
  12.0132898  46.3126368  84.6975043  12.4564044  45.5633693  84.2994166
  11.1359408  46.3036504  84.3148775   7.1468679  52.8656709  80.1781641
   7.8419584  53.4863402  80.3968956   7.4891829  52.0152060  80.4534019
   9.0460102  50.3156415  81.7068972   9.5711426  50.6543687  80.9818292
   8.9582455  49.3803430  81.5232107   0.7080151  54.2290488  93.8358849
   1.0167277  53.9839635  94.7081548   1.5055633  54.4337127  93.3477719
   8.7354008  50.9489318  97.0120170   7.9449552  50.9313457  96.4724670
   8.4987363  51.4877612  97.7669207   8.8551883  47.7981785  94.3252899
   8.9049888  47.6331792  95.2668421   8.7465807  46.9309044  93.9350779
   6.1455646  43.7812713  95.6412205   7.0465508  43.6419177  95.3496203
   6.2203620  43.9467167  96.5810383  10.3570080  50.2178726  94.5694920
  10.0654888  50.5808707  95.4058381   9.7442211  49.5045734  94.3908252
  11.5565762  47.7831606  87.0897490  12.3912654  48.2221410  87.2535051
  11.6924891  47.3070259  86.2705736   8.6057268  45.3411341  93.0374978
   9.0811390  45.5338987  92.2293830   7.6822834  45.3970527  92.7918362
   3.1837485  37.3759184  92.0030812   3.7019429  38.1120211  91.6777301
   2.8292618  37.6823178  92.8377571   3.4350079  33.7959467  87.5231709
   3.7151833  33.1282656  88.1492135   4.2200686  33.9888562  87.0106372
   1.2383547  52.9718461  79.0856735   0.6657515  53.5908648  78.6327207
   1.8116341  53.5217822  79.6196657   7.3058937  42.2177101  91.2703284
   8.2576360  42.3175198  91.2915508   7.1362388  41.4255369  91.7801368
   5.3273317  39.3032684  91.4562685   4.7323249  39.5837697  90.7609173
   5.0423013  39.7926585  92.2279426   4.4580807  53.2555611  80.2165317
   5.3911480  53.1901173  80.4198193   4.3704020  54.0911878  79.7579850
   7.0868824  52.5721481  77.1769265   7.0082455  52.2381345  78.0705023
   7.9078491  53.0643249  77.1760737   9.7847015  45.4383221  90.3845583
   9.7523335  44.4999221  90.5705267  10.3947639  45.5167257  89.6511408
   1.6230346  44.3079273  76.4272787   2.5689451  44.1785482  76.4961205
   1.2444591  43.5693935  76.9042216   9.9341504  42.2294264  90.4303867
   9.4180552  41.4452721  90.2433795  10.8181452  41.9012981  90.5950386
   7.5952231  35.9735280  86.3899679   7.3977052  35.6650368  87.2743011
   8.2051936  36.6996918  86.5197609  15.6023565  46.4999227  89.5251620
  16.3326953  46.2384515  90.0859324  14.9930510  45.7627949  89.5653688
  13.6838862  44.6407090  90.1226071  12.9572026  44.5063055  89.5142563
  13.2686149  44.9483919  90.9282789   1.5069038  48.3597020  97.8873444
   2.4272048  48.5375619  98.0813491   1.4718622  47.4153065  97.7353144
   1.4235329  36.7766140  82.5171914   0.6136057  36.4313225  82.8927160
   2.1119746  36.4673683  83.1059526   3.3525877  35.8544186  84.1396211
   3.9056916  36.2739640  84.7986234   3.5895963  34.9279934  84.1819167
   6.7304684  37.9644712  83.6474875   6.1503353  38.6229516  83.2652927
   6.4640617  37.1422056  83.2362292   5.1808251  37.3649769  85.8496195
   5.6808029  37.4766304  85.0410514   5.8243859  37.0610822  86.4897004
   5.5129562  40.1244802  82.7031223   4.6255417  40.4094453  82.4851418
   5.9283551  39.9638565  81.8558500   8.8644098  40.1491323  86.4185562
   9.6404488  40.6387775  86.6910179   8.1392233  40.5749377  86.8757432
  11.3016657  40.8618942  87.4759503  11.8961148  40.6214678  86.7652811
  11.3743241  40.1426073  88.1033039   4.6572776  49.8889477  76.7979243
   5.3608626  50.0939479  77.4136899   3.9335424  50.4566238  77.0628327
   5.4870586  45.6399338  82.9181513   5.4305787  46.0967889  82.0789146
   6.0398928  44.8790022  82.7404356   9.2975392  41.4289070  83.7431633
   9.0412326  41.0285705  84.5739840   8.6728260  42.1432864  83.6181772
  13.6087730  44.1685143  86.2502924  13.0487288  44.2378332  87.0234486
  13.0031233  43.9926128  85.5302420   6.5659473  50.3272006  78.8477703
   7.4005077  49.8953204  78.6655178   6.4043816  50.1554019  79.7754598
   6.2205365  46.8304119  80.2134042   6.1654169  46.6648391  79.2722487
   5.5951421  47.5380152  80.3696232   3.5351272  49.1353031  99.5387605
   4.4042432  49.3093683  99.1774240   3.0558024  49.9547448  99.4163335
   3.3453610  32.9255005  84.0465298   2.5786006  32.3713491  84.1921980
   3.7564315  32.9976874  84.9079449  15.1943748  60.8441657  88.9432880
  15.8322158  60.7248404  88.2396220  15.0764591  61.7922501  89.0020832
  12.0033454  60.7969085  88.8794405  11.6651966  60.6810150  87.9914939
  12.8723223  60.3960250  88.8595411   7.8620270  62.6504561  84.8691296
   7.2985135  62.5594498  84.1007583   7.7472665  61.8304466  85.3493788
  12.4853237  61.9503937  94.8380610  12.4741878  61.5556735  93.9661114
  12.6473877  61.2170009  95.4314382   5.4084702  64.1455753  87.7075516
   6.2005994  63.8046578  87.2921815   5.6481352  64.2550728  88.6277669
  13.4419829  66.3175529  80.1805760  12.7907809  66.9029610  79.7939774
  14.2364192  66.8481724  80.2400798   7.3675456  63.4064666  80.5792895
   8.1406332  62.8593653  80.4405771   7.7200855  64.2708916  80.7907356
   9.2060499  64.7341049  93.7859794   8.9150365  65.6386679  93.6706460
   9.8417483  64.7757576  94.5003864  10.1316705  62.1117897  90.3761154
  10.7280278  61.8873919  89.6618117  10.1891677  61.3702643  90.9786602
   9.7041734  59.5657332  78.2111345   9.9567255  59.0438854  77.4494808
   8.7666293  59.4023478  78.3138028  14.7485017  58.5693111  86.0186088
  15.5348106  58.1512534  85.6676505  15.0123721  59.4739203  86.1867736
  14.9195094  64.0065961  80.7174745  14.2840927  64.0800588  81.4295649
  14.5892500  64.5959560  80.0393824  20.1493444  58.5068344  86.9219066
  20.8818616  57.9367561  87.1556896  19.3932800  58.1189944  87.3625572
   9.4238023  61.4685438  80.4135720   9.3074281  60.7930342  81.0816804
   9.5340283  60.9817812  79.5967873  11.7669564  60.9295585  84.1182409
  11.4027771  60.4026206  84.8295330  12.6236679  60.5394055  83.9448894
  17.6718864  52.2189918  91.3813675  17.3402189  53.0885329  91.1574890
  17.0764478  51.9026202  92.0607705  11.4075051  55.9585485  79.1143757
  11.5749453  56.8265722  79.4814228  11.2172220  56.1212767  78.1905047
  14.1650384  64.4202464  90.7809588  13.8651107  65.3227503  90.6725395
  13.8201443  64.1534647  91.6330741   7.6162865  60.8716261  86.8146292
   6.6913362  60.7392475  87.0223984   7.8647278  61.6510480  87.3116235
  17.5647527  56.9385004  88.4607025  16.6564405  56.8700413  88.1665786
  17.5135123  57.4156949  89.2888851  11.3864271  58.4143143  80.0990424
  11.2663897  58.8600193  80.9375905  10.6916860  58.7628460  79.5403962
   4.9771676  60.5149534  87.6490081   5.1064057  60.7684013  88.5629493
   4.2969128  61.1077242  87.3294736   9.1471164  71.1846784  83.7480556
   9.0695193  72.1354609  83.8269036   8.5432807  70.8392657  84.4055482
  11.6388393  58.3574650  96.4041922  10.8621727  58.9168570  96.3944787
  12.2778956  58.8431433  96.9256793  19.4309174  55.1401443  90.2384899
  18.7883554  55.4333976  89.5924694  18.9264102  55.0254363  91.0438096
  17.0849338  58.8864616  80.9270758  17.9967194  59.1192003  80.7518456
  16.5758985  59.4701660  80.3645837   9.8934766  61.1660103  95.9659889
  10.6349450  61.7045147  95.6894713   9.1871751  61.7926392  96.1231441
  15.3690105  63.3089244  94.5632051  15.7773461  62.8671654  93.8186683
  14.6467367  62.7341871  94.8166244  11.7221175  58.2461850  91.9365608
  12.5682370  58.6701264  92.0800257  11.6619813  57.5895475  92.6304171
  15.6918920  63.8690434  88.3184340  15.0627782  64.0336148  87.6160408
  15.3044582  64.2832044  89.0895304  19.5708152  64.8044872  85.6728704
  18.8859190  65.1843773  85.1225737  19.6552001  65.4140199  86.4060651
  14.8720621  55.9066219  93.5946781  14.6281552  56.6608279  93.0581057
  15.1480551  56.2851566  94.4294029  16.8259083  62.4504831  92.2724047
  17.0375979  63.0936591  91.5958428  16.7788832  61.6167148  91.8045977
  14.4285312  55.0622652  89.1760619  13.5669791  55.3603905  89.4677357
  14.4547747  55.2793051  88.2441652  11.2446882  63.6064842  85.5834425
  11.7085227  63.8852545  84.7939047  10.9803680  62.7048287  85.4007516
   8.1370963  63.1536324  88.5214188   8.7072320  63.5823592  87.8831673
   8.7279075  62.8718909  89.2198374  10.1815768  59.7287995  82.3923990
  10.8839811  60.1809038  82.8597916   9.8496396  59.0871814  83.0203883
   8.6296129  58.3199751  96.7675199   7.9994790  59.0016032  97.0010596
   8.5232217  58.2082833  95.8228338   3.9241102  57.9871547  87.6941124
   3.1340156  58.2429076  87.2181234   4.4152349  58.8019885  87.7993164
  17.9404911  65.3276787  90.4446404  18.7622355  64.9256974  90.1629086
  17.9367314  65.2245021  91.3962520   5.8755847  58.3516127  84.6524600
   5.0787010  58.4634821  85.1708096   5.6481439  58.6902779  83.7865491
  11.7061515  64.8760830  92.6007115  11.7705947  65.3381237  93.4365287
  10.9972439  64.2458195  92.7289425   2.2078805  58.2402038  90.1256114
   2.4586843  59.1249048  90.3913690   2.7438353  58.0606639  89.3531206
  26.0310904  61.6715535  86.7931376  25.2774613  61.1022933  86.6375380
  26.1658446  61.6378200  87.7402011  11.4209532  66.5428937  82.4686095
  11.2855207  67.3880473  82.8970943  11.9619345  66.7448215  81.7052029
   7.9076872  52.6220517  99.1300450   7.5143818  52.0686716  99.8048095
   8.7243012  52.9331096  99.5206968   4.8738930  64.0604375  83.0414020
   5.3863450  64.8547626  83.1919585   5.5261643  63.3630666  82.9747622
   6.6833815  67.1770132  85.1236774   6.8600443  68.0988096  84.9357757
   7.4790648  66.8628551  85.5531153  10.8244833  54.0378396  96.7220707
  11.5654546  54.6385549  96.6425169  11.0562756  53.2956034  96.1638750
   5.9686171  59.2234764  94.9998937   5.8539686  58.3220021  95.3006036
   5.1130689  59.4698460  94.6483753  13.0478009  67.1652504  96.5986437
  12.6041863  66.3788882  96.2807342  13.7095222  67.3531654  95.9330328
   7.8065130  68.6948305  91.1247116   8.3572555  68.5665369  90.3524110
   6.9676606  68.9943194  90.7742009  15.1459247  67.4455304  94.6267839
  15.1277722  68.2664185  94.1348108  16.0679167  67.3209379  94.8517980
  11.6032301  64.9599433  95.4691347  12.1360638  64.1987721  95.2390655
  11.0746382  64.6673085  96.2115501  14.7701996  50.0659499  90.9984989
  14.4266265  50.9561141  90.9224099  15.1380959  49.8761157  90.1354574
   2.8387847  62.3893030  83.8173591   3.6763069  62.7990038  83.6007299
   3.0166114  61.4492472  83.7873785  14.7352279  60.0568110  79.5057424
  14.2198902  60.8272715  79.7445811  14.4629587  59.3833247  80.1290485
  12.3199390  54.9017811  84.5642662  11.4640986  54.5124662  84.3848301
  12.7326342  54.9809772  83.7042448  13.8498536  52.4364154  88.9634222
  13.3463332  52.3994290  88.1502027  14.1429143  53.3456897  89.0230879
  10.0941422  52.5202884  87.9700404  10.9594419  52.3245693  87.6106293
  10.1618931  52.2913236  88.8969760  19.7086553  62.8100465  81.4410597
  18.9315996  62.4711624  80.9965759  20.3878034  62.8153088  80.7665562
  14.5238582  57.9295202  81.3317205  14.2188717  58.2441352  82.1827348
  15.4769024  58.0076622  81.3744538  12.9685014  64.0885426  82.9810159
  12.4406375  63.3538185  82.6683396  12.4672516  64.8660102  82.7350127
  17.9477860  62.2834446  88.0977205  17.2901534  62.9733708  88.1857334
  18.7518259  62.6730878  88.4411192   7.7003741  54.7505092  85.3416770
   8.2747493  54.5280274  84.6089963   8.2874724  54.8193787  86.0945372
  16.7583319  60.6378819  86.1481147  17.2715200  61.2708811  86.6502857
  17.4084542  60.0380014  85.7824507   8.0273328  56.7809553  79.3612656
   7.1910641  57.1184240  79.6821930   7.8878098  56.6458533  78.4239793
  10.0026409  51.6246341  84.0691840   9.3490821  51.3095358  83.4448455
   9.9606883  51.0022081  84.7951663  11.1137614  61.9065636  75.9845132
  10.2064676  61.6754889  76.1836281  11.6108646  61.1103255  76.1719114
  14.0205693  70.6163143  78.9041818  13.3467392  70.9194840  79.5126776
  14.4071515  71.4192224  78.5547275  13.2364149  58.1128274  88.3939488
  12.3186711  58.3343221  88.2361176  13.6524293  58.1874585  87.5351195
  14.0199197  59.5119690  83.5242168  14.7671016  60.0241087  83.2149290
  14.2890787  59.1903743  84.3846561  12.2925847  62.0078231  80.5069122
  11.3837067  61.7237264  80.6041592  12.3220931  62.4277309  79.6472429
  17.5245115  65.6184820  84.2760290  17.0707442  64.7775730  84.3325480
  16.8939081  66.2546219  84.6135070  16.4678034  56.5476806  85.5060957
  15.7300791  56.0354193  85.8371200  16.7204808  56.1077188  84.6944234
  15.9678054  67.4561317  85.2110108  16.2601028  68.0166374  84.4922473
  16.4776675  67.7489878  85.9663267  16.5689662  49.3253058  86.1002726
  16.8748538  48.4650422  85.8128641  17.2942266  49.9170679  85.9001720
   2.8614018  59.7283745  84.4884324   2.6638418  59.1353106  83.7635391
   2.3060682  59.4235955  85.2060263  10.8410741  59.6206851  86.6078917
  10.8959351  58.6680688  86.5321394  10.0301943  59.7766291  87.0920216
  11.9901935  63.5486975  77.8457201  11.5521365  62.8322833  77.3862838
  12.7312376  63.7763089  77.2842292   8.7803101  58.2383911  84.3669296
   7.9670967  58.5378082  84.7734488   9.2762095  57.8439600  85.0843779
  10.9311679  68.2341668  86.3003561  10.8887858  68.4602514  85.3712093
  11.8474378  68.0005043  86.4489362  14.3777313  58.7025736  93.1984190
  14.7326701  58.9297209  94.0578656  15.0249444  59.0344113  92.5761446
  20.1075050  61.8244172  83.9033519  19.9692949  62.0145768  82.9754708
  19.7511269  62.5863554  84.3601570   8.2717176  55.8102267  89.9830531
   8.9116555  55.6691026  89.2853495   7.4394707  55.5236780  89.6069133
  20.1344430  63.8920699  88.9144791  20.5680936  63.7995988  89.7627845
  20.8476010  63.8678199  88.2764807   9.0477480  65.1104697  86.0965524
   9.8418078  64.6155017  85.8948099   8.3369172  64.5822560  85.7333229
  13.8672324  67.4922793  90.4477891  13.9209347  68.0613729  91.2155607
  12.9987106  67.6624678  90.0831928   5.3560243  59.2547779  82.1725276
   4.4257832  59.1932234  82.3895239   5.4517715  58.7323732  81.3761918
   5.2745792  55.7802592  84.7603518   5.5352610  56.6947925  84.6512679
   6.0962965  55.3127034  84.9100131   6.7470718  57.1940349  91.9302343
   7.4193771  56.9857711  91.2814992   5.9200504  56.9962435  91.4907575
  20.9959979  63.9344399  91.4477676  21.1895869  64.8390210  91.6936951
  20.8960597  63.4751818  92.2816261  12.6496290  53.8202290  93.9468003
  12.0024205  54.5192240  93.8532480  13.4197305  54.2538434  94.3144252
  16.0575088  64.0851142  97.0218557  15.9060594  63.8561694  96.1048640
  16.0479767  65.0421743  97.0349902  12.8260424  61.6583055  92.0064823
  13.7552484  61.8094214  91.8333791  12.4051454  61.7467076  91.1513470
  11.6248756  65.6833719  89.7763361  11.4859842  65.3152504  90.6489299
  10.8363352  66.1981359  89.6047319  12.2196908  70.7842816  81.1188897
  12.3948664  70.3130859  81.9334520  11.5329696  71.4108582  81.3470158
  13.1753971  65.0615322  87.1652199  12.8403804  65.0216092  88.0609848
  12.6757917  64.3960038  86.6922609   7.1498215  60.4682952  92.6904780
   7.0118013  59.7363191  93.2916319   8.0603139  60.3791852  92.4088968
  16.1113163  62.4071356  77.4389258  15.4942333  61.6818184  77.3422311
  15.6429651  63.1680716  77.0956333   9.7780516  60.1802911  92.1788459
  10.4880134  59.5396103  92.1375078   9.7349824  60.4315806  93.1014640
  17.7667294  67.1170265  95.0995039  17.7079841  66.4329485  94.4325622
  18.1686813  67.8589255  94.6475665   8.4909450  57.1668129  93.9984099
   7.9546807  56.7158868  94.6505695   7.9026158  57.3014038  93.2554563
   6.7857993  73.9332178  87.8928758   7.0254591  74.5650703  88.5707776
   5.9427190  73.5820218  88.1794117   7.9011709  56.6256781  76.5610563
   7.0241175  56.5045581  76.1972809   8.3769462  55.8342859  76.3089451
  17.7684702  65.0809849  93.3309018  16.8811480  64.7435770  93.4535417
  18.3383253  64.3492880  93.5677784   4.2248571  56.3024137  91.0837093
   4.1406760  55.6949806  90.3487503   3.4031277  56.7933155  91.0846590
  11.2985855  69.7411301  90.2970262  11.2256027  70.5466272  90.8089566
  10.8563248  69.9403267  89.4718283  11.0875635  68.9783071  83.8073083
  10.3043157  69.5204751  83.9011308  11.7868380  69.4957051  84.2067324
  14.3972285  54.7877700  86.4507288  14.8940984  54.0347663  86.1308359
  13.6259266  54.8242017  85.8850498  22.2502042  60.4918066  88.0925580
  22.2391918  61.3742781  87.7219513  21.3819422  60.1389617  87.8980117
  13.7584539  69.6398135  92.4528420  14.4712511  70.2745600  92.3804322
  13.2674567  69.7362001  91.6368422  15.4802066  63.5449388  84.0245712
  14.5458344  63.6650850  83.8550416  15.6578734  62.6421854  83.7605722
  10.9807254  56.9295083  86.1778973  10.6105041  56.3766124  86.8659879
  11.4766346  56.3253217  85.6253973  18.8674617  59.3866707  84.5595746
  19.3335069  60.2194698  84.4856049  19.3182117  58.9211688  85.2641004
   8.8096452  67.3892578  93.2733991   9.5105912  68.0229061  93.4263385
   8.3391567  67.7307310  92.5129630  16.9350848  65.7310528  81.5581898
  17.2110692  65.6167123  82.4675772  16.0655347  65.3328013  81.5194071
  16.8391280  51.7547294  88.5986647  15.9254359  51.9851521  88.7668854
  17.2684381  51.8385738  89.4500680  16.6097738  59.9437186  91.0986541
  15.9569188  60.1913093  90.4438994  16.9878118  59.1301324  90.7649019
  13.5704912  69.9796879  85.2014712  13.7527307  69.1618535  85.6642464
  14.3937898  70.1964571  84.7639602  13.9047077  68.9065064  82.4629760
  14.4334844  68.3957519  81.8499922  14.1675297  68.5907594  83.3275293
  12.6585311  60.6856997  97.5852578  11.9825948  60.5851126  98.2554954
  13.4812945  60.5296211  98.0488576   4.4064170  66.9228933  90.2065094
   4.9917607  66.1772621  90.3392998   4.2089009  67.2332890  91.0901758
   7.2602825  69.9580181  85.2227536   6.5913201  70.4426308  84.7391576
   7.1215695  70.2049401  86.1370915  11.4008094  71.9923924  91.8210194
  11.9526402  72.1555546  92.5859280  11.7414287  72.5828362  91.1490219
   6.3772587  54.3399074  92.4232079   6.4413914  55.2013905  92.0109477
   6.3139707  53.7273076  91.6904438   5.8524860  56.4122207  96.0705113
   6.4796899  56.0299284  96.6842638   4.9952779  56.1936409  96.4360806
  16.2518968  66.8185182  97.6758849  16.7958872  67.4315140  97.1813804
  15.6705813  67.3764760  98.1925862   2.6290403  58.2198636  82.0023468
   2.9243844  57.3109314  81.9490522   1.7278438  58.1986375  81.6804471
  14.5376481  69.9405900  88.8073877  14.4127621  69.1395640  88.2984822
  15.1955572  70.4352093  88.3187847   6.1584650  56.2954632  87.9851017
   5.4371235  56.9090600  87.8458490   6.9477905  56.8312397  87.9067663
  16.6011390  67.7414920  90.4353427  15.6541725  67.6220271  90.3631753
  16.9494163  66.8537418  90.5179688   8.9610963  53.6309059  94.2591669
   9.4845365  53.8771355  95.0217978   8.7423296  54.4629094  93.8394806
   4.3578244  55.9012733  82.1262793   4.0290950  55.0210112  81.9437899
   4.7117615  55.8460402  83.0139183  13.6057823  67.5367636  86.6357779
  13.4582785  66.6084344  86.8165349  14.4311316  67.5587727  86.1514854
   7.4720067  56.1885703  82.4938271   7.8116140  56.7171624  81.7716879
   7.9192188  56.5266109  83.2696838  17.2091945  68.3596195  87.7222652
  18.1338492  68.1539056  87.5847103  17.0407248  68.1112596  88.6311993
  10.1663508  54.5722754  91.9441339   9.8260328  53.7730567  92.3462019
   9.4602514  54.8724465  91.3718172  10.8179980  51.6572066  90.3968662
  11.6406049  51.1832545  90.2747552  11.0618043  52.4362550  90.8967348
   9.4588214  54.6860325  80.6931564  10.1796577  55.0641578  80.1895281
   8.8353519  55.4049202  80.7966542  13.6019337  55.3905474  81.6289896
  13.8182952  56.2730112  81.3278724  13.1213404  54.9991687  80.8995538
   8.3418559  58.3491187  88.2060641   8.1963139  58.6631490  89.0984922
   7.8643762  58.9676087  87.6531539  10.2014942  55.3393735  88.2541530
  10.1876510  54.4434828  87.9173828  10.9187370  55.3464399  88.8879816
  12.0541072  55.7731075  90.2994658  11.7958850  56.6948146  90.2978988
  11.5226113  55.3761510  90.9895122  16.9987261  68.8781862  83.0784743
  17.1724139  68.3128285  82.3258596  17.4916152  69.6782757  82.8964233
   2.8164221  60.8896531  91.1448302   2.2717689  61.6656339  91.2768576
   3.6943571  61.2367336  90.9867423   9.6051837  54.2208115  83.5229100
   9.7267749  53.2924761  83.7219988   9.3153880  54.2346801  82.6107416
  12.4743028  51.9063026  86.6595820  12.4964725  51.9702359  85.7047800
  12.8911087  51.0667534  86.8536326  22.8526652  61.6418285  84.6975043
  23.2957798  60.8925610  84.2994166  21.9753162  61.6328422  84.3148775
  17.9862434  68.1948627  80.1781641  18.6813338  68.8155319  80.3968956
  18.3285584  67.3443978  80.4534019   3.6030243  60.0166428  94.0378459
   2.8611979  60.1649063  94.6243089   3.2822987  60.2774693  93.1745208
  19.8853857  65.6448332  81.7068972  20.4105181  65.9835605  80.9818292
  19.7976209  64.7095348  81.5232107  11.5473905  69.5582406  93.8358849
  11.8561032  69.3131553  94.7081548  12.3449387  69.7629044  93.3477719
  11.5694517  71.7120316  86.0664225  11.1299508  71.2196694  86.7597082
  12.3202634  71.1693283  85.8256301   4.0486856  67.9031856  86.0688853
   4.8744876  67.6035628  85.6887497   3.6980908  67.1339479  86.5178642
   9.0168390  67.2558325  88.1386527   8.3948399  66.5929030  87.8388755
   9.6873256  67.2819457  87.4560175   2.2495461  65.8218183  87.0277787
   1.4127370  65.3940357  86.8461788   2.2219107  66.0150626  87.9648578
   9.0892917  55.7340113  97.7319033   9.1381072  56.6102235  97.3496803
   9.6315431  55.1917506  97.1590676  19.5747763  66.2781236  97.0120170
  18.7843306  66.2605375  96.4724670  19.3381117  66.8169530  97.7669207
  19.6945638  63.1273702  94.3252899  19.7443643  62.9623710  95.2668421
  19.5859561  62.2600961  93.9350779   8.5781896  65.8062248  81.6144988
   8.7270017  66.4897712  80.9611660   9.3848340  65.7867338  82.1294443
  16.9849400  59.1104630  95.6412205  17.8859263  58.9711095  95.3496203
  17.0597375  59.2759085  96.5810383  11.3192205  56.4871485  94.4865392
  10.4495515  56.7805051  94.2147980  11.5551686  57.0711930  95.2072655
  21.1963835  65.5470644  94.5694920  20.9048643  65.9100624  95.4058381
  20.5835966  64.8337652  94.3908252  22.3959517  63.1123524  87.0897490
  23.2306408  63.5513328  87.2535051  22.5318646  62.6362177  86.2705736
  19.4451023  60.6703258  93.0374978  19.9205144  60.8630905  92.2293830
  18.5216588  60.7262444  92.7918362   6.3334529  61.8327426  82.6206056
   6.0880571  60.9289756  82.8186267   6.5030444  61.8344576  81.6785534
  14.0231239  52.7051102  92.0030812  14.5413183  53.4412129  91.6777301
  13.6686372  53.0115095  92.8377571   5.6030177  57.5655783  80.1192218
   4.9099422  57.6400138  79.4632254   5.3581929  56.8016127  80.6413735
  14.2743833  49.1251385  87.5231709  14.5545587  48.4574574  88.1492135
  15.0594440  49.3180480  87.0106372  12.0777302  68.3010378  79.0856735
  11.5051269  68.9200566  78.6327207  12.6510096  68.8509740  79.6196657
  18.1452692  57.5469018  91.2703284  19.0970115  57.6467116  91.2915508
  17.9756142  56.7547287  91.7801368  16.1667071  54.6324602  91.4562685
  15.5717003  54.9129614  90.7609173  15.8816768  55.1218503  92.2279426
  15.2974562  68.5847529  80.2165317  16.2305235  68.5193090  80.4198193
  15.2097775  69.4203795  79.7579850  17.9262578  67.9013399  77.1769265
  17.8476210  67.5673262  78.0705023  18.7472245  68.3935167  77.1760737
  20.6240770  60.7675138  90.3845583  20.5917090  59.8291139  90.5705267
  21.2341393  60.8459175  89.6511408  12.4624100  59.6371191  76.4272787
  13.4083205  59.5077399  76.4961205  12.0838345  58.8985853  76.9042216
  20.7735258  57.5586182  90.4303867  20.2574307  56.7744638  90.2433795
  21.6575207  57.2304898  90.5950386  18.4345985  51.3027197  86.3899679
  18.2370806  50.9942285  87.2743011  19.0445691  52.0288836  86.5197609
  26.4417319  61.8291145  89.5251620  27.1720708  61.5676433  90.0859324
  25.8324265  61.0919867  89.5653688  24.5232617  59.9699008  90.1226071
  23.7965780  59.8354973  89.5142563  24.1079903  60.2775836  90.9282789
  12.3462793  63.6888937  97.8873444  13.2665802  63.8667536  98.0813491
  12.3112376  62.7444983  97.7353144  10.6467018  57.5621168  76.3627673
   9.7398473  57.2654280  76.4390386  10.9242999  57.2650986  75.4961959
   1.5644958  58.8827531  86.8126719   1.2447742  58.0292839  86.5201093
   1.0178386  59.0976109  87.5684686   5.3424866  61.5989972  90.5296226
   5.5610875  62.5307080  90.5484259   5.7550639  61.2397946  91.3151029
  12.2629083  52.1058057  82.5171914  11.4529812  51.7605142  82.8927160
  12.9513500  51.7965601  83.1059526  14.1919632  51.1836104  84.1396211
  14.7450670  51.6031557  84.7986234  14.4289718  50.2571852  84.1819167
  10.2152731  57.1723178  99.9198975  10.1149458  58.1217535  99.8511066
   9.9974273  56.8441417  99.0475045   9.4165802  54.4208103  76.5039652
  10.2784966  54.7463001  76.7635469   9.6016146  53.6339599  75.9912718
   1.4333218  62.5030442  88.7819841   0.7396689  62.0884395  88.2689795
   2.1806209  62.5450979  88.1853260  17.5698439  53.2936629  83.6474875
  16.9897108  53.9521433  83.2652927  17.3034371  52.4713974  83.2362292
  16.0202005  52.6941687  85.8496195  16.5201783  52.8058221  85.0410514
  16.6637613  52.3902740  86.4897004  10.0784001  60.6020317  98.7364036
   9.5951083  61.4020677  98.9427925  10.1644940  60.6128261  97.7831480
   3.3469961  62.4348696  86.6585856   3.3240649  62.5336383  85.7067739
   3.6570597  63.2813847  86.9803022   6.0057338  64.4924851  90.7732470
   6.9600592  64.4608794  90.7062402   5.8069862  64.0315475  91.5882696
   6.5956721  63.0625967  93.3403268   7.4149610  63.5570046  93.3638105
   6.8693528  62.1457935  93.3120835  16.3523317  55.4536720  82.7031223
  15.4649172  55.7386370  82.4851418  16.7677306  55.2930483  81.8558500
  19.7037853  55.4783241  86.4185562  20.4798243  55.9679693  86.6910179
  18.9785987  55.9041295  86.8757432  22.1410411  56.1910860  87.4759503
  22.7354902  55.9506596  86.7652811  22.2136995  55.4717990  88.1033039
   4.3607567  70.0344471  87.7902668   4.2262035  69.2744872  87.2240666
   3.9439629  70.7585371  87.3231457  15.4966530  65.2181394  76.7979243
  16.2002380  65.4231397  77.4136899  14.7729179  65.7858156  77.0628327
  16.3264340  60.9691256  82.9181513  16.2699542  61.4259807  82.0789146
  16.8792683  60.2081940  82.7404356  20.1369146  56.7580987  83.7431633
  19.8806081  56.3577623  84.5739840  19.5122014  57.4724781  83.6181772
  24.4481484  59.4977061  86.2502924  23.8881042  59.5670250  87.0234486
  23.8424988  59.3218045  85.5302420   7.5176693  70.9313788  88.0021110
   7.4009077  71.8759220  87.8999801   6.6969139  70.6287349  88.3906910
  17.4053228  65.6563923  78.8477703  18.2398832  65.2245122  78.6655178
  17.2437571  65.4845937  79.7754598  17.0599120  62.1596037  80.2134042
  17.0047924  61.9940308  79.2722487  16.4345175  62.8672070  80.3696232
   1.8491635  57.3964101  94.0395465   2.4950498  56.8863055  94.5282690
   1.6408786  58.1332783  94.6138890  14.3745027  64.4644949  99.5387605
  15.2436187  64.6385601  99.1774240  13.8951778  65.2839365  99.4163335
  10.3695245  51.6604146  79.7919361  10.3573915  52.6045986  79.9487632
  11.2618667  51.4774291  79.4978822   8.5431207  71.5842050  91.2177039
   9.4458454  71.6165660  91.5343534   8.3168577  70.6542501  91.2323375
  10.2984809  70.3373036  87.8787118   9.3480440  70.3374898  87.7651490
  10.6017295  69.5905771  87.3623152  14.1847365  48.2546922  84.0465298
  13.4179761  47.7005409  84.1921980  14.5958070  48.3268791  84.9079449
   6.1889126  54.5431718  98.1370479   7.0520587  54.1868523  98.3473804
   5.6154536  54.2045613  98.8245883  26.0337503  76.1733575  88.9432880
  26.6715913  76.0540322  88.2396220  25.9158346  77.1214419  89.0020832
  22.8427209  76.1261003  88.8794405  22.5045720  76.0102067  87.9914939
  23.7116977  75.7252168  88.8595411  18.7014025  77.9796479  84.8691296
  18.1378890  77.8886416  84.1007583  18.5866420  77.1596384  85.3493788
  23.3246992  77.2795854  94.8380610  23.3135633  76.8848653  93.9661114
  23.4867631  76.5461927  95.4314382  16.2478457  79.4747671  87.7075516
  17.0399749  79.1338495  87.2921815  16.4875107  79.5842646  88.6277669
  24.2813583  81.6467447  80.1805760  23.6301563  82.2321527  79.7939774
  25.0757946  82.1773642  80.2400798  18.2069211  78.7356584  80.5792895
  18.9800087  78.1885571  80.4405771  18.5594609  79.6000833  80.7907356
  20.0454253  80.0632966  93.7859794  19.7544119  80.9678597  93.6706460
  20.6811237  80.1049494  94.5003864  20.9710460  77.4409815  90.3761154
  21.5674032  77.2165837  89.6618117  21.0285431  76.6994560  90.9786602
  20.5435488  74.8949250  78.2111345  20.7961009  74.3730771  77.4494808
  19.6060047  74.7315396  78.3138028  25.5878771  73.8985028  86.0186088
  26.3741860  73.4804452  85.6676505  25.8517476  74.8031121  86.1867736
  25.7588849  79.3357879  80.7174745  25.1234682  79.4092505  81.4295649
  25.4286255  79.9251478  80.0393824  20.2631777  76.7977356  80.4135720
  20.1468035  76.1222259  81.0816804  20.3734037  76.3109730  79.5967873
  22.6063318  76.2587503  84.1182409  22.2421525  75.7318124  84.8295330
  23.4630434  75.8685972  83.9448894  22.2468805  71.2877403  79.1143757
  22.4143207  72.1557639  79.4814228  22.0565974  71.4504685  78.1905047
  25.0044138  79.7494382  90.7809588  24.7044861  80.6519421  90.6725395
  24.6595198  79.4826565  91.6330741  18.4556620  76.2008179  86.8146292
  17.5307116  76.0684393  87.0223984  18.7041033  76.9802398  87.3116235
  22.2258026  73.7435060  80.0990424  22.1057651  74.1892111  80.9375905
  21.5310614  74.0920378  79.5403962  15.8165431  75.8441452  87.6490081
  15.9457812  76.0975931  88.5629493  15.1362882  76.4369160  87.3294736
  19.9864918  86.5138702  83.7480556  19.9088948  87.4646527  83.8269036
  19.3826562  86.1684575  84.4055482  22.4782148  73.6866568  96.4041922
  21.7015482  74.2460488  96.3944787  23.1172711  74.1723350  96.9256793
  27.9243092  74.2156534  80.9270758  28.8360948  74.4483920  80.7518456
  27.4152739  74.7993578  80.3645837  20.7328520  76.4952021  95.9659889
  21.4743204  77.0337065  95.6894713  20.0265506  77.1218310  96.1231441
  26.2083860  78.6381161  94.5632051  26.6167216  78.1963572  93.8186683
  25.4861121  78.0633789  94.8166244  22.5614930  73.5753768  91.9365608
  23.4076125  73.9993182  92.0800257  22.5013567  72.9187392  92.6304171
  26.5312674  79.1982352  88.3184340  25.9021537  79.3628066  87.6160408
  26.1438336  79.6123962  89.0895304  30.4101906  80.1336790  85.6728704
  29.7252944  80.5135691  85.1225737  30.4945756  80.7432116  86.4060651
  27.6652838  77.7796749  92.2724047  27.8769733  78.4228509  91.5958428
  27.6182586  76.9459065  91.8045977  25.2679067  70.3914569  89.1760619
  24.4063546  70.6895823  89.4677357  25.2941501  70.6084968  88.2441652
  22.0840636  78.9356760  85.5834425  22.5478982  79.2144463  84.7939047
  21.8197434  78.0340205  85.4007516  18.9764717  78.4828242  88.5214188
  19.5466074  78.9115510  87.8831673  19.5672829  78.2010826  89.2198374
  21.0209522  75.0579912  82.3923990  21.7233566  75.5100956  82.8597916
  20.6890151  74.4163731  83.0203883  19.4689884  73.6491669  96.7675199
  18.8388544  74.3307950  97.0010596  19.3625972  73.5374751  95.8228338
  14.7634856  73.3163465  87.6941124  13.9733910  73.5720994  87.2181234
  15.2546104  74.1311803  87.7993164  28.7798666  80.6568704  90.4446404
  29.6016110  80.2548892  90.1629086  28.7761069  80.5536938  91.3962520
  16.7149602  73.6808044  84.6524600  15.9180765  73.7926739  85.1708096
  16.4875194  74.0194697  83.7865491  22.5455269  80.2052748  92.6007115
  22.6099702  80.6673155  93.4365287  21.8366193  79.5750112  92.7289425
  13.0472559  73.5693956  90.1256114  13.2980598  74.4540965  90.3913690
  13.5832108  73.3898557  89.3531206  22.2603287  81.8720855  82.4686095
  22.1248962  82.7172391  82.8970943  22.8013099  82.0740133  81.7052029
  18.7470627  67.9512435  99.1300450  18.3537572  67.3978633  99.8048095
  19.5636767  68.2623013  99.5206968  15.7132684  79.3896293  83.0414020
  16.2257205  80.1839543  83.1919585  16.3655397  78.6922584  82.9747622
  17.5227569  82.5062049  85.1236774  17.6994197  83.4280014  84.9357757
  18.3184403  82.1920469  85.5531153  21.6638588  69.3670314  96.7220707
  22.4048301  69.9677467  96.6425169  21.8956510  68.6247952  96.1638750
  16.8079926  74.5526681  94.9998937  16.6933441  73.6511938  95.3006036
  15.9524443  74.7990378  94.6483753  23.8871763  82.4944422  96.5986437
  23.4435617  81.7080800  96.2807342  24.5488977  82.6823572  95.9330328
  18.6458884  84.0240223  91.1247116  19.1966310  83.8957287  90.3524110
  17.8070360  84.3235112  90.7742009  25.9853001  82.7747221  94.6267839
  25.9671477  83.5956103  94.1348108  26.9072921  82.6501297  94.8517980
  22.4426056  80.2891351  95.4691347  22.9754392  79.5279639  95.2390655
  21.9140137  79.9965003  96.2115501  25.6095750  65.3951417  90.9984989
  25.2660020  66.2853059  90.9224099  25.9774713  65.2053075  90.1354574
  13.6781601  77.7184947  83.8173591  14.5156823  78.1281956  83.6007299
  13.8559869  76.7784390  83.7873785  25.5746033  75.3860028  79.5057424
  25.0592657  76.1564633  79.7445811  25.3023342  74.7125164  80.1290485
  23.1593144  70.2309729  84.5642662  22.3034741  69.8416579  84.3848301
  23.5720096  70.3101690  83.7042448  24.6892291  67.7656072  88.9634222
  24.1857086  67.7286207  88.1502027  24.9822898  68.6748815  89.0230879
  20.9335177  67.8494802  87.9700404  21.7988174  67.6537610  87.6106293
  21.0012686  67.6205154  88.8969760  30.5480307  78.1392383  81.4410597
  29.7709750  77.8003542  80.9965759  31.2271788  78.1445006  80.7665562
  25.3632336  73.2587120  81.3317205  25.0582472  73.5733269  82.1827348
  26.3162778  73.3368540  81.3744538  23.8078768  79.4177343  82.9810159
  23.2800130  78.6830103  82.6683396  23.3066271  80.1952020  82.7350127
  28.7871614  77.6126364  88.0977205  28.1295289  78.3025625  88.1857334
  29.5912013  78.0022796  88.4411192  18.5397496  70.0797010  85.3416770
  19.1141248  69.8572191  84.6089963  19.1268478  70.1485704  86.0945372
  27.5977073  75.9670737  86.1481147  28.1108955  76.6000728  86.6502857
  28.2478297  75.3671932  85.7824507  18.8667083  72.1101471  79.3612656
  18.0304395  72.4476157  79.6821930  18.7271853  71.9750451  78.4239793
  20.8420164  66.9538259  84.0691840  20.1884576  66.6387276  83.4448455
  20.8000638  66.3313999  84.7951663  21.9531368  77.2357554  75.9845132
  21.0458430  77.0046807  76.1836281  22.4502400  76.4395173  76.1719114
  24.8599447  85.9455061  78.9041818  24.1861146  86.2486758  79.5126776
  25.2465269  86.7484141  78.5547275  24.0757904  73.4420192  88.3939488
  23.1580465  73.6635139  88.2361176  24.4918048  73.5166503  87.5351195
  24.8592952  74.8411608  83.5242168  25.6064771  75.3533005  83.2149290
  25.1284541  74.5195661  84.3846561  23.1319602  77.3370149  80.5069122
  22.2230821  77.0529181  80.6041592  23.1614686  77.7569227  79.6472429
  28.3638869  80.9476738  84.2760290  27.9101196  80.1067648  84.3325480
  27.7332836  81.5838136  84.6135070  27.3071789  71.8768724  85.5060957
  26.5694546  71.3646110  85.8371200  27.5598562  71.4369106  84.6944234
  26.8071808  82.7853235  85.2110108  27.0994783  83.3458292  84.4922473
  27.3170429  83.0781796  85.9663267  27.4083416  64.6544976  86.1002726
  27.7142293  63.7942340  85.8128641  28.1336021  65.2462596  85.9001720
  13.7007772  75.0575663  84.4884324  13.5032172  74.4645023  83.7635391
  13.1454436  74.7527873  85.2060263  21.6804496  74.9498769  86.6078917
  21.7353106  73.9972606  86.5321394  20.8695698  75.1058208  87.0920216
  22.8295690  78.8778892  77.8457201  22.3915120  78.1614751  77.3862838
  23.5706131  79.1055007  77.2842292  19.6196856  73.5675829  84.3669296
  18.8064721  73.8669999  84.7734488  20.1155850  73.1731518  85.0843779
  21.7705434  83.5633586  86.3003561  21.7281612  83.7894432  85.3712093
  22.6868133  83.3296960  86.4489362  25.2171067  74.0317653  93.1984190
  25.5720455  74.2589127  94.0578656  25.8643199  74.3636030  92.5761446
  30.9468804  77.1536089  83.9033519  30.8086703  77.3437685  82.9754708
  30.5905023  77.9155472  84.3601570  19.1110931  71.1394184  89.9830531
  19.7510310  70.9982944  89.2853495  18.2788461  70.8528698  89.6069133
  19.8871234  80.4396615  86.0965524  20.6811833  79.9446935  85.8948099
  19.1762927  79.9114478  85.7333229  24.7066079  82.8214710  90.4477891
  24.7603101  83.3905647  91.2155607  23.8380860  82.9916595  90.0831928
  16.1953998  74.5839697  82.1725276  15.2651586  74.5224152  82.3895239
  16.2911470  74.0615649  81.3761918  16.1139547  71.1094509  84.7603518
  16.3746364  72.0239843  84.6512679  16.9356719  70.6418952  84.9100131
  17.5864472  72.5232267  91.9302343  18.2587526  72.3149629  91.2814992
  16.7594259  72.3254353  91.4907575  23.4890044  69.1494208  93.9468003
  22.8417959  69.8484157  93.8532480  24.2591060  69.5830351  94.3144252
  26.8968842  79.4143060  97.0218557  26.7454349  79.1853611  96.1048640
  26.8873522  80.3713661  97.0349902  23.6654179  76.9874972  92.0064823
  24.5946239  77.1386132  91.8333791  23.2445209  77.0758993  91.1513470
  22.4642510  81.0125637  89.7763361  22.3253596  80.6444421  90.6489299
  21.6757107  81.5273276  89.6047319  23.0590662  86.1134733  81.1188897
  23.2342418  85.6422777  81.9334520  22.3723450  86.7400500  81.3470158
  24.0147726  80.3907240  87.1652199  23.6797558  80.3508010  88.0609848
  23.5151671  79.7251955  86.6922609  17.9891970  75.7974870  92.6904780
  17.8511767  75.0655108  93.2916319  18.8996893  75.7083770  92.4088968
  26.9506917  77.7363274  77.4389258  26.3336088  77.0110102  77.3422311
  26.4823406  78.4972634  77.0956333  20.6174270  75.5094829  92.1788459
  21.3273889  74.8688021  92.1375078  20.5743578  75.7607724  93.1014640
  28.6061049  82.4462182  95.0995039  28.5473595  81.7621402  94.4325622
  29.0080567  83.1881172  94.6475665  19.3303204  72.4960047  93.9984099
  18.7940561  72.0450785  94.6505695  18.7419913  72.6305956  93.2554563
  17.6251748  89.2624096  87.8928758  17.8648346  89.8942620  88.5707776
  16.7820944  88.9112136  88.1794117  18.7405463  71.9548698  76.5610563
  17.8634929  71.8337499  76.1972809  19.2163216  71.1634776  76.3089451
  28.6078456  80.4101766  93.3309018  27.7205235  80.0727688  93.4535417
  29.1777007  79.6784797  93.5677784  10.2607603  76.7425858  86.6552070
  10.9478643  76.4287588  86.0673085  10.1055732  77.6467223  86.3819321
  15.0642325  71.6316054  91.0837093  14.9800514  71.0241724  90.3487503
  14.2425032  72.1225073  91.0846590  22.1379610  85.0703219  90.2970262
  22.0649781  85.8758190  90.8089566  21.6957003  85.2695184  89.4718283
  21.9269389  84.3074989  83.8073083  21.1436911  84.8496669  83.9011308
  22.6262134  84.8248968  84.2067324  25.2366039  70.1169618  86.4507288
  25.7334739  69.3639580  86.1308359  24.4653021  70.1533935  85.8850498
  24.5978293  84.9690053  92.4528420  25.3106265  85.6037517  92.3804322
  24.1068322  85.0653919  91.6368422  26.3195820  78.8741305  84.0245712
  25.3852099  78.9942768  83.8550416  26.4972488  77.9713772  83.7605722
  21.8201008  72.2587001  86.1778973  21.4498796  71.7058041  86.8659879
  22.3160101  71.6545134  85.6253973  29.7068371  74.7158625  84.5595746
  30.1728824  75.5486616  84.4856049  30.1575872  74.2503606  85.2641004
  19.6490207  82.7184496  93.2733991  20.3499666  83.3520979  93.4263385
  19.1785322  83.0599228  92.5129630  27.7744602  81.0602446  81.5581898
  28.0504446  80.9459040  82.4675772  26.9049101  80.6619931  81.5194071
  27.6785034  67.0839212  88.5986647  26.7648114  67.3143438  88.7668854
  28.1078136  67.1677656  89.4500680  24.4098666  85.3088797  85.2014712
  24.5921061  84.4910453  85.6642464  25.2331652  85.5256489  84.7639602
  24.7440832  84.2356982  82.4629760  25.2728598  83.7249436  81.8499922
  25.0069052  83.9199512  83.3275293  23.4979066  76.0148915  97.5852578
  22.8219703  75.9143044  98.2554954  24.3206700  75.8588128  98.0488576
  15.2457925  82.2520851  90.2065094  15.8311362  81.5064539  90.3392998
  15.0482763  82.5624808  91.0901758  18.0996580  85.2872098  85.2227536
  17.4306955  85.7718226  84.7391576  17.9609450  85.5341319  86.1370915
   9.8375579  74.8226451  88.9269537   9.8759679  74.2890042  89.7206655
   9.3315872  74.2961657  88.3080514  22.2401848  87.3215842  91.8210194
  22.7920157  87.4847463  92.5859280  22.5808042  87.9120280  91.1490219
  17.2166342  69.6690992  92.4232079  17.2807668  70.5305823  92.0109477
  17.1533462  69.0564993  91.6904438  16.6918614  71.7414124  96.0705113
  17.3190653  71.3591202  96.6842638  15.8346533  71.5228326  96.4360806
  27.0912723  82.1477099  97.6758849  27.6352627  82.7607058  97.1813804
  26.5099568  82.7056678  98.1925862  13.4684157  73.5490553  82.0023468
  13.7637598  72.6401232  81.9490522  12.5672193  73.5278293  81.6804471
  25.3770236  85.2697818  88.8073877  25.2521375  84.4687557  88.2984822
  26.0349327  85.7644011  88.3187847  16.9978404  71.6246550  87.9851017
  16.2764990  72.2382518  87.8458490  17.7871660  72.1604315  87.9067663
  27.4405144  83.0706838  90.4353427  26.4935480  82.9512189  90.3631753
  27.7887917  82.1829336  90.5179688  19.8004718  68.9600977  94.2591669
  20.3239119  69.2063273  95.0217978  19.5817051  69.7921011  93.8394806
  15.1971999  71.2304651  82.1262793  14.8684705  70.3502030  81.9437899
  15.5511369  71.1752320  83.0139183  24.4451577  82.8659554  86.6357779
  24.2976540  81.9376261  86.8165349  25.2705071  82.8879645  86.1514854
  18.3113822  71.5177621  82.4938271  18.6509894  72.0463542  81.7716879
  18.7585942  71.8558027  83.2696838  28.0485699  83.6888113  87.7222652
  28.9732247  83.4830974  87.5847103  27.8801003  83.4404514  88.6311993
  21.0057263  69.9014672  91.9441339  20.6654083  69.1022485  92.3462019
  20.2996269  70.2016382  91.3718172  21.6573734  66.9863984  90.3968662
  22.4799804  66.5124462  90.2747552  21.9011798  67.7654468  90.8967348
  20.2981969  70.0152242  80.6931564  21.0190331  70.3933495  80.1895281
  19.6747273  70.7341119  80.7966542  24.4413092  70.7197391  81.6289896
  24.6576706  71.6022029  81.3278724  23.9607159  70.3283605  80.8995538
  19.1812313  73.6783105  88.2060641  19.0356894  73.9923408  89.0984922
  18.7037517  74.2968005  87.6531539  21.0408696  70.6685653  88.2541530
  21.0270265  69.7726746  87.9173828  21.7581124  70.6756316  88.8879816
  22.8934827  71.1022993  90.2994658  22.6352605  72.0240064  90.2978988
  22.3619867  70.7053427  90.9895122  27.8381016  84.2073780  83.0784743
  28.0117893  83.6420202  82.3258596  28.3309907  85.0074675  82.8964233
  13.6557975  76.2188449  91.1448302  13.1111443  76.9948257  91.2768576
  14.5337325  76.5659254  90.9867423  20.4445592  69.5500033  83.5229100
  20.5661503  68.6216679  83.7219988  20.1547634  69.5638719  82.6107416
  23.3136782  67.2354943  86.6595820  23.3358479  67.2994276  85.7047800
  23.7304841  66.3959452  86.8536326  33.6920407  76.9710203  84.6975043
  34.1351553  76.2217528  84.2994166  32.8146917  76.9620339  84.3148775
  28.8256188  83.5240544  80.1781641  29.5207093  84.1447237  80.3968956
  29.1679338  82.6735896  80.4534019  14.4423997  75.3458345  94.0378459
  13.7005733  75.4940981  94.6243089  14.1216741  75.6066611  93.1745208
  30.7247611  80.9740250  81.7068972  31.2498935  81.3127523  80.9818292
  30.6369964  80.0387265  81.5232107  22.3867660  84.8874324  93.8358849
  22.6954786  84.6423470  94.7081548  23.1843142  85.0920962  93.3477719
  22.4088272  87.0412233  86.0664225  21.9693262  86.5488612  86.7597082
  23.1596389  86.4985201  85.8256301  14.8880611  83.2323774  86.0688853
  15.7138631  82.9327546  85.6887497  14.5374663  82.4631396  86.5178642
  19.8562144  82.5850242  88.1386527  19.2342153  81.9220947  87.8388755
  20.5267011  82.6111374  87.4560175  13.0889216  81.1510101  87.0277787
  12.2521124  80.7232275  86.8461788  13.0612861  81.3442544  87.9648578
  19.9286672  71.0632030  97.7319033  19.9774827  71.9394153  97.3496803
  20.4709186  70.5209423  97.1590676  19.4175651  81.1354166  81.6144988
  19.5663771  81.8189630  80.9611660  20.2242094  81.1159256  82.1294443
  22.1585960  71.8163403  94.4865392  21.2889269  72.1096969  94.2147980
  22.3945440  72.4003848  95.2072655  33.2353271  78.4415441  87.0897490
  34.0700163  78.8805245  87.2535051  33.3712400  77.9654094  86.2705736
  17.1728284  77.1619343  82.6206056  16.9274326  76.2581673  82.8186267
  17.3424198  77.1636494  81.6785534  24.8624994  68.0343020  92.0030812
  25.3806938  68.7704047  91.6777301  24.5080127  68.3407013  92.8377571
  16.4423931  72.8947701  80.1192218  15.7493176  72.9692056  79.4632254
  16.1975683  72.1308044  80.6413735  25.1137588  64.4543302  87.5231709
  25.3939342  63.7866491  88.1492135  25.8988195  64.6472398  87.0106372
  22.9171056  83.6302296  79.0856735  22.3445024  84.2492483  78.6327207
  23.4903850  84.1801658  79.6196657  26.1368316  83.9139446  80.2165317
  27.0698989  83.8485008  80.4198193  26.0491529  84.7495713  79.7579850
  28.7656333  83.2305317  77.1769265  28.6869964  82.8965180  78.0705023
  29.5866000  83.7227084  77.1760737  23.3017855  74.9663109  76.4272787
  24.2476960  74.8369317  76.4961205  22.9232100  74.2277771  76.9042216
  29.2739739  66.6319115  86.3899679  29.0764561  66.3234203  87.2743011
  29.8839445  67.3580754  86.5197609  23.1856547  79.0180855  97.8873444
  24.1059557  79.1959454  98.0813491  23.1506131  78.0736900  97.7353144
  21.4860772  72.8913085  76.3627673  20.5792227  72.5946198  76.4390386
  21.7636753  72.5942903  75.4961959  12.4038712  74.2119449  86.8126719
  12.0841497  73.3584757  86.5201093  11.8572141  74.4268027  87.5684686
  16.1818620  76.9281890  90.5296226  16.4004630  77.8598997  90.5484259
  16.5944394  76.5689864  91.3151029  23.1022838  67.4349975  82.5171914
  22.2923566  67.0897060  82.8927160  23.7907255  67.1257519  83.1059526
  25.0313386  66.5128022  84.1396211  25.5844425  66.9323475  84.7986234
  25.2683472  65.5863770  84.1819167  21.0546485  72.5015095  99.9198975
  20.9543212  73.4509452  99.8511066  20.8368027  72.1733334  99.0475045
  20.2559557  69.7500020  76.5039652  21.1178721  70.0754919  76.7635469
  20.4409901  68.9631516  75.9912718  12.2726972  77.8322360  88.7819841
  11.5790444  77.4176313  88.2689795  13.0199963  77.8742897  88.1853260
  28.4092193  68.6228547  83.6474875  27.8290862  69.2813351  83.2652927
  28.1428126  67.8005891  83.2362292  26.8595760  68.0233605  85.8496195
  27.3595538  68.1350139  85.0410514  27.5031367  67.7194657  86.4897004
  20.9177755  75.9312234  98.7364036  20.4344837  76.7312594  98.9427925
  21.0038694  75.9420179  97.7831480  14.1863715  77.7640614  86.6585856
  14.1634403  77.8628301  85.7067739  14.4964352  78.6105765  86.9803022
  16.8451093  79.8216769  90.7732470  17.7994346  79.7900711  90.7062402
  16.6463616  79.3607393  91.5882696  17.4350475  78.3917885  93.3403268
  18.2543364  78.8861964  93.3638105  17.7087283  77.4749853  93.3120835
  27.1917071  70.7828637  82.7031223  26.3042926  71.0678288  82.4851418
  27.6071060  70.6222401  81.8558500  15.2001322  85.3636388  87.7902668
  15.0655790  84.6036789  87.2240666  14.7833384  86.0877288  87.3231457
  26.3360285  80.5473312  76.7979243  27.0396135  80.7523314  77.4136899
  25.6122933  81.1150074  77.0628327  27.1658095  76.2983173  82.9181513
  27.1093296  76.7551725  82.0789146  27.7186437  75.5373858  82.7404356
  30.9762901  72.0872905  83.7431633  30.7199835  71.6869541  84.5739840
  30.3515769  72.8016699  83.6181772  18.3570448  86.2605705  88.0021110
  18.2402832  87.2051138  87.8999801  17.5362894  85.9579267  88.3906910
  28.2446982  80.9855841  78.8477703  29.0792586  80.5537040  78.6655178
  28.0831325  80.8137855  79.7754598  27.8992874  77.4887954  80.2134042
  27.8441678  77.3232226  79.2722487  27.2738930  78.1963987  80.3696232
  12.6885389  72.7256019  94.0395465  13.3344253  72.2154973  94.5282690
  12.4802540  73.4624700  94.6138890  25.2138781  79.7936866  99.5387605
  26.0829941  79.9677519  99.1774240  24.7345533  80.6131283  99.4163335
  21.2089000  66.9896063  79.7919361  21.1967670  67.9337903  79.9487632
  22.1012422  66.8066209  79.4978822  19.3824962  86.9133967  91.2177039
  20.2852208  86.9457578  91.5343534  19.1562332  85.9834418  91.2323375
  21.1378564  85.6664954  87.8787118  20.1874195  85.6666815  87.7651490
  21.4411050  84.9197688  87.3623152  25.0241119  63.5838840  84.0465298
  24.2573515  63.0297327  84.1921980  25.4351824  63.6560709  84.9079449
  17.0282880  69.8723636  98.1370479  17.8914342  69.5160441  98.3473804
  16.4548291  69.5337531  98.8245883  36.8731257  91.5025492  88.9432880
  37.5109667  91.3832240  88.2396220  36.7552100  92.4506336  89.0020832
  33.6820963  91.4552920  88.8794405  33.3439475  91.3393985  87.9914939
  34.5510732  91.0544085  88.8595411  29.5407779  93.3088397  84.8691296
  28.9772644  93.2178334  84.1007583  29.4260174  92.4888301  85.3493788
  34.1640746  92.6087772  94.8380610  34.1529387  92.2140570  93.9661114
  34.3261386  91.8753845  95.4314382  27.0872211  94.8039588  87.7075516
  27.8793503  94.4630413  87.2921815  27.3268861  94.9134563  88.6277669
  35.1207338  96.9759364  80.1805760  34.4695318  97.5613445  79.7939774
  35.9151701  97.5065559  80.2400798  29.0462965  94.0648502  80.5792895
  29.8193841  93.5177489  80.4405771  29.3988364  94.9292751  80.7907356
  30.8848008  95.3924884  93.7859794  30.5937874  96.2970515  93.6706460
  31.5204992  95.4341412  94.5003864  31.8104214  92.7701732  90.3761154
  32.4067787  92.5457755  89.6618117  31.8679186  92.0286478  90.9786602
  31.3829243  90.2241168  78.2111345  31.6354764  89.7022689  77.4494808
  30.4453802  90.0607313  78.3138028  36.4272526  89.2276946  86.0186088
  37.2135615  88.8096369  85.6676505  36.6911230  90.1323038  86.1867736
  36.5982603  94.6649796  80.7174745  35.9628436  94.7384423  81.4295649
  36.2680009  95.2543395  80.0393824  41.8280953  89.1652179  86.9219066
  42.5606125  88.5951396  87.1556896  41.0720309  88.7773780  87.3625572
  31.1025532  92.1269274  80.4135720  30.9861790  91.4514177  81.0816804
  31.2127791  91.6401648  79.5967873  33.4457073  91.5879421  84.1182409
  33.0815280  91.0610042  84.8295330  34.3024188  91.1977890  83.9448894
  39.3506373  82.8773753  91.3813675  39.0189698  83.7469164  91.1574890
  38.7551987  82.5610037  92.0607705  33.0862560  86.6169321  79.1143757
  33.2536962  87.4849557  79.4814228  32.8959729  86.7796602  78.1905047
  35.8437893  95.0786299  90.7809588  35.5438616  95.9811338  90.6725395
  35.4988952  94.8118483  91.6330741  29.2950374  91.5300096  86.8146292
  28.3700871  91.3976310  87.0223984  29.5434787  92.3094315  87.3116235
  39.2435036  87.5968840  88.4607025  38.3351914  87.5284248  88.1665786
  39.1922632  88.0740785  89.2888851  33.0651780  89.0726978  80.0990424
  32.9451406  89.5184029  80.9375905  32.3704369  89.4212296  79.5403962
  26.6559185  91.1733370  87.6490081  26.7851566  91.4267849  88.5629493
  25.9756637  91.7661078  87.3294736  30.8258672 101.8430620  83.7480556
  30.7482702 102.7938445  83.8269036  30.2220316 101.4976492  84.4055482
  33.3175902  89.0158485  96.4041922  32.5409236  89.5752405  96.3944787
  33.9566465  89.5015268  96.9256793  41.1096683  85.7985278  90.2384899
  40.4671063  86.0917811  89.5924694  40.6051611  85.6838198  91.0438096
  38.7636847  89.5448451  80.9270758  39.6754703  89.7775838  80.7518456
  38.2546494  90.1285495  80.3645837  31.5722275  91.8243939  95.9659889
  32.3136959  92.3628983  95.6894713  30.8659260  92.4510227  96.1231441
  37.0477614  93.9673079  94.5632051  37.4560970  93.5255490  93.8186683
  36.3254876  93.3925707  94.8166244  33.4008684  88.9045686  91.9365608
  34.2469879  89.3285099  92.0800257  33.3407322  88.2479310  92.6304171
  37.3706429  94.5274270  88.3184340  36.7415291  94.6919984  87.6160408
  36.9832091  94.9415879  89.0895304  41.2495661  95.4628707  85.6728704
  40.5646699  95.8427609  85.1225737  41.3339510  96.0724034  86.4060651
  36.5508130  86.5650054  93.5946781  36.3069061  87.3192115  93.0581057
  36.8268060  86.9435402  94.4294029  38.5046592  93.1088667  92.2724047
  38.7163488  93.7520426  91.5958428  38.4576341  92.2750983  91.8045977
  36.1072821  85.7206487  89.1760619  35.2457300  86.0187741  89.4677357
  36.1335256  85.9376886  88.2441652  32.9234391  94.2648678  85.5834425
  33.3872736  94.5436381  84.7939047  32.6591189  93.3632122  85.4007516
  29.8158472  93.8120159  88.5214188  30.3859829  94.2407428  87.8831673
  30.4066584  93.5302744  89.2198374  31.8603277  90.3871830  82.3923990
  32.5627320  90.8392874  82.8597916  31.5283905  89.7455649  83.0203883
  30.3083638  88.9783587  96.7675199  29.6782299  89.6599868  97.0010596
  30.2019726  88.8666668  95.8228338  25.6028611  88.6455383  87.6941124
  24.8127665  88.9012911  87.2181234  26.0939858  89.4603721  87.7993164
  39.6192420  95.9860622  90.4446404  40.4409864  95.5840809  90.1629086
  39.6154823  95.8828856  91.3962520  27.5543356  89.0099962  84.6524600
  26.7574519  89.1218656  85.1708096  27.3268948  89.3486614  83.7865491
  33.3849024  95.5344665  92.6007115  33.4493456  95.9965072  93.4365287
  32.6759948  94.9042030  92.7289425  23.8866314  88.8985873  90.1256114
  24.1374352  89.7832883  90.3913690  24.4225862  88.7190475  89.3531206
  47.7098413  92.3299370  86.7931376  46.9562122  91.7606768  86.6375380
  47.8445955  92.2962035  87.7402011  33.0997041  97.2012773  82.4686095
  32.9642716  98.0464308  82.8970943  33.6406854  97.4032050  81.7052029
  26.5526439  94.7188211  83.0414020  27.0650959  95.5131461  83.1919585
  27.2049152  94.0214501  82.9747622  28.3621323  97.8353967  85.1236774
  28.5387952  98.7571932  84.9357757  29.1578157  97.5212386  85.5531153
  27.6473680  89.8818599  94.9998937  27.5327195  88.9803856  95.3006036
  26.7918198  90.1282296  94.6483753  34.7265518  97.8236339  96.5986437
  34.2829372  97.0372718  96.2807342  35.3882731  98.0115490  95.9330328
  29.4852639  99.3532141  91.1247116  30.0360064  99.2249204  90.3524110
  28.6464115  99.6527030  90.7742009  36.8246756  98.1039139  94.6267839
  36.8065231  98.9248020  94.1348108  37.7466676  97.9793214  94.8517980
  33.2819810  95.6183269  95.4691347  33.8148147  94.8571557  95.2390655
  32.7533891  95.3256920  96.2115501  24.5175356  93.0476865  83.8173591
  25.3550578  93.4573873  83.6007299  24.6953623  92.1076307  83.7873785
  36.4139788  90.7151946  79.5057424  35.8986411  91.4856550  79.7445811
  36.1417096  90.0417082  80.1290485  33.9986899  85.5601646  84.5642662
  33.1428495  85.1708497  84.3848301  34.4113850  85.6393607  83.7042448
  31.7728931  83.1786719  87.9700404  32.6381928  82.9829528  87.6106293
  31.8406440  82.9497071  88.8969760  41.3874062  93.4684300  81.4410597
  40.6103505  93.1295460  80.9965759  42.0665543  93.4736924  80.7665562
  36.2026091  88.5879038  81.3317205  35.8976226  88.9025187  82.1827348
  37.1556533  88.6660458  81.3744538  34.6472523  94.7469261  82.9810159
  34.1193884  94.0122021  82.6683396  34.1460025  95.5243937  82.7350127
  39.6265369  92.9418282  88.0977205  38.9689043  93.6317543  88.1857334
  40.4305768  93.3314714  88.4411192  29.3791250  85.4088927  85.3416770
  29.9535002  85.1864109  84.6089963  29.9662233  85.4777622  86.0945372
  38.4370828  91.2962654  86.1481147  38.9502709  91.9292646  86.6502857
  39.0872051  90.6963850  85.7824507  29.7060837  87.4393388  79.3612656
  28.8698150  87.7768075  79.6821930  29.5665607  87.3042368  78.4239793
  31.6813918  82.2830176  84.0691840  31.0278330  81.9679193  83.4448455
  31.6394392  81.6605917  84.7951663  32.7925123  92.5649471  75.9845132
  31.8852185  92.3338725  76.1836281  33.2896155  91.7687091  76.1719114
  35.6993202 101.2746979  78.9041818  35.0254901 101.5778675  79.5126776
  36.0859024 102.0776059  78.5547275  34.9151658  88.7712110  88.3939488
  33.9974220  88.9927057  88.2361176  35.3311802  88.8458420  87.5351195
  35.6986706  90.1703526  83.5242168  36.4458525  90.6824923  83.2149290
  35.9678296  89.8487578  84.3846561  33.9713356  92.6662066  80.5069122
  33.0624576  92.3821099  80.6041592  34.0008440  93.0861145  79.6472429
  39.2032624  96.2768656  84.2760290  38.7494951  95.4359566  84.3325480
  38.5726590  96.9130054  84.6135070  38.1465543  87.2060642  85.5060957
  37.4088300  86.6938028  85.8371200  38.3992317  86.7661023  84.6944234
  37.6465563  98.1145152  85.2110108  37.9388537  98.6750210  84.4922473
  38.1564184  98.4073713  85.9663267  38.2477171  79.9836894  86.1002726
  38.5536047  79.1234257  85.8128641  38.9729775  80.5754514  85.9001720
  24.5401527  90.3867580  84.4884324  24.3425927  89.7936941  83.7635391
  23.9848191  90.0819791  85.2060263  32.5198250  90.2790687  86.6078917
  32.5746860  89.3264523  86.5321394  31.7089452  90.4350126  87.0920216
  33.6689444  94.2070810  77.8457201  33.2308874  93.4906669  77.3862838
  34.4099885  94.4346925  77.2842292  30.4590610  88.8967747  84.3669296
  29.6458476  89.1961917  84.7734488  30.9549604  88.5023435  85.0843779
  32.6099188  98.8925504  86.3003561  32.5675367  99.1186350  85.3712093
  33.5261887  98.6588878  86.4489362  36.0564822  89.3609571  93.1984190
  36.4114210  89.5881044  94.0578656  36.7036953  89.6927948  92.5761446
  41.7862559  92.4828007  83.9033519  41.6480457  92.6729603  82.9754708
  41.4298778  93.2447390  84.3601570  29.9504685  86.4686102  89.9830531
  30.5904064  86.3274861  89.2853495  29.1182216  86.1820616  89.6069133
  41.8131939  94.5504534  88.9144791  42.2468445  94.4579823  89.7627845
  42.5263519  94.5262034  88.2764807  30.7264989  95.7688533  86.0965524
  31.5205587  95.2738853  85.8948099  30.0156681  95.2406396  85.7333229
  35.5459833  98.1506628  90.4477891  35.5996856  98.7197564  91.2155607
  34.6774615  98.3208513  90.0831928  27.0347752  89.9131614  82.1725276
  26.1045341  89.8516070  82.3895239  27.1305224  89.3907567  81.3761918
  26.9533301  86.4386427  84.7603518  27.2140119  87.3531760  84.6512679
  27.7750474  85.9710870  84.9100131  28.4258227  87.8524184  91.9302343
  29.0981280  87.6441546  91.2814992  27.5988013  87.6546270  91.4907575
  42.6747488  94.5928235  91.4477676  42.8683378  95.4974045  91.6936951
  42.5748106  94.1335654  92.2816261  34.3283799  84.4786125  93.9468003
  33.6811714  85.1776075  93.8532480  35.0984814  84.9122269  94.3144252
  37.7362597  94.7434977  97.0218557  37.5848103  94.5145529  96.1048640
  37.7267276  95.7005579  97.0349902  34.5047933  92.3166890  92.0064823
  35.4339993  92.4678050  91.8333791  34.0838963  92.4050911  91.1513470
  33.3036265  96.3417555  89.7763361  33.1647351  95.9736339  90.6489299
  32.5150861  96.8565194  89.6047319  33.8984417 101.4426651  81.1188897
  34.0736173 100.9714694  81.9334520  33.2117205 102.0692417  81.3470158
  34.8541480  95.7199157  87.1652199  34.5191313  95.6799927  88.0609848
  34.3545426  95.0543873  86.6922609  28.8285724  91.1266787  92.6904780
  28.6905522  90.3947026  93.2916319  29.7390648  91.0375687  92.4088968
  37.7900672  93.0655192  77.4389258  37.1729842  92.3402020  77.3422311
  37.3217160  93.8264552  77.0956333  31.4568025  90.8386747  92.1788459
  32.1667643  90.1979939  92.1375078  31.4137333  91.0899641  93.1014640
  39.4454803  97.7754100  95.0995039  39.3867350  97.0913320  94.4325622
  39.8474322  98.5173090  94.6475665  30.1696959  87.8251964  93.9984099
  29.6334316  87.3742703  94.6505695  29.5813667  87.9597873  93.2554563
  28.4645502 104.5916014  87.8928758  28.7042100 105.2234538  88.5707776
  27.6214699 104.2404054  88.1794117  29.5799218  87.2840616  76.5610563
  28.7028684  87.1629417  76.1972809  30.0556971  86.4926694  76.3089451
  39.4472211  95.7393684  93.3309018  38.5598989  95.4019606  93.4535417
  40.0170762  95.0076715  93.5677784  21.1001358  92.0717776  86.6552070
  21.7872398  91.7579506  86.0673085  20.9449486  92.9759140  86.3819321
  25.9036080  86.9607972  91.0837093  25.8194269  86.3533642  90.3487503
  25.0818786  87.4516990  91.0846590  32.9773364 100.3995136  90.2970262
  32.9043536 101.2050108  90.8089566  32.5350757 100.5987102  89.4718283
  32.7663144  99.6366906  83.8073083  31.9830666 100.1788586  83.9011308
  33.4655889 100.1540886  84.2067324  36.0759794  85.4461536  86.4507288
  36.5728493  84.6931498  86.1308359  35.3046775  85.4825852  85.8850498
  43.9289551  91.1501901  88.0925580  43.9179427  92.0326617  87.7219513
  43.0606931  90.7973452  87.8980117  35.4372048 100.2981970  92.4528420
  36.1500020 100.9329435  92.3804322  34.9462076 100.3945836  91.6368422
  37.1589574  94.2033223  84.0245712  36.2245853  94.3234685  83.8550416
  37.3366243  93.3005690  83.7605722  32.6594763  87.5878919  86.1778973
  32.2892550  87.0349959  86.8659879  33.1553855  86.9837052  85.6253973
  40.5462126  90.0450542  84.5595746  41.0122578  90.8778534  84.4856049
  40.9969626  89.5795524  85.2641004  30.4883961  98.0476414  93.2733991
  31.1893421  98.6812897  93.4263385  30.0179076  98.3891145  92.5129630
  38.6138357  96.3894363  81.5581898  38.8898201  96.2750958  82.4675772
  37.7442856  95.9911848  81.5194071  38.5178789  82.4131129  88.5986647
  37.6041868  82.6435356  88.7668854  38.9471890  82.4969573  89.4500680
  38.2885247  90.6021021  91.0986541  37.6356697  90.8496929  90.4438994
  38.6665627  89.7885159  90.7649019  35.2492421 100.6380714  85.2014712
  35.4314815  99.8202370  85.6642464  36.0725407 100.8548407  84.7639602
  35.5834586  99.5648899  82.4629760  36.1122353  99.0541354  81.8499922
  35.8462806  99.2491430  83.3275293  34.3372820  91.3440832  97.5852578
  33.6613457  91.2434962  98.2554954  35.1600454  91.1880046  98.0488576
  26.0851679  97.5812769  90.2065094  26.6705116  96.8356457  90.3392998
  25.8876518  97.8916725  91.0901758  28.9390334 100.6164016  85.2227536
  28.2700710 101.1010144  84.7391576  28.8003204 100.8633237  86.1370915
  20.6769334  90.1518369  88.9269537  20.7153433  89.6181960  89.7206655
  20.1709627  89.6253574  88.3080514  33.0795603 102.6507760  91.8210194
  33.6313911 102.8139381  92.5859280  33.4201796 103.2412197  91.1490219
  28.0560096  84.9982909  92.4232079  28.1201423  85.8597740  92.0109477
  27.9927216  84.3856911  91.6904438  27.5312369  87.0706042  96.0705113
  28.1584408  86.6883119  96.6842638  26.6740288  86.8520244  96.4360806
  37.9306477  97.4769017  97.6758849  38.4746381  98.0898975  97.1813804
  37.3493322  98.0348596  98.1925862  24.3077911  88.8782471  82.0023468
  24.6031353  87.9693150  81.9490522  23.4065947  88.8570211  81.6804471
  36.2163990 100.5989735  88.8073877  36.0915130  99.7979475  88.2984822
  36.8743081 101.0935929  88.3187847  27.8372158  86.9538468  87.9851017
  27.1158744  87.5674435  87.8458490  28.6265414  87.4896233  87.9067663
  38.2798899  98.3998755  90.4353427  37.3329234  98.2804106  90.3631753
  38.6281672  97.5121253  90.5179688  30.6398472  84.2892894  94.2591669
  31.1632874  84.5355191  95.0217978  30.4210805  85.1212929  93.8394806
  26.0365753  86.5596569  82.1262793  25.7078459  85.6793948  81.9437899
  26.3905124  86.5044237  83.0139183  35.2845332  98.1951471  86.6357779
  35.1370294  97.2668179  86.8165349  36.1098825  98.2171562  86.1514854
  29.1507576  86.8469539  82.4938271  29.4903649  87.3755460  81.7716879
  29.5979697  87.1849945  83.2696838  38.8879454  99.0180030  87.7222652
  39.8126001  98.8122892  87.5847103  38.7194757  98.7696431  88.6311993
  31.8451017  85.2306589  91.9441339  31.5047837  84.4314402  92.3462019
  31.1390023  85.5308300  91.3718172  31.1375723  85.3444160  80.6931564
  31.8584086  85.7225413  80.1895281  30.5141028  86.0633037  80.7966542
  35.2806846  86.0489309  81.6289896  35.4970461  86.9313947  81.3278724
  34.8000913  85.6575523  80.8995538  30.0206068  89.0075022  88.2060641
  29.8750648  89.3215325  89.0984922  29.5431271  89.6259923  87.6531539
  31.8802451  85.9977570  88.2541530  31.8664019  85.1018664  87.9173828
  32.5974879  86.0048234  88.8879816  33.7328581  86.4314911  90.2994658
  33.4746359  87.3531981  90.2978988  33.2013622  86.0345345  90.9895122
  38.6774770  99.5365698  83.0784743  38.8511648  98.9712120  82.3258596
  39.1703661 100.3366593  82.8964233  24.4951730  91.5480367  91.1448302
  23.9505198  92.3240175  91.2768576  25.3731080  91.8951171  90.9867423
  31.2839346  84.8791951  83.5229100  31.4055258  83.9508597  83.7219988
  30.9941389  84.8930637  82.6107416  34.1530537  82.5646861  86.6595820
  34.1752234  82.6286194  85.7047800  34.5698596  81.7251370  86.8536326
  44.5314161  92.3002121  84.6975043  44.9745307  91.5509446  84.2994166
  43.6540671  92.2912257  84.3148775  39.6649942  98.8532462  80.1781641
  40.3600847  99.4739155  80.3968956  40.0073093  98.0027813  80.4534019
  25.2817752  90.6750263  94.0378459  24.5399488  90.8232898  94.6243089
  24.9610496  90.9358529  93.1745208  41.5641366  96.3032168  81.7068972
  42.0892690  96.6419440  80.9818292  41.4763718  95.3679183  81.5232107
  33.2261414 100.2166241  93.8358849  33.5348541  99.9715388  94.7081548
  34.0236896 100.4212880  93.3477719  33.2482026 102.3704151  86.0664225
  32.8087017 101.8780530  86.7597082  33.9990143 101.8277119  85.8256301
  25.7274365  98.5615692  86.0688853  26.5532385  98.2619464  85.6887497
  25.3768417  97.7923314  86.5178642  30.6955899  97.9142160  88.1386527
  30.0735908  97.2512865  87.8388755  31.3660765  97.9403292  87.4560175
  23.9282970  96.4802018  87.0277787  23.0914879  96.0524193  86.8461788
  23.9006616  96.6734462  87.9648578  30.7680426  86.3923948  97.7319033
  30.8168581  87.2686071  97.3496803  31.3102940  85.8501341  97.1590676
  41.2535272  96.9365071  97.0120170  40.4630815  96.9189210  96.4724670
  41.0168626  97.4753365  97.7669207  41.3733147  93.7857538  94.3252899
  41.4231152  93.6207545  95.2668421  41.2647070  92.9184797  93.9350779
  30.2569405  96.4646083  81.6144988  30.4057526  97.1481548  80.9611660
  31.0635849  96.4451173  82.1294443  38.6636909  89.7688466  95.6412205
  39.5646772  89.6294930  95.3496203  38.7384884  89.9342920  96.5810383
  32.9979714  87.1455320  94.4865392  32.1283024  87.4388886  94.2147980
  33.2339195  87.7295765  95.2072655  42.8751344  96.2054479  94.5694920
  42.5836152  96.5684460  95.4058381  42.2623475  95.4921487  94.3908252
  44.0747026  93.7707359  87.0897490  44.9093917  94.2097163  87.2535051
  44.2106155  93.2946012  86.2705736  41.1238532  91.3287094  93.0374978
  41.5992653  91.5214740  92.2293830  40.2004097  91.3846280  92.7918362
  28.0122038  92.4911261  82.6206056  27.7668080  91.5873591  82.8186267
  28.1817953  92.4928411  81.6785534  27.2817686  88.2239619  80.1192218
  26.5886931  88.2983974  79.4632254  27.0369438  87.4599962  80.6413735
  35.9531342  79.7835220  87.5231709  36.2333096  79.1158409  88.1492135
  36.7381949  79.9764315  87.0106372  33.7564811  98.9594214  79.0856735
  33.1838778  99.5784401  78.6327207  34.3297605  99.5093575  79.6196657
  39.8240201  88.2052854  91.2703284  40.7757624  88.3050952  91.2915508
  39.6543651  87.4131122  91.7801368  37.8454580  85.2908437  91.4562685
  37.2504512  85.5713450  90.7609173  37.5604277  85.7802338  92.2279426
  36.9762071  99.2431364  80.2165317  37.9092744  99.1776926  80.4198193
  36.8885284 100.0787631  79.7579850  39.6050087  98.5597234  77.1769265
  39.5263719  98.2257098  78.0705023  40.4259754  99.0519002  77.1760737
  42.3028279  91.4258974  90.3845583  42.2704599  90.4874974  90.5705267
  42.9128902  91.5043010  89.6511408  34.1411609  90.2955027  76.4272787
  35.0870714  90.1661235  76.4961205  33.7625854  89.5569688  76.9042216
  42.4522767  88.2170017  90.4303867  41.9361816  87.4328474  90.2433795
  43.3362716  87.8888734  90.5950386  40.1133494  81.9611033  86.3899679
  39.9158315  81.6526121  87.2743011  40.7233200  82.6872671  86.5197609
  48.1204828  92.4874980  89.5251620  48.8508217  92.2260269  90.0859324
  47.5111774  91.7503702  89.5653688  46.2020126  90.6282843  90.1226071
  45.4753289  90.4938808  89.5142563  45.7867412  90.9359672  90.9282789
  34.0250302  94.3472773  97.8873444  34.9453311  94.5251372  98.0813491
  33.9899885  93.4028818  97.7353144  32.3254527  88.2205003  76.3627673
  31.4185982  87.9238116  76.4390386  32.6030508  87.9234821  75.4961959
  23.2432467  89.5411366  86.8126719  22.9235251  88.6876674  86.5201093
  22.6965895  89.7559944  87.5684686  27.0212375  92.2573807  90.5296226
  27.2398384  93.1890915  90.5484259  27.4338148  91.8981782  91.3151029
  33.9416592  82.7641893  82.5171914  33.1317321  82.4188978  82.8927160
  34.6301009  82.4549436  83.1059526  35.8707141  81.8419939  84.1396211
  36.4238179  82.2615393  84.7986234  36.1077227  80.9155688  84.1819167
  31.8940240  87.8307013  99.9198975  31.7936967  88.7801370  99.8511066
  31.6761782  87.5025252  99.0475045  31.0953311  85.0791938  76.5039652
  31.9572475  85.4046836  76.7635469  31.2803655  84.2923434  75.9912718
  23.1120727  93.1614278  88.7819841  22.4184198  92.7468231  88.2689795
  23.8593718  93.2034814  88.1853260  39.2485948  83.9520465  83.6474875
  38.6684617  84.6105269  83.2652927  38.9821880  83.1297809  83.2362292
  37.6989514  83.3525522  85.8496195  38.1989292  83.4642057  85.0410514
  38.3425122  83.0486575  86.4897004  31.7571510  91.2604152  98.7364036
  31.2738592  92.0604512  98.9427925  31.8432449  91.2712097  97.7831480
  25.0257469  93.0932532  86.6585856  25.0028158  93.1920219  85.7067739
  25.3358106  93.9397682  86.9803022  27.6844847  95.1508687  90.7732470
  28.6388101  95.1192629  90.7062402  27.4857371  94.6899310  91.5882696
  28.2744230  93.7209803  93.3403268  29.0937118  94.2153881  93.3638105
  28.5481037  92.8041771  93.3120835  38.0310826  86.1120555  82.7031223
  37.1436681  86.3970206  82.4851418  38.4464815  85.9514318  81.8558500
  41.3825362  86.1367076  86.4185562  42.1585752  86.6263528  86.6910179
  40.6573496  86.5625130  86.8757432  43.8197920  86.8494695  87.4759503
  44.4142411  86.6090431  86.7652811  43.8924504  86.1301826  88.1033039
  26.0395076 100.6928306  87.7902668  25.9049544  99.9328707  87.2240666
  25.6227138 101.4169206  87.3231457  37.1754039  95.8765230  76.7979243
  37.8789889  96.0815232  77.4136899  36.4516688  96.4441992  77.0628327
  38.0051849  91.6275091  82.9181513  37.9487051  92.0843642  82.0789146
  38.5580192  90.8665775  82.7404356  41.8156655  87.4164823  83.7431633
  41.5593590  87.0161458  84.5739840  41.1909523  88.1308617  83.6181772
  46.1268993  90.1560896  86.2502924  45.5668551  90.2254085  87.0234486
  45.5212497  89.9801881  85.5302420  29.1964202 101.5897623  88.0021110
  29.0796586 102.5343056  87.8999801  28.3756648 101.2871185  88.3906910
  39.0840737  96.3147759  78.8477703  39.9186341  95.8828957  78.6655178
  38.9225079  96.1429773  79.7754598  38.7386629  92.8179872  80.2134042
  38.6835433  92.6524144  79.2722487  38.1132684  93.5255905  80.3696232
  23.5279144  88.0547937  94.0395465  24.1738007  87.5446890  94.5282690
  23.3196295  88.7916618  94.6138890  36.0532536  95.1228784  99.5387605
  36.9223696  95.2969436  99.1774240  35.5739287  95.9423201  99.4163335
  32.0482754  82.3187981  79.7919361  32.0361424  83.2629821  79.9487632
  32.9406176  82.1358127  79.4978822  30.2218716 102.2425885  91.2177039
  31.1245963 102.2749495  91.5343534  29.9956086 101.3126336  91.2323375
  31.9772318 100.9956872  87.8787118  31.0267949 100.9958733  87.7651490
  32.2804804 100.2489606  87.3623152  27.8676635  85.2015554  98.1370479
  28.7308096  84.8452358  98.3473804  27.2942045  84.8629448  98.8245883
  47.7125012 106.8317410  88.9432880  48.3503422 106.7124157  88.2396220
  47.5945855 107.7798254  89.0020832  44.5214718 106.7844838  88.8794405
  44.1833229 106.6685903  87.9914939  45.3904486 106.3836003  88.8595411
  40.3801534 108.6380314  84.8691296  39.8166399 108.5470251  84.1007583
  40.2653929 107.8180219  85.3493788  45.0034501 107.9379690  94.8380610
  44.9923142 107.5432488  93.9661114  45.1655140 107.2045762  95.4314382
  37.9265966 110.1331506  87.7075516  38.7187258 109.7922331  87.2921815
  38.1662616 110.2426481  88.6277669  45.9601092 112.3051282  80.1805760
  45.3089072 112.8905363  79.7939774  46.7545455 112.8357477  80.2400798
  39.8856720 109.3940419  80.5792895  40.6587596 108.8469406  80.4405771
  40.2382118 110.2584669  80.7907356  41.7241762 110.7216802  93.7859794
  41.4331628 111.6262432  93.6706460  42.3598746 110.7633329  94.5003864
  42.6497969 108.0993650  90.3761154  43.2461541 107.8749672  89.6618117
  42.7072940 107.3578396  90.9786602  42.2222997 105.5533085  78.2111345
  42.4748518 105.0314607  77.4494808  41.2847556 105.3899231  78.3138028
  47.2666280 104.5568864  86.0186088  48.0529369 104.1388287  85.6676505
  47.5304984 105.4614956  86.1867736  47.4376358 109.9941714  80.7174745
  46.8022190 110.0676341  81.4295649  47.1073764 110.5835313  80.0393824
  52.6674707 104.4944097  86.9219066  53.3999879 103.9243314  87.1556896
  51.9114063 104.1065697  87.3625572  41.9419286 107.4561191  80.4135720
  41.8255544 106.7806095  81.0816804  42.0521546 106.9693565  79.5967873
  44.2850827 106.9171338  84.1182409  43.9209034 106.3901959  84.8295330
  45.1417943 106.5269808  83.9448894  50.1900128  98.2065671  91.3813675
  49.8583452  99.0761082  91.1574890  49.5945741  97.8901955  92.0607705
  43.9256314 101.9461238  79.1143757  44.0930716 102.8141475  79.4814228
  43.7353483 102.1088520  78.1905047  46.6831647 110.4078217  90.7809588
  46.3832370 111.3103256  90.6725395  46.3382707 110.1410400  91.6330741
  40.1344129 106.8592014  86.8146292  39.2094625 106.7268228  87.0223984
  40.3828542 107.6386233  87.3116235  50.0828791 102.9260757  88.4607025
  49.1745668 102.8576166  88.1665786  50.0316387 103.4032702  89.2888851
  43.9045535 104.4018896  80.0990424  43.7845160 104.8475946  80.9375905
  43.2098123 104.7504213  79.5403962  37.4952940 106.5025287  87.6490081
  37.6245321 106.7559766  88.5629493  36.8150391 107.0952995  87.3294736
  41.6652427 117.1722537  83.7480556  41.5876457 118.1230363  83.8269036
  41.0614071 116.8268410  84.4055482  44.1569657 104.3450403  96.4041922
  43.3802991 104.9044323  96.3944787  44.7960220 104.8307186  96.9256793
  51.9490437 101.1277196  90.2384899  51.3064818 101.4209729  89.5924694
  51.4445366 101.0130116  91.0438096  49.6030601 104.8740369  80.9270758
  50.5148457 105.1067756  80.7518456  49.0940248 105.4577413  80.3645837
  42.4116029 107.1535856  95.9659889  43.1530713 107.6920900  95.6894713
  41.7053015 107.7802145  96.1231441  47.8871369 109.2964997  94.5632051
  48.2954725 108.8547407  93.8186683  47.1648630 108.7217624  94.8166244
  44.2402439 104.2337603  91.9365608  45.0863634 104.6577017  92.0800257
  44.1801076 103.5771228  92.6304171  48.2100183 109.8566187  88.3184340
  47.5809046 110.0211901  87.6160408  47.8225845 110.2707797  89.0895304
  52.0889415 110.7920625  85.6728704  51.4040453 111.1719527  85.1225737
  52.1733265 111.4015952  86.4060651  47.3901884 101.8941972  93.5946781
  47.1462816 102.6484032  93.0581057  47.6661815 102.2727319  94.4294029
  49.3440347 108.4380584  92.2724047  49.5557242 109.0812344  91.5958428
  49.2970095 107.6042901  91.8045977  46.9466576 101.0498405  89.1760619
  46.0851055 101.3479658  89.4677357  46.9729010 101.2668804  88.2441652
  43.7628145 109.5940595  85.5834425  44.2266491 109.8728298  84.7939047
  43.4984943 108.6924040  85.4007516  40.6552226 109.1412077  88.5214188
  41.2253583 109.5699345  87.8831673  41.2460338 108.8594662  89.2198374
  42.6997031 105.7163748  82.3923990  43.4021075 106.1684791  82.8597916
  42.3677660 105.0747567  83.0203883  41.1477393 104.3075504  96.7675199
  40.5176053 104.9891785  97.0010596  41.0413481 104.1958586  95.8228338
  36.4422365 103.9747300  87.6941124  35.6521419 104.2304829  87.2181234
  36.9333613 104.7895638  87.7993164  50.4586175 111.3152540  90.4446404
  51.2803619 110.9132727  90.1629086  50.4548578 111.2120774  91.3962520
  38.3937111 104.3391880  84.6524600  37.5968274 104.4510574  85.1708096
  38.1662703 104.6778532  83.7865491  44.2242778 110.8636583  92.6007115
  44.2887211 111.3256990  93.4365287  43.5153702 110.2333948  92.7289425
  34.7260068 104.2277791  90.1256114  34.9768107 105.1124801  90.3913690
  35.2619617 104.0482392  89.3531206  58.5492168 107.6591288  86.7931376
  57.7955876 107.0898686  86.6375380  58.6839709 107.6253953  87.7402011
  43.9390796 112.5304690  82.4686095  43.8036471 113.3756226  82.8970943
  44.4800608 112.7323968  81.7052029  40.4258136  98.6096270  99.1300450
  40.0325081  98.0562469  99.8048095  41.2424276  98.9206849  99.5206968
  37.3920193 110.0480128  83.0414020  37.9044714 110.8423379  83.1919585
  38.0442906 109.3506419  82.9747622  39.2015078 113.1645885  85.1236774
  39.3781706 114.0863849  84.9357757  39.9971912 112.8504304  85.5531153
  43.3426097 100.0254149  96.7220707  44.0835810 100.6261302  96.6425169
  43.5744019  99.2831787  96.1638750  38.4867435 105.2110517  94.9998937
  38.3720950 104.3095774  95.3006036  37.6311952 105.4574213  94.6483753
  45.5659272 113.1528257  96.5986437  45.1223126 112.3664635  96.2807342
  46.2276486 113.3407407  95.9330328  40.3246393 114.6824058  91.1247116
  40.8753819 114.5541122  90.3524110  39.4857869 114.9818948  90.7742009
  47.6640510 113.4331057  94.6267839  47.6458986 114.2539938  94.1348108
  48.5860430 113.3085132  94.8517980  44.1213564 110.9475186  95.4691347
  44.6541901 110.1863474  95.2390655  43.5927646 110.6548838  96.2115501
  47.2883259  96.0535252  90.9984989  46.9447529  96.9436894  90.9224099
  47.6562222  95.8636910  90.1354574  35.3569110 108.3768783  83.8173591
  36.1944332 108.7865791  83.6007299  35.5347378 107.4368225  83.7873785
  47.2533542 106.0443863  79.5057424  46.7380166 106.8148468  79.7445811
  46.9810851 105.3709000  80.1290485  44.8380653 100.8893564  84.5642662
  43.9822250 100.5000415  84.3848301  45.2507605 100.9685525  83.7042448
  46.3679800  98.4239907  88.9634222  45.8644595  98.3870043  88.1502027
  46.6610407  99.3332650  89.0230879  42.6122686  98.5078637  87.9700404
  43.4775683  98.3121446  87.6106293  42.6800195  98.2788989  88.8969760
  52.2267816 108.7976218  81.4410597  51.4497259 108.4587378  80.9965759
  52.9059297 108.8028841  80.7665562  47.0419845 103.9170955  81.3317205
  46.7369981 104.2317105  82.1827348  47.9950287 103.9952375  81.3744538
  45.4866277 110.0761179  82.9810159  44.9587639 109.3413938  82.6683396
  44.9853780 110.8535855  82.7350127  50.4659123 108.2710199  88.0977205
  49.8082798 108.9609461  88.1857334  51.2699522 108.6606631  88.4411192
  40.2185005 100.7380845  85.3416770  40.7928757 100.5156027  84.6089963
  40.8055987 100.8069540  86.0945372  49.2764582 106.6254572  86.1481147
  49.7896464 107.2584564  86.6502857  49.9265806 106.0255767  85.7824507
  40.5454592 102.7685306  79.3612656  39.7091904 103.1059993  79.6821930
  40.4059362 102.6334286  78.4239793  42.5207673  97.6122094  84.0691840
  41.8672085  97.2971111  83.4448455  42.4788147  96.9897834  84.7951663
  43.6318877 107.8941389  75.9845132  42.7245939 107.6630643  76.1836281
  44.1289909 107.0979008  76.1719114  46.5386956 116.6038896  78.9041818
  45.8648655 116.9070593  79.5126776  46.9252778 117.4067977  78.5547275
  45.7545413 104.1004028  88.3939488  44.8367974 104.3218975  88.2361176
  46.1705557 104.1750338  87.5351195  46.5380461 105.4995443  83.5242168
  47.2852280 106.0116840  83.2149290  46.8072050 105.1779496  84.3846561
  44.8107111 107.9953984  80.5069122  43.9018330 107.7113017  80.6041592
  44.8402195 108.4153062  79.6472429  50.0426378 111.6060573  84.2760290
  49.5888705 110.7651483  84.3325480  49.4120345 112.2421972  84.6135070
  48.9859298 102.5352559  85.5060957  48.2482055 102.0229946  85.8371200
  49.2386071 102.0952941  84.6944234  48.4859317 113.4437070  85.2110108
  48.7782292 114.0042127  84.4922473  48.9957938 113.7365631  85.9663267
  49.0870925  95.3128811  86.1002726  49.3929802  94.4526175  85.8128641
  49.8123530  95.9046432  85.9001720  35.3795281 105.7159498  84.4884324
  35.1819681 105.1228859  83.7635391  34.8241945 105.4111708  85.2060263
  43.3592005 105.6082605  86.6078917  43.4140615 104.6556441  86.5321394
  42.5483207 105.7642044  87.0920216  44.5083199 109.5362728  77.8457201
  44.0702629 108.8198587  77.3862838  45.2493639 109.7638842  77.2842292
  41.2984365 104.2259664  84.3669296  40.4852230 104.5253835  84.7734488
  41.7943359 103.8315353  85.0843779  43.4492943 114.2217421  86.3003561
  43.4069121 114.4478268  85.3712093  44.3655642 113.9880796  86.4489362
  46.8958576 104.6901489  93.1984190  47.2507964 104.9172962  94.0578656
  47.5430708 105.0219866  92.5761446  52.6256313 107.8119925  83.9033519
  52.4874212 108.0021521  82.9754708  52.2692532 108.5739307  84.3601570
  40.7898440 101.7978020  89.9830531  41.4297819 101.6566779  89.2853495
  39.9575970 101.5112533  89.6069133  52.6525693 109.8796452  88.9144791
  53.0862200 109.7871741  89.7627845  53.3657274 109.8553952  88.2764807
  41.5658743 111.0980450  86.0965524  42.3599342 110.6030770  85.8948099
  40.8550436 110.5698313  85.7333229  46.3853588 113.4798546  90.4477891
  46.4390610 114.0489482  91.2155607  45.5168369 113.6500431  90.0831928
  37.8741507 105.2423532  82.1725276  36.9439095 105.1807987  82.3895239
  37.9698979 104.7199485  81.3761918  37.7927056 101.7678345  84.7603518
  38.0533873 102.6823678  84.6512679  38.6144228 101.3002787  84.9100131
  39.2651981 103.1816102  91.9302343  39.9375035 102.9733464  91.2814992
  38.4381768 102.9838188  91.4907575  53.5141243 109.9220152  91.4477676
  53.7077133 110.8265963  91.6936951  53.4141861 109.4627571  92.2816261
  45.1677553  99.8078043  93.9468003  44.5205468 100.5067993  93.8532480
  45.9378569 100.2414187  94.3144252  48.5756351 110.0726895  97.0218557
  48.4241858 109.8437447  96.1048640  48.5661031 111.0297496  97.0349902
  45.3441688 107.6458808  92.0064823  46.2733748 107.7969967  91.8333791
  44.9232718 107.7342829  91.1513470  44.1430019 111.6709472  89.7763361
  44.0041105 111.3028257  90.6489299  43.3544616 112.1857112  89.6047319
  44.7378171 116.7718569  81.1188897  44.9129927 116.3006612  81.9334520
  44.0510959 117.3984335  81.3470158  45.6935235 111.0491075  87.1652199
  45.3585067 111.0091845  88.0609848  45.1939180 110.3835791  86.6922609
  39.6679479 106.4558705  92.6904780  39.5299276 105.7238944  93.2916319
  40.5784402 106.3667605  92.4088968  48.6294426 108.3947109  77.4389258
  48.0123597 107.6693937  77.3422311  48.1610915 109.1556470  77.0956333
  42.2961779 106.1678664  92.1788459  43.0061398 105.5271856  92.1375078
  42.2531087 106.4191559  93.1014640  50.2848558 113.1046018  95.0995039
  50.2261104 112.4205238  94.4325622  50.6868076 113.8465008  94.6475665
  41.0090713 103.1543882  93.9984099  40.4728070 102.7034621  94.6505695
  40.4207422 103.2889791  93.2554563  40.4192972 102.6132534  76.5610563
  39.5422438 102.4921334  76.1972809  40.8950725 101.8218612  76.3089451
  50.2865965 111.0685602  93.3309018  49.3992744 110.7311523  93.4535417
  50.8564516 110.3368633  93.5677784  31.9395112 107.4009693  86.6552070
  32.6266152 107.0871423  86.0673085  31.7843241 108.3051058  86.3819321
  36.7429834 102.2899890  91.0837093  36.6588023 101.6825559  90.3487503
  35.9212541 102.7808908  91.0846590  43.8167119 115.7287054  90.2970262
  43.7437290 116.5342025  90.8089566  43.3744512 115.9279020  89.4718283
  43.6056898 114.9658824  83.8073083  42.8224420 115.5080504  83.9011308
  44.3049643 115.4832804  84.2067324  46.9153548 100.7753453  86.4507288
  47.4122248 100.0223416  86.1308359  46.1440530 100.8117770  85.8850498
  54.7683306 106.4793819  88.0925580  54.7573182 107.3618534  87.7219513
  53.9000685 106.1265370  87.8980117  46.2765802 115.6273888  92.4528420
  46.9893774 116.2621353  92.3804322  45.7855831 115.7237754  91.6368422
  47.9983329 109.5325141  84.0245712  47.0639608 109.6526603  83.8550416
  48.1759997 108.6297607  83.7605722  43.4988517 102.9170836  86.1778973
  43.1286305 102.3641877  86.8659879  43.9947609 102.3128970  85.6253973
  51.3855880 105.3742460  84.5595746  51.8516333 106.2070451  84.4856049
  51.8363381 104.9087441  85.2641004  41.3277716 113.3768331  93.2733991
  42.0287175 114.0104814  93.4263385  40.8572831 113.7183063  92.5129630
  49.4532111 111.7186281  81.5581898  49.7291955 111.6042876  82.4675772
  48.5836610 111.3203766  81.5194071  49.3572543  97.7423047  88.5986647
  48.4435623  97.9727274  88.7668854  49.7865645  97.8261491  89.4500680
  49.1279002 105.9312939  91.0986541  48.4750452 106.1788846  90.4438994
  49.5059381 105.1177077  90.7649019  46.0886175 115.9672632  85.2014712
  46.2708570 115.1494288  85.6642464  46.9119161 116.1840324  84.7639602
  46.4228341 114.8940817  82.4629760  46.9516107 114.3833272  81.8499922
  46.6856561 114.5783347  83.3275293  45.1766575 106.6732750  97.5852578
  44.5007212 106.5726879  98.2554954  45.9994208 106.5171964  98.0488576
  36.9245434 112.9104686  90.2065094  37.5098870 112.1648374  90.3392998
  36.7270272 113.2208643  91.0901758  39.7784089 115.9455934  85.2227536
  39.1094464 116.4302061  84.7391576  39.6396959 116.1925154  86.1370915
  31.5163088 105.4810287  88.9269537  31.5547188 104.9473877  89.7206655
  31.0103381 104.9545492  88.3080514  43.9189357 117.9799677  91.8210194
  44.4707666 118.1431299  92.5859280  44.2595551 118.5704115  91.1490219
  38.8953851 100.3274827  92.4232079  38.9595177 101.1889658  92.0109477
  38.8320971  99.7148829  91.6904438  38.3706123 102.3997960  96.0705113
  38.9978162 102.0175037  96.6842638  37.5134042 102.1812162  96.4360806
  48.7700232 112.8060935  97.6758849  49.3140136 113.4190893  97.1813804
  48.1887077 113.3640513  98.1925862  35.1471666 104.2074389  82.0023468
  35.4425107 103.2985067  81.9490522  34.2459702 104.1862128  81.6804471
  47.0557745 115.9281653  88.8073877  46.9308884 115.1271393  88.2984822
  47.7136836 116.4227846  88.3187847  38.6765913 102.2830385  87.9851017
  37.9552499 102.8966353  87.8458490  39.4659169 102.8188150  87.9067663
  49.1192653 113.7290673  90.4353427  48.1722989 113.6096024  90.3631753
  49.4675426 112.8413171  90.5179688  41.4792227  99.6184812  94.2591669
  42.0026628  99.8647108  95.0217978  41.2604560 100.4504847  93.8394806
  36.8759508 101.8888486  82.1262793  36.5472214 101.0085865  81.9437899
  37.2298878 101.8336155  83.0139183  46.1239086 113.5243389  86.6357779
  45.9764049 112.5960097  86.8165349  46.9492580 113.5463480  86.1514854
  39.9901331 102.1761456  82.4938271  40.3297403 102.7047377  81.7716879
  40.4373451 102.5141862  83.2696838  49.7273208 114.3471948  87.7222652
  50.6519756 114.1414809  87.5847103  49.5588512 114.0988349  88.6311993
  42.6844772 100.5598507  91.9441339  42.3441592  99.7606320  92.3462019
  41.9783778 100.8600218  91.3718172  43.3361243  97.6447819  90.3968662
  44.1587313  97.1708298  90.2747552  43.5799307  98.4238303  90.8967348
  41.9769478 100.6736078  80.6931564  42.6977840 101.0517331  80.1895281
  41.3534782 101.3924955  80.7966542  46.1200601 101.3781227  81.6289896
  46.3364215 102.2605865  81.3278724  45.6394668 100.9867440  80.8995538
  40.8599822 104.3366940  88.2060641  40.7144403 104.6507243  89.0984922
  40.3825026 104.9551840  87.6531539  42.7196205 101.3269488  88.2541530
  42.7057774 100.4310581  87.9173828  43.4368633 101.3340152  88.8879816
  44.5722336 101.7606828  90.2994658  44.3140114 102.6823899  90.2978988
  44.0407376 101.3637263  90.9895122  49.5168524 114.8657615  83.0784743
  49.6905402 114.3004038  82.3258596  50.0097416 115.6658510  82.8964233
  35.3345484 106.8772284  91.1448302  34.7898952 107.6532092  91.2768576
  36.2124834 107.2243089  90.9867423  42.1233101 100.2083868  83.5229100
  42.2449012  99.2800514  83.7219988  41.8335143 100.2222554  82.6107416
  44.9924291  97.8938779  86.6595820  45.0145988  97.9578112  85.7047800
  45.4092350  97.0543287  86.8536326  55.3707916 107.6294038  84.6975043
  55.8139062 106.8801363  84.2994166  54.4934426 107.6204175  84.3148775
  50.5043697 114.1824380  80.1781641  51.1994602 114.8031072  80.3968956
  50.8466847 113.3319731  80.4534019  36.1211506 106.0042181  94.0378459
  35.3793242 106.1524816  94.6243089  35.8004250 106.2650446  93.1745208
  52.4035120 111.6324085  81.7068972  52.9286444 111.9711358  80.9818292
  52.3157473 110.6971101  81.5232107  44.0655169 115.5458159  93.8358849
  44.3742295 115.3007306  94.7081548  44.8630651 115.7504797  93.3477719
  44.0875781 117.6996069  86.0664225  43.6480771 117.2072447  86.7597082
  44.8383898 117.1569036  85.8256301  36.5668120 113.8907609  86.0688853
  37.3926140 113.5911381  85.6887497  36.2162172 113.1215232  86.5178642
  41.5349653 113.2434078  88.1386527  40.9129662 112.5804783  87.8388755
  42.2054520 113.2695210  87.4560175  34.7676725 111.8093936  87.0277787
  33.9308633 111.3816110  86.8461788  34.7400370 112.0026379  87.9648578
  41.6074180 101.7215866  97.7319033  41.6562336 102.5977988  97.3496803
  42.1496695 101.1793259  97.1590676  52.0929026 112.2656989  97.0120170
  51.3024570 112.2481128  96.4724670  51.8562381 112.8045283  97.7669207
  52.2126901 109.1149455  94.3252899  52.2624906 108.9499463  95.2668421
  52.1040825 108.2476714  93.9350779  41.0963160 111.7938001  81.6144988
  41.2451280 112.4773465  80.9611660  41.9029603 111.7743091  82.1294443
  49.5030664 105.0980383  95.6412205  50.4040526 104.9586848  95.3496203
  49.5778638 105.2634838  96.5810383  43.8373469 102.4747238  94.4865392
  42.9676778 102.7680804  94.2147980  44.0732949 103.0587683  95.2072655
  53.7145098 111.5346397  94.5694920  53.4229906 111.8976377  95.4058381
  53.1017229 110.8213405  94.3908252  54.9140780 109.0999277  87.0897490
  55.7487672 109.5389081  87.2535051  55.0499909 108.6237930  86.2705736
  51.9632286 106.6579011  93.0374978  52.4386408 106.8506658  92.2293830
  51.0397852 106.7138197  92.7918362  38.8515793 107.8203179  82.6206056
  38.6061835 106.9165509  82.8186267  39.0211707 107.8220329  81.6785534
  46.5412503  98.6926855  92.0030812  47.0594447  99.4287882  91.6777301
  46.1867636  98.9990848  92.8377571  38.1211440 103.5531536  80.1192218
  37.4280685 103.6275891  79.4632254  37.8763192 102.7891880  80.6413735
  46.7925097  95.1127138  87.5231709  47.0726851  94.4450327  88.1492135
  47.5775704  95.3056233  87.0106372  44.5958565 114.2886131  79.0856735
  44.0232533 114.9076319  78.6327207  45.1691359 114.8385493  79.6196657
  50.6633955 103.5344772  91.2703284  51.6151378 103.6342869  91.2915508
  50.4937406 102.7423040  91.7801368  48.6848335 100.6200355  91.4562685
  48.0898267 100.9005367  90.7609173  48.3998031 101.1094256  92.2279426
  47.8155825 114.5723282  80.2165317  48.7486498 114.5068843  80.4198193
  47.7279038 115.4079548  79.7579850  50.4443842 113.8889152  77.1769265
  50.3657473 113.5549016  78.0705023  51.2653509 114.3810920  77.1760737
  53.1422033 106.7550891  90.3845583  53.1098353 105.8166892  90.5705267
  53.7522657 106.8334928  89.6511408  44.9805364 105.6246944  76.4272787
  45.9264469 105.4953152  76.4961205  44.6019609 104.8861606  76.9042216
  53.2916522 103.5461935  90.4303867  52.7755570 102.7620391  90.2433795
  54.1756470 103.2180651  90.5950386  50.9527248  97.2902950  86.3899679
  50.7552070  96.9818038  87.2743011  51.5626954  98.0164589  86.5197609
  58.9598583 107.8166898  89.5251620  59.6901971 107.5552186  90.0859324
  58.3505528 107.0795620  89.5653688  57.0413880 105.9574761  90.1226071
  56.3147044 105.8230726  89.5142563  56.6261167 106.2651589  90.9282789
  44.8644056 109.6764690  97.8873444  45.7847066 109.8543289  98.0813491
  44.8293640 108.7320736  97.7353144  43.1648281 103.5496921  76.3627673
  42.2579736 103.2530033  76.4390386  43.4424262 103.2526739  75.4961959
  34.0826221 104.8703284  86.8126719  33.7629006 104.0168592  86.5201093
  33.5359650 105.0851862  87.5684686  37.8606129 107.5865725  90.5296226
  38.0792139 108.5182833  90.5484259  38.2731903 107.2273699  91.3151029
  44.7810347  98.0933810  82.5171914  43.9711075  97.7480895  82.8927160
  45.4694764  97.7841354  83.1059526  46.7100895  97.1711857  84.1396211
  47.2631934  97.5907311  84.7986234  46.9470981  96.2447605  84.1819167
  42.7333994 103.1598931  99.9198975  42.6330721 104.1093288  99.8511066
  42.5155536 102.8317170  99.0475045  41.9347066 100.4083856  76.5039652
  42.7966230 100.7338754  76.7635469  42.1197410  99.6215352  75.9912718
  33.9514481 108.4906195  88.7819841  33.2577953 108.0760148  88.2689795
  34.6987472 108.5326732  88.1853260  50.0879702  99.2812382  83.6474875
  49.5078371  99.9397186  83.2652927  49.8215635  98.4589727  83.2362292
  48.5383269  98.6817440  85.8496195  49.0383047  98.7933974  85.0410514
  49.1818876  98.3778493  86.4897004  42.5965264 106.5896070  98.7364036
  42.1132346 107.3896430  98.9427925  42.6826203 106.6004014  97.7831480
  35.8651224 108.4224449  86.6585856  35.8421912 108.5212137  85.7067739
  36.1751860 109.2689600  86.9803022  38.5238602 110.4800604  90.7732470
  39.4781855 110.4484547  90.7062402  38.3251125 110.0191228  91.5882696
  39.1137984 109.0501720  93.3403268  39.9330873 109.5445799  93.3638105
  39.3874792 108.1333688  93.3120835  48.8704580 101.4412473  82.7031223
  47.9830435 101.7262123  82.4851418  49.2858569 101.2806236  81.8558500
  52.2219116 101.4658994  86.4185562  52.9979506 101.9555446  86.6910179
  51.4967251 101.8917048  86.8757432  54.6591675 102.1786613  87.4759503
  55.2536166 101.9382349  86.7652811  54.7318259 101.4593743  88.1033039
  48.0147794 111.2057147  76.7979243  48.7183644 111.4107150  77.4136899
  47.2910442 111.7733909  77.0628327  48.8445604 106.9567009  82.9181513
  48.7880805 107.4135560  82.0789146  49.3973946 106.1957693  82.7404356
  52.6550410 102.7456740  83.7431633  52.3987344 102.3453376  84.5739840
  52.0303278 103.4600534  83.6181772  56.9662748 105.4852814  86.2502924
  56.4062306 105.5546003  87.0234486  56.3606251 105.3093798  85.5302420
  49.9234491 111.6439677  78.8477703  50.7580095 111.2120875  78.6655178
  49.7618834 111.4721690  79.7754598  49.5780383 108.1471790  80.2134042
  49.5229187 107.9816061  79.2722487  48.9526439 108.8547823  80.3696232
  34.3672898 103.3839854  94.0395465  35.0131762 102.8738808  94.5282690
  34.1590049 104.1208536  94.6138890  46.8926290 110.4520702  99.5387605
  47.7617450 110.6261354  99.1774240  46.4133042 111.2715119  99.4163335
  42.8876509  97.6479899  79.7919361  42.8755179  98.5921739  79.9487632
  43.7799931  97.4650044  79.4978822  41.0612471 117.5717803  91.2177039
  41.9639717 117.6041413  91.5343534  40.8349841 116.6418254  91.2323375
  42.8166073 116.3248789  87.8787118  41.8661704 116.3250651  87.7651490
  43.1198559 115.5781524  87.3623152  46.7028628  94.2422675  84.0465298
  45.9361024  93.6881162  84.1921980  47.1139333  94.3144544  84.9079449
  38.7070389 100.5307471  98.1370479  39.5701851 100.1744276  98.3473804
  38.1335800 100.1921366  98.8245883  58.5518766 122.1609328  88.9432880
  59.1897176 122.0416075  88.2396220  58.4339609 123.1090172  89.0020832
  55.3608472 122.1136756  88.8794405  55.0226984 121.9977820  87.9914939
  56.2298241 121.7127921  88.8595411  55.8428255 123.2671607  94.8380610
  55.8316896 122.8724406  93.9661114  56.0048895 122.5337680  95.4314382
  53.0616752 120.8825003  78.2111345  53.3142273 120.3606524  77.4494808
  52.1241311 120.7191149  78.3138028  58.1060035 119.8860781  86.0186088
  58.8923124 119.4680205  85.6676505  58.3698739 120.7906874  86.1867736
  63.5068462 119.8236015  86.9219066  64.2393634 119.2535231  87.1556896
  62.7507817 119.4357615  87.3625572  55.1244582 122.2463256  84.1182409
  54.7602789 121.7193877  84.8295330  55.9811697 121.8561725  83.9448894
  61.0293882 113.5357589  91.3813675  60.6977207 114.4053000  91.1574890
  60.4339496 113.2193873  92.0607705  54.7650068 117.2753156  79.1143757
  54.9324471 118.1433392  79.4814228  54.5747238 117.4380438  78.1905047
  60.9222545 118.2552675  88.4607025  60.0139423 118.1868083  88.1665786
  60.8710141 118.7324620  89.2888851  54.7439289 119.7310813  80.0990424
  54.6238915 120.1767864  80.9375905  54.0491878 120.0796131  79.5403962
  54.9963411 119.6742321  96.4041922  54.2196745 120.2336241  96.3944787
  55.6353974 120.1599104  96.9256793  62.7884192 116.4569113  90.2384899
  62.1458572 116.7501647  89.5924694  62.2839120 116.3422034  91.0438096
  60.4424356 120.2032287  80.9270758  61.3542212 120.4359673  80.7518456
  59.9334003 120.7869331  80.3645837  55.0796193 119.5629521  91.9365608
  55.9257388 119.9868935  92.0800257  55.0194831 118.9063145  92.6304171
  58.2295639 117.2233889  93.5946781  57.9856570 117.9775950  93.0581057
  58.5055569 117.6019237  94.4294029  60.1834101 123.7672502  92.2724047
  60.3950997 124.4104262  91.5958428  60.1363850 122.9334818  91.8045977
  57.7860330 116.3790323  89.1760619  56.9244809 116.6771576  89.4677357
  57.8122765 116.5960721  88.2441652  53.5390786 121.0455665  82.3923990
  54.2414829 121.4976709  82.8597916  53.2071414 120.4039484  83.0203883
  51.9871147 119.6367422  96.7675199  51.3569808 120.3183703  97.0010596
  51.8807235 119.5250504  95.8228338  47.2816120 119.3039218  87.6941124
  46.4915174 119.5596747  87.2181234  47.7727367 120.1187556  87.7993164
  49.2330865 119.6683797  84.6524600  48.4362028 119.7802492  85.1708096
  49.0056457 120.0070450  83.7865491  69.3885922 122.9883206  86.7931376
  68.6349631 122.4190604  86.6375380  69.5233464 122.9545870  87.7402011
  51.2651890 113.9388188  99.1300450  50.8718836 113.3854386  99.8048095
  52.0818030 114.2498766  99.5206968  54.1819851 115.3546067  96.7220707
  54.9229564 115.9553220  96.6425169  54.4137774 114.6123705  96.1638750
  58.1277014 111.3827170  90.9984989  57.7841283 112.2728812  90.9224099
  58.4955977 111.1928828  90.1354574  58.0927297 121.3735781  79.5057424
  57.5773920 122.1440386  79.7445811  57.8204605 120.7000917  80.1290485
  55.6774408 116.2185482  84.5642662  54.8216004 115.8292332  84.3848301
  56.0901359 116.2977443  83.7042448  57.2073554 113.7531825  88.9634222
  56.7038350 113.7161960  88.1502027  57.5004161 114.6624568  89.0230879
  53.4516440 113.8370555  87.9700404  54.3169437 113.6413364  87.6106293
  53.5193949 113.6080907  88.8969760  63.0661571 124.1268136  81.4410597
  62.2891014 123.7879295  80.9965759  63.7453052 124.1320759  80.7665562
  57.8813600 119.2462873  81.3317205  57.5763735 119.5609022  82.1827348
  58.8344042 119.3244293  81.3744538  61.3052878 123.6002117  88.0977205
  60.6476552 124.2901378  88.1857334  62.1093277 123.9898549  88.4411192
  51.0578759 116.0672763  85.3416770  51.6322511 115.8447944  84.6089963
  51.6449742 116.1361457  86.0945372  60.1158337 121.9546490  86.1481147
  60.6290218 122.5876481  86.6502857  60.7659560 121.3547685  85.7824507
  51.3848346 118.0977224  79.3612656  50.5485659 118.4351910  79.6821930
  51.2453116 117.9626204  78.4239793  53.3601427 112.9414012  84.0691840
  52.7065839 112.6263029  83.4448455  53.3181901 112.3189752  84.7951663
  56.5939167 119.4295945  88.3939488  55.6761729 119.6510892  88.2361176
  57.0099311 119.5042256  87.5351195  57.3774215 120.8287361  83.5242168
  58.1246034 121.3408758  83.2149290  57.6465805 120.5071414  84.3846561
  59.8253052 117.8644477  85.5060957  59.0875809 117.3521863  85.8371200
  60.0779826 117.4244859  84.6944234  59.9264680 110.6420729  86.1002726
  60.2323556 109.7818093  85.8128641  60.6517284 111.2338349  85.9001720
  54.1985759 120.9374522  86.6078917  54.2534369 119.9848359  86.5321394
  53.3876961 121.0933961  87.0920216  52.1378119 119.5551582  84.3669296
  51.3245985 119.8545753  84.7734488  52.6337113 119.1607271  85.0843779
  57.7352331 120.0193406  93.1984190  58.0901719 120.2464880  94.0578656
  58.3824462 120.3511783  92.5761446  63.4650068 123.1411842  83.9033519
  63.3267966 123.3313438  82.9754708  63.1086287 123.9031225  84.3601570
  51.6292194 117.1269937  89.9830531  52.2691573 116.9858697  89.2853495
  50.7969725 116.8404451  89.6069133  63.4919447 125.2088369  88.9144791
  63.9255954 125.1163658  89.7627845  64.2051028 125.1845870  88.2764807
  48.7135261 120.5715450  82.1725276  47.7832849 120.5099905  82.3895239
  48.8092733 120.0491402  81.3761918  48.6320810 117.0970262  84.7603518
  48.8927628 118.0115596  84.6512679  49.4537983 116.6294705  84.9100131
  50.1045736 118.5108020  91.9302343  50.7768789 118.3025382  91.2814992
  49.2775522 118.3130106  91.4907575  64.3534997 125.2512070  91.4477676
  64.5470887 126.1557880  91.6936951  64.2535615 124.7919489  92.2816261
  56.0071308 115.1369961  93.9468003  55.3599223 115.8359910  93.8532480
  56.7772323 115.5706104  94.3144252  56.1835442 122.9750725  92.0064823
  57.1127502 123.1261885  91.8333791  55.7626472 123.0634746  91.1513470
  59.4688181 123.7239027  77.4389258  58.8517351 122.9985855  77.3422311
  59.0004669 124.4848387  77.0956333  53.1355534 121.4970582  92.1788459
  53.8455152 120.8563774  92.1375078  53.0924842 121.7483477  93.1014640
  51.8484468 118.4835800  93.9984099  51.3121825 118.0326538  94.6505695
  51.2601176 118.6181709  93.2554563  51.2586727 117.9424451  76.5610563
  50.3816193 117.8213252  76.1972809  51.7344480 117.1510530  76.3089451
  47.5823589 117.6191808  91.0837093  47.4981778 117.0117477  90.3487503
  46.7606295 118.1100826  91.0846590  57.7547303 116.1045371  86.4507288
  58.2516002 115.3515333  86.1308359  56.9834284 116.1409688  85.8850498
  65.6077060 121.8085737  88.0925580  65.5966936 122.6910452  87.7219513
  64.7394440 121.4557287  87.8980117  54.3382272 118.2462754  86.1778973
  53.9680059 117.6933794  86.8659879  54.8341364 117.6420888  85.6253973
  62.2249635 120.7034378  84.5595746  62.6910087 121.5362369  84.4856049
  62.6757135 120.2379359  85.2641004  60.1966298 113.0714965  88.5986647
  59.2829377 113.3019191  88.7668854  60.6259399 113.1553409  89.4500680
  59.9672756 121.2604857  91.0986541  59.3144206 121.5080764  90.4438994
  60.3453136 120.4468995  90.7649019  56.0160329 122.0024668  97.5852578
  55.3400966 121.9018797  98.2554954  56.8387963 121.8463881  98.0488576
  49.7347605 115.6566745  92.4232079  49.7988932 116.5181576  92.0109477
  49.6714725 115.0440746  91.6904438  49.2099878 117.7289877  96.0705113
  49.8371917 117.3466955  96.6842638  48.3527797 117.5104079  96.4360806
  45.9865420 119.5366306  82.0023468  46.2818862 118.6276985  81.9490522
  45.0853456 119.5154046  81.6804471  49.5159667 117.6122303  87.9851017
  48.7946253 118.2258271  87.8458490  50.3052923 118.1480068  87.9067663
  52.3185981 114.9476730  94.2591669  52.8420383 115.1939026  95.0217978
  52.0998314 115.7796764  93.8394806  47.7153262 117.2180404  82.1262793
  47.3865968 116.3377783  81.9437899  48.0692633 117.1628073  83.0139183
  50.8295085 117.5053374  82.4938271  51.1691158 118.0339295  81.7716879
  51.2767206 117.8433780  83.2696838  53.5238526 115.8890425  91.9441339
  53.1835346 115.0898238  92.3462019  52.8177532 116.1892135  91.3718172
  54.1754998 112.9739737  90.3968662  54.9981067 112.5000215  90.2747552
  54.4193061 113.7530221  90.8967348  52.8163232 116.0027996  80.6931564
  53.5371595 116.3809248  80.1895281  52.1928536 116.7216872  80.7966542
  56.9594355 116.7073144  81.6289896  57.1757970 117.5897782  81.3278724
  56.4788422 116.3159358  80.8995538  51.6993577 119.6658858  88.2060641
  51.5538157 119.9799161  89.0984922  51.2218780 120.2843758  87.6531539
  53.5589960 116.6561406  88.2541530  53.5451528 115.7602499  87.9173828
  54.2762388 116.6632069  88.8879816  55.4116090 117.0898746  90.2994658
  55.1533868 118.0115817  90.2978988  54.8801131 116.6929180  90.9895122
  52.9626855 115.5375786  83.5229100  53.0842767 114.6092432  83.7219988
  52.6728898 115.5514472  82.6107416  55.8318046 113.2230696  86.6595820
  55.8539743 113.2870029  85.7047800  56.2486105 112.3835205  86.8536326
  66.2101670 122.9585956  84.6975043  66.6532816 122.2093281  84.2994166
  65.3328180 122.9496092  84.3148775  52.4467935 117.0507783  97.7319033
  52.4956090 117.9269906  97.3496803  52.9890449 116.5085176  97.1590676
  63.0520656 124.4441373  94.3252899  63.1018661 124.2791380  95.2668421
  62.9434579 123.5768632  93.9350779  60.3424418 120.4272301  95.6412205
  61.2434281 120.2878766  95.3496203  60.4172393 120.5926756  96.5810383
  54.6767223 117.8039156  94.4865392  53.8070533 118.0972722  94.2147980
  54.9126704 118.3879601  95.2072655  65.7534535 124.4291194  87.0897490
  66.5881426 124.8680998  87.2535051  65.8893664 123.9529847  86.2705736
  62.8026041 121.9870929  93.0374978  63.2780162 122.1798575  92.2293830
  61.8791606 122.0430115  92.7918362  57.3806257 114.0218773  92.0030812
  57.8988201 114.7579800  91.6777301  57.0261390 114.3282766  92.8377571
  48.9605195 118.8823454  80.1192218  48.2674440 118.9567809  79.4632254
  48.7156947 118.1183798  80.6413735  57.6318851 110.4419055  87.5231709
  57.9120605 109.7742244  88.1492135  58.4169458 110.6348151  87.0106372
  61.5027710 118.8636689  91.2703284  62.4545133 118.9634787  91.2915508
  61.3331160 118.0714958  91.7801368  59.5242089 115.9492272  91.4562685
  58.9292021 116.2297285  90.7609173  59.2391786 116.4386173  92.2279426
  63.9815788 122.0842809  90.3845583  63.9492108 121.1458810  90.5705267
  64.5916411 122.1626846  89.6511408  55.8199118 120.9538862  76.4272787
  56.7658223 120.8245070  76.4961205  55.4413363 120.2153524  76.9042216
  64.1310276 118.8753852  90.4303867  63.6149325 118.0912309  90.2433795
  65.0150225 118.5472569  90.5950386  61.7921003 112.6194868  86.3899679
  61.5945824 112.3109956  87.2743011  62.4020709 113.3456507  86.5197609
  69.7992337 123.1458816  89.5251620  70.5295726 122.8844104  90.0859324
  69.1899283 122.4087538  89.5653688  67.8807635 121.2866678  90.1226071
  67.1540798 121.1522643  89.5142563  67.4654921 121.5943507  90.9282789
  54.0042036 118.8788838  76.3627673  53.0973491 118.5821951  76.4390386
  54.2818017 118.5818656  75.4961959  55.6204101 113.4225728  82.5171914
  54.8104830 113.0772813  82.8927160  56.3088518 113.1133272  83.1059526
  57.5494650 112.5003775  84.1396211  58.1025688 112.9199228  84.7986234
  57.7864736 111.5739523  84.1819167  53.5727749 118.4890848  99.9198975
  53.4724476 119.4385205  99.8511066  53.3549291 118.1609087  99.0475045
  52.7740820 115.7375773  76.5039652  53.6359984 116.0630672  76.7635469
  52.9591164 114.9507269  75.9912718  60.9273457 114.6104300  83.6474875
  60.3472126 115.2689104  83.2652927  60.6609389 113.7881645  83.2362292
  59.3777023 114.0109358  85.8496195  59.8776801 114.1225892  85.0410514
  60.0212631 113.7070410  86.4897004  59.7098335 116.7704390  82.7031223
  58.8224190 117.0554041  82.4851418  60.1252324 116.6098154  81.8558500
  63.0612871 116.7950911  86.4185562  63.8373261 117.2847364  86.6910179
  62.3361005 117.2208965  86.8757432  65.4985429 117.5078531  87.4759503
  66.0929920 117.2674266  86.7652811  65.5712013 116.7885661  88.1033039
  59.6839358 122.2858926  82.9181513  59.6274560 122.7427478  82.0789146
  60.2367701 121.5249611  82.7404356  63.4944164 118.0748658  83.7431633
  63.2381099 117.6745294  84.5739840  62.8697032 118.7892452  83.6181772
  67.8056502 120.8144731  86.2502924  67.2456060 120.8837921  87.0234486
  67.2000006 120.6385716  85.5302420  60.4174138 123.4763707  80.2134042
  60.3622942 123.3107979  79.2722487  59.7920193 124.1839740  80.3696232
  45.2066653 118.7131772  94.0395465  45.8525516 118.2030726  94.5282690
  44.9983804 119.4500454  94.6138890  53.7270263 112.9771816  79.7919361
  53.7148933 113.9213656  79.9487632  54.6193685 112.7941962  79.4978822
  57.5422383 109.5714593  84.0465298  56.7754778 109.0173080  84.1921980
  57.9533088 109.6436462  84.9079449  49.5464144 115.8599389  98.1370479
  50.4095605 115.5036194  98.3473804  48.9729554 115.5213284  98.8245883
  68.9670768 126.7119088  90.9984989  68.6235038 127.6020729  90.9224099
  69.3349731 126.5220745  90.1354574  70.7658434 125.9712647  86.1002726
  71.0717311 125.1110010  85.8128641  71.4911039 126.5630267  85.9001720
  68.4712606 125.7710973  87.5231709  68.7514360 125.1034162  88.1492135
  69.2563213 125.9640068  87.0106372  72.6314757 127.9486786  86.3899679
  72.4339579 127.6401874  87.2743011  73.2414463 128.6748424  86.5197609
  68.3816137 124.9006511  84.0465298  67.6148533 124.3464998  84.1921980
  68.7926842 124.9728380  84.9079449   4.3549995  22.5211862  75.6678187
   4.9928405  22.4018609  74.9641527   4.2370838  23.4692706  75.7266139
   1.1639701  22.4739290  75.6039711   0.8258213  22.3580355  74.7160246
   2.0329469  22.0730455  75.5840717   1.6459484  23.6274142  81.5625917
   1.6348125  23.2326940  80.6906420   1.8080124  22.8940214  82.1559688
   2.6026076  27.9945734  66.9051067   1.9514055  28.5799814  66.5185081
   3.3970438  28.5251929  66.9646105   3.9091263  20.2463316  72.7431395
   4.6954353  19.8282739  72.3921812   4.1729968  21.1509408  72.9113043
   4.0801341  25.6836166  67.4420051   3.4447174  25.7570793  68.1540956
   3.7498747  26.2729765  66.7639131   9.3099691  20.1838549  73.6464373
  10.0424863  19.6137766  73.8802203   8.5539046  19.7960149  74.0870879
   0.9275810  22.6065790  70.8427716   0.5634018  22.0796411  71.5540637
   1.7842926  22.2164259  70.6694201   3.3256630  26.0972669  77.5054894
   3.0257354  26.9997708  77.3970702   2.9807690  25.8304852  78.3576047
   6.7253774  18.6155209  75.1852332   5.8170652  18.5470618  74.8911093
   6.6741370  19.0927154  76.0134157   8.5915421  16.8171648  76.9630206
   7.9489801  17.1104181  76.3170000   8.0870349  16.7024568  77.7683402
   6.2455584  20.5634821  67.6516065   7.1573440  20.7962208  67.4763763
   5.7365231  21.1471865  67.0891144   4.5296352  24.9859449  81.2877358
   4.9379708  24.5441859  80.5431990   3.8073613  24.4112076  81.5411550
   0.8827422  19.9232055  78.6610914   1.7288617  20.3471469  78.8045563
   0.8226060  19.2665680  79.3549478   4.8525167  25.5460639  75.0429646
   4.2234029  25.7106353  74.3405714   4.4650829  25.9602249  75.8140610
   8.7314399  26.4815077  72.3974010   8.0465437  26.8613978  71.8471043
   8.8158248  27.0910404  73.1305958   4.0326867  17.5836424  80.3192088
   3.7887799  18.3378484  79.7826364   4.3086798  17.9621771  81.1539335
   5.9865330  24.1275036  78.9969354   6.1982225  24.7706796  78.3203735
   5.9395078  23.2937353  78.5291284   3.5891559  16.7392857  75.9005926
   2.7276038  17.0374110  76.1922663   3.6153994  16.9563256  74.9686958
   7.1011158  27.0046992  77.1691711   7.9228602  26.6027179  76.8874393
   7.0973561  26.9015226  78.1207827  15.1917151  23.3485740  73.5176683
  14.4380860  22.7793138  73.3620687  15.3264692  23.3148404  74.4647317
   0.5815779  28.2199142  69.1931402   0.4461454  29.0650678  69.6216250
   1.1225592  28.4218420  68.4297336   2.2084256  28.8422709  83.3231744
   1.7648110  28.0559087  83.0052648   2.8701469  29.0301859  82.6575635
   4.3065494  29.1225509  81.3513145   4.2883969  29.9434390  80.8593414
   5.2285414  28.9979584  81.5763286   3.8958525  21.7338315  66.2302730
   3.3805149  22.5042920  66.4691118   3.6235834  21.0603451  66.8535792
   8.8692800  24.4870670  68.1655904   8.0922242  24.1481829  67.7211066
   9.5484281  24.4923293  67.4910869   3.6844829  19.6065407  68.0562512
   3.3794964  19.9211557  68.9072655   4.6375271  19.6846827  68.0989845
   2.1291260  25.7655631  69.7055466   1.6012622  25.0308390  69.3928703
   1.6278763  26.5430307  69.4595434   7.1084107  23.9604651  74.8222512
   6.4507781  24.6503913  74.9102641   7.9124506  24.3501083  75.1656498
   5.9189565  22.3149024  72.8726454   6.4321447  22.9479016  73.3748163
   6.5690789  21.7150219  72.5069814   3.1811940  32.2933348  65.6287125
   2.5073638  32.5965045  66.2372083   3.5677762  33.0962428  65.2792582
   2.3970396  19.7898479  75.1184794   1.4792958  20.0113426  74.9606482
   2.8130540  19.8644790  74.2596502   3.1805444  21.1889895  70.2487474
   3.9277263  21.7011292  69.9394596   3.4497033  20.8673948  71.1091868
   1.4532094  23.6848436  67.2314429   0.5443313  23.4007469  67.3286898
   1.4827178  24.1047514  66.3717736   6.6851362  27.2955025  71.0005596
   6.2313689  26.4545935  71.0570787   6.0545328  27.9316424  71.3380376
   5.6284281  18.2247011  72.2306264   4.8907038  17.7124398  72.5616506
   5.8811055  17.7847393  71.4189541   5.1284301  29.1331522  71.9355414
   5.4207275  29.6936579  71.2167780   5.6382921  29.4260083  72.6908574
   1.1508182  25.2257179  64.5702507   0.7127612  24.5093038  64.1108145
   1.8918623  25.4533294  64.0087599   3.5383560  20.3795941  79.9229497
   3.8932947  20.6067414  80.7823963   4.1855691  20.7114317  79.3006752
   9.2681297  23.5014377  70.6278826   9.1299195  23.6915972  69.7000015
   8.9117516  24.2633759  71.0846877   9.2950676  25.5690904  75.6390097
   9.7287183  25.4766193  76.4873151  10.0082257  25.5448404  75.0010113
   3.0278571  29.1692998  77.1723198   3.0815593  29.7383934  77.9400914
   2.1593353  29.3394883  76.8077235  10.1566226  25.6114604  78.1722983
  10.3502116  26.5160415  78.4182258  10.0566844  25.1522023  79.0061568
   5.2181335  25.7621347  83.7463863   5.0666841  25.5331899  82.8293947
   5.2086014  26.7191948  83.7595208   1.9866671  23.3353260  78.7310130
   2.9158731  23.4864419  78.5579097   1.5657701  23.4237280  77.8758776
   1.3803155  32.4613021  67.8434204   1.5554910  31.9901064  68.6579827
   0.6935943  33.0878787  68.0715465   2.3360218  26.7385527  73.8897505
   2.0010050  26.6986297  74.7855155   1.8364164  26.0730243  73.4167915
   5.2719410  24.0841561  64.1634565   4.6548580  23.3588389  64.0667618
   4.8035898  24.8450921  63.8201639   6.9273541  28.7940469  81.8240345
   6.8686087  28.1099690  81.1570928   7.3293060  29.5359459  81.3720971
   6.9290948  26.7580053  80.0554325   6.0417727  26.4205975  80.1780724
   7.4989500  26.0263085  80.2923090   3.5578532  16.4647905  73.1752595
   4.0547231  15.7117868  72.8553665   2.7865513  16.5012222  72.6095804
  11.4108289  22.1688271  74.8170887  11.3998165  23.0512986  74.4464820
  10.5425668  21.8159822  74.6225424   2.9190785  31.3168340  79.1773727
   3.6318758  31.9515805  79.1049628   2.4280814  31.4132206  78.3613729
   4.6408312  25.2219592  70.7491018   3.7064591  25.3421055  70.5795723
   4.8184981  24.3192059  70.4851028   8.0280864  21.0636912  71.2841053
   8.4941316  21.8964903  71.2101355   8.4788364  20.5981893  71.9886311
   6.0957095  27.4080733  68.2827205   6.3716939  27.2937328  69.1921079
   5.2261593  27.0098218  68.2439378   5.7703985  21.6207391  77.8231848
   5.1175435  21.8683298  77.1684301   6.1484365  20.8071529  77.4894325
   2.7311159  31.6567084  71.9260018   2.9133553  30.8388740  72.3887771
   3.5544145  31.8734776  71.4884908   3.0653324  30.5835269  69.1875067
   3.5941091  30.0727724  68.5745229   3.3281544  30.2677799  70.0520600
   1.8191558  22.3627202  84.3097885   1.1432195  22.2621331  84.9800260
   2.6419192  22.2066416  84.7733882   0.5614341  33.6694129  78.5455501
   1.1132649  33.8325751  79.3104586   0.9020534  34.2598567  77.8735526
   5.4125215  28.4955387  84.4004155   5.9565119  29.1085345  83.9059110
   4.8312060  29.0534965  84.9171168   3.6982728  31.6176105  75.5319183
   3.5733867  30.8165845  75.0230129   4.3561819  32.1122298  75.0433153
   5.7617636  29.4185125  77.1598733   4.8147972  29.2990476  77.0877060
   6.1100410  28.5307623  77.2424995   2.7664070  29.2137841  73.3603086
   2.6189032  28.2854548  73.5410656   3.5917563  29.2357932  72.8760161
   6.3698192  30.0366400  74.4467958   7.2944739  29.8309261  74.3092409
   6.2013495  29.7882801  75.3557300   6.1593508  30.5552067  69.8030050
   6.3330385  29.9898490  69.0503902   6.6522399  31.3552962  69.6209540
  12.0132899  23.3188490  71.4220349  12.4564045  22.5695815  71.0239473
  11.1359409  23.3098627  71.0394081   7.1468680  29.8718832  66.9026948
   7.8419585  30.4925524  67.1214263   7.4891830  29.0214183  67.1779326
   9.0460103  27.3218537  68.4314279   9.5711427  27.6605810  67.7063599
   8.9582456  26.3865552  68.2477413   0.7080152  31.2352611  80.5604155
   1.0167279  30.9901758  81.4326855   1.5055634  31.4399249  80.0723026
   8.7354009  27.9551441  83.7365477   7.9449553  27.9375580  83.1969976
   8.4987364  28.4939734  84.4914513   8.8551885  24.8043907  81.0498205
   8.9049889  24.6393915  81.9913728   8.7465808  23.9371166  80.6596086
   6.1455647  20.7874835  82.3657512   7.0465510  20.6481300  82.0741510
   6.2203621  20.9529290  83.3055689  10.3570081  27.2240849  81.2940227
  10.0654890  27.5870829  82.1303688   9.7442213  26.5107857  81.1153559
  11.5565764  24.7893728  73.8142797  12.3912655  25.2283533  73.9780357
  11.6924892  24.3132382  72.9951043   8.6057270  22.3473463  79.7620285
   9.0811391  22.5401110  78.9539136   7.6822835  22.4032649  79.5163668
   1.2383549  29.9780583  65.8102042   0.6657516  30.5970770  65.3572513
   1.8116342  30.5279945  66.3441964   7.3058939  19.2239223  77.9948590
   8.2576361  19.3237321  78.0160814   7.1362389  18.4317492  78.5046675
   5.3273318  16.3094807  78.1807991   4.7323250  16.5899819  77.4854480
   5.0423015  16.7988708  78.9524732   4.4580809  30.2617733  66.9410624
   5.3911482  30.1963295  67.1443499   4.3704021  31.0974000  66.4825157
   7.0868825  29.5783604  63.9014571   7.0082457  29.2443467  64.7950329
   7.9078492  30.0705372  63.9006044   9.7847016  22.4445343  77.1090890
   9.7523336  21.5061344  77.2950574  10.3947640  22.5229380  76.3756715
   1.6230347  21.3141396  63.1518094   2.5689452  21.1847604  63.2206512
   1.2444592  20.5756058  63.6287522   9.9341505  19.2356387  77.1549173
   9.4180553  18.4514843  76.9679102  10.8181453  18.9075103  77.3195693
  15.6023566  23.5061350  76.2496927  16.3326955  23.2446638  76.8104630
  14.9930512  22.7690072  76.2898995  13.6838863  21.6469213  76.8471378
  12.9572027  21.5125177  76.2387870  13.2686150  21.9546041  77.6528096
   1.5069040  25.3659142  84.6118751   2.4272049  25.5437741  84.8058798
   1.4718623  24.4215188  84.4598450   6.7304685  14.9706834  70.3720182
   6.1503355  15.6291638  69.9898234   6.4640618  14.1484179  69.9607599
   5.5129563  17.1306925  69.4276530   4.6255419  17.4156575  69.2096725
   5.9283553  16.9700688  68.5803807   8.8644100  17.1553446  73.1430869
   9.6404490  17.6449898  73.4155486   8.1392234  17.5811500  73.6002739
  11.3016658  17.8681065  74.2004810  11.8961149  17.6276801  73.4898118
  11.3743242  17.1488195  74.8278346   4.6572777  26.8951599  63.5224550
   5.3608627  27.1001602  64.1382205   3.9335426  27.4628361  63.7873633
   5.4870587  22.6461460  69.6426820   5.4305789  23.1030012  68.8034452
   6.0398930  21.8852145  69.4649663   9.2975393  18.4351192  70.4676939
   9.0412327  18.0347828  71.2985147   8.6728261  19.1494986  70.3427079
  13.6087731  21.1747266  72.9748231  13.0487289  21.2440455  73.7479793
  13.0031234  20.9988250  72.2547727   6.5659474  27.3334128  65.5723010
   7.4005078  26.9015327  65.3900485   6.4043817  27.1616142  66.4999904
   6.2205367  23.8366242  66.9379349   6.1654170  23.6710513  65.9967793
   5.5951422  24.5442275  67.0941539   3.5351274  26.1415154  86.2632912
   4.4042433  26.3155806  85.9019547   3.0558025  26.9609570  86.1408641
  15.1943749  37.8503780  75.6678187  15.8322159  37.7310527  74.9641527
  15.0764592  38.7984623  75.7266139  12.0033456  37.8031208  75.6039711
  11.6651967  37.6872272  74.7160246  12.8723224  37.4022373  75.5840717
   7.8620271  39.6566684  71.5936602   7.2985137  39.5656621  70.8252890
   7.7472666  38.8366588  72.0739095  12.4853239  38.9566059  81.5625917
  12.4741879  38.5618858  80.6906420  12.6473878  38.2232132  82.1559688
   5.4084703  41.1517876  74.4320823   6.2005995  40.8108700  74.0167122
   5.6481354  41.2612851  75.3522976  13.4419830  43.3237652  66.9051067
  12.7907810  43.9091732  66.5185081  14.2364193  43.8543847  66.9646105
   7.3675457  40.4126789  67.3038201   8.1406333  39.8655776  67.1651077
   7.7200856  41.2771038  67.5152663   9.2060500  41.7403171  80.5105101
   8.9150366  42.6448802  80.3951767   9.8417484  41.7819699  81.2249170
  10.1316707  39.1180020  77.1006460  10.7280279  38.8936042  76.3863423
  10.1891678  38.3764765  77.7031908   9.7041735  36.5719455  64.9356651
   9.9567256  36.0500976  64.1740114   8.7666294  36.4085600  65.0383335
  14.7485018  35.5755233  72.7431395  15.5348107  35.1574657  72.3921812
  15.0123722  36.4801326  72.9113043  14.9195095  41.0128084  67.4420051
  14.2840928  41.0862710  68.1540956  14.5892502  41.6021682  66.7639131
  20.1493445  35.5130467  73.6464373  20.8818617  34.9429683  73.8802203
  19.3932801  35.1252067  74.0870879   9.4238024  38.4747561  67.1381026
   9.3074282  37.7992464  67.8062111   9.5340284  37.9879935  66.3213179
  11.7669565  37.9357708  70.8427716  11.4027772  37.4088329  71.5540637
  12.6236681  37.5456177  70.6694201  17.6718865  29.2252041  78.1058982
  17.3402190  30.0947452  77.8820197  17.0764479  28.9088325  78.7853012
  11.4075052  32.9647608  65.8389064  11.5749454  33.8327844  66.2059535
  11.2172221  33.1274889  64.9150353  14.1650385  41.4264587  77.5054894
  13.8651108  42.3289625  77.3970702  13.8201444  41.1596770  78.3576047
   7.6162866  37.8778383  73.5391599   6.6913363  37.7454598  73.7469291
   7.8647280  38.6572603  74.0361541  17.5647529  33.9447127  75.1852332
  16.6564406  33.8762535  74.8911093  17.5135125  34.4219072  76.0134157
  11.3864273  35.4205265  66.8235731  11.2663898  35.8662316  67.6621211
  10.6916861  35.7690583  66.2649269   4.9771677  37.5211657  74.3735388
   5.1064059  37.7746136  75.2874800   4.2969129  38.1139365  74.0540043
   9.1471165  48.1908907  70.4725862   9.0695194  49.1416732  70.5514343
   8.5432808  47.8454780  71.1300788  11.6388395  35.3636772  83.1287229
  10.8621729  35.9230693  83.1190094  12.2778958  35.8493555  83.6502099
  19.4309175  32.1463565  76.9630206  18.7883555  32.4396098  76.3170000
  18.9264104  32.0316486  77.7683402  17.0849339  35.8926738  67.6516065
  17.9967195  36.1254125  67.4763763  16.5758986  36.4763783  67.0891144
   9.8934767  38.1722226  82.6905196  10.6349451  38.7107270  82.4140020
   9.1871752  38.7988515  82.8476748  15.3690106  40.3151366  81.2877358
  15.7773463  39.8733777  80.5431990  14.6467368  39.7403994  81.5411550
  11.7221177  35.2523973  78.6610914  12.5682372  35.6763387  78.8045563
  11.6619814  34.5957597  79.3549478  15.6918921  40.8752557  75.0429646
  15.0627784  41.0398271  74.3405714  15.3044583  41.2894166  75.8140610
  19.5708153  41.8106995  72.3974010  18.8859191  42.1905896  71.8471043
  19.6552002  42.4202321  73.1305958  14.8720622  32.9128341  80.3192088
  14.6281554  33.6670402  79.7826364  15.1480552  33.2913689  81.1539335
  16.8259085  39.4566954  78.9969354  17.0375980  40.0998714  78.3203735
  16.7788833  38.6229270  78.5291284  14.4285314  32.0684774  75.9005926
  13.5669793  32.3666028  76.1922663  14.4547748  32.2855173  74.9686958
  11.2446883  40.6126965  72.3079732  11.7085229  40.8914668  71.5184354
  10.9803681  39.7110410  72.1252822   8.1370964  40.1598447  75.2459495
   8.7072321  40.5885715  74.6076979   8.7279076  39.8781031  75.9443680
  10.1815769  36.7350117  69.1169297  10.8839812  37.1871161  69.5843223
   9.8496398  36.0933936  69.7449190   8.6296131  35.3261874  83.4920506
   7.9994791  36.0078155  83.7255903   8.5232218  35.2144956  82.5473644
   3.9241103  34.9933670  74.4186430   3.1340157  35.2491199  73.9426541
   4.4152350  35.8082008  74.5238471  17.9404913  42.3338909  77.1691711
  18.7622356  41.9319096  76.8874393  17.9367315  42.2307143  78.1207827
   5.8755848  35.3578249  71.3769907   5.0787012  35.4696943  71.8953403
   5.6481441  35.6964901  70.5110797  11.7061516  41.8822952  79.3252422
  11.7705949  42.3443360  80.1610593  10.9972440  41.2520317  79.4534731
   2.2078806  35.2464160  76.8501421   2.4586844  36.1311170  77.1158997
   2.7438354  35.0668762  76.0776513  26.0310906  38.6777658  73.5176683
  25.2774614  38.1085056  73.3620687  26.1658447  38.6440322  74.4647317
  11.4209534  43.5491060  69.1931402  11.2855208  44.3942596  69.6216250
  11.9619346  43.7510338  68.4297336   7.9076873  29.6282640  85.8545757
   7.5143819  29.0748838  86.5293401   8.7243014  29.9393218  86.2452275
   4.8738931  41.0666498  69.7659327   5.3863452  41.8609748  69.9164892
   5.5261644  40.3692788  69.6992928   6.6833816  44.1832254  71.8482080
   6.8600444  45.1050219  71.6603064   7.4790649  43.8690673  72.2776460
  10.8244834  31.0440519  83.4466014  11.5654548  31.6447672  83.3670476
  11.0562757  30.3018157  82.8884056   5.9686172  36.2296886  81.7244243
   5.8539687  35.3282143  82.0251342   5.1130690  36.4760583  81.3729060
  13.0478010  44.1714626  83.3231744  12.6041864  43.3851005  83.0052648
  13.7095224  44.3593777  82.6575635   7.8065131  45.7010428  77.8492422
   8.3572556  45.5727491  77.0769416   6.9676607  46.0005317  77.4987315
  15.1459248  44.4517426  81.3513145  15.1277723  45.2726307  80.8593414
  16.0679168  44.3271502  81.5763286  11.6032302  41.9661556  82.1936654
  12.1360639  41.2049844  81.9635962  11.0746383  41.6735208  82.9360808
  14.7701997  27.0721622  77.7230295  14.4266267  27.9623264  77.6469406
  15.1380960  26.8823279  76.8599880   2.8387848  39.3955152  70.5418897
   3.6763070  39.8052161  70.3252605   3.0166116  38.4554594  70.5119091
  14.7352280  37.0630233  66.2302730  14.2198903  37.8334838  66.4691118
  14.4629588  36.3895369  66.8535792  12.3199391  31.9079934  71.2887969
  11.4640987  31.5186784  71.1093608  12.7326343  31.9871895  70.4287754
  13.8498538  29.4426277  75.6879529  13.3463333  29.4056412  74.8747334
  14.1429144  30.3519020  75.7476185  10.0941424  29.5265007  74.6945710
  10.9594420  29.3307815  74.3351600  10.1618932  29.2975358  75.6215067
  19.7086554  39.8162588  68.1655904  18.9315997  39.4773747  67.7211066
  20.3878035  39.8215211  67.4910869  14.5238583  34.9357325  68.0562512
  14.2188719  35.2503474  68.9072655  15.4769025  35.0138745  68.0989845
  12.9685015  41.0947548  69.7055466  12.4406377  40.3600308  69.3928703
  12.4672518  41.8722225  69.4595434  17.9477861  39.2896569  74.8222512
  17.2901535  39.9795830  74.9102641  18.7518260  39.6793001  75.1656498
   7.7003743  31.7567215  72.0662077   8.2747494  31.5342396  71.3335270
   8.2874725  31.8255909  72.8190678  16.7583320  37.6440942  72.8726454
  17.2715202  38.2770933  73.3748163  17.4084544  37.0442137  72.5069814
   8.0273330  33.7871676  66.0857962   7.1910642  34.1246362  66.4067237
   7.8878099  33.6520655  65.1485099  10.0026410  28.6308464  70.7937147
   9.3490823  28.3157481  70.1693761   9.9606884  28.0084204  71.5196969
  11.1137615  38.9127759  62.7090439  10.2064677  38.6817012  62.9081588
  11.6108647  38.1165378  62.8964420  14.0205694  47.6225266  65.6287125
  13.3467393  47.9256963  66.2372083  14.4071516  48.4254346  65.2792582
  13.2364151  35.1190397  75.1184794  12.3186712  35.3405344  74.9606482
  13.6524294  35.1936708  74.2596502  14.0199198  36.5181813  70.2487474
  14.7671017  37.0303210  69.9394596  14.2890788  36.1965865  71.1091868
  12.2925849  39.0140353  67.2314429  11.3837068  38.7299386  67.3286898
  12.3220932  39.4339432  66.3717736  17.5245116  42.6246943  71.0005596
  17.0707443  41.7837853  71.0570787  16.8939083  43.2608341  71.3380376
  16.4678036  33.5538929  72.2306264  15.7300792  33.0416315  72.5616506
  16.7204809  33.1139311  71.4189541  15.9678055  44.4623440  71.9355414
  16.2601030  45.0228497  71.2167780  16.4776676  44.7552001  72.6908574
  16.5689663  26.3315181  72.8248033  16.8748540  25.4712544  72.5373948
  17.2942268  26.9232801  72.6247027   2.8614019  36.7345868  71.2129631
   2.6638419  36.1415228  70.4880698   2.3060683  36.4298078  71.9305570
  10.8410743  36.6268974  73.3324224  10.8959352  35.6742810  73.2566701
  10.0301945  36.7828413  73.8165523  11.9901936  40.5549097  64.5702507
  11.5521366  39.8384956  64.1108145  12.7312377  40.7825212  64.0087599
   8.7803103  35.2446034  71.0914603   7.9670968  35.5440204  71.4979795
   9.2762097  34.8501723  71.8089085  10.9311680  45.2403791  73.0248868
  10.8887859  45.4664637  72.0957400  11.8474379  45.0067165  73.1734669
  14.3777314  35.7087858  79.9229497  14.7326702  35.9359331  80.7823963
  15.0249445  36.0406235  79.3006752  20.1075051  38.8306294  70.6278826
  19.9692950  39.0207890  69.7000015  19.7511270  39.5925677  71.0846877
   8.2717177  32.8164389  76.7075838   8.9116557  32.6753148  76.0098801
   7.4394708  32.5298903  76.3314440  20.1344431  40.8982821  75.6390097
  20.5680937  40.8058110  76.4873151  20.8476011  40.8740322  75.0010113
   9.0477481  42.1166820  72.8210830   9.8418080  41.6217140  72.6193405
   8.3369174  41.5884683  72.4578536  13.8672326  44.4984915  77.1723198
  13.9209348  45.0675852  77.9400914  12.9987107  44.6686800  76.8077235
   5.3560245  36.2609902  68.8970583   4.4257833  36.1994357  69.1140545
   5.4517717  35.7385854  68.1007224   5.2745794  32.7864714  71.4848825
   5.5352611  33.7010048  71.3757985   6.0962966  32.3189157  71.6345438
   6.7470719  34.2002472  78.6547649   7.4193772  33.9919834  78.0060298
   5.9200506  34.0024558  78.2152882  20.9959980  40.9406522  78.1722983
  21.1895870  41.8452332  78.4182258  20.8960599  40.4813941  79.0061568
  12.6496291  30.8264412  80.6713310  12.0024206  31.5254362  80.5777787
  13.4197306  31.2600556  81.0389558  16.0575089  41.0913265  83.7463863
  15.9060595  40.8623816  82.8293947  16.0479768  42.0483866  83.7595208
  12.8260425  38.6645177  78.7310130  13.7552485  38.8156337  78.5579097
  12.4051455  38.7529198  77.8758776  11.6248757  42.6895842  76.5008667
  11.4859843  42.3214626  77.3734606  10.8363353  43.2043481  76.3292625
  12.2196909  47.7904938  67.8434204  12.3948665  47.3192981  68.6579827
  11.5329697  48.4170704  68.0715465  13.1753972  42.0677444  73.8897505
  12.8403805  42.0278214  74.7855155  12.6757918  41.4022160  73.4167915
   7.1498216  37.4745074  79.4150086   7.0118014  36.7425313  80.0161625
   8.0603140  37.3853975  79.1334274  16.1113164  39.4133479  64.1634565
  15.4942335  38.6880307  64.0667618  15.6429652  40.1742839  63.8201639
   9.7780517  37.1865034  78.9033766  10.4880136  36.5458226  78.8620384
   9.7349825  37.4377929  79.8259947  17.7667296  44.1232387  81.8240345
  17.7079842  43.4391607  81.1570928  18.1686814  44.8651377  81.3720971
   8.4909451  34.1730252  80.7229406   7.9546808  33.7220990  81.3751002
   7.9026159  34.3076161  79.9799870   6.7857994  50.9394301  74.6174064
   7.0254593  51.5712825  75.2953083   5.9427191  50.5882341  74.9039423
   7.9011710  33.6318903  63.2855869   7.0241176  33.5107704  62.9218116
   8.3769463  32.8404981  63.0334758  17.7684703  42.0871971  80.0554325
  16.8811482  41.7497893  80.1780724  18.3383254  41.3555002  80.2923090
   4.2248572  33.3086259  77.8082400   4.1406761  32.7011929  77.0732810
   3.4031279  33.7995278  77.8091896  11.2985856  46.7473423  77.0215568
  11.2256028  47.5528395  77.5334873  10.8563249  46.9465389  76.1963590
  11.0875636  45.9845193  70.5318390  10.3043158  46.5266874  70.6256614
  11.7868381  46.5019173  70.9312631  14.3972286  31.7939823  73.1752595
  14.8940986  31.0409785  72.8553665  13.6259268  31.8304140  72.6095804
  22.2502043  37.4980188  74.8170887  22.2391920  38.3804904  74.4464820
  21.3819423  37.1451739  74.6225424  13.7584540  46.6460257  79.1773727
  14.4712512  47.2807722  79.1049628  13.2674568  46.7424123  78.3613729
  15.4802067  40.5511510  70.7491018  14.5458345  40.6712973  70.5795723
  15.6578735  39.6483977  70.4851028  10.9807255  33.9357206  72.9024280
  10.6105042  33.3828246  73.5905185  11.4766347  33.3315339  72.3499280
  18.8674618  36.3928829  71.2841053  19.3335070  37.2256821  71.2101355
  19.3182119  35.9273811  71.9886311   8.8096453  44.3954701  79.9979298
   9.5105913  45.0291184  80.1508692   8.3391568  44.7369432  79.2374937
  16.9350849  42.7372651  68.2827205  17.2110693  42.6229245  69.1921079
  16.0655348  42.3390136  68.2439378  16.8391281  28.7609416  75.3231954
  15.9254361  28.9913643  75.4914161  17.2684382  28.8447860  76.1745986
  16.6097739  36.9499308  77.8231848  15.9569190  37.1975216  77.1684301
  16.9878119  36.1363447  77.4894325  13.5704913  46.9859002  71.9260018
  13.7527308  46.1680657  72.3887771  14.3937899  47.2026694  71.4884908
  13.9047079  45.9127187  69.1875067  14.4334845  45.4019641  68.5745229
  14.1675298  45.5969717  70.0520600  12.6585312  37.6919119  84.3097885
  11.9825949  37.5913249  84.9800260  13.4812946  37.5358333  84.7733882
   4.4064171  43.9291056  76.9310400   4.9917608  43.1834744  77.0638305
   4.2089010  44.2395013  77.8147064   7.2602827  46.9642303  71.9472843
   6.5913202  47.4488431  71.4636883   7.1215696  47.2111524  72.8616221
  11.4008095  48.9986047  78.5455501  11.9526403  49.1617668  79.3104586
  11.7414289  49.5890485  77.8735526   6.3772588  31.3461197  79.1477386
   6.4413915  32.2076028  78.7354783   6.3139709  30.7335198  78.4149744
   5.8524861  33.4184329  82.7950420   6.4796900  33.0361407  83.4087944
   4.9952780  33.1998531  83.1606113  16.2518970  43.8247304  84.4004155
  16.7958874  44.4377263  83.9059110  15.6705814  44.3826883  84.9171168
   2.6290404  35.2260758  68.7268775   2.9243845  34.3171437  68.6735829
   1.7278440  35.2048498  68.4049777  14.5376483  46.9468022  75.5319183
  14.4127622  46.1457762  75.0230129  15.1955574  47.4414216  75.0433153
   6.1584651  33.3016755  74.7096323   5.4371237  33.9152723  74.5703797
   6.9477907  33.8374520  74.6312969  16.6011391  44.7477043  77.1598733
  15.6541726  44.6282394  77.0877060  16.9494164  43.8599541  77.2424995
   8.9610964  30.6371181  80.9836975   9.4845366  30.8833478  81.7463285
   8.7423298  31.4691216  80.5640113   4.3578245  32.9074856  68.8508100
   4.0290952  32.0272235  68.6683206   4.7117616  32.8522525  69.7384489
  13.6057824  44.5429759  73.3603086  13.4582787  43.6146466  73.5410656
  14.4311318  44.5649849  72.8760161   7.4720069  33.1947826  69.2183578
   7.8116141  33.7233747  68.4962186   7.9192189  33.5328232  69.9942144
  17.2091946  45.3658317  74.4467958  18.1338494  45.1601179  74.3092409
  17.0407249  45.1174719  75.3557300  10.1663509  31.5784877  78.6686646
   9.8260330  30.7792690  79.0707326   9.4602516  31.8786587  78.0963479
  10.8179981  28.6634189  77.1213969  11.6406050  28.1894667  76.9992859
  11.0618045  29.4424673  77.6212655   9.4588216  31.6922447  67.4176870
  10.1796578  32.0703700  66.9140587   8.8353520  32.4111324  67.5211848
  13.6019339  32.3967596  68.3535203  13.8182953  33.2792234  68.0524031
  13.1213406  32.0053810  67.6240845   8.3418560  35.3553310  74.9305947
   8.1963141  35.6693613  75.8230229   7.8643764  35.9738210  74.3776846
  10.2014943  32.3455858  74.9786837  10.1876512  31.4496951  74.6419135
  10.9187371  32.3526521  75.6125123  12.0541074  32.7793198  77.0239964
  11.7958851  33.7010268  77.0224295  11.5226114  32.3823632  77.7140428
  16.9987262  45.8843985  69.8030050  17.1724140  45.3190407  69.0503902
  17.4916154  46.6844880  69.6209540   2.8164222  37.8958654  77.8693609
   2.2717690  38.6718462  78.0013883   3.6943572  38.2429458  77.7112730
   9.6051839  31.2270238  70.2474407   9.7267750  30.2986884  70.4465295
   9.3153881  31.2408924  69.3352722  12.4743029  28.9125148  73.3841127
  12.4964726  28.9764481  72.4293106  12.8911088  28.0729657  73.5781633
  22.8526653  38.6480408  71.4220349  23.2957799  37.8987733  71.0239473
  21.9753164  38.6390544  71.0394081  17.9862435  45.2010749  66.9026948
  18.6813339  45.8217442  67.1214263  18.3285585  44.3506101  67.1779326
   3.6030244  37.0228550  80.7623765   2.8611980  37.1711186  81.3488396
   3.2822988  37.2836816  79.8990515  19.8853858  42.6510455  68.4314279
  20.4105182  42.9897728  67.7063599  19.7976210  41.7157470  68.2477413
  11.5473907  46.5644528  80.5604155  11.8561033  46.3193675  81.4326855
  12.3449389  46.7691167  80.0723026  11.5694519  48.7182438  72.7909532
  11.1299509  48.2258817  73.4842389  12.3202636  48.1755406  72.5501607
   4.0486858  44.9093979  72.7934160   4.8744878  44.6097751  72.4132804
   3.6980910  44.1401601  73.2423949   9.0168391  44.2620447  74.8631834
   8.3948400  43.5991152  74.5634061   9.6873258  44.2881579  74.1805481
   2.2495463  42.8280305  73.7523094   1.4127371  42.4002480  73.5707095
   2.2219108  43.0212749  74.6893885   9.0892918  32.7402235  84.4564340
   9.1381074  33.6164358  84.0742109   9.6315432  32.1979628  83.8835983
  19.5747764  43.2843358  83.7365477  18.7843308  43.2667497  83.1969976
  19.3381119  43.8231652  84.4914513  19.6945639  40.1335825  81.0498205
  19.7443644  39.9685832  81.9913728  19.5859562  39.2663084  80.6596086
   8.5781898  42.8124371  68.3390294   8.7270018  43.4959835  67.6856967
   9.3848341  42.7929461  68.8539750  16.9849401  36.1166753  82.3657512
  17.8859264  35.9773218  82.0741510  17.0597376  36.2821208  83.3055689
  11.3192207  33.4933608  81.2110698  10.4495516  33.7867174  80.9393287
  11.5551687  34.0774053  81.9317962  21.1963836  42.5532766  81.2940227
  20.9048644  42.9162747  82.1303688  20.5835967  41.8399775  81.1153559
  22.3959518  40.1185646  73.8142797  23.2306410  40.5575450  73.9780357
  22.5318647  39.6424299  72.9951043  19.4451024  37.6765381  79.7620285
  19.9205146  37.8693027  78.9539136  18.5216589  37.7324567  79.5163668
   6.3334531  38.8389548  69.3451363   6.0880573  37.9351878  69.5431573
   6.5030445  38.8406699  68.4030841  14.0231241  29.7113225  78.7276119
  14.5413184  30.4474251  78.4022607  13.6686373  30.0177218  79.5622878
   5.6030178  34.5717906  66.8437525   4.9099423  34.6462261  66.1877561
   5.3581930  33.8078249  67.3659041  14.2743835  26.1313507  74.2477015
  14.5545588  25.4636696  74.8737442  15.0594442  26.3242603  73.7351679
  12.0777303  45.3072501  65.8102042  11.5051270  45.9262688  65.3572513
  12.6510097  45.8571863  66.3441964  18.1452693  34.5531141  77.9948590
  19.0970116  34.6529239  78.0160814  17.9756143  33.7609410  78.5046675
  16.1667073  31.6386724  78.1807991  15.5717005  31.9191737  77.4854480
  15.8816769  32.1280625  78.9524732  15.2974563  45.5909651  66.9410624
  16.2305236  45.5255213  67.1443499  15.2097776  46.4265918  66.4825157
  17.9262580  44.9075521  63.9014571  17.8476211  44.5735385  64.7950329
  18.7472246  45.3997289  63.9006044  20.6240771  37.7737261  77.1090890
  20.5917091  36.8353262  77.2950574  21.2341395  37.8521297  76.3756715
  12.4624102  36.6433314  63.1518094  13.4083206  36.5139522  63.2206512
  12.0838347  35.9047976  63.6287522  20.7735259  34.5648304  77.1549173
  20.2574308  33.7806761  76.9679102  21.6575208  34.2367021  77.3195693
  18.4345986  28.3089320  73.1144986  18.2370807  28.0004408  73.9988318
  19.0445692  29.0350959  73.2442916  26.4417321  38.8353268  76.2496927
  27.1720709  38.5738556  76.8104630  25.8324266  38.0981990  76.2898995
  24.5232618  36.9761130  76.8471378  23.7965781  36.8417095  76.2387870
  24.1079905  37.2837959  77.6528096  12.3462794  40.6951060  84.6118751
  13.2665804  40.8729659  84.8058798  12.3112377  39.7507105  84.4598450
  10.6467019  34.5683290  63.0872979   9.7398474  34.2716403  63.1635693
  10.9243000  34.2713108  62.2207266   1.5644959  35.8889654  73.5372026
   1.2447744  35.0354962  73.2446400   1.0178387  36.1038232  74.2929993
   5.3424867  38.6052095  77.2541532   5.5610877  39.5369202  77.2729566
   5.7550641  38.2460069  78.0396336  12.2629085  29.1120180  69.2417221
  11.4529813  28.7667265  69.6172467  12.9513502  28.8027724  69.8304832
  14.1919633  28.1898227  70.8641517  14.7450671  28.6093680  71.5231540
  14.4289719  27.2633975  70.9064473  10.2152732  34.1785300  86.6444281
  10.1149459  35.1279657  86.5756372   9.9974274  33.8503539  85.7720351
   9.4165803  31.4270225  63.2284959  10.2784967  31.7525124  63.4880776
   9.6016148  30.6401721  62.7158024   1.4333219  39.5092565  75.5065147
   0.7396691  39.0946518  74.9935102   2.1806210  39.5513102  74.9098566
  17.5698440  30.2998752  70.3720182  16.9897109  30.9583556  69.9898234
  17.3034373  29.4776096  69.9607599  16.0202006  29.7003810  72.5741502
  16.5201785  29.8120344  71.7655821  16.6637614  29.3964862  73.2142310
  10.0784002  37.6082439  85.4609343   9.5951084  38.4082799  85.6673232
  10.1644941  37.6190384  84.5076787   3.3469962  39.4410819  73.3831162
   3.3240650  39.5398506  72.4313045   3.6570598  40.2875970  73.7048328
   6.0057340  41.4986974  77.4977777   6.9600593  41.4670916  77.4307708
   5.8069863  41.0377598  78.3128003   6.5956722  40.0688090  80.0648574
   7.4149611  40.5632169  80.0883412   6.8693529  39.1520058  80.0366142
  16.3523318  32.4598842  69.4276530  15.4649173  32.7448493  69.2096725
  16.7677307  32.2992606  68.5803807  19.7037854  32.4845363  73.1430869
  20.4798244  32.9741816  73.4155486  18.9785988  32.9103417  73.6002739
  22.1410413  33.1972982  74.2004810  22.7354904  32.9568718  73.4898118
  22.2136996  32.4780113  74.8278346   4.3607568  47.0406593  74.5147974
   4.2262036  46.2806994  73.9485973   3.9439631  47.7647493  74.0476763
  15.4966531  42.2243517  63.5224550  16.2002382  42.4293519  64.1382205
  14.7729180  42.7920279  63.7873633  16.3264342  37.9753378  69.6426820
  16.2699543  38.4321930  68.8034452  16.8792684  37.2144063  69.4649663
  20.1369148  33.7643110  70.4676939  19.8806082  33.3639746  71.2985147
  19.5122016  34.4786904  70.3427079  24.4481485  36.5039183  72.9748231
  23.8881043  36.5732373  73.7479793  23.8424989  36.3280168  72.2547727
   7.5176694  47.9375910  74.7266417   7.4009078  48.8821343  74.6245107
   6.6969141  47.6349472  75.1152216  17.4053229  42.6626046  65.5723010
  18.2398833  42.2307245  65.3900485  17.2437572  42.4908060  66.4999904
  17.0599121  39.1658159  66.9379349  17.0047925  39.0002431  65.9967793
  16.4345176  39.8734192  67.0941539   1.8491636  34.4026224  80.7640771
   2.4950500  33.8925178  81.2527997   1.6408787  35.1394905  81.3384197
  14.3745028  41.4707071  86.2632912  15.2436188  41.6447724  85.9019547
  13.8951780  42.2901488  86.1408641  10.3695247  28.6666268  66.5164668
  10.3573916  29.6108108  66.6732938  11.2618668  28.4836414  66.2224129
   8.5431208  48.5904172  77.9422346   9.4458455  48.6227783  78.2588841
   8.3168579  47.6604623  77.9568681  10.2984810  47.3435159  74.6032424
   9.3480441  47.3437020  74.4896796  10.6017297  46.5967893  74.0868459
  14.1847366  25.2609045  70.7710604  13.4179762  24.7067532  70.9167287
  14.5958071  25.3330914  71.6324756   6.1889127  31.5493841  84.8615786
   7.0520589  31.1930646  85.0719110   5.6154538  31.2107736  85.5491190
  26.0337504  53.1795697  75.6678187  26.6715914  53.0602445  74.9641527
  25.9158347  54.1276541  75.7266139  22.8427210  53.1323125  75.6039711
  22.5045722  53.0164190  74.7160246  23.7116978  52.7314290  75.5840717
  18.7014026  54.9858602  71.5936602  18.1378891  54.8948539  70.8252890
  18.5866421  54.1658506  72.0739095  23.3246993  54.2857977  81.5625917
  23.3135634  53.8910775  80.6906420  23.4867633  53.5524050  82.1559688
  16.2478458  56.4809793  74.4320823  17.0399750  56.1400618  74.0167122
  16.4875108  56.5904768  75.3522976  24.2813585  58.6529569  66.9051067
  23.6301564  59.2383650  66.5185081  25.0757947  59.1835764  66.9646105
  18.2069212  55.7418707  67.3038201  18.9800088  55.1947694  67.1651077
  18.5594611  56.6062956  67.5152663  20.0454254  57.0695089  80.5105101
  19.7544120  57.9740720  80.3951767  20.6811239  57.1111616  81.2249170
  20.9710461  54.4471937  77.1006460  21.5674033  54.2227960  76.3863423
  21.0285433  53.7056683  77.7031908  20.5435490  51.9011373  64.9356651
  20.7961010  51.3792894  64.1740114  19.6060049  51.7377518  65.0383335
  25.5878772  50.9047151  72.7431395  26.3741862  50.4866574  72.3921812
  25.8517477  51.8093243  72.9113043  25.7588850  56.3420001  67.4420051
  25.1234683  56.4154628  68.1540956  25.4286256  56.9313600  66.7639131
  30.9887200  50.8422384  73.6464373  31.7212372  50.2721601  73.8802203
  30.2326555  50.4543985  74.0870879  20.2631778  53.8039479  67.1381026
  20.1468036  53.1284382  67.8062111  20.3734038  53.3171853  66.3213179
  22.6063319  53.2649626  70.8427716  22.2421527  52.7380247  71.5540637
  23.4630435  52.8748095  70.6694201  28.5112620  44.5543958  78.1058982
  28.1795945  45.4239369  77.8820197  27.9158233  44.2380242  78.7853012
  22.2468806  48.2939525  65.8389064  22.4143209  49.1619762  66.2059535
  22.0565975  48.4566807  64.9150353  25.0044139  56.7556504  77.5054894
  24.7044863  57.6581543  77.3970702  24.6595199  56.4888688  78.3576047
  18.4556621  53.2070301  73.5391599  17.5307117  53.0746515  73.7469291
  18.7041034  53.9864520  74.0361541  28.4041283  49.2739045  75.1852332
  27.4958161  49.2054453  74.8911093  28.3528879  49.7510989  76.0134157
  22.2258027  50.7497183  66.8235731  22.1057652  51.1954234  67.6621211
  21.5310616  51.0982501  66.2649269  15.8165432  52.8503575  74.3735388
  15.9457813  53.1038054  75.2874800  15.1362883  53.4431283  74.0540043
  19.9864919  63.5200825  70.4725862  19.9088949  64.4708650  70.5514343
  19.3826563  63.1746697  71.1300788  22.4782149  50.6928690  83.1287229
  21.7015483  51.2522610  83.1190094  23.1172712  51.1785473  83.6502099
  30.2702930  47.4755483  76.9630206  29.6277310  47.7688016  76.3170000
  29.7657858  47.3608403  77.7683402  27.9243093  51.2218656  67.6516065
  28.8360949  51.4546043  67.4763763  27.4152740  51.8055700  67.0891144
  20.7328521  53.5014143  82.6905196  21.4743206  54.0399187  82.4140020
  20.0265507  54.1280432  82.8476748  26.2083861  55.6443284  81.2877358
  26.6167217  55.2025694  80.5431990  25.4861122  55.0695911  81.5411550
  22.5614931  50.5815891  78.6610914  23.4076126  51.0055304  78.8045563
  22.5013569  49.9249515  79.3549478  26.5312676  56.2044475  75.0429646
  25.9021538  56.3690189  74.3405714  26.1438338  56.6186084  75.8140610
  30.4101908  57.1398912  72.3974010  29.7252946  57.5197814  71.8471043
  30.4945757  57.7494239  73.1305958  25.7114376  48.2420259  80.3192088
  25.4675308  48.9962320  79.7826364  25.9874307  48.6205607  81.1539335
  27.6652839  54.7858871  78.9969354  27.8769734  55.4290631  78.3203735
  27.6182587  53.9521188  78.5291284  25.2679068  47.3976692  75.9005926
  24.4063547  47.6957946  76.1922663  25.2941503  47.6147091  74.9686958
  22.0840637  55.9418883  72.3079732  22.5478983  56.2206586  71.5184354
  21.8197436  55.0402327  72.1252822  18.9764719  55.4890364  75.2459495
  19.5466076  55.9177633  74.6076979  19.5672830  55.2072949  75.9443680
  21.0209524  52.0642035  69.1169297  21.7233567  52.5163079  69.5843223
  20.6890152  51.4225854  69.7449190  19.4689885  50.6553792  83.4920506
  18.8388546  51.3370072  83.7255903  19.3625973  50.5436873  82.5473644
  14.7634857  50.3225588  74.4186430  13.9733911  50.5783116  73.9426541
  15.2546105  51.1373926  74.5238471  28.7798667  57.6630827  77.1691711
  29.6016111  57.2611014  76.8874393  28.7761070  57.5599061  78.1207827
  16.7149603  50.6870167  71.3769907  15.9180766  50.7988861  71.8953403
  16.4875195  51.0256819  70.5110797  22.5455271  57.2114870  79.3252422
  22.6099703  57.6735277  80.1610593  21.8366194  56.5812235  79.4534731
  13.0472560  50.5756078  76.8501421  13.2980599  51.4603088  77.1158997
  13.5832109  50.3960680  76.0776513  22.2603288  58.8782978  69.1931402
  22.1248963  59.7234513  69.6216250  22.8013101  59.0802255  68.4297336
  18.7470628  44.9574557  85.8545757  18.3537573  44.4040756  86.5293401
  19.5636768  45.2685136  86.2452275  15.7132686  56.3958416  69.7659327
  16.2257206  57.1901666  69.9164892  16.3655398  55.6984706  69.6992928
  17.5227570  59.5124172  71.8482080  17.6994199  60.4342137  71.6603064
  18.3184404  59.1982591  72.2776460  21.6638589  46.3732437  83.4466014
  22.4048302  46.9739590  83.3670476  21.8956512  45.6310074  82.8884056
  16.8079927  51.5588804  81.7244243  16.6933442  50.6574061  82.0251342
  15.9524445  51.8052501  81.3729060  23.8871765  59.5006544  83.3231744
  23.4435619  58.7142923  83.0052648  24.5488978  59.6885695  82.6575635
  18.6458886  61.0302346  77.8492422  19.1966311  60.9019409  77.0769416
  17.8070362  61.3297235  77.4987315  25.9853003  59.7809344  81.3513145
  25.9671478  60.6018225  80.8593414  26.9072923  59.6563419  81.5763286
  22.4426057  57.2953474  82.1936654  22.9754394  56.5341762  81.9635962
  21.9140138  57.0027125  82.9360808  25.6095752  42.4013540  77.7230295
  25.2660021  43.2915181  77.6469406  25.9774714  42.2115197  76.8599880
  13.6781602  54.7247070  70.5418897  14.5156824  55.1344078  70.3252605
  13.8559870  53.7846512  70.5119091  25.5746034  52.3922151  66.2302730
  25.0592658  53.1626755  66.4691118  25.3023343  51.7187287  66.8535792
  23.1593145  47.2371851  71.2887969  22.3034742  46.8478702  71.1093608
  23.5720097  47.3163812  70.4287754  24.6892292  44.7718195  75.6879529
  24.1857088  44.7348330  74.8747334  24.9822899  45.6810937  75.7476185
  20.9335178  44.8556924  74.6945710  21.7988175  44.6599733  74.3351600
  21.0012687  44.6267276  75.6215067  25.3632338  50.2649243  68.0562512
  25.0582473  50.5795392  68.9072655  26.3162780  50.3430663  68.0989845
  23.8078769  56.4239466  69.7055466  23.2800131  55.6892226  69.3928703
  23.3066272  57.2014142  69.4595434  28.7871615  54.6188487  74.8222512
  28.1295290  55.3087748  74.9102641  29.5912015  55.0084918  75.1656498
  18.5397497  47.0859132  72.0662077  19.1141249  46.8634314  71.3335270
  19.1268480  47.1547827  72.8190678  27.5977074  52.9732859  72.8726454
  28.1108956  53.6062851  73.3748163  28.2478298  52.3734055  72.5069814
  18.8667084  49.1163593  66.0857962  18.0304396  49.4538280  66.4067237
  18.7271854  48.9812573  65.1485099  20.8420165  43.9600381  70.7937147
  20.1884577  43.6449398  70.1693761  20.8000639  43.3376122  71.5196969
  21.9531370  54.2419676  62.7090439  21.0458431  54.0108930  62.9081588
  22.4502402  53.4457296  62.8964420  24.8599449  62.9517183  65.6287125
  24.1861147  63.2548880  66.2372083  25.2465270  63.7546264  65.2792582
  24.0757905  50.4482315  75.1184794  23.1580467  50.6697262  74.9606482
  24.4918049  50.5228625  74.2596502  24.8592953  51.8473730  70.2487474
  25.6064772  52.3595128  69.9394596  25.1284542  51.5257783  71.1091868
  23.1319603  54.3432271  67.2314429  22.2230822  54.0591304  67.3286898
  23.1614687  54.7631350  66.3717736  28.3638871  57.9538861  71.0005596
  27.9101198  57.1129771  71.0570787  27.7332837  58.5900259  71.3380376
  27.3071790  48.8830847  72.2306264  26.5694547  48.3708233  72.5616506
  27.5598564  48.4431228  71.4189541  26.8071810  59.7915357  71.9355414
  27.0994784  60.3520414  71.2167780  27.3170430  60.0843918  72.6908574
  27.4083417  41.6607099  72.8248033  27.7142294  40.8004462  72.5373948
  28.1336022  42.2524719  72.6247027  13.7007773  52.0637785  71.2129631
  13.5032173  51.4707146  70.4880698  13.1454437  51.7589995  71.9305570
  21.6804497  51.9560892  73.3324224  21.7353107  51.0034728  73.2566701
  20.8695699  52.1120331  73.8165523  22.8295691  55.8841015  64.5702507
  22.3915121  55.1676874  64.1108145  23.5706132  56.1117130  64.0087599
  19.6196857  50.5737952  71.0914603  18.8064723  50.8732122  71.4979795
  20.1155851  50.1793640  71.8089085  21.7705435  60.5695708  73.0248868
  21.7281614  60.7956555  72.0957400  22.6868134  60.3359083  73.1734669
  25.2171069  51.0379776  79.9229497  25.5720456  51.2651249  80.7823963
  25.8643200  51.3698153  79.3006752  30.9468806  54.1598212  70.6278826
  30.8086704  54.3499808  69.7000015  30.5905024  54.9217595  71.0846877
  19.1110932  48.1456307  76.7075838  19.7510311  48.0045066  76.0098801
  18.2788462  47.8590820  76.3314440  30.9738185  56.2274739  75.6390097
  31.4074692  56.1350028  76.4873151  31.6869766  56.2032239  75.0010113
  19.8871236  57.4458737  72.8210830  20.6811834  56.9509058  72.6193405
  19.1762928  56.9176601  72.4578536  24.7066080  59.8276833  77.1723198
  24.7603102  60.3967769  77.9400914  23.8380862  59.9978718  76.8077235
  16.1953999  51.5901819  68.8970583  15.2651587  51.5286275  69.1140545
  16.2911471  51.0677772  68.1007224  16.1139548  48.1156632  71.4848825
  16.3746366  49.0301965  71.3757985  16.9356721  47.6481075  71.6345438
  17.5864474  49.5294389  78.6547649  18.2587527  49.3211751  78.0060298
  16.7594260  49.3316475  78.2152882  31.8353735  56.2698440  78.1722983
  32.0289625  57.1744250  78.4182258  31.7354353  55.8105859  79.0061568
  23.4890046  46.1556330  80.6713310  22.8417961  46.8546280  80.5777787
  24.2591061  46.5892474  81.0389558  26.8968844  56.4205182  83.7463863
  26.7454350  56.1915734  82.8293947  26.8873523  57.3775784  83.7595208
  23.6654180  53.9937095  78.7310130  24.5946240  54.1448255  78.5579097
  23.2445210  54.0821116  77.8758776  22.4642512  58.0187759  76.5008667
  22.3253597  57.6506544  77.3734606  21.6757108  58.5335399  76.3292625
  23.0590664  63.1196856  67.8434204  23.2342419  62.6484899  68.6579827
  22.3723452  63.7462622  68.0715465  24.0147727  57.3969362  73.8897505
  23.6797559  57.3570132  74.7855155  23.5151673  56.7314078  73.4167915
  17.9891971  52.8036992  79.4150086  17.8511769  52.0717231  80.0161625
  18.8996894  52.7145892  79.1334274  26.9506919  54.7425396  64.1634565
  26.3336089  54.0172225  64.0667618  26.4823407  55.5034757  63.8201639
  20.6174271  52.5156951  78.9033766  21.3273890  51.8750144  78.8620384
  20.5743580  52.7669846  79.8259947  28.6061050  59.4524305  81.8240345
  28.5473596  58.7683525  81.1570928  29.0080569  60.1943295  81.3720971
  19.3303205  49.5022169  80.7229406  18.7940562  49.0512908  81.3751002
  18.7419914  49.6368078  79.9799870  17.6251749  66.2686219  74.6174064
  17.8648347  66.9004743  75.2953083  16.7820945  65.9174259  74.9039423
  18.7405464  48.9610821  63.2855869  17.8634931  48.8399622  62.9218116
  19.2163217  48.1696899  63.0334758  28.6078457  57.4163889  80.0554325
  27.7205236  57.0789811  80.1780724  29.1777008  56.6846920  80.2923090
  10.2607605  53.7487981  73.3797376  10.9478644  53.4349711  72.7918392
  10.1055733  54.6529345  73.1064628  15.0642327  48.6378177  77.8082400
  14.9800515  48.0303847  77.0732810  14.2425033  49.1287195  77.8091896
  22.1379611  62.0765341  77.0215568  22.0649782  62.8820313  77.5334873
  21.6957004  62.2757307  76.1963590  21.9269390  61.3137111  70.5318390
  21.1436912  61.8558791  70.6256614  22.6262136  61.8311091  70.9312631
  25.2366041  47.1231741  73.1752595  25.7334740  46.3701703  72.8553665
  24.4653022  47.1596057  72.6095804  33.0895798  52.8272106  74.8170887
  33.0785674  53.7096822  74.4464820  32.2213177  52.4743657  74.6225424
  24.5978294  61.9752175  79.1773727  25.3106267  62.6099640  79.1049628
  24.1068323  62.0716041  78.3613729  26.3195821  55.8803428  70.7491018
  25.3852100  56.0004890  70.5795723  26.4972490  54.9775895  70.4851028
  21.8201009  49.2649124  72.9024280  21.4498797  48.7120164  73.5905185
  22.3160102  48.6607257  72.3499280  29.7068373  51.7220747  71.2841053
  30.1728825  52.5548739  71.2101355  30.1575873  51.2565729  71.9886311
  19.6490208  59.7246619  79.9979298  20.3499667  60.3583102  80.1508692
  19.1785323  60.0661350  79.2374937  27.7744604  58.0664568  68.2827205
  28.0504448  57.9521163  69.1921079  26.9049102  57.6682053  68.2439378
  27.6785035  44.0901334  75.3231954  26.7648115  44.3205561  75.4914161
  28.1078137  44.1739778  76.1745986  27.4491494  52.2791226  77.8231848
  26.7962944  52.5267134  77.1684301  27.8271874  51.4655364  77.4894325
  24.4098668  62.3150919  71.9260018  24.5921062  61.4972575  72.3887771
  25.2331654  62.5318611  71.4884908  24.7440833  61.2419104  69.1875067
  25.2728600  60.7311559  68.5745229  25.0069053  60.9261635  70.0520600
  23.4979067  53.0211037  84.3097885  22.8219704  52.9205166  84.9800260
  24.3206701  52.8650251  84.7733882  15.2457926  59.2582974  76.9310400
  15.8311363  58.5126662  77.0638305  15.0482764  59.5686930  77.8147064
  18.0996581  62.2934221  71.9472843  17.4306956  62.7780349  71.4636883
  17.9609451  62.5403442  72.8616221   9.8375581  51.8288574  75.6514843
   9.8759680  51.2952165  76.4451962   9.3315873  51.3023779  75.0325821
  22.2401850  64.3277965  78.5455501  22.7920158  64.4909586  79.3104586
  22.5808043  64.9182402  77.8735526  17.2166343  46.6753114  79.1477386
  17.2807669  47.5367945  78.7354783  17.1533463  46.0627116  78.4149744
  16.6918616  48.7476247  82.7950420  17.3190654  48.3653324  83.4087944
  15.8346534  48.5290449  83.1606113  27.0912724  59.1539222  84.4004155
  27.6352628  59.7669180  83.9059110  26.5099569  59.7118800  84.9171168
  13.4684158  50.5552676  68.7268775  13.7637599  49.6463354  68.6735829
  12.5672194  50.5340415  68.4049777  25.3770237  62.2759940  75.5319183
  25.2521376  61.4749680  75.0230129  26.0349328  62.7706133  75.0433153
  16.9978405  48.6308673  74.7096323  16.2764991  49.2444640  74.5703797
  17.7871661  49.1666437  74.6312969  27.4405145  60.0768960  77.1598733
  26.4935481  59.9574311  77.0877060  27.7887919  59.1891458  77.2424995
  19.8004719  45.9663099  80.9836975  20.3239121  46.2125396  81.7463285
  19.5817052  46.7983134  80.5640113  15.1972000  48.2366774  68.8508100
  14.8684706  47.3564153  68.6683206  15.5511371  48.1814442  69.7384489
  24.4451579  59.8721676  73.3603086  24.2976541  58.9438384  73.5410656
  25.2705072  59.8941767  72.8760161  18.3113823  48.5239743  69.2183578
  18.6509896  49.0525665  68.4962186  18.7585943  48.8620150  69.9942144
  28.0485701  60.6950235  74.4467958  28.9732248  60.4893096  74.3092409
  27.8801004  60.4466636  75.3557300  21.0057264  46.9076794  78.6686646
  20.6654084  46.1084607  79.0707326  20.2996270  47.2078505  78.0963479
  21.6573736  43.9926107  77.1213969  22.4799805  43.5186585  76.9992859
  21.9011799  44.7716590  77.6212655  20.2981970  47.0214365  67.4176870
  21.0190333  47.3995618  66.9140587  19.6747274  47.7403242  67.5211848
  24.4413093  47.7259514  68.3535203  24.6576707  48.6084152  68.0524031
  23.9607160  47.3345727  67.6240845  19.1812314  50.6845227  74.9305947
  19.0356895  50.9985530  75.8230229  18.7037518  51.3030128  74.3776846
  21.0408697  47.6747775  74.9786837  21.0270266  46.7788869  74.6419135
  21.7581125  47.6818439  75.6125123  22.8934828  48.1085115  77.0239964
  22.6352606  49.0302186  77.0224295  22.3619868  47.7115550  77.7140428
  27.8381017  61.2135903  69.8030050  28.0117894  60.6482325  69.0503902
  28.3309908  62.0136797  69.6209540  13.6557977  53.2250572  77.8693609
  13.1111445  54.0010380  78.0013883  14.5337326  53.5721376  77.7112730
  20.4445593  46.5562156  70.2474407  20.5661504  45.6278802  70.4465295
  20.1547636  46.5700842  69.3352722  23.3136784  44.2417066  73.3841127
  23.3358480  44.3056399  72.4293106  23.7304843  43.4021575  73.5781633
  33.6920408  53.9772326  71.4220349  34.1351554  53.2279651  71.0239473
  32.8146918  53.9682462  71.0394081  28.8256189  60.5302667  66.9026948
  29.5207094  61.1509360  67.1214263  29.1679339  59.6798018  67.1779326
  14.4423998  52.3520468  80.7623765  13.7005734  52.5003103  81.3488396
  14.1216743  52.6128734  79.8990515  22.3867661  61.8936446  80.5604155
  22.6954788  61.6485593  81.4326855  23.1843143  62.0983085  80.0723026
  22.4088273  64.0474356  72.7909532  21.9693263  63.5550734  73.4842389
  23.1596390  63.5047323  72.5501607  14.8880612  60.2385897  72.7934160
  15.7138632  59.9389669  72.4132804  14.5374664  59.4693519  73.2423949
  19.8562145  59.5912365  74.8631834  19.2342155  58.9283070  74.5634061
  20.5267012  59.6173497  74.1805481  13.0889217  58.1572223  73.7523094
  12.2521125  57.7294397  73.5707095  13.0612863  58.3504666  74.6893885
  19.9286673  48.0694153  84.4564340  19.9774828  48.9456276  84.0742109
  20.4709187  47.5271546  83.8835983  30.4141518  58.6135276  83.7365477
  29.6237062  58.5959415  83.1969976  30.1774873  59.1523570  84.4914513
  30.5339393  55.4627743  81.0498205  30.5837398  55.2977750  81.9913728
  30.4253317  54.5955002  80.6596086  19.4175652  58.1416288  68.3390294
  19.5663773  58.8251753  67.6856967  20.2242096  58.1221378  68.8539750
  27.8243156  51.4458671  82.3657512  28.7253019  51.3065135  82.0741510
  27.8991130  51.6113125  83.3055689  22.1585961  48.8225525  81.2110698
  21.2889271  49.1159091  80.9393287  22.3945442  49.4065970  81.9317962
  32.0357590  57.8824684  81.2940227  31.7442399  58.2454665  82.1303688
  31.4229722  57.1691692  81.1153559  30.2844779  53.0057299  79.7620285
  30.7598900  53.1984945  78.9539136  29.3610344  53.0616485  79.5163668
  17.1728285  54.1681466  69.3451363  16.9274327  53.2643796  69.5431573
  17.3424200  54.1698616  68.4030841  24.8624995  45.0405142  78.7276119
  25.3806939  45.7766169  78.4022607  24.5080128  45.3469136  79.5622878
  16.4423933  49.9009823  66.8437525  15.7493178  49.9754178  66.1877561
  16.1975685  49.1370167  67.3659041  25.1137589  41.4605425  74.2477015
  25.3939343  40.7928614  74.8737442  25.8988196  41.6534520  73.7351679
  22.9171058  60.6364419  65.8102042  22.3445025  61.2554606  65.3572513
  23.4903851  61.1863780  66.3441964  28.9846448  49.8823059  77.9948590
  29.9363870  49.9821156  78.0160814  28.8149898  49.0901327  78.5046675
  27.0060827  46.9678642  78.1807991  26.4110759  47.2483655  77.4854480
  26.7210524  47.4572543  78.9524732  26.1368317  60.9201569  66.9410624
  27.0698991  60.8547130  67.1443499  26.0491530  61.7557836  66.4825157
  28.7656334  60.2367439  63.9014571  28.6869966  59.9027303  64.7950329
  29.5866001  60.7289207  63.9006044  31.4634525  53.1029178  77.1090890
  31.4310845  52.1645179  77.2950574  32.0735149  53.1813215  76.3756715
  23.3017856  51.9725231  63.1518094  24.2476961  51.8431440  63.2206512
  22.9232101  51.2339893  63.6287522  31.6129014  49.8940222  77.1549173
  31.0968062  49.1098679  76.9679102  32.4968962  49.5658939  77.3195693
  29.2739741  43.6381237  73.1144986  29.0764562  43.3296326  73.9988318
  29.8839446  44.3642876  73.2442916  23.1856549  56.0242978  84.6118751
  24.1059558  56.2021577  84.8058798  23.1506132  55.0799023  84.4598450
  21.4860773  49.8975208  63.0872979  20.5792229  49.6008321  63.1635693
  21.7636754  49.6005026  62.2207266  12.4038714  51.2181571  73.5372026
  12.0841498  50.3646879  73.2446400  11.8572142  51.4330149  74.2929993
  16.1818621  53.9344012  77.2541532  16.4004631  54.8661120  77.2729566
  16.5944395  53.5751987  78.0396336  23.1022839  44.4412098  69.2417221
  22.2923567  44.0959183  69.6172467  23.7907256  44.1319641  69.8304832
  25.0313387  43.5190144  70.8641517  25.5844426  43.9385598  71.5231540
  25.2683474  42.5925892  70.9064473  21.0546487  49.5077218  86.6444281
  20.9543213  50.4571575  86.5756372  20.8368029  49.1795457  85.7720351
  20.2559558  46.7562143  63.2284959  21.1178722  47.0817041  63.4880776
  20.4409902  45.9693639  62.7158024  12.2726974  54.8384483  75.5065147
  11.5790445  54.4238436  74.9935102  13.0199965  54.8805019  74.9098566
  28.4092194  45.6290669  70.3720182  27.8290864  46.2875474  69.9898234
  28.1428127  44.8068014  69.9607599  26.8595761  45.0295727  72.5741502
  27.3595539  45.1412262  71.7655821  27.5031369  44.7256780  73.2142310
  20.9177757  52.9374357  85.4609343  20.4344838  53.7374717  85.6673232
  21.0038696  52.9482302  84.5076787  14.1863716  54.7702736  73.3831162
  14.1634404  54.8690424  72.4313045  14.4964353  55.6167887  73.7048328
  16.8451094  56.8278892  77.4977777  17.7994348  56.7962834  77.4307708
  16.6463618  56.3669515  78.3128003  17.4350476  55.3980008  80.0648574
  18.2543365  55.8924086  80.0883412  17.7087284  54.4811976  80.0366142
  27.1917072  47.7890760  69.4276530  26.3042928  48.0740410  69.2096725
  27.6071062  47.6284523  68.5803807  30.5431609  47.8137281  73.1430869
  31.3191999  48.3033733  73.4155486  29.8179743  48.2395335  73.6002739
  32.9804167  48.5264900  74.2004810  33.5748658  48.2860636  73.4898118
  33.0530751  47.8072031  74.8278346  15.2001323  62.3698511  74.5147974
  15.0655791  61.6098912  73.9485973  14.7833385  63.0939411  74.0476763
  26.3360286  57.5535435  63.5224550  27.0396136  57.7585437  64.1382205
  25.6122935  58.1212196  63.7873633  27.1658096  53.3045296  69.6426820
  27.1093298  53.7613847  68.8034452  27.7186439  52.5435980  69.4649663
  30.9762902  49.0935028  70.4676939  30.7199836  48.6931663  71.2985147
  30.3515770  49.8078822  70.3427079  18.3570449  63.2667828  74.7266417
  18.2402833  64.2113261  74.6245107  17.5362895  62.9641390  75.1152216
  28.2446983  57.9917964  65.5723010  29.0792587  57.5599162  65.3900485
  28.0831326  57.8199977  66.4999904  27.8992876  54.4950077  66.9379349
  27.8441679  54.3294348  65.9967793  27.2738931  55.2026110  67.0941539
  12.6885391  49.7318141  80.7640771  13.3344254  49.2217095  81.2527997
  12.4802542  50.4686823  81.3384197  25.2138783  56.7998989  86.2632912
  26.0829942  56.9739641  85.9019547  24.7345534  57.6193406  86.1408641
  21.2089001  43.9958186  66.5164668  21.1967671  44.9400026  66.6732938
  22.1012423  43.8128331  66.2224129  19.3824963  63.9196090  77.9422346
  20.2852210  63.9519700  78.2588841  19.1562333  62.9896541  77.9568681
  21.1378565  62.6727076  74.6032424  20.1874196  62.6728938  74.4896796
  21.4411051  61.9259811  74.0868459  25.0241120  40.5900963  70.7710604
  24.2573516  40.0359449  70.9167287  25.4351825  40.6622831  71.6324756
  17.0282882  46.8785759  84.8615786  17.8914343  46.5222563  85.0719110
  16.4548292  46.5399653  85.5491190  27.0872212  71.8101711  74.4320823
  27.8793504  71.4692536  74.0167122  27.3268863  71.9196686  75.3522976
  30.8848009  72.3987006  80.5105101  30.5937875  73.3032637  80.3951767
  31.5204993  72.4403534  81.2249170  31.8104216  69.7763855  77.1006460
  32.4067788  69.5519877  76.3863423  31.8679187  69.0348600  77.7031908
  29.2950375  68.5362219  73.5391599  28.3700872  68.4038433  73.7469291
  29.5434789  69.3156438  74.0361541  26.6559186  68.1795492  74.3735388
  26.7851568  68.4329971  75.2874800  25.9756638  68.7723200  74.0540043
  31.5722276  68.8306061  82.6905196  32.3136960  69.3691105  82.4140020
  30.8659261  69.4572350  82.8476748  29.8158473  70.8182282  75.2459495
  30.3859830  71.2469550  74.6076979  30.4066585  70.5364867  75.9443680
  30.3083640  65.9845709  83.4920506  29.6782300  66.6661990  83.7255903
  30.2019727  65.8728791  82.5473644  25.6028612  65.6517505  74.4186430
  24.8127666  65.9075034  73.9426541  26.0939859  66.4665843  74.5238471
  27.5543357  66.0162085  71.3769907  26.7574521  66.1280779  71.8953403
  27.3268950  66.3548737  70.5110797  23.8866315  65.9047996  76.8501421
  24.1374353  66.7895006  77.1158997  24.4225863  65.7252597  76.0776513
  29.5864382  60.2866475  85.8545757  29.1931328  59.7332674  86.5293401
  30.4030523  60.5977054  86.2452275  32.5032343  61.7024354  83.4466014
  33.2442057  62.3031507  83.3670476  32.7350266  60.9601992  82.8884056
  27.6473681  66.8880722  81.7244243  27.5327196  65.9865979  82.0251342
  26.7918199  67.1344418  81.3729060  29.4852640  76.3594263  77.8492422
  30.0360065  76.2311327  77.0769416  28.6464116  76.6589152  77.4987315
  33.2819811  72.6245391  82.1936654  33.8148148  71.8633679  81.9635962
  32.7533892  72.3319043  82.9360808  24.5175357  70.0538988  70.5418897
  25.3550579  70.4635996  70.3252605  24.6953625  69.1138430  70.5119091
  31.7728932  60.1848842  74.6945710  32.6381929  59.9891651  74.3351600
  31.8406441  59.9559194  75.6215067  29.3791252  62.4151050  72.0662077
  29.9535003  62.1926231  71.3335270  29.9662234  62.4839745  72.8190678
  31.6813919  59.2892299  70.7937147  31.0278332  58.9741316  70.1693761
  31.6394393  58.6668039  71.5196969  24.5401528  67.3929703  71.2129631
  24.3425928  66.7999064  70.4880698  23.9848192  67.0881913  71.9305570
  29.9504686  63.4748225  76.7075838  30.5904066  63.3336984  76.0098801
  29.1182217  63.1882738  76.3314440  27.0347754  66.9193737  68.8970583
  26.1045342  66.8578192  69.1140545  27.1305226  66.3969690  68.1007224
  26.9533303  63.4448550  71.4848825  27.2140120  64.3593883  71.3757985
  27.7750475  62.9772992  71.6345438  28.4258228  64.8586307  78.6547649
  29.0981281  64.6503669  78.0060298  27.5988015  64.6608393  78.2152882
  34.3283800  61.4848248  80.6713310  33.6811715  62.1838197  80.5777787
  35.0984815  61.9184392  81.0389558  34.5047934  69.3229013  78.7310130
  35.4339994  69.4740172  78.5579097  34.0838964  69.4113033  77.8758776
  28.8285725  68.1328910  79.4150086  28.6905523  67.4009149  80.0161625
  29.7390649  68.0437810  79.1334274  31.4568026  67.8448869  78.9033766
  32.1667644  67.2042061  78.8620384  31.4137334  68.0961764  79.8259947
  30.1696960  64.8314087  80.7229406  29.6334317  64.3804826  81.3751002
  29.5813668  64.9659996  79.9799870  28.4645503  81.5978136  74.6174064
  28.7042102  82.2296661  75.2953083  27.6214700  81.2466176  74.9039423
  21.1001359  69.0779898  73.3797376  21.7872399  68.7641628  72.7918392
  20.9449488  69.9821263  73.1064628  25.9036081  63.9670095  77.8082400
  25.8194270  63.3595764  77.0732810  25.0818788  64.4579113  77.8091896
  30.4883962  75.0538536  79.9979298  31.1893422  75.6875019  80.1508692
  30.0179077  75.3953268  79.2374937  26.0851680  74.5874891  76.9310400
  26.6705117  73.8418579  77.0638305  25.8876519  74.8978848  77.8147064
  20.6769335  67.1580492  75.6514843  20.7153435  66.6244082  76.4451962
  20.1709628  66.6315697  75.0325821  33.0795604  79.6569882  78.5455501
  33.6313912  79.8201504  79.3104586  33.4201798  80.2474320  77.8735526
  28.0560097  62.0045032  79.1477386  28.1201424  62.8659863  78.7354783
  27.9927218  61.3919034  78.4149744  27.5312370  64.0768165  82.7950420
  28.1584409  63.6945242  83.4087944  26.6740289  63.8582367  83.1606113
  24.3077913  65.8844594  68.7268775  24.6031354  64.9755272  68.6735829
  23.4065949  65.8632333  68.4049777  27.8372160  63.9600590  74.7096323
  27.1158746  64.5736558  74.5703797  28.6265416  64.4958355  74.6312969
  30.6398473  61.2955017  80.9836975  31.1632875  61.5417313  81.7463285
  30.4210807  62.1275052  80.5640113  26.0365754  63.5658691  68.8508100
  25.7078460  62.6856070  68.6683206  26.3905125  63.5106360  69.7384489
  32.4967490  59.3218024  77.1213969  33.3193559  58.8478503  76.9992859
  32.7405554  60.1008508  77.6212655  30.0206069  66.0137145  74.9305947
  29.8750650  66.3277448  75.8230229  29.5431273  66.6322045  74.3776846
  24.4951731  68.5542489  77.8693609  23.9505199  69.3302297  78.0013883
  25.3731081  68.9013294  77.7112730  25.2817753  67.6812386  80.7623765
  24.5399489  67.8295021  81.3488396  24.9610497  67.9420651  79.8990515
  33.2482028  79.3766273  72.7909532  32.8087018  78.8842652  73.4842389
  33.9990145  78.8339241  72.5501607  30.6955900  74.9204283  74.8631834
  30.0735909  74.2574988  74.5634061  31.3660767  74.9465414  74.1805481
  23.9282972  73.4864141  73.7523094  23.0914880  73.0586315  73.5707095
  23.9006617  73.6796584  74.6893885  30.7680427  63.3986071  84.4564340
  30.8168583  64.2748193  84.0742109  31.3102941  62.8563464  83.8835983
  32.9979716  64.1517443  81.2110698  32.1283025  64.4451009  80.9393287
  33.2339196  64.7357888  81.9317962  23.2432468  66.5473489  73.5372026
  22.9235253  65.6938797  73.2446400  22.6965896  66.7622067  74.2929993
  27.0212376  69.2635930  77.2541532  27.2398386  70.1953038  77.2729566
  27.4338150  68.9043904  78.0396336  31.8940241  64.8369136  86.6444281
  31.7936968  65.7863493  86.5756372  31.6761783  64.5087375  85.7720351
  31.0953312  62.0854061  63.2284959  31.9572476  62.4108959  63.4880776
  31.2803657  61.2985557  62.7158024  23.1120728  70.1676400  75.5065147
  22.4184200  69.7530353  74.9935102  23.8593719  70.2096937  74.9098566
  25.0257471  70.0994654  73.3831162  25.0028159  70.1982341  72.4313045
  25.3358107  70.9459805  73.7048328  27.6844849  72.1570809  77.4977777
  28.6388102  72.1254752  77.4307708  27.4857372  71.6961433  78.3128003
  28.2744231  70.7271925  80.0648574  29.0937120  71.2216004  80.0883412
  28.5481038  69.8103893  80.0366142  26.0395077  77.6990429  74.5147974
  25.9049545  76.9390830  73.9485973  25.6227140  78.4231329  74.0476763
  29.1964203  78.5959746  74.7266417  29.0796587  79.5405178  74.6245107
  28.3756650  78.2933307  75.1152216  23.5279145  65.0610059  80.7640771
  24.1738009  64.5509013  81.2527997  23.3196296  65.7978741  81.3384197
  30.2218717  79.2488008  77.9422346  31.1245964  79.2811618  78.2588841
  29.9956087  78.3188459  77.9568681  31.9772319  78.0018994  74.6032424
  31.0267950  78.0020856  74.4896796  32.2804806  77.2551729  74.0868459
  27.8676636  62.2077676  84.8615786  28.7308098  61.8514481  85.0719110
  27.2942047  61.8691571  85.5491190  47.7125013  83.8379533  75.6678187
  48.3503423  83.7186280  74.9641527  47.5945856  84.7860376  75.7266139
  44.5214719  83.7906961  75.6039711  44.1833231  83.6748025  74.7160246
  45.3904487  83.3898126  75.5840717  40.3801535  85.6442437  71.5936602
  39.8166400  85.5532374  70.8252890  40.2653930  84.8242342  72.0739095
  45.0034502  84.9441812  81.5625917  44.9923143  84.5494611  80.6906420
  45.1655142  84.2107885  82.1559688  37.9265967  87.1393629  74.4320823
  38.7187259  86.7984453  74.0167122  38.1662617  87.2488604  75.3522976
  45.9601094  89.3113405  66.9051067  45.3089073  89.8967485  66.5185081
  46.7545456  89.8419600  66.9646105  39.8856721  86.4002542  67.3038201
  40.6587597  85.8531529  67.1651077  40.2382120  87.2646791  67.5152663
  41.7241763  87.7278924  80.5105101  41.4331629  88.6324555  80.3951767
  42.3598748  87.7695452  81.2249170  42.6497970  85.1055773  77.1006460
  43.2461542  84.8811795  76.3863423  42.7072942  84.3640518  77.7031908
  42.2222999  82.5595208  64.9356651  42.4748519  82.0376729  64.1740114
  41.2847558  82.3961353  65.0383335  47.4376359  87.0003837  67.4420051
  46.8022192  87.0738463  68.1540956  47.1073765  87.5897436  66.7639131
  41.9419287  84.4623314  67.1381026  41.8255545  83.7868217  67.8062111
  42.0521547  83.9755688  66.3213179  44.2850828  83.9233461  70.8427716
  43.9209035  83.3964082  71.5540637  45.1417944  83.5331930  70.6694201
  46.6831648  87.4140340  77.5054894  46.3832372  88.3165378  77.3970702
  46.3382708  87.1472523  78.3576047  43.9045536  81.4081018  66.8235731
  43.7845161  81.8538069  67.6621211  43.2098125  81.7566336  66.2649269
  37.4952941  83.5087410  74.3735388  37.6245322  83.7621889  75.2874800
  36.8150392  84.1015118  74.0540043  41.6652428  94.1784660  70.4725862
  41.5876458  95.1292485  70.5514343  41.0614072  93.8330533  71.1300788
  42.4116030  84.1597979  82.6905196  43.1530715  84.6983023  82.4140020
  41.7053016  84.7864268  82.8476748  47.8871370  86.3027119  81.2877358
  48.2954726  85.8609530  80.5431990  47.1648631  85.7279747  81.5411550
  44.2402440  81.2399726  78.6610914  45.0863635  81.6639140  78.8045563
  44.1801078  80.5833350  79.3549478  48.2100185  86.8628310  75.0429646
  47.5809047  87.0274024  74.3405714  47.8225847  87.2769919  75.8140610
  52.0889416  87.7982748  72.3974010  51.4040455  88.1781649  71.8471043
  52.1733266  88.4078074  73.1305958  49.3440348  85.4442707  78.9969354
  49.5557243  86.0874467  78.3203735  49.2970096  84.6105023  78.5291284
  43.7628146  86.6002718  72.3079732  44.2266492  86.8790421  71.5184354
  43.4984945  85.6986163  72.1252822  40.6552228  86.1474200  75.2459495
  41.2253585  86.5761468  74.6076979  41.2460339  85.8656784  75.9443680
  42.6997033  82.7225870  69.1169297  43.4021076  83.1746914  69.5843223
  42.3677661  82.0809689  69.7449190  41.1477394  81.3137627  83.4920506
  40.5176055  81.9953908  83.7255903  41.0413482  81.2020709  82.5473644
  50.4586176  88.3214662  77.1691711  51.2803620  87.9194849  76.8874393
  50.4548579  88.2182896  78.1207827  44.2242779  87.8698705  79.3252422
  44.2887212  88.3319113  80.1610593  43.5153703  87.2396070  79.4534731
  34.7260069  81.2339913  76.8501421  34.9768108  82.1186923  77.1158997
  35.2619618  81.0544515  76.0776513  43.9390797  89.5366813  69.1931402
  43.8036472  90.3818349  69.6216250  44.4800610  89.7386091  68.4297336
  37.3920195  87.0542251  69.7659327  37.9044715  87.8485501  69.9164892
  38.0442907  86.3568541  69.6992928  39.2015079  90.1708007  71.8482080
  39.3781708  91.0925972  71.6603064  39.9971913  89.8566427  72.2776460
  38.4867436  82.2172639  81.7244243  38.3720951  81.3157896  82.0251342
  37.6311954  82.4636336  81.3729060  45.5659274  90.1590379  83.3231744
  45.1223128  89.3726758  83.0052648  46.2276487  90.3469530  82.6575635
  40.3246395  91.6886181  77.8492422  40.8753820  91.5603244  77.0769416
  39.4857871  91.9881070  77.4987315  47.6640512  90.4393179  81.3513145
  47.6458987  91.2602060  80.8593414  48.5860432  90.3147255  81.5763286
  44.1213566  87.9537309  82.1936654  44.6541903  87.1925597  81.9635962
  43.5927647  87.6610961  82.9360808  35.3569111  85.3830905  70.5418897
  36.1944333  85.7927914  70.3252605  35.5347379  84.4430347  70.5119091
  47.2533543  83.0505986  66.2302730  46.7380167  83.8210591  66.4691118
  46.9810852  82.3771122  66.8535792  45.4866278  87.0823301  69.7055466
  44.9587640  86.3476061  69.3928703  44.9853781  87.8597978  69.4595434
  50.4659124  85.2772322  74.8222512  49.8082799  85.9671583  74.9102641
  51.2699524  85.6668754  75.1656498  43.6318879  84.9003512  62.7090439
  42.7245940  84.6692765  62.9081588  44.1289911  84.1041131  62.8964420
  46.5386958  93.6101019  65.6287125  45.8648656  93.9132716  66.2372083
  46.9252779  94.4130099  65.2792582  44.8107112  85.0016107  67.2314429
  43.9018331  84.7175139  67.3286898  44.8402196  85.4215185  66.3717736
  50.0426379  88.6122696  71.0005596  49.5888707  87.7713606  71.0570787
  49.4120346  89.2484094  71.3380376  48.4859319  90.4499193  71.9355414
  48.7782293  91.0104250  71.2167780  48.9957939  90.7427754  72.6908574
  35.3795282  82.7221621  71.2129631  35.1819682  82.1290981  70.4880698
  34.8241946  82.4173831  71.9305570  43.3592006  82.6144727  73.3324224
  43.4140616  81.6618564  73.2566701  42.5483208  82.7704166  73.8165523
  44.5083200  86.5424850  64.5702507  44.0702630  85.8260709  64.1108145
  45.2493641  86.7700965  64.0087599  43.4492944  91.2279544  73.0248868
  43.4069123  91.4540390  72.0957400  44.3655643  90.9942918  73.1734669
  46.8958578  81.6963611  79.9229497  47.2507965  81.9235084  80.7823963
  47.5430709  82.0281988  79.3006752  52.6525694  86.8858574  75.6390097
  53.0862201  86.7933863  76.4873151  53.3657275  86.8616075  75.0010113
  41.5658745  88.1042573  72.8210830  42.3599343  87.6092893  72.6193405
  40.8550437  87.5760436  72.4578536  46.3853589  90.4860668  77.1723198
  46.4390611  91.0551605  77.9400914  45.5168371  90.6562553  76.8077235
  39.2651983  80.1878225  78.6547649  39.9375036  79.9795587  78.0060298
  38.4381769  79.9900311  78.2152882  53.5141244  86.9282275  78.1722983
  53.7077134  87.8328085  78.4182258  53.4141862  86.4689694  79.0061568
  48.5756352  87.0789018  83.7463863  48.4241859  86.8499569  82.8293947
  48.5661032  88.0359619  83.7595208  45.3441689  84.6520930  78.7310130
  46.2733749  84.8032090  78.5579097  44.9232719  84.7404951  77.8758776
  44.1430021  88.6771595  76.5008667  44.0041106  88.3090379  77.3734606
  43.3544617  89.1919234  76.3292625  44.7378173  93.7780691  67.8434204
  44.9129928  93.3068734  68.6579827  44.0510961  94.4046457  68.0715465
  45.6935236  88.0553197  73.8897505  45.3585068  88.0153967  74.7855155
  45.1939182  87.3897913  73.4167915  39.6679480  83.4620828  79.4150086
  39.5299278  82.7301066  80.0161625  40.5784403  83.3729728  79.1334274
  42.2961780  83.1740787  78.9033766  43.0061399  82.5333979  78.8620384
  42.2531089  83.4253682  79.8259947  50.2848559  90.1108140  81.8240345
  50.2261105  89.4267360  81.1570928  50.6868078  90.8527130  81.3720971
  41.0090714  80.1606005  80.7229406  40.4728071  79.7096743  81.3751002
  40.4207423  80.2951914  79.9799870  39.3039258  96.9270054  74.6174064
  39.5435856  97.5588578  75.2953083  38.4608454  96.5758094  74.9039423
  50.2865966  88.0747724  80.0554325  49.3992745  87.7373646  80.1780724
  50.8564517  87.3430755  80.2923090  31.9395114  84.4071816  73.3797376
  32.6266153  84.0933546  72.7918392  31.7843242  85.3113181  73.1064628
  43.8167120  92.7349176  77.0215568  43.7437291  93.5404148  77.5334873
  43.3744513  92.9341142  76.1963590  43.6056899  91.9720947  70.5318390
  42.8224421  92.5142627  70.6256614  44.3049645  92.4894926  70.9312631
  46.2765803  92.6336011  79.1773727  46.9893776  93.2683475  79.1049628
  45.7855832  92.7299876  78.3613729  47.9983330  86.5387263  70.7491018
  47.0639609  86.6588726  70.5795723  48.1759999  85.6359730  70.4851028
  41.3277717  90.3830454  79.9979298  42.0287176  91.0166937  80.1508692
  40.8572832  90.7245186  79.2374937  49.4532113  88.7248404  68.2827205
  49.7291957  88.6104998  69.1921079  48.5836611  88.3265889  68.2439378
  49.1279003  82.9375061  77.8231848  48.4750453  83.1850969  77.1684301
  49.5059383  82.1239200  77.4894325  46.0886177  92.9734755  71.9260018
  46.2708571  92.1556411  72.3887771  46.9119163  93.1902447  71.4884908
  46.4228342  91.9002940  69.1875067  46.9516109  91.3895394  68.5745229
  46.6856562  91.5845470  70.0520600  45.1766576  83.6794872  84.3097885
  44.5007213  83.5789002  84.9800260  45.9994210  83.5234086  84.7733882
  36.9245435  89.9166809  76.9310400  37.5098872  89.1710497  77.0638305
  36.7270273  90.2270766  77.8147064  39.7784090  92.9518056  71.9472843
  39.1094465  93.4364184  71.4636883  39.6396960  93.1987277  72.8616221
  31.5163090  82.4872409  75.6514843  31.5547189  81.9536000  76.4451962
  31.0103382  81.9607615  75.0325821  43.9189359  94.9861800  78.5455501
  44.4707667  95.1493421  79.3104586  44.2595552  95.5766238  77.8735526
  38.3706124  79.4060082  82.7950420  38.9978163  79.0237160  83.4087944
  37.5134043  79.1874284  83.1606113  48.7700233  89.8123057  84.4004155
  49.3140137  90.4253016  83.9059110  48.1887078  90.3702636  84.9171168
  35.1471667  81.2136511  68.7268775  35.4425108  80.3047190  68.6735829
  34.2459703  81.1924251  68.4049777  47.0557746  92.9343775  75.5319183
  46.9308885  92.1333515  75.0230129  47.7136837  93.4289969  75.0433153
  49.1192654  90.7352796  77.1598733  48.1722990  90.6158147  77.0877060
  49.4675428  89.8475294  77.2424995  46.1239088  90.5305512  73.3603086
  45.9764050  89.6022219  73.5410656  46.9492581  90.5525602  72.8760161
  49.7273210  91.3534070  74.4467958  50.6519757  91.1476932  74.3092409
  49.5588513  91.1050472  75.3557300  49.5168526  91.8719738  69.8030050
  49.6905403  91.3066160  69.0503902  50.0097417  92.6720633  69.6209540
  35.3345486  83.8834407  77.8693609  34.7898954  84.6594215  78.0013883
  36.2124835  84.2305211  77.7112730  50.5043698  91.1886502  66.9026948
  51.1994603  91.8093195  67.1214263  50.8466848  90.3381854  67.1779326
  36.1211507  83.0104303  80.7623765  35.3793243  83.1586939  81.3488396
  35.8004252  83.2712569  79.8990515  44.0655170  92.5520282  80.5604155
  44.3742296  92.3069428  81.4326855  44.8630652  92.7566920  80.0723026
  44.0875782  94.7058191  72.7909532  43.6480772  94.2134570  73.4842389
  44.8383899  94.1631159  72.5501607  36.5668121  90.8969732  72.7934160
  37.3926141  90.5973504  72.4132804  36.2162173  90.1277354  73.2423949
  41.5349654  90.2496200  74.8631834  40.9129664  89.5866905  74.5634061
  42.2054521  90.2757332  74.1805481  34.7676726  88.8156058  73.7523094
  33.9308634  88.3878233  73.5707095  34.7400372  89.0088502  74.6893885
  52.0929027  89.2719112  83.7365477  51.3024571  89.2543250  83.1969976
  51.8562382  89.8107405  84.4914513  52.2126902  86.1211578  81.0498205
  52.2624907  85.9561585  81.9913728  52.1040826  85.2538837  80.6596086
  41.0963161  88.8000124  68.3390294  41.2451282  89.4835588  67.6856967
  41.9029605  88.7805214  68.8539750  49.5030665  82.1042506  82.3657512
  50.4040528  81.9648971  82.0741510  49.5778639  82.2696961  83.3055689
  53.7145099  88.5408519  81.2940227  53.4229908  88.9038500  82.1303688
  53.1017231  87.8275528  81.1153559  51.9632288  83.6641134  79.7620285
  52.4386409  83.8568780  78.9539136  51.0397853  83.7200320  79.5163668
  38.8515794  84.8265301  69.3451363  38.6061836  83.9227631  69.5431573
  39.0211709  84.8282452  68.4030841  44.5958567  91.2948254  65.8102042
  44.0232534  91.9138441  65.3572513  45.1691360  91.8447616  66.3441964
  47.8155826  91.5785404  66.9410624  48.7486500  91.5130966  67.1443499
  47.7279039  92.4141671  66.4825157  50.4443843  90.8951275  63.9014571
  50.3657475  90.5611138  64.7950329  51.2653510  91.3873042  63.9006044
  44.8644058  86.6826813  84.6118751  45.7847067  86.8605412  84.8058798
  44.8293641  85.7382858  84.4598450  34.0826223  81.8765407  73.5372026
  33.7629007  81.0230715  73.2446400  33.5359651  82.0913985  74.2929993
  37.8606130  84.5927848  77.2541532  38.0792140  85.5244955  77.2729566
  38.2731904  84.2335822  78.0396336  42.7333996  80.1661053  86.6444281
  42.6330722  81.1155410  86.5756372  42.5155538  79.8379292  85.7720351
  33.9514483  85.4968318  75.5065147  33.2577954  85.0822271  74.9935102
  34.6987474  85.5388855  74.9098566  42.5965266  83.5958192  85.4609343
  42.1132347  84.3958552  85.6673232  42.6826205  83.6066137  84.5076787
  35.8651225  85.4286572  73.3831162  35.8421913  85.5274259  72.4313045
  36.1751862  86.2751723  73.7048328  38.5238603  87.4862727  77.4977777
  39.4781857  87.4546669  77.4307708  38.3251127  87.0253351  78.3128003
  39.1137985  86.0563843  80.0648574  39.9330874  86.5507922  80.0883412
  39.3874793  85.1395811  80.0366142  36.8788832  93.0282346  74.5147974
  36.7443300  92.2682747  73.9485973  36.4620894  93.7523246  74.0476763
  48.0147795  88.2119270  63.5224550  48.7183645  88.4169272  64.1382205
  47.2910444  88.7796032  63.7873633  40.0357958  93.9251663  74.7266417
  39.9190342  94.8697096  74.6245107  39.2150404  93.6225225  75.1152216
  49.9234492  88.6501799  65.5723010  50.7580096  88.2182998  65.3900485
  49.7618835  88.4783813  66.4999904  49.5780385  85.1533912  66.9379349
  49.5229188  84.9878184  65.9967793  48.9526440  85.8609945  67.0941539
  34.3672899  80.3901977  80.7640771  35.0131763  79.8800931  81.2527997
  34.1590051  81.1270658  81.3384197  46.8926292  87.4582824  86.2632912
  47.7617451  87.6323477  85.9019547  46.4133043  88.2777241  86.1408641
  41.0612472  94.5779925  77.9422346  41.9639719  94.6103536  78.2588841
  40.8349842  93.6480376  77.9568681  42.8166074  93.3310912  74.6032424
  41.8661705  93.3312773  74.4896796  43.1198560  92.5843646  74.0868459
  58.5518767  99.1671450  75.6678187  59.1897177  99.0478198  74.9641527
  58.4339610 100.1152294  75.7266139  55.3608474  99.1198878  75.6039711
  55.0226985  99.0039943  74.7160246  56.2298242  98.7190043  75.5840717
  51.2195289 100.9734355  71.5936602  50.6560155 100.8824292  70.8252890
  51.1047684 100.1534259  72.0739095  55.8428257 100.2733730  81.5625917
  55.8316897  99.8786528  80.6906420  56.0048896  99.5399803  82.1559688
  48.7659721 102.4685546  74.4320823  49.5581013 102.1276371  74.0167122
  49.0056371 102.5780521  75.3522976  56.7994848 104.6405322  66.9051067
  56.1482828 105.2259403  66.5185081  57.5939211 105.1711517  66.9646105
  50.7250475 101.7294460  67.3038201  51.4981351 101.1823447  67.1651077
  51.0775874 102.5938709  67.5152663  52.5635518 103.0570842  80.5105101
  52.2725384 103.9616473  80.3951767  53.1992502 103.0987369  81.2249170
  53.4891725 100.4347690  77.1006460  54.0855297 100.2103713  76.3863423
  53.5466696  99.6932436  77.7031908  53.0616753  97.8887126  64.9356651
  53.3142274  97.3668647  64.1740114  52.1241312  97.7253271  65.0383335
  58.1060036  96.8922904  72.7431395  58.8923125  96.4742327  72.3921812
  58.3698740  97.7968996  72.9113043  58.2770113 102.3295754  67.4420051
  57.6415946 102.4030381  68.1540956  57.9467520 102.9189353  66.7639131
  63.5068463  96.8298137  73.6464373  64.2393635  96.2597354  73.8802203
  62.7507819  96.4419738  74.0870879  52.7813042  99.7915232  67.1381026
  52.6649300  99.1160135  67.8062111  52.8915302  99.3047606  66.3213179
  55.1244583  99.2525379  70.8427716  54.7602790  98.7256000  71.5540637
  55.9811699  98.8623848  70.6694201  61.0293883  90.5419711  78.1058982
  60.6977208  91.4115122  77.8820197  60.4339497  90.2255995  78.7853012
  54.7650070  94.2815278  65.8389064  54.9324472  95.1495515  66.2059535
  54.5747239  94.4442560  64.9150353  57.5225403 102.7432257  77.5054894
  57.2226126 103.6457296  77.3970702  57.1776462 102.4764441  78.3576047
  50.9737884  99.1946054  73.5391599  50.0488381  99.0622268  73.7469291
  51.2222298  99.9740273  74.0361541  60.9222547  95.2614798  75.1852332
  60.0139424  95.1930206  74.8911093  60.8710142  95.7386742  76.0134157
  54.7439291  96.7372936  66.8235731  54.6238916  97.1829987  67.6621211
  54.0491879  97.0858254  66.2649269  48.3346695  98.8379328  74.3735388
  48.4639077  99.0913807  75.2874800  47.6544147  99.4307036  74.0540043
  52.5046183 109.5076578  70.4725862  52.4270212 110.4584403  70.5514343
  51.9007826 109.1622450  71.1300788  54.9963412  96.6804443  83.1287229
  54.2196747  97.2398363  83.1190094  55.6353976  97.1661226  83.6502099
  62.7884193  93.4631236  76.9630206  62.1458573  93.7563769  76.3170000
  62.2839122  93.3484156  77.7683402  60.4424357  97.2094409  67.6516065
  61.3542213  97.4421796  67.4763763  59.9334004  97.7931453  67.0891144
  53.2509785  99.4889896  82.6905196  53.9924469 100.0274940  82.4140020
  52.5446770 100.1156185  82.8476748  58.7265124 101.6319037  81.2877358
  59.1348480 101.1901447  80.5431990  58.0042386 101.0571664  81.5411550
  55.0796194  96.5691644  78.6610914  55.9257390  96.9931057  78.8045563
  55.0194832  95.9125268  79.3549478  59.0493939 102.1920228  75.0429646
  58.4202802 102.3565942  74.3405714  58.6619601 102.6061837  75.8140610
  62.9283171 103.1274665  72.3974010  62.2434209 103.5073567  71.8471043
  63.0127020 103.7369992  73.1305958  58.2295640  94.2296012  80.3192088
  57.9856572  94.9838073  79.7826364  58.5055570  94.6081360  81.1539335
  60.1834103 100.7734624  78.9969354  60.3950998 101.4166384  78.3203735
  60.1363851  99.9396941  78.5291284  57.7860332  93.3852445  75.9005926
  56.9244811  93.6833699  76.1922663  57.8122766  93.6022844  74.9686958
  54.6021901 101.9294636  72.3079732  55.0660246 102.2082339  71.5184354
  54.3378699 101.0278080  72.1252822  51.4945982 101.4766117  75.2459495
  52.0647339 101.9053386  74.6076979  52.0854094 101.1948702  75.9443680
  53.5390787  98.0517788  69.1169297  54.2414830  98.5038832  69.5843223
  53.2071416  97.4101607  69.7449190  51.9871149  96.6429545  83.4920506
  51.3569809  97.3245826  83.7255903  51.8807236  96.5312626  82.5473644
  47.2816121  96.3101341  74.4186430  46.4915175  96.5658869  73.9426541
  47.7727368  97.1249679  74.5238471  61.2979931 103.6506580  77.1691711
  62.1197374 103.2486767  76.8874393  61.2942333 103.5474814  78.1207827
  49.2330866  96.6745920  71.3769907  48.4362030  96.7864614  71.8953403
  49.0056459  97.0132572  70.5110797  55.0636534 103.1990623  79.3252422
  55.1280966 103.6611030  80.1610593  54.3547458 102.5687988  79.4534731
  45.5653824  96.5631831  76.8501421  45.8161862  97.4478841  77.1158997
  46.1013372  96.3836433  76.0776513  69.3885924  99.9945328  73.5176683
  68.6349632  99.4252726  73.3620687  69.5233465  99.9607993  74.4647317
  54.7784552 104.8658731  69.1931402  54.6430226 105.7110266  69.6216250
  55.3194364 105.0678008  68.4297336  51.2651891  90.9450311  85.8545757
  50.8718837  90.3916509  86.5293401  52.0818032  91.2560889  86.2452275
  48.2313949 102.3834169  69.7659327  48.7438470 103.1777419  69.9164892
  48.8836662 101.6860459  69.6992928  50.0408834 105.4999925  71.8482080
  50.2175462 106.4217890  71.6603064  50.8365667 105.1858344  72.2776460
  54.1819852  92.3608190  83.4466014  54.9229566  92.9615343  83.3670476
  54.4137775  91.6185827  82.8884056  49.3261190  97.5464557  81.7244243
  49.2114705  96.6449814  82.0251342  48.4705708  97.7928254  81.3729060
  56.4053028 105.4882297  83.3231744  55.9616882 104.7018676  83.0052648
  57.0670242 105.6761448  82.6575635  51.1640149 107.0178099  77.8492422
  51.7147574 106.8895162  77.0769416  50.3251625 107.3172988  77.4987315
  58.5034266 105.7685097  81.3513145  58.4852741 106.5893978  80.8593414
  59.4254186 105.6439172  81.5763286  54.9607320 103.2829227  82.1936654
  55.4935657 102.5217515  81.9635962  54.4321401 102.9902878  82.9360808
  46.1962866 100.7122823  70.5418897  47.0338088 101.1219831  70.3252605
  46.3741134  99.7722265  70.5119091  58.0927298  98.3797904  66.2302730
  57.5773921  99.1502508  66.4691118  57.8204606  97.7063040  66.8535792
  55.6774409  93.2247604  71.2887969  54.8216005  92.8354455  71.1093608
  56.0901361  93.3039565  70.4287754  57.2073556  90.7593948  75.6879529
  56.7038351  90.7224083  74.8747334  57.5004162  91.6686690  75.7476185
  53.4516441  90.8432677  74.6945710  54.3169438  90.6475486  74.3351600
  53.5193950  90.6143029  75.6215067  63.0661572 101.1330258  68.1655904
  62.2891015 100.7941418  67.7211066  63.7453053 101.1382881  67.4910869
  57.8813601  96.2524996  68.0562512  57.5763737  96.5671145  68.9072655
  58.8344043  96.3306416  68.0989845  56.3260033 102.4115219  69.7055466
  55.7981395 101.6767979  69.3928703  55.8247536 103.1889895  69.4595434
  61.3052879 100.6064240  74.8222512  60.6476553 101.2963501  74.9102641
  62.1093278 100.9960671  75.1656498  51.0578761  93.0734885  72.0662077
  51.6322512  92.8510067  71.3335270  51.6449743  93.1423580  72.8190678
  60.1158338  98.9608612  72.8726454  60.6290220  99.5938604  73.3748163
  60.7659562  98.3609808  72.5069814  51.3848348  95.1039346  66.0857962
  50.5485660  95.4414033  66.4067237  51.2453117  94.9688326  65.1485099
  53.3601428  89.9476134  70.7937147  52.7065841  89.6325151  70.1693761
  53.3181902  89.3251875  71.5196969  54.4712633 100.2295429  62.7090439
  53.5639695  99.9984683  62.9081588  54.9683665  99.4333049  62.8964420
  57.3780712 108.9392937  65.6287125  56.7042411 109.2424633  66.2372083
  57.7646534 109.7422017  65.2792582  56.5939169  96.4358068  75.1184794
  55.6761730  96.6573015  74.9606482  57.0099312  96.5104378  74.2596502
  57.3774216  97.8349483  70.2487474  58.1246035  98.3470881  69.9394596
  57.6465806  97.5133536  71.1091868  55.6500867 100.3308024  67.2314429
  54.7412086 100.0467057  67.3286898  55.6795950 100.7507103  66.3717736
  60.8820134 103.9414614  71.0005596  60.4282461 103.1005524  71.0570787
  60.2514101 104.5776012  71.3380376  59.8253054  94.8706600  72.2306264
  59.0875810  94.3583986  72.5616506  60.0779827  94.4306981  71.4189541
  59.3253073 105.7791110  71.9355414  59.6176048 106.3396167  71.2167780
  59.8351694 106.0719671  72.6908574  46.2189037  98.0513538  71.2129631
  46.0213437  97.4582899  70.4880698  45.6635701  97.7465749  71.9305570
  54.1985761  97.9436645  73.3324224  54.2534370  96.9910481  73.2566701
  53.3876963  98.0996084  73.8165523  55.3476954 101.8716768  64.5702507
  54.9096384 101.1552627  64.1108145  56.0887395 102.0992883  64.0087599
  52.1378121  96.5613705  71.0914603  51.3245986  96.8607875  71.4979795
  52.6337115  96.1669393  71.8089085  54.2886698 106.5571461  73.0248868
  54.2462877 106.7832308  72.0957400  55.2049397 106.3234836  73.1734669
  57.7352332  97.0255529  79.9229497  58.0901720  97.2527002  80.7823963
  58.3824463  97.3573906  79.3006752  63.4650069 100.1473965  70.6278826
  63.3267968 100.3375561  69.7000015  63.1086288 100.9093348  71.0846877
  51.6292195  94.1332060  76.7075838  52.2691575  93.9920819  76.0098801
  50.7969726  93.8466573  76.3314440  63.4919449 102.2150492  75.6390097
  63.9255955 102.1225781  76.4873151  64.2051029 102.1907992  75.0010113
  52.4052499 103.4334490  72.8210830  53.1993098 102.9384811  72.6193405
  51.6944192 102.9052354  72.4578536  57.2247344 105.8152586  77.1723198
  57.2784366 106.3843522  77.9400914  56.3562125 105.9854471  76.8077235
  48.7135263  97.5777572  68.8970583  47.7832851  97.5162028  69.1140545
  48.8092735  97.0553525  68.1007224  48.6320812  94.1032385  71.4848825
  48.8927629  95.0177718  71.3757985  49.4537984  93.6356828  71.6345438
  50.1045737  95.5170142  78.6547649  50.7768790  95.3087504  78.0060298
  49.2775524  95.3192228  78.2152882  64.3534998 102.2574193  78.1722983
  64.5470888 103.1620003  78.4182258  64.2535616 101.7981612  79.0061568
  56.0071309  92.1432083  80.6713310  55.3599224  92.8422033  80.5777787
  56.7772324  92.5768227  81.0389558  59.4150107 102.4080935  83.7463863
  59.2635613 102.1791487  82.8293947  59.4054786 103.3651537  83.7595208
  56.1835443  99.9812848  78.7310130  57.1127503 100.1324008  78.5579097
  55.7626473 100.0696869  77.8758776  54.9823775 104.0063512  76.5008667
  54.8434861 103.6382297  77.3734606  54.1938371 104.5211152  76.3292625
  55.5771927 109.1072609  67.8434204  55.7523683 108.6360652  68.6579827
  54.8904715 109.7338375  68.0715465  56.5328990 103.3845115  73.8897505
  56.1978823 103.3445885  74.7855155  56.0332936 102.7189831  73.4167915
  50.5073234  98.7912745  79.4150086  50.3693032  98.0592984  80.0161625
  51.4178158  98.7021645  79.1334274  59.4688182 100.7301150  64.1634565
  58.8517353 100.0047978  64.0667618  59.0004670 101.4910510  63.8201639
  53.1355535  98.5032705  78.9033766  53.8455153  97.8625897  78.8620384
  53.0924843  98.7545599  79.8259947  61.1242314 105.4400058  81.8240345
  61.0654860 104.7559278  81.1570928  61.5261832 106.1819048  81.3720971
  51.8484469  95.4897922  80.7229406  51.3121826  95.0388661  81.3751002
  51.2601177  95.6243831  79.9799870  50.1433012 112.2561972  74.6174064
  50.3829611 112.8880496  75.2953083  49.3002209 111.9050012  74.9039423
  51.2586728  94.9486574  63.2855869  50.3816194  94.8275375  62.9218116
  51.7344481  94.1572652  63.0334758  61.1259721 103.4039642  80.0554325
  60.2386500 103.0665564  80.1780724  61.6958272 102.6722673  80.2923090
  42.7788868  99.7363734  73.3797376  43.4659908  99.4225464  72.7918392
  42.6236997 100.6405098  73.1064628  47.5823590  94.6253930  77.8082400
  47.4981779  94.0179600  77.0732810  46.7606297  95.1162948  77.8091896
  54.6560874 108.0641094  77.0215568  54.5831046 108.8696066  77.5334873
  54.2138267 108.2633060  76.1963590  54.4450654 107.3012864  70.5318390
  53.6618176 107.8434544  70.6256614  55.1443399 107.8186844  70.9312631
  57.7547304  93.1107494  73.1752595  58.2516004  92.3577456  72.8553665
  56.9834286  93.1471810  72.6095804  65.6077061  98.8147859  74.8170887
  65.5966938  99.6972575  74.4464820  64.7394441  98.4619410  74.6225424
  57.1159558 107.9627928  79.1773727  57.8287530 108.5975393  79.1049628
  56.6249586 108.0591794  78.3613729  58.8377085 101.8679181  70.7491018
  57.9033363 101.9880643  70.5795723  59.0153753 100.9651648  70.4851028
  54.3382273  95.2524877  72.9024280  53.9680060  94.6995917  73.5905185
  54.8341365  94.6483010  72.3499280  62.2249636  97.7096500  71.2841053
  62.6910088  98.5424492  71.2101355  62.6757137  97.2441482  71.9886311
  52.1671471 105.7122372  79.9979298  52.8680931 106.3458855  80.1508692
  51.6966586 106.0537103  79.2374937  60.2925867 104.0540321  68.2827205
  60.5685711 103.9396916  69.1921079  59.4230366 103.6557806  68.2439378
  60.1966299  90.0777087  75.3231954  59.2829379  90.3081314  75.4914161
  60.6259400  90.1615531  76.1745986  59.9672757  98.2666979  77.8231848
  59.3144208  98.5142887  77.1684301  60.3453137  97.4531117  77.4894325
  56.9279931 108.3026672  71.9260018  57.1102326 107.4848328  72.3887771
  57.7512917 108.5194365  71.4884908  57.2622097 107.2294857  69.1875067
  57.7909863 106.7187312  68.5745229  57.5250316 106.9137388  70.0520600
  56.0160330  99.0086790  84.3097885  55.3400967  98.9080919  84.9800260
  56.8387964  98.8526004  84.7733882  47.7639189 105.2458727  76.9310400
  48.3492626 104.5002415  77.0638305  47.5664028 105.5562683  77.8147064
  50.6177845 108.2809974  71.9472843  49.9488220 108.7656102  71.4636883
  50.4790714 108.5279195  72.8616221  42.3556844  97.8164327  75.6514843
  42.3940944  97.2827918  76.4451962  41.8497137  97.2899532  75.0325821
  54.7583113 110.3153718  78.5455501  55.3101421 110.4785339  79.3104586
  55.0989307 110.9058155  77.8735526  49.7347606  92.6628867  79.1477386
  49.7988933  93.5243698  78.7354783  49.6714727  92.0502869  78.4149744
  49.2099879  94.7352000  82.7950420  49.8371918  94.3529077  83.4087944
  48.3527798  94.5166202  83.1606113  59.6093988 105.1414975  84.4004155
  60.1533892 105.7544933  83.9059110  59.0280832 105.6994554  84.9171168
  45.9865422  96.5428429  68.7268775  46.2818863  95.6339107  68.6735829
  45.0853457  96.5216169  68.4049777  57.8951500 108.2635693  75.5319183
  57.7702640 107.4625433  75.0230129  58.5530592 108.7581886  75.0433153
  49.5159669  94.6184426  74.7096323  48.7946254  95.2320393  74.5703797
  50.3052924  95.1542190  74.6312969  59.9586409 106.0644713  77.1598733
  59.0116744 105.9450064  77.0877060  60.3069182 105.1767211  77.2424995
  52.3185982  91.9538852  80.9836975  52.8420384  92.2001149  81.7463285
  52.0998316  92.7858887  80.5640113  47.7153263  94.2242527  68.8508100
  47.3865969  93.3439906  68.6683206  48.0692634  94.1690195  69.7384489
  56.9632842 105.8597429  73.3603086  56.8157805 104.9314137  73.5410656
  57.7886336 105.8817520  72.8760161  50.8295086  94.5115497  69.2183578
  51.1691159  95.0401418  68.4962186  51.2767207  94.8495903  69.9942144
  60.5666964 106.6825988  74.4467958  61.4913511 106.4768850  74.3092409
  60.3982267 106.4342389  75.3557300  53.5238527  92.8952547  78.6686646
  53.1835348  92.0960360  79.0707326  52.8177534  93.1954258  78.0963479
  54.1754999  89.9801860  77.1213969  54.9981068  89.5062338  76.9992859
  54.4193063  90.7592343  77.6212655  52.8163234  93.0090118  67.4176870
  53.5371596  93.3871371  66.9140587  52.1928538  93.7278995  67.5211848
  56.9594356  93.7135267  68.3535203  57.1757971  94.5959905  68.0524031
  56.4788424  93.3221480  67.6240845  51.6993578  96.6720980  74.9305947
  51.5538159  96.9861283  75.8230229  51.2218782  97.2905881  74.3776846
  53.5589961  93.6623528  74.9786837  53.5451530  92.7664622  74.6419135
  54.2762389  93.6694192  75.6125123  55.4116091  94.0960868  77.0239964
  55.1533869  95.0177939  77.0224295  54.8801132  93.6991303  77.7140428
  60.3562280 107.2011656  69.8030050  60.5299158 106.6358078  69.0503902
  60.8491171 108.0012550  69.6209540  46.1739240  99.2126325  77.8693609
  45.6292708  99.9886133  78.0013883  47.0518590  99.5597129  77.7112730
  52.9626857  92.5437909  70.2474407  53.0842768  91.6154555  70.4465295
  52.6728899  92.5576595  69.3352722  55.8318047  90.2292819  73.3841127
  55.8539744  90.2932152  72.4293106  56.2486106  89.3897328  73.5781633
  66.2101671  99.9648079  71.4220349  66.6532817  99.2155404  71.0239473
  65.3328182  99.9558215  71.0394081  61.3437453 106.5178420  66.9026948
  62.0388357 107.1385113  67.1214263  61.6860603 105.6673771  67.1779326
  46.9605262  98.3396221  80.7623765  46.2186998  98.4878856  81.3488396
  46.6398006  98.6004487  79.8990515  63.2428876 103.9678126  68.4314279
  63.7680200 104.3065398  67.7063599  63.1551228 103.0325141  68.2477413
  54.9048925 107.8812199  80.5604155  55.2136051 107.6361346  81.4326855
  55.7024407 108.0858838  80.0723026  54.9269537 110.0350109  72.7909532
  54.4874527 109.5426488  73.4842389  55.6777654 109.4923076  72.5501607
  47.4061876 106.2261650  72.7934160  48.2319895 105.9265422  72.4132804
  47.0555928 105.4569272  73.2423949  52.3743409 105.5788118  74.8631834
  51.7523418 104.9158823  74.5634061  53.0448276 105.6049250  74.1805481
  45.6070481 104.1447976  73.7523094  44.7702389 103.7170151  73.5707095
  45.5794126 104.3380419  74.6893885  52.4467936  94.0569906  84.4564340
  52.4956092  94.9332029  84.0742109  52.9890450  93.5147299  83.8835983
  62.9322782 104.6011029  83.7365477  62.1418326 104.5835168  83.1969976
  62.6956136 105.1399323  84.4914513  63.0520657 101.4503496  81.0498205
  63.1018662 101.2853503  81.9913728  62.9434580 100.5830755  80.6596086
  51.9356916 104.1292041  68.3390294  52.0845036 104.8127506  67.6856967
  52.7423359 104.1097131  68.8539750  60.3424419  97.4334424  82.3657512
  61.2434282  97.2940888  82.0741510  60.4172394  97.5988878  83.3055689
  54.6767225  94.8101278  81.2110698  53.8070534  95.1034844  80.9393287
  54.9126705  95.3941723  81.9317962  64.5538854 103.8700437  81.2940227
  64.2623662 104.2330418  82.1303688  63.9410985 103.1567445  81.1153559
  65.7534536 101.4353317  73.8142797  66.5881427 101.8743121  73.9780357
  65.8893665 100.9591970  72.9951043  62.8026042  98.9933052  79.7620285
  63.2780164  99.1860698  78.9539136  61.8791607  99.0492238  79.5163668
  49.6909549 100.1557219  69.3451363  49.4455591  99.2519549  69.5431573
  49.8605463 100.1574369  68.4030841  57.3806259  91.0280895  78.7276119
  57.8988202  91.7641922  78.4022607  57.0261391  91.3344889  79.5622878
  48.9605196  95.8885576  66.8437525  48.2674441  95.9629931  66.1877561
  48.7156948  95.1245920  67.3659041  55.4352321 106.6240172  65.8102042
  54.8626288 107.2430359  65.3572513  56.0085115 107.1739533  66.3441964
  61.5027711  95.8698812  77.9948590  62.4545134  95.9696909  78.0160814
  61.3331161  95.0777080  78.5046675  59.5242090  92.9554395  78.1807991
  58.9292023  93.2359408  77.4854480  59.2391787  93.4448296  78.9524732
  58.6549581 106.9077322  66.9410624  59.5880254 106.8422884  67.1443499
  58.5672794 107.7433589  66.4825157  61.2837598 106.2243192  63.9014571
  61.2051229 105.8903056  64.7950329  62.1047264 106.7164960  63.9006044
  63.9815789  99.0904931  77.1090890  63.9492109  98.1520932  77.2950574
  64.5916412  99.1688968  76.3756715  55.8199120  97.9600984  63.1518094
  56.7658224  97.8307193  63.2206512  55.4413365  97.2215646  63.6287522
  64.1310277  95.8815975  77.1549173  63.6149326  95.0974432  76.9679102
  65.0150226  95.5534692  77.3195693  69.7992339 100.1520938  76.2496927
  70.5295727  99.8906226  76.8104630  69.1899284  99.4149660  76.2898995
  67.8807636  98.2928801  76.8471378  67.1540799  98.1584766  76.2387870
  67.4654923  98.6005630  77.6528096  55.7037812 102.0118731  84.6118751
  56.6240822 102.1897330  84.8058798  55.6687395 101.0674776  84.4598450
  54.0042037  95.8850961  63.0872979  53.0973492  95.5884074  63.1635693
  54.2818018  95.5880779  62.2207266  44.9219977  97.2057324  73.5372026
  44.6022762  96.3522632  73.2446400  44.3753405  97.4205902  74.2929993
  48.6999885  99.9219765  77.2541532  48.9185895 100.8536873  77.2729566
  49.1125659  99.5627740  78.0396336  53.5727750  95.4952971  86.6444281
  53.4724477  96.4447328  86.5756372  53.3549292  95.1671210  85.7720351
  52.7740821  92.7437896  63.2284959  53.6359985  93.0692794  63.4880776
  52.9591166  91.9569392  62.7158024  44.7908237 100.8260236  75.5065147
  44.0971709 100.4114189  74.9935102  45.5381228 100.8680772  74.9098566
  60.9273458  91.6166423  70.3720182  60.3472127  92.2751227  69.9898234
  60.6609391  90.7943767  69.9607599  59.3777024  91.0171480  72.5741502
  59.8776803  91.1288015  71.7655821  60.0212632  90.7132533  73.2142310
  53.4359020  98.9250110  85.4609343  52.9526102  99.7250470  85.6673232
  53.5219959  98.9358055  84.5076787  46.7044980 100.7578490  73.3831162
  46.6815668 100.8566177  72.4313045  47.0145616 101.6043640  73.7048328
  49.3632358 102.8154645  77.4977777  50.3175611 102.7838587  77.4307708
  49.1644881 102.3545268  78.3128003  49.9531740 101.3855761  80.0648574
  50.7724629 101.8799839  80.0883412  50.2268547 100.4687729  80.0366142
  59.7098336  93.7766513  69.4276530  58.8224191  94.0616164  69.2096725
  60.1252325  93.6160276  68.5803807  63.0612872  93.8013034  73.1430869
  63.8373262  94.2909486  73.4155486  62.3361006  94.2271088  73.6002739
  65.4985431  94.5140653  74.2004810  66.0929922  94.2736389  73.4898118
  65.5712014  93.7947784  74.8278346  47.7182586 108.3574264  74.5147974
  47.5837054 107.5974665  73.9485973  47.3014649 109.0815164  74.0476763
  58.8541549 103.5411188  63.5224550  59.5577400 103.7461190  64.1382205
  58.1304198 104.1087949  63.7873633  59.6839360  99.2921049  69.6426820
  59.6274561  99.7489600  68.8034452  60.2367702  98.5311733  69.4649663
  63.4944166  95.0810781  70.4676939  63.2381100  94.6807416  71.2985147
  62.8697034  95.7954575  70.3427079  67.8056503  97.8206854  72.9748231
  67.2456061  97.8900043  73.7479793  67.2000007  97.6447839  72.2547727
  50.8751712 109.2543581  74.7266417  50.7584096 110.1989014  74.6245107
  50.0544159 108.9517143  75.1152216  60.7628247 103.9793717  65.5723010
  61.5973851 103.5474915  65.3900485  60.6012590 103.8075730  66.4999904
  60.4174139 100.4825830  66.9379349  60.3622943 100.3170102  65.9967793
  59.7920194 101.1901863  67.0941539  45.2066654  95.7193894  80.7640771
  45.8525518  95.2092848  81.2527997  44.9983805  96.4562576  81.3384197
  57.7320046 102.7874742  86.2632912  58.6011206 102.9615394  85.9019547
  57.2526798 103.6069159  86.1408641  51.9006226 109.9071843  77.9422346
  52.8033473 109.9395453  78.2588841  51.6743596 108.9772294  77.9568681
  53.6559828 108.6602830  74.6032424  52.7055459 108.6604691  74.4896796
  53.9592315 107.9135564  74.0868459  49.5464145  92.8661512  84.8615786
  50.4095607  92.5098316  85.0719110  48.9729556  92.5275406  85.5491190
  69.3912522 114.4963368  75.6678187  70.0290932 114.3770115  74.9641527
  69.2733365 115.4444212  75.7266139  66.2002228 114.4490796  75.6039711
  65.8620740 114.3331861  74.7160246  67.0691996 114.0481961  75.5840717
  62.0589044 116.3026272  71.5936602  61.4953909 116.2116209  70.8252890
  61.9441439 115.4826177  72.0739095  66.6822011 115.6025648  81.5625917
  66.6710652 115.2078446  80.6906420  66.8442651 114.8691720  82.1559688
  59.6053476 117.7977464  74.4320823  60.3974768 117.4568289  74.0167122
  59.8450126 117.9072439  75.3522976  67.6388603 119.9697240  66.9051067
  66.9876582 120.5551321  66.5185081  68.4332965 120.5003435  66.9646105
  61.5644230 117.0586377  67.3038201  62.3375106 116.5115364  67.1651077
  61.9169629 117.9230627  67.5152663  63.4029272 118.3862760  80.5105101
  63.1119138 119.2908390  80.3951767  64.0386257 118.4279287  81.2249170
  64.3285479 115.7639608  77.1006460  64.9249051 115.5395630  76.3863423
  64.3860451 115.0224354  77.7031908  63.9010508 113.2179043  64.9356651
  64.1536028 112.6960565  64.1740114  62.9635067 113.0545189  65.0383335
  68.9453790 112.2214822  72.7431395  69.7316880 111.8034245  72.3921812
  69.2092495 113.1260914  72.9113043  69.1163868 117.6587672  67.4420051
  68.4809701 117.7322299  68.1540956  68.7861274 118.2481271  66.7639131
  74.3462218 112.1590055  73.6464373  75.0787389 111.5889272  73.8802203
  73.5901573 111.7711655  74.0870879  63.6206796 115.1207149  67.1381026
  63.5043054 114.4452053  67.8062111  63.7309056 114.6339523  66.3213179
  65.9638337 114.5817296  70.8427716  65.5996544 114.0547917  71.5540637
  66.8205453 114.1915765  70.6694201  71.8687638 105.8711629  78.1058982
  71.5370963 106.7407040  77.8820197  71.2733251 105.5547913  78.7853012
  65.6043824 109.6107196  65.8389064  65.7718227 110.4787433  66.2059535
  65.4140993 109.7734478  64.9150353  68.3619157 118.0724175  77.5054894
  68.0619880 118.9749214  77.3970702  68.0170217 117.8056358  78.3576047
  61.8131639 114.5237972  73.5391599  60.8882135 114.3914186  73.7469291
  62.0616052 115.3032191  74.0361541  71.7616301 110.5906715  75.1852332
  70.8533179 110.5222124  74.8911093  71.7103897 111.0678660  76.0134157
  65.5833045 112.0664854  66.8235731  65.4632670 112.5121904  67.6621211
  64.8885633 112.4150171  66.2649269  59.1740450 114.1671245  74.3735388
  59.3032831 114.4205724  75.2874800  58.4937901 114.7598953  74.0540043
  63.3439937 124.8368495  70.4725862  63.2663967 125.7876320  70.5514343
  62.7401581 124.4914368  71.1300788  65.8357167 112.0096361  83.1287229
  65.0590501 112.5690281  83.1190094  66.4747730 112.4953144  83.6502099
  73.6277948 108.7923154  76.9630206  72.9852328 109.0855687  76.3170000
  73.1232876 108.6776074  77.7683402  71.2818111 112.5386327  67.6516065
  72.1935967 112.7713714  67.4763763  70.7727758 113.1223371  67.0891144
  64.0903539 114.8181814  82.6905196  64.8318224 115.3566858  82.4140020
  63.3840525 115.4448103  82.8476748  69.5658879 116.9610955  81.2877358
  69.9742235 116.5193365  80.5431990  68.8436140 116.3863582  81.5411550
  65.9189949 111.8983561  78.6610914  66.7651144 112.3222975  78.8045563
  65.8588587 111.2417186  79.3549478  69.8887694 117.5212145  75.0429646
  69.2596556 117.6857859  74.3405714  69.5013356 117.9353755  75.8140610
  73.7676925 118.4566583  72.3974010  73.0827964 118.8365484  71.8471043
  73.8520775 119.0661910  73.1305958  69.0689394 109.5587930  80.3192088
  68.8250326 110.3129990  79.7826364  69.3449325 109.9373277  81.1539335
  71.0227857 116.1026542  78.9969354  71.2344752 116.7458302  78.3203735
  70.9757605 115.2688859  78.5291284  68.6254086 108.7144363  75.9005926
  67.7638565 109.0125616  76.1922663  68.6516521 108.9314762  74.9686958
  65.4415655 117.2586553  72.3079732  65.9054001 117.5374256  71.5184354
  65.1772454 116.3569998  72.1252822  62.3339737 116.8058035  75.2459495
  62.9041094 117.2345303  74.6076979  62.9247848 116.5240620  75.9443680
  64.3784542 113.3809706  69.1169297  65.0808585 113.8330749  69.5843223
  64.0465170 112.7393525  69.7449190  62.8264903 111.9721462  83.4920506
  62.1963564 112.6537743  83.7255903  62.7200991 111.8604544  82.5473644
  58.1209875 111.6393258  74.4186430  57.3308929 111.8950787  73.9426541
  58.6121123 112.4541596  74.5238471  72.1373685 118.9798498  77.1691711
  72.9591129 118.5778685  76.8874393  72.1336088 118.8766732  78.1207827
  60.0724621 112.0037838  71.3769907  59.2755784 112.1156532  71.8953403
  59.8450213 112.3424490  70.5110797  65.9030288 118.5282541  79.3252422
  65.9674721 118.9902948  80.1610593  65.1941212 117.8979906  79.4534731
  56.4047578 111.8923749  76.8501421  56.6555617 112.7770759  77.1158997
  56.9407127 111.7128350  76.0776513  80.2279678 115.3237246  73.5176683
  79.4743386 114.7544644  73.3620687  80.3627219 115.2899911  74.4647317
  65.6178306 120.1950648  69.1931402  65.4823981 121.0402184  69.6216250
  66.1588119 120.3969926  68.4297336  62.1045646 106.2742228  85.8545757
  61.7112591 105.7208427  86.5293401  62.9211786 106.5852807  86.2452275
  59.0707704 117.7126086  69.7659327  59.5832224 118.5069337  69.9164892
  59.7230416 117.0152377  69.6992928  60.8802588 120.8291843  71.8482080
  61.0569217 121.7509807  71.6603064  61.6759422 120.5150262  72.2776460
  65.0213607 107.6900107  83.4466014  65.7623320 108.2907260  83.3670476
  65.2531530 106.9477745  82.8884056  60.1654945 112.8756475  81.7244243
  60.0508460 111.9741732  82.0251342  59.3099463 113.1220171  81.3729060
  67.2446783 120.8174215  83.3231744  66.8010637 120.0310593  83.0052648
  67.9063996 121.0053365  82.6575635  62.0033904 122.3470016  77.8492422
  62.5541329 122.2187080  77.0769416  61.1645380 122.6464905  77.4987315
  69.3428021 121.0977015  81.3513145  69.3246496 121.9185896  80.8593414
  70.2647941 120.9731090  81.5763286  65.8001075 118.6121144  82.1936654
  66.3329412 117.8509432  81.9635962  65.2715156 118.3194796  82.9360808
  68.9670770 103.7181210  77.7230295  68.6235039 104.6082852  77.6469406
  69.3349732 103.5282868  76.8599880  57.0356620 116.0414741  70.5418897
  57.8731842 116.4511749  70.3252605  57.2134888 115.1014183  70.5119091
  68.9321052 113.7089821  66.2302730  68.4167676 114.4794426  66.4691118
  68.6598361 113.0354957  66.8535792  66.5168163 108.5539522  71.2887969
  65.6609760 108.1646373  71.1093608  66.9295115 108.6331483  70.4287754
  68.0467310 106.0885865  75.6879529  67.5432106 106.0516001  74.8747334
  68.3397917 106.9978608  75.7476185  64.2910196 106.1724595  74.6945710
  65.1563193 105.9767404  74.3351600  64.3587705 105.9434947  75.6215067
  73.9055327 116.4622176  68.1655904  73.1284769 116.1233335  67.7211066
  74.5846808 116.4674799  67.4910869  68.7207356 111.5816913  68.0562512
  68.4157491 111.8963063  68.9072655  69.6737798 111.6598333  68.0989845
  67.1653787 117.7407137  69.7055466  66.6375149 117.0059896  69.3928703
  66.6641290 118.5181813  69.4595434  72.1446633 115.9356157  74.8222512
  71.4870308 116.6255419  74.9102641  72.9487033 116.3252589  75.1656498
  61.8972515 108.4026803  72.0662077  62.4716267 108.1801985  71.3335270
  62.4843497 108.4715498  72.8190678  70.9552092 114.2900530  72.8726454
  71.4683974 114.9230522  73.3748163  71.6053316 113.6901725  72.5069814
  62.2242102 110.4331264  66.0857962  61.3879414 110.7705951  66.4067237
  62.0846872 110.2980244  65.1485099  64.1995183 105.2768052  70.7937147
  63.5459595 104.9617069  70.1693761  64.1575657 104.6543792  71.5196969
  65.3106388 115.5587347  62.7090439  64.4033449 115.3276600  62.9081588
  65.8077420 114.7624966  62.8964420  68.2174466 124.2684854  65.6287125
  67.5436165 124.5716551  66.2372083  68.6040288 125.0713935  65.2792582
  67.4332923 111.7649985  75.1184794  66.5155484 111.9864932  74.9606482
  67.8493067 111.8396296  74.2596502  68.2167971 113.1641401  70.2487474
  68.9639790 113.6762798  69.9394596  68.4859560 112.8425454  71.1091868
  66.4894621 115.6599942  67.2314429  65.5805840 115.3758975  67.3286898
  66.5189705 116.0799020  66.3717736  71.7213888 119.2706531  71.0005596
  71.2676216 118.4297441  71.0570787  71.0907855 119.9067930  71.3380376
  70.6646808 110.1998517  72.2306264  69.9269565 109.6875904  72.5616506
  70.9173582 109.7598899  71.4189541  70.1646828 121.1083028  71.9355414
  70.4569802 121.6688085  71.2167780  70.6745448 121.4011589  72.6908574
  70.7658435 102.9774769  72.8248033  71.0717312 102.1172133  72.5373948
  71.4911040 103.5692390  72.6247027  57.0582791 113.3805456  71.2129631
  56.8607191 112.7874817  70.4880698  56.5029455 113.0757666  71.9305570
  65.0379515 113.2728562  73.3324224  65.0928125 112.3202399  73.2566701
  64.2270717 113.4288002  73.8165523  66.1870709 117.2008686  64.5702507
  65.7490139 116.4844544  64.1108145  66.9281150 117.4284800  64.0087599
  62.9771875 111.8905622  71.0914603  62.1639741 112.1899793  71.4979795
  63.4730869 111.4961311  71.8089085  65.1280453 121.8863379  73.0248868
  65.0856632 122.1124225  72.0957400  66.0443152 121.6526754  73.1734669
  68.5746087 112.3547447  79.9229497  68.9295474 112.5818920  80.7823963
  69.2218218 112.6865823  79.3006752  74.3043824 115.4765883  70.6278826
  74.1661722 115.6667479  69.7000015  73.9480042 116.2385265  71.0846877
  62.4685950 109.4623978  76.7075838  63.1085329 109.3212737  76.0098801
  61.6363480 109.1758491  76.3314440  74.3313203 117.5442410  75.6390097
  74.7649710 117.4517699  76.4873151  75.0444784 117.5199910  75.0010113
  63.2446254 118.7626408  72.8210830  64.0386852 118.2676728  72.6193405
  62.5337946 118.2344271  72.4578536  68.0641098 121.1444504  77.1723198
  68.1178120 121.7135440  77.9400914  67.1955880 121.3146389  76.8077235
  59.5529017 112.9069490  68.8970583  58.6226605 112.8453945  69.1140545
  59.6486489 112.3845443  68.1007224  59.4714566 109.4324303  71.4848825
  59.7321383 110.3469636  71.3757985  60.2931739 108.9648745  71.6345438
  60.9439492 110.8462060  78.6547649  61.6162545 110.6379422  78.0060298
  60.1169278 110.6484146  78.2152882  75.1928753 117.5866110  78.1722983
  75.3864643 118.4911921  78.4182258  75.0929371 117.1273529  79.0061568
  66.8465064 107.4724001  80.6713310  66.1992979 108.1713950  80.5777787
  67.6166079 107.9060145  81.0389558  70.2543861 117.7372853  83.7463863
  70.1029368 117.5083405  82.8293947  70.2448541 118.6943454  83.7595208
  67.0229198 115.3104766  78.7310130  67.9521258 115.4615925  78.5579097
  66.6020228 115.3988787  77.8758776  65.8217530 119.3355430  76.5008667
  65.6828615 118.9674215  77.3734606  65.0332126 119.8503070  76.3292625
  66.4165682 124.4364527  67.8434204  66.5917437 123.9652570  68.6579827
  65.7298470 125.0630293  68.0715465  67.3722745 118.7137033  73.8897505
  67.0372577 118.6737803  74.7855155  66.8726690 118.0481749  73.4167915
  61.3466989 114.1204663  79.4150086  61.2086787 113.3884902  80.0161625
  62.2571912 114.0313563  79.1334274  70.3081936 116.0593067  64.1634565
  69.6911107 115.3339895  64.0667618  69.8398425 116.8202427  63.8201639
  63.9749289 113.8324622  78.9033766  64.6848908 113.1917814  78.8620384
  63.9318598 114.0837517  79.8259947  71.9636068 120.7691976  81.8240345
  71.9048614 120.0851196  81.1570928  72.3655587 121.5110966  81.3720971
  62.6878223 110.8189840  80.7229406  62.1515580 110.3680579  81.3751002
  62.0994932 110.9535749  79.9799870  62.0980482 110.2778491  63.2855869
  61.2209949 110.1567292  62.9218116  62.5738235 109.4864570  63.0334758
  71.9653475 118.7331559  80.0554325  71.0780254 118.3957481  80.1780724
  72.5352026 118.0014591  80.2923090  53.6182623 115.0655651  73.3797376
  54.3053662 114.7517381  72.7918392  53.4630751 115.9697016  73.1064628
  58.4217345 109.9545848  77.8082400  58.3375533 109.3471517  77.0732810
  57.6000051 110.4454866  77.8091896  65.4954629 123.3933012  77.0215568
  65.4224800 124.1987983  77.5334873  65.0532022 123.5924978  76.1963590
  65.2844408 122.6304782  70.5318390  64.5011930 123.1726462  70.6256614
  65.9837154 123.1478761  70.9312631  68.5941059 108.4399411  73.1752595
  69.0909758 107.6869374  72.8553665  67.8228040 108.4763728  72.6095804
  76.4470816 114.1439777  74.8170887  76.4360692 115.0264492  74.4464820
  75.5788195 113.7911328  74.6225424  67.9553312 123.2919846  79.1773727
  68.6681285 123.9267311  79.1049628  67.4643341 123.3883712  78.3613729
  69.6770839 117.1971099  70.7491018  68.7427118 117.3172561  70.5795723
  69.8547508 116.2943565  70.4851028  65.1776027 110.5816794  72.9024280
  64.8073815 110.0287835  73.5905185  65.6735120 109.9774928  72.3499280
  73.0643391 113.0388418  71.2841053  73.5303843 113.8716409  71.2101355
  73.5150891 112.5733399  71.9886311  63.0065226 121.0414289  79.9979298
  63.7074685 121.6750772  80.1508692  62.5360341 121.3829021  79.2374937
  71.1319622 119.3832239  68.2827205  71.4079466 119.2688834  69.1921079
  70.2624120 118.9849724  68.2439378  71.0360053 105.4069005  75.3231954
  70.1223133 105.6373232  75.4914161  71.4653155 105.4907449  76.1745986
  70.8066512 113.5958897  77.8231848  70.1537962 113.8434804  77.1684301
  71.1846892 112.7823035  77.4894325  67.7673686 123.6318590  71.9260018
  67.9496080 122.8140246  72.3887771  68.5906672 123.8486282  71.4884908
  68.1015851 122.5586775  69.1875067  68.6303618 122.0479230  68.5745229
  68.3644071 122.2429305  70.0520600  66.8554085 114.3378708  84.3097885
  66.1794722 114.2372837  84.9800260  67.6781719 114.1817922  84.7733882
  58.6032944 120.5750644  76.9310400  59.1886381 119.8294332  77.0638305
  58.4057782 120.8854601  77.8147064  61.4571599 123.6101892  71.9472843
  60.7881974 124.0948019  71.4636883  61.3184469 123.8571112  72.8616221
  53.1950599 113.1456245  75.6514843  53.2334698 112.6119835  76.4451962
  52.6890891 112.6191450  75.0325821  65.5976868 125.6445635  78.5455501
  66.1495176 125.8077257  79.3104586  65.9383061 126.2350073  77.8735526
  60.5741361 107.9920785  79.1477386  60.6382687 108.8535616  78.7354783
  60.5108481 107.3794787  78.4149744  60.0493633 110.0643918  82.7950420
  60.6765672 109.6820995  83.4087944  59.1921552 109.8458120  83.1606113
  70.4487742 120.4706893  84.4004155  70.9927646 121.0836851  83.9059110
  69.8674587 121.0286471  84.9171168  56.8259176 111.8720347  68.7268775
  57.1212617 110.9631025  68.6735829  55.9247212 111.8508086  68.4049777
  68.7345255 123.5927611  75.5319183  68.6096394 122.7917351  75.0230129
  69.3924346 124.0873804  75.0433153  60.3553423 109.9476343  74.7096323
  59.6340009 110.5612311  74.5703797  61.1446679 110.4834108  74.6312969
  70.7980163 121.3936631  77.1598733  69.8510499 121.2741982  77.0877060
  71.1462936 120.5059129  77.2424995  63.1579737 107.2830770  80.9836975
  63.6814139 107.5293066  81.7463285  62.9392070 108.1150805  80.5640113
  58.5547018 109.5534444  68.8508100  58.2259724 108.6731823  68.6683206
  58.9086388 109.4982113  69.7384489  67.8026597 121.1889347  73.3603086
  67.6551559 120.2606055  73.5410656  68.6280090 121.2109438  72.8760161
  61.6688841 109.8407414  69.2183578  62.0084913 110.3693335  68.4962186
  62.1160961 110.1787820  69.9942144  71.4060719 122.0117906  74.4467958
  72.3307266 121.8060767  74.3092409  71.2376022 121.7634307  75.3557300
  64.3632282 108.2244465  78.6686646  64.0229102 107.4252278  79.0707326
  63.6571288 108.5246176  78.0963479  65.0148754 105.3093777  77.1213969
  65.8374823 104.8354256  76.9992859  65.2586817 106.0884261  77.6212655
  63.6556988 108.3382036  67.4176870  64.3765351 108.7163289  66.9140587
  63.0322292 109.0570913  67.5211848  67.7988111 109.0427185  68.3535203
  68.0151725 109.9251823  68.0524031  67.3182178 108.6513398  67.6240845
  62.5387332 112.0012898  74.9305947  62.3931913 112.3153201  75.8230229
  62.0612536 112.6197798  74.3776846  64.3983715 108.9915446  74.9786837
  64.3845284 108.0956539  74.6419135  65.1156143 108.9986110  75.6125123
  66.2509846 109.4252786  77.0239964  65.9927624 110.3469857  77.0224295
  65.7194886 109.0283221  77.7140428  71.1956035 122.5303573  69.8030050
  71.3692912 121.9649996  69.0503902  71.6884926 123.3304468  69.6209540
  57.0132995 114.5418242  77.8693609  56.4686463 115.3178050  78.0013883
  57.8912344 114.8889047  77.7112730  63.8020611 107.8729826  70.2474407
  63.9236522 106.9446472  70.4465295  63.5122654 107.8868512  69.3352722
  66.6711802 105.5584737  73.3841127  66.6933498 105.6224070  72.4293106
  67.0879861 104.7189245  73.5781633  77.0495426 115.2939996  71.4220349
  77.4926572 114.5447321  71.0239473  76.1721936 115.2850133  71.0394081
  72.1831207 121.8470338  66.9026948  72.8782112 122.4677030  67.1214263
  72.5254357 120.9965689  67.1779326  57.7999016 113.6688139  80.7623765
  57.0580752 113.8170774  81.3488396  57.4791761 113.9296404  79.8990515
  74.0822630 119.2970043  68.4314279  74.6073954 119.6357316  67.7063599
  73.9944983 118.3617059  68.2477413  65.7442679 123.2104117  80.5604155
  66.0529805 122.9653264  81.4326855  66.5418161 123.4150755  80.0723026
  65.7663291 125.3642027  72.7909532  65.3268281 124.8718405  73.4842389
  66.5171408 124.8214994  72.5501607  58.2455630 121.5553567  72.7934160
  59.0713650 121.2557339  72.4132804  57.8949682 120.7861190  73.2423949
  63.2137163 120.9080036  74.8631834  62.5917173 120.2450741  74.5634061
  63.8842030 120.9341167  74.1805481  56.4464235 119.4739894  73.7523094
  55.6096143 119.0462068  73.5707095  56.4187881 119.6672337  74.6893885
  63.2861691 109.3861824  84.4564340  63.3349846 110.2623946  84.0742109
  63.8284205 108.8439217  83.8835983  73.7716536 119.9302947  83.7365477
  72.9812080 119.9127086  83.1969976  73.5349891 120.4691241  84.4914513
  73.8914411 116.7795413  81.0498205  73.9412416 116.6145421  81.9913728
  73.7828335 115.9122672  80.6596086  62.7750670 119.4583959  68.3390294
  62.9238791 120.1419423  67.6856967  63.5817114 119.4389049  68.8539750
  71.1818174 112.7626341  82.3657512  72.0828037 112.6232806  82.0741510
  71.2566148 112.9280796  83.3055689  65.5160979 110.1393196  81.2110698
  64.6464289 110.4326762  80.9393287  65.7520460 110.7233641  81.9317962
  75.3932608 119.1992355  81.2940227  75.1017417 119.5622335  82.1303688
  74.7804740 118.4859363  81.1153559  76.5928291 116.7645235  73.8142797
  77.4275182 117.2035039  73.9780357  76.7287419 116.2883888  72.9951043
  73.6419797 114.3224969  79.7620285  74.1173918 114.5152616  78.9539136
  72.7185362 114.3784155  79.5163668  60.5303303 115.4849137  69.3451363
  60.2849345 114.5811467  69.5431573  60.6999218 115.4866287  68.4030841
  68.2200013 106.3572813  78.7276119  68.7381957 107.0933840  78.4022607
  67.8655146 106.6636806  79.5622878  59.7998951 111.2177494  66.8437525
  59.1068196 111.2921849  66.1877561  59.5550703 110.4537838  67.3659041
  68.4712607 102.7773095  74.2477015  68.7514361 102.1096285  74.8737442
  69.2563214 102.9702191  73.7351679  66.2746076 121.9532089  65.8102042
  65.7020043 122.5722277  65.3572513  66.8478869 122.5031451  66.3441964
  72.3421466 111.1990729  77.9948590  73.2938888 111.2988827  78.0160814
  72.1724916 110.4068998  78.5046675  70.3635845 108.2846313  78.1807991
  69.7685777 108.5651325  77.4854480  70.0785542 108.7740214  78.9524732
  69.4943335 122.2369240  66.9410624  70.4274009 122.1714801  67.1443499
  69.4066548 123.0725506  66.4825157  72.1231352 121.5535110  63.9014571
  72.0444984 121.2194973  64.7950329  72.9441019 122.0456878  63.9006044
  74.8209543 114.4196849  77.1090890  74.7885863 113.4812850  77.2950574
  75.4310167 114.4980886  76.3756715  66.6592874 113.2892902  63.1518094
  67.6051979 113.1599110  63.2206512  66.2807119 112.5507564  63.6287522
  74.9704032 111.2107893  77.1549173  74.4543080 110.4266349  76.9679102
  75.8543980 110.8826609  77.3195693  72.6314759 104.9548908  73.1144986
  72.4339580 104.6463996  73.9988318  73.2414464 105.6810547  73.2442916
  80.6386093 115.4812856  76.2496927  81.3689482 115.2198144  76.8104630
  80.0293039 114.7441578  76.2898995  78.7201390 113.6220719  76.8471378
  77.9934554 113.4876684  76.2387870  78.3048677 113.9297547  77.6528096
  66.5431567 117.3410648  84.6118751  67.4634576 117.5189247  84.8058798
  66.5081150 116.3966694  84.4598450  64.8435791 111.2142879  63.0872979
  63.9367247 110.9175991  63.1635693  65.1211772 110.9172697  62.2207266
  55.7613732 112.5349242  73.5372026  55.4416516 111.6814550  73.2446400
  55.2147160 112.7497820  74.2929993  59.5393639 115.2511683  77.2541532
  59.7579649 116.1828791  77.2729566  59.9519413 114.8919657  78.0396336
  66.4597857 105.7579768  69.2417221  65.6498585 105.4126853  69.6172467
  67.1482274 105.4487312  69.8304832  68.3888405 104.8357815  70.8641517
  68.9419444 105.2553268  71.5231540  68.6258492 103.9093563  70.9064473
  64.4121505 110.8244889  86.6444281  64.3118231 111.7739246  86.5756372
  64.1943047 110.4963128  85.7720351  63.6134576 108.0729814  63.2284959
  64.4753740 108.3984712  63.4880776  63.7984920 107.2861310  62.7158024
  55.6301992 116.1552153  75.5065147  54.9365463 115.7406106  74.9935102
  56.3774983 116.1972690  74.9098566  71.7667212 106.9458340  70.3720182
  71.1865881 107.6043144  69.9898234  71.5003145 106.1235685  69.9607599
  70.2170779 106.3463398  72.5741502  70.7170557 106.4579932  71.7655821
  70.8606387 106.0424451  73.2142310  64.2752775 114.2542028  85.4609343
  63.7919856 115.0542388  85.6673232  64.3613714 114.2649972  84.5076787
  57.5438734 116.0870407  73.3831162  57.5209422 116.1858094  72.4313045
  57.8539371 116.9335558  73.7048328  60.2026112 118.1446562  77.4977777
  61.1569366 118.1130505  77.4307708  60.0038636 117.6837186  78.3128003
  60.7925494 116.7147678  80.0648574  61.6118383 117.2091757  80.0883412
  61.0662302 115.7979646  80.0366142  70.5492090 109.1058431  69.4276530
  69.6617945 109.3908081  69.2096725  70.9646080 108.9452194  68.5803807
  73.9006627 109.1304952  73.1430869  74.6767017 109.6201404  73.4155486
  73.1754761 109.5563006  73.6002739  76.3379185 109.8432571  74.2004810
  76.9323676 109.6028307  73.4898118  76.4105769 109.1239701  74.8278346
  69.6935304 118.8703105  63.5224550  70.3971154 119.0753108  64.1382205
  68.9697953 119.4379867  63.7873633  70.5233114 114.6212967  69.6426820
  70.4668316 115.0781518  68.8034452  71.0761457 113.8603651  69.4649663
  74.3337920 110.4102698  70.4676939  74.0774854 110.0099334  71.2985147
  73.7090788 111.1246492  70.3427079  78.6450258 113.1498772  72.9748231
  78.0849816 113.2191961  73.7479793  78.0393761 112.9739756  72.2547727
  71.6022001 119.3085634  65.5723010  72.4367605 118.8766833  65.3900485
  71.4406344 119.1367648  66.4999904  71.2567893 115.8117748  66.9379349
  71.2016697 115.6462019  65.9967793  70.6313949 116.5193781  67.0941539
  56.0460408 111.0485812  80.7640771  56.6919272 110.5384766  81.2527997
  55.8377560 111.7854494  81.3384197  68.5713801 118.1166660  86.2632912
  69.4404960 118.2907312  85.9019547  68.0920552 118.9361076  86.1408641
  64.5664019 105.3125857  66.5164668  64.5542689 106.2567697  66.6732938
  65.4587441 105.1296002  66.2224129  62.7399981 125.2363761  77.9422346
  63.6427228 125.2687371  78.2588841  62.5137351 124.3064212  77.9568681
  64.4953583 123.9894747  74.6032424  63.5449214 123.9896609  74.4896796
  64.7986069 123.2427482  74.0868459  68.3816138 101.9068633  70.7710604
  67.6148534 101.3527120  70.9167287  68.7926843 101.9790502  71.6324756
  60.3857899 108.1953429  84.8615786  61.2489361 107.8390234  85.0719110
  59.8123310 107.8567324  85.5491190  80.2306276 129.8255286  75.6678187
  80.8684686 129.7062033  74.9641527  80.1127119 130.7736130  75.7266139
  77.0395983 129.7782714  75.6039711  76.7014494 129.6623778  74.7160246
  77.9085751 129.3773879  75.5840717  77.5215766 130.9317565  81.5625917
  77.5104406 130.5370364  80.6906420  77.6836405 130.1983638  82.1559688
  74.7404262 128.5470961  64.9356651  74.9929783 128.0252482  64.1740114
  73.8028821 128.3837106  65.0383335  79.7847545 127.5506739  72.7431395
  80.5710634 127.1326163  72.3921812  80.0486249 128.4552832  72.9113043
  85.1855972 127.4881973  73.6464373  85.9181144 126.9181189  73.8802203
  84.4295328 127.1003573  74.0870879  76.8032092 129.9109214  70.8427716
  76.4390299 129.3839835  71.5540637  77.6599208 129.5207683  70.6694201
  82.7081392 121.2003547  78.1058982  82.3764717 122.0698958  77.8820197
  82.1127006 120.8839831  78.7853012  76.4437579 124.9399114  65.8389064
  76.6111981 125.8079350  66.2059535  76.2534748 125.1026396  64.9150353
  82.6010056 125.9198633  75.1852332  81.6926933 125.8514041  74.8911093
  82.5497651 126.3970578  76.0134157  76.4226800 127.3956771  66.8235731
  76.3026425 127.8413822  67.6621211  75.7279388 127.7442089  66.2649269
  76.6750921 127.3388278  83.1287229  75.8984256 127.8982199  83.1190094
  77.3141485 127.8245061  83.6502099  84.4671702 124.1215071  76.9630206
  83.8246082 124.4147604  76.3170000  83.9626631 124.0067992  77.7683402
  82.1211866 127.8678244  67.6516065  83.0329722 128.1005631  67.4763763
  81.6121513 128.4515289  67.0891144  76.7583703 127.2275479  78.6610914
  77.6044899 127.6514893  78.8045563  76.6982341 126.5709103  79.3549478
  79.9083149 124.8879847  80.3192088  79.6644081 125.6421908  79.7826364
  80.1843079 125.2665195  81.1539335  79.4647841 124.0436280  75.9005926
  78.6032320 124.3417534  76.1922663  79.4910275 124.2606679  74.9686958
  75.2178296 128.7101623  69.1169297  75.9202339 129.1622667  69.5843223
  74.8858924 128.0685442  69.7449190  73.6658658 127.3013380  83.4920506
  73.0357318 127.9829661  83.7255903  73.5594745 127.1896462  82.5473644
  68.9603630 126.9685176  74.4186430  68.1702684 127.2242705  73.9426541
  69.4514877 127.7833514  74.5238471  70.9118375 127.3329755  71.3769907
  70.1149539 127.4448450  71.8953403  70.6843968 127.6716408  70.5110797
  72.9439400 121.6034146  85.8545757  72.5506346 121.0500344  86.5293401
  73.7605541 121.9144724  86.2452275  75.8607361 123.0192025  83.4466014
  76.6017075 123.6199178  83.3670476  76.0925284 122.2769663  82.8884056
  79.8064524 119.0473128  77.7230295  79.4628794 119.9374770  77.6469406
  80.1743487 118.8574786  76.8599880  79.7714807 129.0381739  66.2302730
  79.2561430 129.8086344  66.4691118  79.4992115 128.3646875  66.8535792
  77.3561918 123.8831440  71.2887969  76.5003514 123.4938290  71.1093608
  77.7688870 123.9623401  70.4287754  78.8861065 121.4177783  75.6879529
  78.3825860 121.3807918  74.8747334  79.1791671 122.3270526  75.7476185
  75.1303950 121.5016513  74.6945710  75.9956947 121.3059321  74.3351600
  75.1981459 121.2726865  75.6215067  79.5601110 126.9108831  68.0562512
  79.2551246 127.2254980  68.9072655  80.5131552 126.9890251  68.0989845
  72.7366270 123.7318721  72.0662077  73.3110021 123.5093902  71.3335270
  73.3237252 123.8007415  72.8190678  81.7945847 129.6192448  72.8726454
  82.3077728 130.2522439  73.3748163  82.4447071 129.0193643  72.5069814
  73.0635857 125.7623182  66.0857962  72.2273169 126.0997868  66.4067237
  72.9240626 125.6272162  65.1485099  75.0388937 120.6059970  70.7937147
  74.3853350 120.2908987  70.1693761  74.9969411 119.9835710  71.5196969
  78.2726678 127.0941903  75.1184794  77.3549239 127.3156850  74.9606482
  78.6886821 127.1688214  74.2596502  79.0561725 128.4933319  70.2487474
  79.8033544 129.0054716  69.9394596  79.3253315 128.1717372  71.1091868
  81.5040563 125.5290435  72.2306264  80.7663319 125.0167821  72.5616506
  81.7567336 125.0890817  71.4189541  81.6052190 118.3066687  72.8248033
  81.9111067 117.4464051  72.5373948  82.3304795 118.8984307  72.6247027
  75.8773270 128.6020480  73.3324224  75.9321879 127.6494317  73.2566701
  75.0664472 128.7579919  73.8165523  73.8165630 127.2197540  71.0914603
  73.0033495 127.5191710  71.4979795  74.3124624 126.8253229  71.8089085
  79.4139841 127.6839364  79.9229497  79.7689229 127.9110838  80.7823963
  80.0611972 128.0157741  79.3006752  73.3079704 124.7915895  76.7075838
  73.9479084 124.6504655  76.0098801  72.4757235 124.5050409  76.3314440
  70.3922772 128.2361408  68.8970583  69.4620360 128.1745863  69.1140545
  70.4880244 127.7137360  68.1007224  70.3108321 124.7616220  71.4848825
  70.5715138 125.6761554  71.3757985  71.1325493 124.2940663  71.6345438
  71.7833246 126.1753978  78.6547649  72.4556299 125.9671340  78.0060298
  70.9563033 125.9776064  78.2152882  77.6858818 122.8015918  80.6713310
  77.0386733 123.5005868  80.5777787  78.4559833 123.2352062  81.0389558
  77.8622952 130.6396683  78.7310130  78.7915012 130.7907843  78.5579097
  77.4413982 130.7280704  77.8758776  81.1475691 131.3884985  64.1634565
  80.5304862 130.6631813  64.0667618  80.6792179 132.1494345  63.8201639
  74.8143044 129.1616540  78.9033766  75.5242662 128.5209732  78.8620384
  74.7712352 129.4129435  79.8259947  73.5271978 126.1481758  80.7229406
  72.9909335 125.6972496  81.3751002  72.9388686 126.2827667  79.9799870
  72.9374237 125.6070409  63.2855869  72.0603703 125.4859210  62.9218116
  73.4131990 124.8156487  63.0334758  69.2611099 125.2837765  77.8082400
  69.1769288 124.6763435  77.0732810  68.4393806 125.7746784  77.8091896
  79.4334813 123.7691329  73.1752595  79.9303513 123.0161291  72.8553665
  78.6621795 123.8055646  72.6095804  76.0169782 125.9108712  72.9024280
  75.6467569 125.3579752  73.5905185  76.5128874 125.3066845  72.3499280
  83.9037145 128.3680335  71.2841053  84.3697597 129.2008327  71.2101355
  84.3544646 127.9025317  71.9886311  81.8753808 120.7360922  75.3231954
  80.9616888 120.9665149  75.4914161  82.3046909 120.8199367  76.1745986
  81.6460266 128.9250814  77.8231848  80.9931717 129.1726722  77.1684301
  82.0240646 128.1114953  77.4894325  77.6947839 129.6670626  84.3097885
  77.0188476 129.5664755  84.9800260  78.5175473 129.5109839  84.7733882
  71.4135115 123.3212703  79.1477386  71.4776442 124.1827534  78.7354783
  71.3502236 122.7086704  78.4149744  70.8887388 125.3935835  82.7950420
  71.5159427 125.0112913  83.4087944  70.0315307 125.1750037  83.1606113
  67.6652931 127.2012264  68.7268775  67.9606372 126.2922943  68.6735829
  66.7640966 127.1800004  68.4049777  71.1947178 125.2768261  74.7096323
  70.4733763 125.8904229  74.5703797  71.9840433 125.8126026  74.6312969
  73.9973491 122.6122687  80.9836975  74.5207893 122.8584984  81.7463285
  73.7785825 123.4442722  80.5640113  69.3940772 124.8826362  68.8508100
  69.0653478 124.0023741  68.6683206  69.7480143 124.8274031  69.7384489
  72.5082595 125.1699332  69.2183578  72.8478668 125.6985253  68.4962186
  72.9554716 125.5079738  69.9942144  75.2026036 123.5536383  78.6686646
  74.8622857 122.7544196  79.0707326  74.4965043 123.8538093  78.0963479
  75.8542508 120.6385695  77.1213969  76.6768577 120.1646173  76.9992859
  76.0980572 121.4176179  77.6212655  74.4950743 123.6673953  67.4176870
  75.2159105 124.0455206  66.9140587  73.8716047 124.3862830  67.5211848
  78.6381865 124.3719102  68.3535203  78.8545480 125.2543740  68.0524031
  78.1575933 123.9805316  67.6240845  73.3781087 127.3304816  74.9305947
  73.2325668 127.6445119  75.8230229  72.9006290 127.9489716  74.3776846
  75.2377470 124.3207364  74.9786837  75.2239038 123.4248457  74.6419135
  75.9549898 124.3278027  75.6125123  77.0903600 124.7544704  77.0239964
  76.8321378 125.6761774  77.0224295  76.5588641 124.3575138  77.7140428
  74.6414366 123.2021744  70.2474407  74.7630277 122.2738390  70.4465295
  74.3516408 123.2160430  69.3352722  77.5105556 120.8876654  73.3841127
  77.5327253 120.9515987  72.4293106  77.9273615 120.0481163  73.5781633
  74.1255445 124.7153741  84.4564340  74.1743601 125.5915864  84.0742109
  74.6677959 124.1731134  83.8835983  82.0211928 128.0918259  82.3657512
  82.9221791 127.9524724  82.0741510  82.0959903 128.2572714  83.3055689
  76.3554734 125.4685114  81.2110698  75.4858043 125.7618680  80.9393287
  76.5914214 126.0525559  81.9317962  79.0593767 121.6864731  78.7276119
  79.5775711 122.4225758  78.4022607  78.7048900 121.9928724  79.5622878
  70.6392705 126.5469412  66.8437525  69.9461950 126.6213767  66.1877561
  70.3944457 125.7829755  67.3659041  79.3106362 118.1065013  74.2477015
  79.5908115 117.4388202  74.8737442  80.0956969 118.2994109  73.7351679
  83.1815220 126.5282647  77.9948590  84.1332643 126.6280745  78.0160814
  83.0118670 125.7360916  78.5046675  81.2029599 123.6138230  78.1807991
  80.6079532 123.8943243  77.4854480  80.9179296 124.1032131  78.9524732
  77.4986629 128.6184820  63.1518094  78.4445733 128.4891028  63.2206512
  77.1200874 127.8799482  63.6287522  85.8097786 126.5399810  77.1549173
  85.2936835 125.7558267  76.9679102  86.6937735 126.2118527  77.3195693
  83.4708513 120.2840826  73.1144986  83.2733334 119.9755914  73.9988318
  84.0808219 121.0102465  73.2442916  75.6829546 126.5434796  63.0872979
  74.7761001 126.2467909  63.1635693  75.9605527 126.2464614  62.2207266
  77.2991612 121.0871686  69.2417221  76.4892340 120.7418771  69.6172467
  77.9876028 120.7779230  69.8304832  79.2282160 120.1649733  70.8641517
  79.7813198 120.5845186  71.5231540  79.4652246 119.2385481  70.9064473
  75.2515259 126.1536806  86.6444281  75.1511986 127.1031163  86.5756372
  75.0336801 125.8255045  85.7720351  74.4528330 123.4021731  63.2284959
  75.3147494 123.7276630  63.4880776  74.6378675 122.6153227  62.7158024
  82.6060967 122.2750258  70.3720182  82.0259636 122.9335062  69.9898234
  82.3396900 121.4527602  69.9607599  81.0564533 121.6755316  72.5741502
  81.5564312 121.7871850  71.7655821  81.7000141 121.3716368  73.2142310
  81.3885845 124.4350348  69.4276530  80.5011700 124.7199999  69.2096725
  81.8039834 124.2744112  68.5803807  84.7400381 124.4596869  73.1430869
  85.5160771 124.9493322  73.4155486  84.0148515 124.8854923  73.6002739
  87.1772940 125.1724488  74.2004810  87.7717430 124.9320224  73.4898118
  87.2499523 124.4531619  74.8278346  81.3626869 129.9504884  69.6426820
  81.3062070 130.4073436  68.8034452  81.9155211 129.1895569  69.4649663
  85.1731675 125.7394616  70.4676939  84.9168609 125.3391252  71.2985147
  84.5484543 126.4538410  70.3427079  82.0961648 131.1409665  66.9379349
  82.0410452 130.9753937  65.9967793  81.4707703 131.8485698  67.0941539
  66.8854163 126.3777730  80.7640771  67.5313027 125.8676684  81.2527997
  66.6771314 127.1146411  81.3384197  75.4057773 120.6417774  66.5164668
  75.3936443 121.5859614  66.6732938  76.2981195 120.4587920  66.2224129
  79.2209893 117.2360551  70.7710604  78.4542289 116.6819038  70.9167287
  79.6320598 117.3082420  71.6324756  71.2251654 123.5245347  84.8615786
  72.0883116 123.1682152  85.0719110  70.6517065 123.1859242  85.5491190
  15.1943751  14.8565902  62.3923493  15.8322161  14.7372649  61.6886833
  15.0764594  15.8046746  62.4511445  12.0033457  14.8093330  62.3285018
  11.6651969  14.6934395  61.4405553  12.8723225  14.4084495  62.3086024
   7.8620273  16.6628807  58.3181909   7.2985138  16.5718744  57.5498197
   7.7472668  15.8428711  58.7984401  12.4853240  15.9628182  68.2871223
  12.4741881  15.5680980  67.4151727  12.6473879  15.2294255  68.8804995
   5.4084705  18.1579998  61.1566129   6.2005997  17.8170823  60.7412429
   5.6481355  18.2674973  62.0768283  13.4419831  20.3299774  53.6296374
  12.7907811  20.9153855  53.2430388  14.2364194  20.8605969  53.6891411
   7.3675459  17.4188911  54.0283508   8.1406335  16.8717899  53.8896384
   7.7200857  18.2833161  54.2397969   9.2060501  18.7465294  67.2350407
   8.9150367  19.6510925  67.1197074   9.8417485  18.7881821  67.9494477
  10.1316708  16.1242142  63.8251767  10.7280280  15.8998165  63.1108730
  10.1891680  15.3826888  64.4277215   9.7041736  13.5781578  51.6601958
   9.9567257  13.0563099  50.8985421   8.7666295  13.4147723  51.7628642
  14.7485019  12.5817356  59.4676701  15.5348108  12.1636779  59.1167118
  15.0123724  13.4863448  59.6358350  14.9195097  18.0190206  54.1665358
  14.2840930  18.0924833  54.8786263  14.5892503  18.6083805  53.4884437
  20.1493446  12.5192589  60.3709680  20.8818618  11.9491806  60.6047509
  19.3932802  12.1314190  60.8116185   9.4238025  15.4809684  53.8626333
   9.3074283  14.8054587  54.5307417   9.5340285  14.9942057  53.0458486
  11.7669566  14.9419831  57.5673022  11.4027773  14.4150452  58.2785944
  12.6236682  14.5518300  57.3939508  14.1650386  18.4326709  64.2300201
  13.8651109  19.3351748  64.1216008  13.8201446  18.1658892  65.0821354
   7.6162868  14.8840506  60.2636906   6.6913364  14.7516720  60.4714597
   7.8647281  15.6634725  60.7606848  17.5647530  10.9509249  61.9097638
  16.6564407  10.8824658  61.6156399  17.5135126  11.4281194  62.7379464
  11.3864274  12.4267388  53.5481038  11.2663899  12.8724439  54.3866518
  10.6916862  12.7752706  52.9894576   9.1471166  25.1971030  57.1971169
   9.0695196  26.1478855  57.2759649   8.5432810  24.8516902  57.8546095
  11.6388396  12.3698895  69.8532536  10.8621730  12.9292815  69.8435400
  12.2778959  12.8555678  70.3747406  19.4309176   9.1525688  63.6875512
  18.7883557   9.4458221  63.0415307  18.9264105   9.0378608  64.4928709
  17.0849340  12.8988861  54.3761372  17.9967196  13.1316248  54.2009069
  16.5758987  13.4825905  53.8136450   9.8934768  15.1784348  69.4150503
  10.6349452  15.7169392  69.1385326   9.1871754  15.8050637  69.5722054
  15.3690108  17.3213489  68.0122664  15.7773464  16.8795899  67.2677297
  14.6467369  16.7466116  68.2656857  11.7221178  12.2586096  65.3856221
  12.5682373  12.6825509  65.5290870  11.6619815  11.6019720  66.0794784
  15.6918922  17.8814679  61.7674953  15.0627785  18.0460394  61.0651021
  15.3044584  18.2956289  62.5385917  19.5708154  18.8169117  59.1219317
  18.8859192  19.1968019  58.5716350  19.6552004  19.4264444  59.8551265
  14.8720623   9.9190464  67.0437395  14.6281555  10.6732525  66.5071670
  15.1480554  10.2975812  67.8784642  16.8259086  16.4629076  65.7214660
  17.0375981  17.1060836  65.0449041  16.7788834  15.6291393  65.2536590
  14.4285315   9.0746897  62.6251232  13.5669794   9.3728151  62.9167970
  14.4547749   9.2917296  61.6932265  11.2446884  17.6189088  59.0325038
  11.7085230  17.8976791  58.2429661  10.9803682  16.7172532  58.8498129
   8.1370965  17.1660569  61.9704801   8.7072322  17.5947837  61.3322286
   8.7279077  16.8843154  62.6688987  10.1815770  13.7412240  55.8414603
  10.8839814  14.1933284  56.3088530   9.8496399  13.0996059  56.4694496
  17.9404914  19.3401032  63.8937018  18.7622358  18.9381219  63.6119699
  17.9367317  19.2369266  64.8453133  11.7061517  18.8885075  66.0497728
  11.7705950  19.3505482  66.8855900  10.9972441  18.2582440  66.1780038
  26.0310907  15.6839780  60.2421989  25.2774615  15.1147178  60.0865994
  26.1658448  15.6502445  61.1892624  11.4209535  20.5553183  55.9176709
  11.2855210  21.4004718  56.3461556  11.9619347  20.7572460  55.1542642
   4.8738932  18.0728621  56.4904634   5.3863453  18.8671871  56.6410198
   5.5261645  17.3754911  56.4238235   6.6833817  21.1894377  58.5727387
   6.8600445  22.1112342  58.3848371   7.4790651  20.8752796  59.0021767
  13.0478011  21.1776749  70.0477051  12.6041865  20.3913128  69.7297955
  13.7095225  21.3655900  69.3820941   7.8065132  22.7072551  64.5737729
   8.3572558  22.5789614  63.8014723   6.9676608  23.0067440  64.2232622
  15.1459249  21.4579549  68.0758452  15.1277725  22.2788430  67.5838721
  16.0679169  21.3333624  68.3008593  11.6032304  18.9723678  68.9181960
  12.1360640  18.2111967  68.6881268  11.0746385  18.6797330  69.6606115
  14.7352281  14.0692356  52.9548037  14.2198905  14.8396960  53.1936424
  14.4629590  13.3957492  53.5781099  19.7086555  16.8224710  54.8901211
  18.9315998  16.4835870  54.4456373  20.3878036  16.8277333  54.2156176
  14.5238584  11.9419448  54.7807818  14.2188720  12.2565597  55.6317961
  15.4769027  12.0200868  54.8235151  12.9685016  18.1009671  56.4300772
  12.4406378  17.3662431  56.1174010  12.4672519  18.8784347  56.1840741
  17.9477862  16.2958691  61.5467819  17.2901537  16.9857953  61.6347947
  18.7518261  16.6855123  61.8901805  16.7583321  14.6503064  59.5971760
  17.2715203  15.2833056  60.0993470  17.4084545  14.0504260  59.2315120
  11.1137616  15.9189881  49.4335745  10.2064678  15.6879135  49.6326894
  11.6108648  15.1227500  49.6209727  14.0205695  24.6287388  52.3532431
  13.3467394  24.9319085  52.9617389  14.4071517  25.4316469  52.0037889
  13.2364152  12.1252520  61.8430101  12.3186713  12.3467467  61.6851789
  13.6524296  12.1998830  60.9841808  14.0199200  13.5243935  56.9732781
  14.7671019  14.0365333  56.6639903  14.2890789  13.2027988  57.8337175
  12.2925850  16.0202476  53.9559735  11.3837069  15.7361509  54.0532205
  12.3220934  16.4401555  53.0963042  17.5245117  19.6309066  57.7250903
  17.0707444  18.7899975  57.7816093  16.8939084  20.2670464  58.0625683
  16.4678037  10.5601052  58.9551570  15.7300794  10.0478438  59.2861813
  16.7204810  10.1201433  58.1434847  15.9678057  21.4685562  58.6600721
  16.2601031  22.0290619  57.9413087  16.4776677  21.7614123  59.4153880
  10.8410744  13.6331097  60.0569531  10.8959354  12.6804933  59.9812007
  10.0301946  13.7890536  60.5410829  11.9901938  17.5611220  51.2947814
  11.5521368  16.8447079  50.8353451  12.7312379  17.7887335  50.7332905
  10.9311682  22.2465913  59.7494174  10.8887860  22.4726760  58.8202706
  11.8474381  22.0129288  59.8979975  14.3777316  12.7149981  66.6474803
  14.7326703  12.9421454  67.5069269  15.0249447  13.0468358  66.0252059
  20.1075052  15.8368417  57.3524133  19.9692951  16.0270013  56.4245322
  19.7511271  16.5987800  57.8092184  20.1344432  17.9044944  62.3635404
  20.5680939  17.8120233  63.2118458  20.8476013  17.8802444  61.7255420
   9.0477482  19.1228942  59.5456137   9.8418081  18.6279263  59.3438712
   8.3369175  18.5946806  59.1823843  13.8672327  21.5047038  63.8968505
  13.9209349  22.0737974  64.6646221  12.9987108  21.6748923  63.5322542
  20.9959982  17.9468644  64.8968289  21.1895872  18.8514455  65.1427564
  20.8960600  17.4876064  65.7306874  16.0575090  18.0975387  70.4709170
  15.9060597  17.8685939  69.5539254  16.0479770  19.0545989  70.4840515
  12.8260427  15.6707300  65.4555436  13.7552487  15.8218460  65.2824404
  12.4051457  15.7591321  64.6004083  11.6248758  19.6957964  63.2253974
  11.4859844  19.3276749  64.0979912  10.8363355  20.2105604  63.0537932
  12.2196910  24.7967061  54.5679511  12.3948666  24.3255104  55.3825133
  11.5329698  25.4232827  54.7960771  13.1753974  19.0739567  60.6142812
  12.8403806  19.0340337  61.5100462  12.6757919  18.4084283  60.1413222
   7.1498218  14.4807197  66.1395393   7.0118016  13.7487436  66.7406932
   8.0603141  14.3916097  65.8579581  16.1113165  16.4195601  50.8879872
  15.4942336  15.6942430  50.7912924  15.6429654  17.1804962  50.5446946
   9.7780518  14.1927156  65.6279073  10.4880137  13.5520349  65.5865691
   9.7349826  14.4440051  66.5505253  17.7667297  21.1294510  68.5485652
  17.7079843  20.4453730  67.8816235  18.1686815  21.8713500  68.0966278
   6.7857996  27.9456424  61.3419371   7.0254594  28.5774948  62.0198389
   5.9427192  27.5944464  61.6284730  17.7684704  19.0934094  66.7799632
  16.8811483  18.7560015  66.9026030  18.3383255  18.3617125  67.0168397
  11.2985858  23.7535546  63.7460875  11.2256029  24.5590518  64.2580179
  10.8563251  23.9527512  62.9208896  11.0875637  22.9907316  57.2563696
  10.3043159  23.5328996  57.3501921  11.7868382  23.5081296  57.6557937
  14.3972287   8.8001946  59.8997902  14.8940987   8.0471908  59.5798972
  13.6259269   8.8366262  59.3341111  22.2502045  14.5042311  61.5416193
  22.2391921  15.3867026  61.1710126  21.3819424  14.1513862  61.3470730
  13.7584541  23.6522380  65.9019033  14.4712513  24.2869845  65.8294935
  13.2674570  23.7486246  65.0859035  15.4802068  17.5573633  57.4736325
  14.5458347  17.6775095  57.3041029  15.6578736  16.6546100  57.2096335
  18.8674619  13.3990952  58.0086359  19.3335072  14.2318944  57.9346662
  19.3182120  12.9335934  58.7131618   8.8096455  21.4016824  66.7224604
   9.5105914  22.0353307  66.8753998   8.3391570  21.7431555  65.9620244
  16.9350850  19.7434773  55.0072511  17.2110694  19.6291368  55.9166385
  16.0655349  19.3452258  54.9684684  16.6097741  13.9561431  64.5477155
  15.9569191  14.2037338  63.8929607  16.9878121  13.1425569  64.2139632
  13.5704914  23.9921124  58.6505325  13.7527309  23.1742780  59.1133077
  14.3937901  24.2088816  58.2130215  13.9047080  22.9189309  55.9120373
  14.4334846  22.4081764  55.2990535  14.1675300  22.6031840  56.7765906
  12.6585314  14.6981242  71.0343192  11.9825951  14.5975371  71.7045567
  13.4812948  14.5420456  71.4979189   4.4064173  20.9353179  63.6555707
   4.9917610  20.1896866  63.7883611   4.2089011  21.2457135  64.5392371
   7.2602828  23.9704426  58.6718149   6.5913203  24.4550554  58.1882189
   7.1215698  24.2173646  59.5861528  11.4008097  26.0048169  65.2700808
  11.9526405  26.1679791  66.0349893  11.7414290  26.5952607  64.5980833
  16.2518971  20.8309427  71.1249462  16.7958875  21.4439385  70.6304417
  15.6705816  21.3889005  71.6416475  14.5376484  23.9530145  62.2564490
  14.4127623  23.1519885  61.7475435  15.1955575  24.4476338  61.7678460
  16.6011392  21.7539165  63.8844040  15.6541728  21.6344516  63.8122367
  16.9494165  20.8661663  63.9670301  13.6057825  21.5491881  60.0848392
  13.4582788  20.6208589  60.2655962  14.4311319  21.5711972  59.6005467
  17.2091947  22.3720440  61.1713265  18.1338495  22.1663301  61.0337716
  17.0407251  22.1236841  62.0802606  16.9987264  22.8906107  56.5275356
  17.1724141  22.3252530  55.7749209  17.4916155  23.6907002  56.3454846
  22.8526655  15.6542530  58.1465656  23.2957801  14.9049856  57.7484779
  21.9753165  15.6452667  57.7639388  17.9862436  22.2072872  53.6272255
  18.6813341  22.8279565  53.8459569  18.3285586  21.3568223  53.9024633
  19.8853859  19.6572577  55.1559585  20.4105183  19.9959850  54.4308905
  19.7976212  18.7219593  54.9722720  11.5473908  23.5706651  67.2849462
  11.8561034  23.3255798  68.1572162  12.3449390  23.7753290  66.7968332
  11.5694520  25.7244561  59.5154839  11.1299510  25.2320939  60.2087695
  12.3202637  25.1817528  59.2746914   4.0486859  21.9156102  59.5179467
   4.8744879  21.6159873  59.1378110   3.6980911  21.1463724  59.9669255
   9.0168392  21.2682570  61.5877140   8.3948401  20.6053275  61.2879368
   9.6873259  21.2943702  60.9050788   2.2495464  19.8342428  60.4768400
   1.4127372  19.4064602  60.2952402   2.2219109  20.0274871  61.4139191
  19.5747765  20.2905481  70.4610783  18.7843309  20.2729620  69.9215283
  19.3381120  20.8293775  71.2159820  19.6945640  17.1397947  67.7743512
  19.7443645  16.9747955  68.7159035  19.5859564  16.2725206  67.3841393
   8.5781899  19.8186493  55.0635601   8.7270019  20.5021958  54.4102274
   9.3848342  19.7991583  55.5785057  16.9849403  13.1228875  69.0902819
  17.8859265  12.9835340  68.7986816  17.0597377  13.2883330  70.0300996
  21.1963837  19.5594889  68.0185533  20.9048645  19.9224870  68.8548994
  20.5835968  18.8461897  67.8398866  22.3959519  17.1247769  60.5388104
  23.2306411  17.5637573  60.7025664  22.5318648  16.6486422  59.7196349
  19.4451025  14.6827504  66.4865591  19.9205147  14.8755150  65.6784443
  18.5216591  14.7386689  66.2408975   6.3334532  15.8451671  56.0696670
   6.0880574  14.9414001  56.2676880   6.5030446  15.8468821  55.1276148
  12.0777304  22.3134624  52.5347348  11.5051272  22.9324811  52.0817820
  12.6510098  22.8633985  53.0687270  18.1452694  11.5593264  64.7193897
  19.0970117  11.6591361  64.7406121  17.9756145  10.7671532  65.2291981
  16.1667074   8.6448847  64.9053298  15.5717006   8.9253860  64.2099787
  15.8816770   9.1342748  65.6770039  15.2974564  22.5971774  53.6655931
  16.2305237  22.5317335  53.8688806  15.2097777  23.4328041  53.2070463
  17.9262581  21.9137644  50.6259878  17.8476212  21.5797508  51.5195636
  18.7472248  22.4059412  50.6251350  20.6240772  14.7799383  63.8336197
  20.5917092  13.8415384  64.0195881  21.2341396  14.8583420  63.1002022
  12.4624103  13.6495436  49.8763401  13.4083208  13.5201644  49.9451819
  12.0838348  12.9110098  50.3532829  20.7735261  11.5710427  63.8794480
  20.2574309  10.7868883  63.6924409  21.6575209  11.2429143  64.0440999
  26.4417322  15.8415390  62.9742233  27.1720710  15.5800678  63.5349937
  25.8324267  15.1044112  63.0144301  24.5232619  13.9823253  63.5716685
  23.7965783  13.8479218  62.9633176  24.1079906  14.2900081  64.3773403
  12.3462796  17.7013182  71.3364058  13.2665805  17.8791781  71.5304104
  12.3112379  16.7569228  71.1843757   5.3424868  15.6114217  63.9786839
   5.5610878  16.5431325  63.9974873   5.7550642  15.2522192  64.7641643
  17.5698441   7.3060874  57.0965488  16.9897110   7.9645678  56.7143541
  17.3034374   6.4838219  56.6852906  10.0784003  14.6144562  72.1854649
   9.5951085  15.4144922  72.3918538  10.1644942  14.6252507  71.2322093
   3.3469963  16.4472941  60.1076469   3.3240651  16.5460629  59.1558352
   3.6570600  17.2938092  60.4293635   6.0057341  18.5049096  64.2223083
   6.9600594  18.4733039  64.1553015   5.8069864  18.0439720  65.0373309
   6.5956723  17.0750212  66.7893881   7.4149612  17.5694291  66.8128718
   6.8693531  16.1582181  66.7611448  16.3523319   9.4660965  56.1521836
  15.4649174   9.7510615  55.9342031  16.7677308   9.3054728  55.3049113
  19.7037855   9.4907486  59.8676176  20.4798245   9.9803938  60.1400792
  18.9785990   9.9165540  60.3248045  22.1410414  10.2035105  60.9250116
  22.7354905   9.9630841  60.2143425  22.2136998   9.4842236  61.5523653
   4.3607570  24.0468716  61.2393281   4.2262038  23.2869117  60.6731279
   3.9439632  24.7709616  60.7722070  15.4966533  19.2305639  50.2469856
  16.2002383  19.4355642  50.8627512  14.7729181  19.7982401  50.5118940
  16.3264343  14.9815501  56.3672127  16.2699544  15.4384052  55.5279759
  16.8792685  14.2206185  56.1894969  20.1369149  10.7705233  57.1922246
  19.8806083  10.3701868  58.0230454  19.5122017  11.4849027  57.0672385
  24.4481487  13.5101306  59.6993537  23.8881045  13.5794495  60.4725100
  23.8424990  13.3342290  58.9793034   7.5176696  24.9438033  61.4511724
   7.4009080  25.8883465  61.3490414   6.6969142  24.6411595  61.8397523
  17.4053230  19.6688169  52.2968316  18.2398834  19.2369367  52.1145791
  17.2437573  19.4970182  53.2245211  17.0599122  16.1720282  53.6624656
  17.0047926  16.0064553  52.7213100  16.4345178  16.8796315  53.8186845
  14.3745029  18.4769194  72.9878219  15.2436189  18.6509846  72.6264853
  13.8951781  19.2963611  72.8653948   8.5431210  25.5966295  64.6667652
   9.4458456  25.6289905  64.9834147   8.3168580  24.6666746  64.6813988
  10.2984812  24.3497281  61.3277731   9.3480443  24.3499143  61.2142103
  10.6017298  23.6030016  60.8113765  26.0337505  30.1857820  62.3923493
  26.6715915  30.0664567  61.6886833  25.9158348  31.1338664  62.4511445
  22.8427211  30.1385248  62.3285018  22.5045723  30.0226313  61.4405553
  23.7116980  29.7376413  62.3086024  18.7014027  31.9920724  58.3181909
  18.1378892  31.9010661  57.5498197  18.5866422  31.1720629  58.7984401
  23.3246994  31.2920100  68.2871223  23.3135635  30.8972898  67.4151727
  23.4867634  30.5586172  68.8804995  16.2478459  33.4871916  61.1566129
  17.0399751  33.1462741  60.7412429  16.4875109  33.5966891  62.0768283
  24.2813586  35.6591692  53.6296374  23.6301566  36.2445772  53.2430388
  25.0757949  36.1897887  53.6891411  18.2069213  32.7480829  54.0283508
  18.9800089  32.2009816  53.8896384  18.5594612  33.6125078  54.2397969
  20.0454256  34.0757211  67.2350407  19.7544122  34.9802842  67.1197074
  20.6811240  34.1173739  67.9494477  20.9710462  31.4534060  63.8251767
  21.5674035  31.2290082  63.1108730  21.0285434  30.7118805  64.4277215
  20.5435491  28.9073495  51.6601958  20.7961012  28.3855017  50.8985421
  19.6060050  28.7439641  51.7628642  25.5878774  27.9109274  59.4676701
  26.3741863  27.4928697  59.1167118  25.8517478  28.8155366  59.6358350
  25.7588851  33.3482124  54.1665358  25.1234684  33.4216750  54.8786263
  25.4286257  33.9375723  53.4884437  30.9887201  27.8484507  60.3709680
  31.7212373  27.2783724  60.6047509  30.2326557  27.4606107  60.8116185
  20.2631780  30.8101601  53.8626333  20.1468038  30.1346505  54.5307417
  20.3734040  30.3233975  53.0458486  22.6063321  30.2711748  57.5673022
  22.2421528  29.7442369  58.2785944  23.4630436  29.8810217  57.3939508
  28.5112621  21.5606081  64.8304288  28.1795946  22.4301492  64.6065503
  27.9158235  21.2442365  65.5098319  22.2468808  25.3001648  52.5634371
  22.4143210  26.1681884  52.9304842  22.0565977  25.4628930  51.6395660
  25.0044141  33.7618627  64.2300201  24.7044864  34.6643666  64.1216008
  24.6595200  33.4950810  65.0821354  18.4556622  30.2132424  60.2636906
  17.5307119  30.0808638  60.4714597  18.7041035  30.9926643  60.7606848
  28.4041285  26.2801167  61.9097638  27.4958162  26.2116576  61.6156399
  28.3528880  26.7573112  62.7379464  22.2258028  27.7559306  53.5481038
  22.1057654  28.2016356  54.3866518  21.5310617  28.1044623  52.9894576
  15.8165433  29.8565697  61.0980695  15.9457814  30.1100176  62.0120106
  15.1362885  30.4493405  60.7785350  19.9864921  40.5262947  57.1971169
  19.9088950  41.4770772  57.2759649  19.3826564  40.1808820  57.8546095
  22.4782150  27.6990813  69.8532536  21.7015484  28.2584733  69.8435400
  23.1172713  28.1847596  70.3747406  30.2702931  24.4817606  63.6875512
  29.6277311  24.7750139  63.0415307  29.7657859  24.3670526  64.4928709
  27.9243095  28.2280779  54.3761372  28.8360951  28.4608165  54.2009069
  27.4152742  28.8117823  53.8136450  20.7328523  30.5076266  69.4150503
  21.4743207  31.0461310  69.1385326  20.0265508  31.1342555  69.5722054
  26.2083862  32.6505407  68.0122664  26.6167218  32.2087817  67.2677297
  25.4861124  32.0758034  68.2656857  22.5614932  27.5878013  65.3856221
  23.4076127  28.0117427  65.5290870  22.5013570  26.9311638  66.0794784
  26.5312677  33.2106597  61.7674953  25.9021539  33.3752311  61.0651021
  26.1438339  33.6248207  62.5385917  30.4101909  34.1461035  59.1219317
  29.7252947  34.5259936  58.5716350  30.4945758  34.7556362  59.8551265
  25.7114378  25.2482382  67.0437395  25.4675309  26.0024442  66.5071670
  25.9874308  25.6267729  67.8784642  27.6652840  31.7920994  65.7214660
  27.8769736  32.4352754  65.0449041  27.6182589  30.9583311  65.2536590
  25.2679069  24.4038815  62.6251232  24.4063548  24.7020068  62.9167970
  25.2941504  24.6209214  61.6932265  22.0840639  32.9481005  59.0325038
  22.5478984  33.2268708  58.2429661  21.8197437  32.0464450  58.8498129
  18.9764720  32.4952487  61.9704801  19.5466077  32.9239755  61.3322286
  19.5672832  32.2135071  62.6688987  21.0209525  29.0704158  55.8414603
  21.7233568  29.5225201  56.3088530  20.6890153  28.4287976  56.4694496
  19.4689886  27.6615914  70.2165813  18.8388547  28.3432195  70.4501209
  19.3625974  27.5498996  69.2718951  14.7634859  27.3287710  61.1431737
  13.9733913  27.5845239  60.6671847  15.2546106  28.1436048  61.2483777
  28.7798668  34.6692949  63.8937018  29.6016112  34.2673137  63.6119699
  28.7761071  34.5661184  64.8453133  16.7149604  27.6932290  58.1015214
  15.9180767  27.8050984  58.6198709  16.4875196  28.0318942  57.2356104
  22.5455272  34.2176993  66.0497728  22.6099704  34.6797400  66.8855900
  21.8366196  33.5874358  66.1780038  13.0472562  27.5818201  63.5746728
  13.2980600  28.4665211  63.8404304  13.5832110  27.4022802  62.8021819
  36.8704661  31.0131698  60.2421989  36.1168370  30.4439096  60.0865994
  37.0052203  30.9794362  61.1892624  22.2603289  35.8845100  55.9176709
  22.1248964  36.7296636  56.3461556  22.8013102  36.0864378  55.1542642
  18.7470629  21.9636680  72.5791064  18.3537575  21.4102879  73.2538708
  19.5636769  22.2747259  72.9697581  15.7132687  33.4020538  56.4904634
  16.2257207  34.1963789  56.6410198  16.3655400  32.7046829  56.4238235
  17.5227572  36.5186295  58.5727387  17.6994200  37.4404259  58.3848371
  18.3184405  36.2044714  59.0021767  21.6638590  23.3794559  70.1711320
  22.4048303  23.9801712  70.0915783  21.8956513  22.6372197  69.6129363
  16.8079928  28.5650926  68.4489550  16.6933443  27.6636184  68.7496649
  15.9524446  28.8114623  68.0974367  23.8871766  36.5068667  70.0477051
  23.4435620  35.7205045  69.7297955  24.5488979  36.6947817  69.3820941
  18.6458887  38.0364468  64.5737729  19.1966312  37.9081532  63.8014723
  17.8070363  38.3359357  64.2232622  25.9853004  36.7871467  68.0758452
  25.9671479  37.6080348  67.5838721  26.9072924  36.6625542  68.3008593
  22.4426058  34.3015596  68.9181960  22.9754395  33.5403884  68.6881268
  21.9140139  34.0089248  69.6606115  25.6095753  19.4075662  64.4475602
  25.2660022  20.2977304  64.3714713  25.9774716  19.2177320  63.5845187
  13.6781604  31.7309193  57.2664204  14.5156826  32.1406201  57.0497912
  13.8559871  30.7908635  57.2364398  25.5746036  29.3984273  52.9548037
  25.0592659  30.1688878  53.1936424  25.3023344  28.7249409  53.5781099
  23.1593147  24.2433974  58.0133275  22.3034743  23.8540824  57.8338914
  23.5720099  24.3225935  57.1533061  24.6892293  21.7780317  62.4124835
  24.1857089  21.7410452  61.5992641  24.9822900  22.6873060  62.4721492
  20.9335179  21.8619047  61.4191017  21.7988176  21.6661856  61.0596906
  21.0012688  21.6329399  62.3460374  30.5480310  32.1516628  54.8901211
  29.7709753  31.8127787  54.4456373  31.2271791  32.1569251  54.2156176
  25.3632339  27.2711365  54.7807818  25.0582474  27.5857514  55.6317961
  26.3162781  27.3492785  54.8235151  23.8078771  33.4301589  56.4300772
  23.2800132  32.6954348  56.1174010  23.3066273  34.2076265  56.1840741
  28.7871617  31.6250609  61.5467819  28.1295291  32.3149871  61.6347947
  29.5912016  32.0147041  61.8901805  18.5397498  24.0921255  58.7907384
  19.1141250  23.8696436  58.0580577  19.1268481  24.1609949  59.5435985
  27.5977076  29.9794982  59.5971760  28.1108957  30.6124974  60.0993470
  28.2478299  29.3796177  59.2315120  18.8667085  26.1225716  52.8103269
  18.0304398  26.4600402  53.1312544  18.7271855  25.9874696  51.8730406
  20.8420166  20.9662504  57.5182453  20.1884578  20.6511521  56.8939068
  20.8000640  20.3438244  58.2442276  21.9531371  31.2481799  49.4335745
  21.0458433  31.0171052  49.6326894  22.4502403  30.4519418  49.6209727
  24.8599450  39.9579306  52.3532431  24.1861149  40.2611003  52.9617389
  25.2465272  40.7608386  52.0037889  24.0757906  27.4544437  61.8430101
  23.1580468  27.6759384  61.6851789  24.4918050  27.5290748  60.9841808
  24.8592954  28.8535853  56.9732781  25.6064773  29.3657250  56.6639903
  25.1284544  28.5319906  57.8337175  23.1319604  31.3494394  53.9559735
  22.2230824  31.0653427  54.0532205  23.1614688  31.7693472  53.0963042
  28.3638872  34.9600983  57.7250903  27.9101199  34.1191893  57.7816093
  27.7332838  35.5962382  58.0625683  27.3071791  25.8892969  58.9551570
  26.5694548  25.3770356  59.2861813  27.5598565  25.4493351  58.1434847
  26.8071811  36.7977480  58.6600721  27.0994785  37.3582537  57.9413087
  27.3170432  37.0906041  59.4153880  27.4083419  18.6669221  59.5493340
  27.7142295  17.8066585  59.2619255  28.1336023  19.2586841  59.3492334
  13.7007775  29.0699908  57.9374938  13.5032175  28.4769269  57.2126004
  13.1454439  28.7652118  58.6550876  21.6804498  28.9623014  60.0569531
  21.7353108  28.0096851  59.9812007  20.8695700  29.1182453  60.5410829
  22.8295692  32.8903137  51.2947814  22.3915122  32.1738996  50.8353451
  23.5706133  33.1179252  50.7332905  19.6196858  27.5800074  57.8159910
  18.8064724  27.8794245  58.2225102  20.1155852  27.1855763  58.5334392
  21.7705436  37.5757831  59.7494174  21.7281615  37.8018677  58.8202706
  22.6868135  37.3421206  59.8979975  25.2171070  28.0441899  66.6474803
  25.5720458  28.2713372  67.5069269  25.8643201  28.3760275  66.0252059
  30.9468807  31.1660334  57.3524133  30.8086706  31.3561930  56.4245322
  30.5905026  31.9279717  57.8092184  19.1110933  25.1518430  63.4321145
  19.7510312  25.0107189  62.7344108  18.2788464  24.8652943  63.0559747
  30.9738187  33.2336861  62.3635404  31.4074693  33.1412151  63.2118458
  31.6869767  33.2094362  61.7255420  19.8871237  34.4520860  59.5456137
  20.6811835  33.9571180  59.3438712  19.1762929  33.9238723  59.1823843
  24.7066081  36.8338956  63.8968505  24.7603104  37.4029892  64.6646221
  23.8380863  37.0040841  63.5322542  16.1954000  28.5963942  55.6215890
  15.2651589  28.5348397  55.8385852  16.2911472  28.0739895  54.8252531
  16.1139549  25.1218755  58.2094131  16.3746367  26.0364088  58.1003292
  16.9356722  24.6543197  58.3590744  17.5864475  26.5356512  65.3792956
  18.2587528  26.3273874  64.7305605  16.7594261  26.3378598  64.9398188
  31.8353736  33.2760562  64.8968289  32.0289626  34.1806373  65.1427564
  31.7354354  32.8167981  65.7306874  23.4890047  23.1618453  67.3958617
  22.8417962  23.8608402  67.3023093  24.2591062  23.5954597  67.7634865
  26.8968845  33.4267305  70.4709170  26.7454351  33.1977857  69.5539254
  26.8873524  34.3837906  70.4840515  23.6654181  30.9999218  65.4555436
  24.5946241  31.1510377  65.2824404  23.2445211  31.0883238  64.6004083
  22.4642513  35.0249882  63.2253974  22.3253599  34.6568666  64.0979912
  21.6757109  35.5397521  63.0537932  23.0590665  40.1258979  54.5679511
  23.2342421  39.6547022  55.3825133  22.3723453  40.7524745  54.7960771
  24.0147728  34.4031485  60.6142812  23.6797561  34.3632255  61.5100462
  23.5151674  33.7376201  60.1413222  17.9891972  29.8099115  66.1395393
  17.8511770  29.0779354  66.7406932  18.8996896  29.7208015  65.8579581
  26.9506920  31.7487519  50.8879872  26.3336090  31.0234347  50.7912924
  26.4823408  32.5096879  50.5446946  20.6174273  29.5219074  65.6279073
  21.3273891  28.8812266  65.5865691  20.5743581  29.7731969  66.5505253
  28.6061051  36.4586427  68.5485652  28.5473598  35.7745648  67.8816235
  29.0080570  37.2005417  68.0966278  19.3303207  26.5084292  67.4474712
  18.7940564  26.0575030  68.0996308  18.7419915  26.6430201  66.7045177
  17.6251750  43.2748341  61.3419371  17.8648348  43.9066865  62.0198389
  16.7820947  42.9236381  61.6284730  18.7405466  25.9672943  50.0101176
  17.8634932  25.8461744  49.6463422  19.2163219  25.1759022  49.7580064
  28.6078459  34.4226011  66.7799632  27.7205237  34.0851933  66.9026030
  29.1777010  33.6909043  67.0168397  10.2607606  30.7550103  60.1042683
  10.9478646  30.4411833  59.5163698  10.1055734  31.6591468  59.8309934
  15.0642328  25.6440300  64.5327707  14.9800517  25.0365969  63.7978117
  14.2425034  26.1349318  64.5337203  22.1379612  39.0827464  63.7460875
  22.0649784  39.8882435  64.2580179  21.6957005  39.2819430  62.9208896
  21.9269392  38.3199234  57.2563696  21.1436914  38.8620914  57.3501921
  22.6262137  38.8373213  57.6557937  25.2366042  24.1293863  59.8997902
  25.7334741  23.3763826  59.5798972  24.4653023  24.1658180  59.3341111
  33.0895799  29.8334229  61.5416193  33.0785675  30.7158944  61.1710126
  32.2213179  29.4805780  61.3470730  24.5978296  38.9814298  65.9019033
  25.3106268  39.6161763  65.8294935  24.1068324  39.0778164  65.0859035
  26.3195823  32.8865550  57.4736325  25.3852101  33.0067013  57.3041029
  26.4972491  31.9838017  57.2096335  21.8201011  26.2711246  59.6269586
  21.4498798  25.7182287  60.3150492  22.3160103  25.6669380  59.0744586
  29.7068374  28.7282870  58.0086359  30.1728826  29.5610861  57.9346662
  30.1575874  28.2627851  58.7131618  19.6490209  36.7308741  66.7224604
  20.3499669  37.3645224  66.8753998  19.1785324  37.0723473  65.9620244
  27.7744605  35.0726691  55.0072511  28.0504449  34.9583286  55.9166385
  26.9049104  34.6744176  54.9684684  27.6785037  21.0963457  62.0477261
  26.7648116  21.3267684  62.2159468  28.1078138  21.1801901  62.8991293
  27.4491495  29.2853349  64.5477155  26.7962945  29.5329256  63.8929607
  27.8271875  28.4717487  64.2139632  24.4098669  39.3213042  58.6505325
  24.5921064  38.5034698  59.1133077  25.2331655  39.5380734  58.2130215
  24.7440834  38.2481227  55.9120373  25.2728601  37.7373682  55.2990535
  25.0069054  37.9323757  56.7765906  23.4979068  30.0273160  71.0343192
  22.8219705  29.9267289  71.7045567  24.3206702  29.8712373  71.4979189
  15.2457927  36.2645096  63.6555707  15.8311364  35.5188784  63.7883611
  15.0482766  36.5749053  64.5392371  18.0996582  39.2996344  58.6718149
  17.4306958  39.7842471  58.1882189  17.9609452  39.5465564  59.5861528
   9.8375582  28.8350696  62.3760150   9.8759681  28.3014287  63.1697268
   9.3315875  28.3085902  61.7571127  22.2401851  41.3340087  65.2700808
  22.7920159  41.4971709  66.0349893  22.5808044  41.9244525  64.5980833
  17.2166344  23.6815237  65.8722692  17.2807671  24.5430068  65.4600090
  17.1533464  23.0689239  65.1395051  16.6918617  25.7538370  69.5195727
  17.3190656  25.3715447  70.1333251  15.8346536  25.5352571  69.8851419
  27.0912725  36.1601345  71.1249462  27.6352629  36.7731303  70.6304417
  26.5099570  36.7180923  71.6416475  13.4684160  27.5614799  55.4514081
  13.7637601  26.6525477  55.3981135  12.5672195  27.5402538  55.1295084
  25.3770238  39.2822063  62.2564490  25.2521378  38.4811803  61.7475435
  26.0349329  39.7768256  61.7678460  16.9978407  25.6370795  61.4341630
  16.2764992  26.2506763  61.2949103  17.7871662  26.1728560  61.3558276
  27.4405147  37.0831083  63.8844040  26.4935482  36.9636434  63.8122367
  27.7887920  36.1953581  63.9670301  19.8004720  22.9725222  67.7082282
  20.3239122  23.2187518  68.4708591  19.5817053  23.8045257  67.2885419
  15.1972001  25.2428896  55.5753407  14.8684707  24.3626275  55.3928513
  15.5511372  25.1876565  56.4629796  24.4451580  36.8783799  60.0848392
  24.2976542  35.9500506  60.2655962  25.2705073  36.9003890  59.6005467
  18.3113824  25.5301866  55.9428884  18.6509897  26.0587787  55.2207493
  18.7585945  25.8682272  56.7187451  28.0485702  37.7012358  61.1713265
  28.9732249  37.4955219  61.0337716  27.8801005  37.4528759  62.0802606
  21.0057265  23.9138917  65.3931952  20.6654085  23.1146730  65.7952632
  20.2996271  24.2140628  64.8208786  21.6573737  20.9988229  63.8459275
  22.4799806  20.5248707  63.7238166  21.9011800  21.7778713  64.3457962
  20.2981971  24.0276488  54.1422177  21.0190334  24.4057740  53.6385894
  19.6747276  24.7465364  54.2457155  24.4413094  24.7321637  55.0780509
  24.6576709  25.6146275  54.7769338  23.9607161  24.3407850  54.3486151
  19.1812316  27.6907350  61.6551254  19.0356896  28.0047653  62.5475536
  18.7037519  28.3092250  61.1022153  21.0408699  24.6809898  61.7032144
  21.0270267  23.7850991  61.3664441  21.7581127  24.6880562  62.3370430
  22.8934829  25.1147238  63.7485271  22.6352607  26.0364309  63.7469601
  22.3619870  24.7177673  64.4385735  27.8381018  38.2198025  56.5275356
  28.0117896  37.6544448  55.7749209  28.3309909  39.0198920  56.3454846
  13.6557978  30.2312694  64.5938915  13.1111446  31.0072502  64.7259190
  14.5337328  30.5783499  64.4358037  20.4445594  23.5624278  56.9719714
  20.5661506  22.6340924  57.1710601  20.1547637  23.5762964  56.0598029
  23.3136785  21.2479189  60.1086434  23.3358482  21.3118522  59.1538413
  23.7304844  20.4083697  60.3026940  33.6920409  30.9834448  58.1465656
  34.1351555  30.2341773  57.7484779  32.8146919  30.9744584  57.7639388
  28.8256191  37.5364790  53.6272255  29.5207095  38.1571482  53.8459569
  29.1679341  36.6860141  53.9024633  14.4424000  29.3582591  67.4869072
  13.7005736  29.5065226  68.0733702  14.1216744  29.6190856  66.6235821
  30.7247614  34.9864495  55.1559585  31.2498938  35.3251768  54.4308905
  30.6369966  34.0511510  54.9722720  22.3867662  38.8998569  67.2849462
  22.6954789  38.6547716  68.1572162  23.1843144  39.1045207  66.7968332
  22.4088274  41.0536478  59.5154839  21.9693265  40.5612857  60.2087695
  23.1596391  40.5109446  59.2746914  14.8880613  37.2448019  59.5179467
  15.7138633  36.9451791  59.1378110  14.5374665  36.4755642  59.9669255
  19.8562147  36.5974487  61.5877140  19.2342156  35.9345193  61.2879368
  20.5267013  36.6235619  60.9050788  13.0889218  35.1634346  60.4768400
  12.2521127  34.7356520  60.2952402  13.0612864  35.3566789  61.4139191
  19.9286674  25.0756276  71.1809646  19.9774829  25.9518398  70.7987416
  20.4709188  24.5333669  70.6081290  30.4141520  35.6197399  70.4610783
  29.6237063  35.6021538  69.9215283  30.1774874  36.1585692  71.2159820
  30.5339395  32.4689865  67.7743512  30.5837400  32.3039873  68.7159035
  30.4253318  31.6017124  67.3841393  19.4175653  35.1478411  55.0635601
  19.5663774  35.8313875  54.4102274  20.2242097  35.1283501  55.5785057
  27.8243157  28.4520793  69.0902819  28.7253020  28.3127258  68.7986816
  27.8991132  28.6175248  70.0300996  22.1585962  25.8287648  67.9356005
  21.2889272  26.1221214  67.6638593  22.3945443  26.4128093  68.6563269
  32.0357592  34.8886807  68.0185533  31.7442400  35.2516787  68.8548994
  31.4229723  34.1753815  67.8398866  33.2353274  32.4539686  60.5388104
  34.0700165  32.8929490  60.7025664  33.3712403  31.9778340  59.7196349
  30.2844780  30.0119421  66.4865591  30.7598901  30.2047068  65.6784443
  29.3610345  30.0678607  66.2408975  17.1728286  31.1743588  56.0696670
  16.9274328  30.2705918  56.2676880  17.3424201  31.1760739  55.1276148
  24.8624996  22.0467265  65.4521425  25.3806940  22.7828292  65.1267914
  24.5080129  22.3531258  66.2868184  16.4423934  26.9071946  53.5682831
  15.7493179  26.9816301  52.9122867  16.1975686  26.1432290  54.0904348
  25.1137590  18.4667547  60.9722322  25.3939344  17.7990736  61.5982748
  25.8988197  18.6596643  60.4596986  22.9171059  37.6426541  52.5347348
  22.3445026  38.2616728  52.0817820  23.4903853  38.1925903  53.0687270
  28.9846449  26.8885181  64.7193897  29.9363872  26.9883279  64.7406121
  28.8149899  26.0963450  65.2291981  27.0060828  23.9740765  64.9053298
  26.4110760  24.2545777  64.2099787  26.7210525  24.4634666  65.6770039
  26.1368319  37.9263691  53.6655931  27.0698992  37.8609253  53.8688806
  26.0491532  38.7619958  53.2070463  28.7656335  37.2429562  50.6259878
  28.6869967  36.9089425  51.5195636  29.5866002  37.7351330  50.6251350
  31.4634527  30.1091301  63.8336197  31.4310847  29.1707302  64.0195881
  32.0735150  30.1875338  63.1002022  23.3017857  28.9787354  49.8763401
  24.2476962  28.8493562  49.9451819  22.9232102  28.2402016  50.3532829
  31.6129015  26.9002344  63.8794480  31.0968064  26.1160801  63.6924409
  32.4968964  26.5721061  64.0440999  29.2739742  20.6443360  59.8390293
  29.0764563  20.3358448  60.7233625  29.8839448  21.3704999  59.9688222
  37.2811076  31.1707308  62.9742233  38.0114465  30.9092596  63.5349937
  36.6718022  30.4336030  63.0144301  35.3626374  29.3115170  63.5716685
  34.6359537  29.1771135  62.9633176  34.9473660  29.6191999  64.3773403
  23.1856550  33.0305100  71.3364058  24.1059559  33.2083699  71.5304104
  23.1506133  32.0861146  71.1843757  21.4860775  26.9037330  49.8118286
  20.5792230  26.6070443  49.8881000  21.7636756  26.6067148  48.9452572
  12.4038715  28.2243694  60.2617332  12.0841499  27.3709002  59.9691706
  11.8572143  28.4392272  61.0175300  16.1818623  30.9406135  63.9786839
  16.4004632  31.8723243  63.9974873  16.5944396  30.5814109  64.7641643
  23.1022840  21.4474220  55.9662527  22.2923569  21.1021305  56.3417773
  23.7907257  21.1381764  56.5550139  25.0313389  20.5252267  57.5886824
  25.5844427  20.9447720  58.2476847  25.2683475  19.5988015  57.6309780
  21.0546488  26.5139341  73.3689588  20.9543215  27.4633698  73.3001679
  20.8368030  26.1857579  72.4965658  20.2559559  23.7624266  49.9530265
  21.1178723  24.0879164  50.2126082  20.4409903  22.9755762  49.4403331
  12.2726975  31.8446605  62.2310454  11.5790446  31.4300558  61.7180408
  13.0199966  31.8867142  61.6343873  28.4092196  22.6352792  57.0965488
  27.8290865  23.2937596  56.7143541  28.1428128  21.8130137  56.6852906
  26.8595762  22.0357850  59.2986808  27.3595540  22.1474384  58.4901127
  27.5031370  21.7318903  59.9387617  20.9177758  29.9436479  72.1854649
  20.4344840  30.7436840  72.3918538  21.0038697  29.9544424  71.2322093
  14.1863718  31.7764859  60.1076469  14.1634406  31.8752546  59.1558352
  14.4964354  32.6230010  60.4293635  16.8451095  33.8341014  64.2223083
  17.7994349  33.8024956  64.1553015  16.6463619  33.3731638  65.0373309
  17.4350478  32.4042130  66.7893881  18.2543367  32.8986209  66.8128718
  17.7087285  31.4874098  66.7611448  27.1917074  24.7952882  56.1521836
  26.3042929  25.0802533  55.9342031  27.6071063  24.6346646  55.3049113
  30.5431610  24.8199403  59.8676176  31.3192000  25.3095856  60.1400792
  29.8179744  25.2457458  60.3248045  32.9804168  25.5327023  60.9250116
  33.5748659  25.2922759  60.2143425  33.0530752  24.8134153  61.5523653
  15.2001324  39.3760634  61.2393281  15.0655792  38.6161034  60.6731279
  14.7833386  40.1001533  60.7722070  26.3360287  34.5597557  50.2469856
  27.0396137  34.7647560  50.8627512  25.6122936  35.1274319  50.5118940
  27.1658097  30.3107418  56.3672127  27.1093299  30.7675970  55.5279759
  27.7186440  29.5498103  56.1894969  30.9762903  26.0997150  57.1922246
  30.7199838  25.6993786  58.0230454  30.3515771  26.8140944  57.0672385
  35.2875241  28.8393224  59.6993537  34.7274799  28.9086413  60.4725100
  34.6818745  28.6634208  58.9793034  18.3570450  40.2729951  61.4511724
  18.2402834  41.2175383  61.3490414  17.5362896  39.9703512  61.8397523
  28.2446985  34.9980086  52.2968316  29.0792589  34.5661285  52.1145791
  28.0831328  34.8262100  53.2245211  27.8992877  31.5012200  53.6624656
  27.8441681  31.3356471  52.7213100  27.2738932  32.2088233  53.8186845
  12.6885392  26.7380264  67.4886078  13.3344255  26.2279218  67.9773303
  12.4802543  27.4748946  68.0629503  25.2138784  33.8061112  72.9878219
  26.0829944  33.9801764  72.6264853  24.7345535  34.6255528  72.8653948
  21.2089002  21.0020309  53.2409974  21.1967672  21.9462149  53.3978245
  22.1012424  20.8190454  52.9469435  19.3824964  40.9258213  64.6667652
  20.2852211  40.9581823  64.9834147  19.1562334  39.9958663  64.6813988
  21.1378566  39.6789199  61.3277731  20.1874197  39.6791061  61.2142103
  21.4411052  38.9321934  60.8113765  25.0241122  17.5963085  57.4955911
  24.2573518  17.0421572  57.6412593  25.4351827  17.6684954  58.3570063
  17.0282883  23.8847881  71.5861092  17.8914344  23.5284686  71.7964417
  16.4548293  23.5461776  72.2736496  36.8731260  45.5149737  62.3923493
  37.5109670  45.3956485  61.6886833  36.7552103  46.4630581  62.4511445
  33.6820966  45.4677166  62.3285018  33.3439478  45.3518230  61.4405553
  34.5510734  45.0668331  62.3086024  29.5407782  47.3212642  58.3181909
  28.9772647  47.2302579  57.5498197  29.4260177  46.5012546  58.7984401
  34.1640749  46.6212017  68.2871223  34.1529390  46.2264816  67.4151727
  34.3261388  45.8878090  68.8804995  27.0872214  48.8163834  61.1566129
  27.8793506  48.4754658  60.7412429  27.3268864  48.9258809  62.0768283
  29.0462968  48.0772747  54.0283508  29.8193844  47.5301734  53.8896384
  29.3988366  48.9416996  54.2397969  30.8848010  49.4049129  67.2350407
  30.5937876  50.3094760  67.1197074  31.5204994  49.4465657  67.9494477
  31.8104217  46.7825978  63.8251767  32.4067789  46.5582000  63.1108730
  31.8679188  46.0410723  64.4277215  31.3829245  44.2365413  51.6601958
  31.6354766  43.7146934  50.8985421  30.4453804  44.0731558  51.7628642
  36.4272528  43.2401191  59.4676701  37.2135617  42.8220614  59.1167118
  36.6911233  44.1447283  59.6358350  36.5982606  48.6774042  54.1665358
  35.9628439  48.7508668  54.8786263  36.2680012  49.2667640  53.4884437
  31.1025534  46.1393519  53.8626333  30.9861792  45.4638422  54.5307417
  31.2127794  45.6525893  53.0458486  33.4457075  45.6003666  57.5673022
  33.0815282  45.0734287  58.2785944  34.3024191  45.2102135  57.3939508
  39.3506376  36.8897999  64.8304288  39.0189700  37.7593410  64.6065503
  38.7551989  36.5734283  65.5098319  33.0862562  40.6293566  52.5634371
  33.2536964  41.4973802  52.9304842  32.8959731  40.7920847  51.6395660
  35.8437895  49.0910545  64.2300201  35.5438618  49.9935583  64.1216008
  35.4988955  48.8242728  65.0821354  29.2950377  45.5424341  60.2636906
  28.3700873  45.4100556  60.4714597  29.5434790  46.3218561  60.7606848
  39.2435039  41.6093085  61.9097638  38.3351916  41.5408493  61.6156399
  39.1922635  42.0865030  62.7379464  33.0651783  43.0851223  53.5481038
  32.9451408  43.5308274  54.3866518  32.3704371  43.4336541  52.9894576
  26.6559188  45.1857615  61.0980695  26.7851569  45.4392094  62.0120106
  25.9756639  45.7785323  60.7785350  33.3175905  43.0282730  69.8532536
  32.5409239  43.5876651  69.8435400  33.9566468  43.5139513  70.3747406
  41.1096685  39.8109523  63.6875512  40.4671066  40.1042056  63.0415307
  40.6051614  39.6962444  64.4928709  38.7636849  43.5572696  54.3761372
  39.6754705  43.7900083  54.2009069  38.2546496  44.1409741  53.8136450
  31.5722277  45.8368184  69.4150503  32.3136961  46.3753228  69.1385326
  30.8659263  46.4634472  69.5722054  37.0477617  47.9797324  68.0122664
  37.4560973  47.5379735  67.2677297  36.3254878  47.4049952  68.2656857
  33.4008687  42.9169931  65.3856221  34.2469882  43.3409345  65.5290870
  33.3407324  42.2603555  66.0794784  36.5508132  40.5774299  67.0437395
  36.3069064  41.3316360  66.5071670  36.8268063  40.9559647  67.8784642
  36.1072824  39.7330732  62.6251232  35.2457303  40.0311986  62.9167970
  36.1335258  39.9501131  61.6932265  32.9234393  48.2772923  59.0325038
  33.3872739  48.5560626  58.2429661  32.6591191  47.3756367  58.8498129
  29.8158474  47.8244404  61.9704801  30.3859831  48.2531673  61.3322286
  30.4066586  47.5426989  62.6688987  31.8603279  44.3996075  55.8414603
  32.5627323  44.8517119  56.3088530  31.5283908  43.7579894  56.4694496
  30.3083641  42.9907832  70.2165813  29.6782301  43.6724113  70.4501209
  30.2019729  42.8790914  69.2718951  25.6028613  42.6579628  61.1431737
  24.8127667  42.9137156  60.6671847  26.0939861  43.4727966  61.2483777
  27.5543359  43.0224207  58.1015214  26.7574522  43.1342901  58.6198709
  27.3268951  43.3610859  57.2356104  33.3849026  49.5468910  66.0497728
  33.4493459  50.0089318  66.8855900  32.6759950  48.9166275  66.1780038
  23.8866316  42.9110118  63.5746728  24.1374355  43.7957128  63.8404304
  24.4225865  42.7314720  62.8021819  29.5864384  37.2928598  72.5791064
  29.1931329  36.7394796  73.2538708  30.4030524  37.6039176  72.9697581
  26.5526441  48.7312456  56.4904634  27.0650962  49.5255706  56.6410198
  27.2049154  48.0338746  56.4238235  28.3621326  51.8478212  58.5727387
  28.5387954  52.7696177  58.3848371  29.1578160  51.5336631  59.0021767
  32.5032345  38.7086477  70.1711320  33.2442058  39.3093630  70.0915783
  32.7350267  37.9664115  69.6129363  27.6473683  43.8942844  68.4489550
  27.5327198  42.9928101  68.7496649  26.7918200  44.1406541  68.0974367
  34.7265520  51.8360584  70.0477051  34.2829374  51.0496963  69.7297955
  35.3882734  52.0239735  69.3820941  29.4852641  53.3656386  64.5737729
  30.0360067  53.2373449  63.8014723  28.6464117  53.6651275  64.2232622
  33.2819813  49.6307514  68.9181960  33.8148149  48.8695802  68.6881268
  32.7533894  49.3381166  69.6606115  36.4489507  34.7367580  64.4475602
  36.1053777  35.6269221  64.3714713  36.8168470  34.5469237  63.5845187
  24.5175358  47.0601110  57.2664204  25.3550580  47.4698119  57.0497912
  24.6953626  46.1200552  57.2364398  36.4139790  44.7276191  52.9548037
  35.8986414  45.4980796  53.1936424  36.1417099  44.0541327  53.5781099
  33.9986901  39.5725892  58.0133275  33.1428498  39.1832742  57.8338914
  34.4113853  39.6517852  57.1533061  35.5286048  37.1072235  62.4124835
  35.0250843  37.0702370  61.5992641  35.8216655  38.0164978  62.4721492
  31.7728934  37.1910965  61.4191017  32.6381931  36.9953773  61.0596906
  31.8406443  36.9621316  62.3460374  36.2026093  42.6003283  54.7807818
  35.8976229  42.9149432  55.6317961  37.1556535  42.6784703  54.8235151
  29.3791253  39.4213173  58.7907384  29.9535005  39.1988354  58.0580577
  29.9662235  39.4901867  59.5435985  38.4370830  45.3086899  59.5971760
  38.9502712  45.9416891  60.0993470  39.0872054  44.7088095  59.2315120
  29.7060840  41.4517634  52.8103269  28.8698152  41.7892320  53.1312544
  29.5665610  41.3166613  51.8730406  31.6813921  36.2954421  57.5182453
  31.0278333  35.9803439  56.8939068  31.6394395  35.6730162  58.2442276
  32.7925125  46.5773717  49.4335745  31.8852187  46.3462970  49.6326894
  33.2896157  45.7811336  49.6209727  34.9151661  42.7836355  61.8430101
  33.9974222  43.0051302  61.6851789  35.3311805  42.8582666  60.9841808
  35.6986709  44.1827771  56.9732781  36.4458528  44.6949168  56.6639903
  35.9678298  43.8611823  57.8337175  33.9713359  46.6786311  53.9559735
  33.0624578  46.3945344  54.0532205  34.0008443  47.0985390  53.0963042
  38.1465546  41.2184887  58.9551570  37.4088303  40.7062273  59.2861813
  38.3992319  40.7785269  58.1434847  38.2477173  33.9961139  59.5493340
  38.5536050  33.1358502  59.2619255  38.9729778  34.5878759  59.3492334
  24.5401529  44.3991826  57.9374938  24.3425929  43.8061186  57.2126004
  23.9848193  44.0944036  58.6550876  32.5198253  44.2914932  60.0569531
  32.5746863  43.3388768  59.9812007  31.7089455  44.4474371  60.5410829
  33.6689447  48.2195055  51.2947814  33.2308877  47.5030914  50.8353451
  34.4099888  48.4471170  50.7332905  30.4590613  42.9091992  57.8159910
  29.6458478  43.2086162  58.2225102  30.9549607  42.5147681  58.5334392
  36.0564824  43.3733816  66.6474803  36.4114212  43.6005289  67.5069269
  36.7036956  43.7052193  66.0252059  29.9504688  40.4810347  63.4321145
  30.5904067  40.3399106  62.7344108  29.1182218  40.1944861  63.0559747
  30.7264991  49.7812778  59.5456137  31.5205590  49.2863098  59.3438712
  30.0156684  49.2530641  59.1823843  27.0347755  43.9255859  55.6215890
  26.1045343  43.8640315  55.8385852  27.1305227  43.4031812  54.8252531
  26.9533304  40.4510672  58.2094131  27.2140121  41.3656006  58.1003292
  27.7750476  39.9835115  58.3590744  28.4258229  41.8648429  65.3792956
  29.0981283  41.6565792  64.7305605  27.5988016  41.6670515  64.9398188
  34.3283801  38.4910370  67.3958617  33.6811716  39.1900320  67.3023093
  35.0984817  38.9246514  67.7634865  37.7362599  48.7559223  70.4709170
  37.5848106  48.5269774  69.5539254  37.7267279  49.7129824  70.4840515
  34.5047936  46.3291135  65.4555436  35.4339996  46.4802295  65.2824404
  34.0838966  46.4175156  64.6004083  34.8541483  49.7323402  60.6142812
  34.5191315  49.6924172  61.5100462  34.3545428  49.0668118  60.1413222
  28.8285727  45.1391032  66.1395393  28.6905525  44.4071271  66.7406932
  29.7390650  45.0499933  65.8579581  37.7900674  47.0779437  50.8879872
  37.1729845  46.3526265  50.7912924  37.3217163  47.8388797  50.5446946
  31.4568027  44.8510992  65.6279073  32.1667646  44.2104184  65.5865691
  31.4137335  45.1023887  66.5505253  30.1696961  41.8376210  67.4474712
  29.6334318  41.3866948  68.0996308  29.5813670  41.9722118  66.7045177
  28.4645505  58.6040259  61.3419371  28.7042103  59.2358783  62.0198389
  27.6214701  58.2528299  61.6284730  29.5799220  41.2964861  50.0101176
  28.7028686  41.1753662  49.6463422  30.0556973  40.5050939  49.7580064
  21.1001360  46.0842021  60.1042683  21.7872400  45.7703751  59.5163698
  20.9449489  46.9883385  59.8309934  25.9036082  40.9732217  64.5327707
  25.8194271  40.3657887  63.7978117  25.0818789  41.4641236  64.5337203
  36.0759796  39.4585781  59.8997902  36.5728496  38.7055743  59.5798972
  35.3046778  39.4950098  59.3341111  32.6594765  41.6003164  59.6269586
  32.2892553  41.0474204  60.3150492  33.1553858  40.9961297  59.0744586
  30.4883964  52.0600659  66.7224604  31.1893423  52.6937142  66.8753998
  30.0179079  52.4015390  65.9620244  38.5178791  36.4255374  62.0477261
  37.6041871  36.6559601  62.2159468  38.9471893  36.5093818  62.8991293
  38.2885250  44.6145266  64.5477155  37.6356700  44.8621174  63.8929607
  38.6665629  43.8009405  64.2139632  34.3372823  45.3565077  71.0343192
  33.6613460  45.2559207  71.7045567  35.1600457  45.2004291  71.4979189
  26.0851682  51.5937014  63.6555707  26.6705119  50.8480702  63.7883611
  25.8876520  51.9040971  64.5392371  28.9390337  54.6288261  58.6718149
  28.2700712  55.1134389  58.1882189  28.8003207  54.8757482  59.5861528
  20.6769336  44.1642614  62.3760150  20.7153436  43.6306205  63.1697268
  20.1709629  43.6377820  61.7571127  28.0560099  39.0107155  65.8722692
  28.1201425  39.8721986  65.4600090  27.9927219  38.3981156  65.1395051
  27.5312371  41.0830287  69.5195727  28.1584410  40.7007365  70.1333251
  26.6740290  40.8644489  69.8851419  24.3077914  42.8906716  55.4514081
  24.6031355  41.9817395  55.3981135  23.4065950  42.8694456  55.1295084
  27.8372161  40.9662713  61.4341630  27.1158747  41.5798681  61.2949103
  28.6265417  41.5020478  61.3558276  30.6398475  38.3017139  67.7082282
  31.1632876  38.5479436  68.4708591  30.4210808  39.1337174  67.2885419
  26.0365756  40.5720814  55.5753407  25.7078462  39.6918193  55.3928513
  26.3905126  40.5168483  56.4629796  29.1507579  40.8593784  55.9428884
  29.4903651  41.3879705  55.2207493  29.5979699  41.1974190  56.7187451
  31.8451020  39.2430834  65.3931952  31.5047840  38.4438648  65.7952632
  31.1390026  39.5432545  64.8208786  32.4967491  36.3280147  63.8459275
  33.3193561  35.8540625  63.7238166  32.7405555  37.1070631  64.3457962
  31.1375726  39.3568405  54.1422177  31.8584088  39.7349658  53.6385894
  30.5141030  40.0757282  54.2457155  35.2806849  40.0613554  55.0780509
  35.4970463  40.9438192  54.7769338  34.8000916  39.6699768  54.3486151
  30.0206070  43.0199268  61.6551254  29.8750651  43.3339571  62.5475536
  29.5431274  43.6384168  61.1022153  31.8802453  40.0101816  61.7032144
  31.8664022  39.1142909  61.3664441  32.5974881  40.0172479  62.3370430
  33.7328584  40.4439156  63.7485271  33.4746362  41.3656226  63.7469601
  33.2013624  40.0469590  64.4385735  24.4951732  45.5604612  64.5938915
  23.9505200  46.3364420  64.7259190  25.3731082  45.9075416  64.4358037
  31.2839349  38.8916196  56.9719714  31.4055260  37.9632842  57.1710601
  30.9941391  38.9054882  56.0598029  34.1530539  36.5771106  60.1086434
  34.1752236  36.6410439  59.1538413  34.5698598  35.7375615  60.3026940
  25.2817754  44.6874508  67.4869072  24.5399490  44.8357144  68.0733702
  24.9610498  44.9482774  66.6235821  25.7274368  52.5739937  59.5179467
  26.5532388  52.2743709  59.1378110  25.3768420  51.8047559  59.9669255
  30.6955901  51.9266405  61.5877140  30.0735910  51.2637110  61.2879368
  31.3660768  51.9527537  60.9050788  23.9282973  50.4926263  60.4768400
  23.0914881  50.0648438  60.2952402  23.9006618  50.6858707  61.4139191
  30.7680429  40.4048193  71.1809646  30.8168584  41.2810316  70.7987416
  31.3102943  39.8625586  70.6081290  38.6636912  43.7812711  69.0902819
  39.5646774  43.6419176  68.7986816  38.7384886  43.9467166  70.0300996
  32.9979717  41.1579566  67.9356005  32.1283026  41.4513132  67.6638593
  33.2339197  41.7420011  68.6563269  28.0122041  46.5035506  56.0696670
  27.7668083  45.5997836  56.2676880  28.1817955  46.5052657  55.1276148
  35.7018751  37.3759183  65.4521425  36.2200695  38.1120209  65.1267914
  35.3473884  37.6823176  66.2868184  27.2817688  42.2363864  53.5682831
  26.5886933  42.3108219  52.9122867  27.0369440  41.4724207  54.0904348
  35.9531345  33.7959465  60.9722322  36.2333099  33.1282654  61.5982748
  36.7381952  33.9888561  60.4596986  39.8240203  42.2177099  64.7193897
  40.7757626  42.3175197  64.7406121  39.6543654  41.4255368  65.2291981
  37.8454583  39.3032682  64.9053298  37.2504515  39.5837695  64.2099787
  37.5604279  39.7926583  65.6770039  34.1411612  44.3079272  49.8763401
  35.0870717  44.1785480  49.9451819  33.7625857  43.5693934  50.3532829
  40.1133496  35.9735278  59.8390293  39.9158318  35.6650366  60.7233625
  40.7233202  36.6996917  59.9688222  34.0250304  48.3597018  71.3364058
  34.9453314  48.5375617  71.5304104  33.9899888  47.4153063  71.1843757
  32.3254529  42.2329248  49.8118286  31.4185984  41.9362361  49.8881000
  32.6030510  41.9359066  48.9452572  23.2432469  43.5535612  60.2617332
  22.9235254  42.7000920  59.9691706  22.6965898  43.7684190  61.0175300
  27.0212377  46.2698052  63.9786839  27.2398387  47.2015160  63.9974873
  27.4338151  45.9106027  64.7641643  33.9416595  36.7766138  55.9662527
  33.1317323  36.4313223  56.3417773  34.6301012  36.4673682  56.5550139
  35.8707143  35.8544185  57.5886824  36.4238182  36.2739638  58.2476847
  36.1077229  34.9279933  57.6309780  31.8940242  41.8431258  73.3689588
  31.7936969  42.7925615  73.3001679  31.6761784  41.5149497  72.4965658
  31.0953314  39.0916183  49.9530265  31.9572478  39.4171082  50.2126082
  31.2803658  38.3047679  49.4403331  23.1120729  47.1738523  62.2310454
  22.4184201  46.7592476  61.7180408  23.8593720  47.2159060  61.6343873
  39.2485950  37.9644710  57.0965488  38.6684619  38.6229514  56.7143541
  38.9821883  37.1422054  56.6852906  37.6989517  37.3649767  59.2986808
  38.1989295  37.4766302  58.4901127  38.3425124  37.0610820  59.9387617
  31.7571512  45.2728397  72.1854649  31.2738594  46.0728757  72.3918538
  31.8432451  45.2836342  71.2322093  25.0257472  47.1056777  60.1076469
  25.0028160  47.2044464  59.1558352  25.3358109  47.9521928  60.4293635
  27.6844850  49.1632932  64.2223083  28.6388103  49.1316874  64.1553015
  27.4857373  48.7023556  65.0373309  28.2744232  47.7334048  66.7893881
  29.0937121  48.2278127  66.8128718  28.5481040  46.8166016  66.7611448
  38.0310828  40.1244800  56.1521836  37.1436683  40.4094451  55.9342031
  38.4464817  39.9638564  55.3049113  41.3825364  40.1491321  59.8676176
  42.1585754  40.6387774  60.1400792  40.6573499  40.5749375  60.3248045
  26.0395079  54.7052551  61.2393281  25.9049547  53.9452952  60.6731279
  25.6227141  55.4293451  60.7722070  37.1754042  49.8889475  50.2469856
  37.8789892  50.0939477  50.8627512  36.4516690  50.4566237  50.5118940
  38.0051852  45.6399336  56.3672127  37.9487053  46.0967888  55.5279759
  38.5580194  44.8790021  56.1894969  29.1964205  55.6021868  61.4511724
  29.0796589  56.5467301  61.3490414  28.3756651  55.2995430  61.8397523
  38.7386631  46.8304117  53.6624656  38.6835435  46.6648389  52.7213100
  38.1132687  47.5380150  53.8186845  23.5279146  42.0672182  67.4886078
  24.1738010  41.5571136  67.9773303  23.3196297  42.8040863  68.0629503
  36.0532538  49.1353029  72.9878219  36.9223698  49.3093681  72.6264853
  35.5739290  49.9547446  72.8653948  32.0482757  36.3312226  53.2409974
  32.0361427  37.2754066  53.3978245  32.9406179  36.1482372  52.9469435
  35.8634876  32.9255003  57.4955911  35.0967272  32.3713490  57.6412593
  36.2745581  32.9976872  58.3570063  27.8676637  39.2139799  71.5861092
  28.7308099  38.8576604  71.7964417  27.2942048  38.8753694  72.2736496
  50.4443844  67.9013397  50.6259878  50.3657476  67.5673261  51.5195636
  51.2653511  68.3935165  50.6251350  56.7994849  81.6467445  53.6296374
  56.1482829  82.2321525  53.2430388  57.5939212  82.1773640  53.6891411
  53.0616754  74.8949248  51.6601958  53.3142275  74.3730770  50.8985421
  52.1241313  74.7315394  51.7628642  58.2770115  79.3357877  54.1665358
  57.6415947  79.4092503  54.8786263  57.9467521  79.9251476  53.4884437
  54.7439292  73.7435059  53.5481038  54.6238917  74.1892109  54.3866518
  54.0491880  74.0920376  52.9894576  53.5390788  75.0579911  55.8414603
  54.2414832  75.5100954  56.3088530  53.2071417  74.4163730  56.4694496
  49.2330868  73.6808043  58.1015214  48.4362031  73.7926737  58.6198709
  49.0056460  74.0194695  57.2356104  46.1962867  77.7184946  57.2664204
  47.0338089  78.1281954  57.0497912  46.3741135  76.7784388  57.2364398
  58.0927299  75.3860026  52.9548037  57.5773923  76.1564631  53.1936424
  57.8204608  74.7125162  53.5781099  63.0661573  78.1392381  54.8901211
  62.2891016  77.8003540  54.4456373  63.7453054  78.1445004  54.2156176
  57.8813602  73.2587118  54.7807818  57.5763738  73.5733268  55.6317961
  58.8344044  73.3368538  54.8235151  56.3260034  79.4177342  56.4300772
  55.7981396  78.6830101  56.1174010  55.8247537  80.1952018  56.1840741
  51.3848349  72.1101469  52.8103269  50.5485661  72.4476156  53.1312544
  51.2453119  71.9750449  51.8730406  54.4712634  77.2357552  49.4335745
  53.5639696  77.0046805  49.6326894  54.9683666  76.4395171  49.6209727
  55.6500868  77.3370147  53.9559735  54.7412087  77.0529180  54.0532205
  55.6795952  77.7569225  53.0963042  60.8820135  80.9476736  57.7250903
  60.4282462  80.1067646  57.7816093  60.2514102  81.5838135  58.0625683
  55.3476956  78.8778890  51.2947814  54.9096386  78.1614749  50.8353451
  56.0887396  79.1055005  50.7332905  52.1378122  73.5675827  57.8159910
  51.3245987  73.8669998  58.2225102  52.6337116  73.1731516  58.5334392
  48.7135264  74.5839695  55.6215890  47.7832852  74.5224150  55.8385852
  48.8092736  74.0615648  54.8252531  59.4688183  77.7363272  50.8879872
  58.8517354  77.0110100  50.7912924  59.0004672  78.4972632  50.5446946
  51.2586729  71.9548696  50.0101176  50.3816195  71.8337497  49.6463422
  51.7344482  71.1634775  49.7580064  42.7788869  76.7425856  60.1042683
  43.4659909  76.4287586  59.5163698  42.6236998  77.6467221  59.8309934
  60.2925868  81.0602444  55.0072511  60.5685712  80.9459039  55.9166385
  59.4230367  80.6619929  54.9684684  56.9594358  70.7197390  55.0780509
  57.1757972  71.6022028  54.7769338  56.4788425  70.3283603  54.3486151
  61.3437454  83.5240543  53.6272255  62.0388359  84.1447235  53.8459569
  61.6860604  82.6735894  53.9024633  63.2428877  80.9740248  55.1559585
  63.7680201  81.3127521  54.4308905  63.1551230  80.0387263  54.9722720
  45.6070482  81.1510099  60.4768400  44.7702390  80.7232273  60.2952402
  45.5794127  81.3442542  61.4139191  48.9605197  72.8947699  53.5682831
  48.2674442  72.9692054  52.9122867  48.7156949  72.1308043  54.0904348
  55.4352322  83.6302294  52.5347348  54.8626290  84.2492481  52.0817820
  56.0085116  84.1801656  53.0687270  61.2837599  83.2305315  50.6259878
  61.2051230  82.8965178  51.5195636  62.1047266  83.7227083  50.6251350
  55.8199121  74.9663107  49.8763401  56.7658226  74.8369315  49.9451819
  55.4413366  74.2277769  50.3532829  54.0042038  72.8913083  49.8118286
  53.0973493  72.5946196  49.8881000  54.2818019  72.5942902  48.9452572
  58.8541551  80.5473310  50.2469856  59.5577401  80.7523313  50.8627512
  58.1304199  81.1150072  50.5118940  60.7628248  80.9855839  52.2968316
  61.5973852  80.5537038  52.1145791  60.6012591  80.8137853  53.2245211
  60.4174140  77.4887953  53.6624656  60.3622944  77.3232224  52.7213100
  59.7920196  78.1963986  53.8186845  51.9006228  86.9133966  64.6667652
  52.8033474  86.9457576  64.9834147  51.6743598  85.9834417  64.6813988
  69.3912523  91.5025490  62.3923493  70.0290933  91.3832238  61.6886833
  69.2733366  92.4506334  62.4511445  66.2002229  91.4552919  62.3285018
  65.8620741  91.3393983  61.4405553  67.0691998  91.0544084  62.3086024
  62.0589045  93.3088395  58.3181909  61.4953910  93.2178332  57.5498197
  61.9441440  92.4888299  58.7984401  59.6053477  94.8039587  61.1566129
  60.3974769  94.4630411  60.7412429  59.8450127  94.9134562  62.0768283
  67.6388604  96.9759363  53.6296374  66.9876584  97.5613443  53.2430388
  68.4332967  97.5065558  53.6891411  61.5644231  94.0648500  54.0283508
  62.3375107  93.5177487  53.8896384  61.9169630  94.9292749  54.2397969
  63.4029274  95.3924882  67.2350407  63.1119140  96.2970513  67.1197074
  64.0386258  95.4341410  67.9494477  64.3285480  92.7701731  63.8251767
  64.9249053  92.5457753  63.1108730  64.3860452  92.0286476  64.4277215
  63.9010509  90.2241166  51.6601958  64.1536030  89.7022687  50.8985421
  62.9635068  90.0607311  51.7628642  68.9453792  89.2276944  59.4676701
  69.7316881  88.8096368  59.1167118  69.2092496  90.1323037  59.6358350
  69.1163869  94.6649795  54.1665358  68.4809702  94.7384421  54.8786263
  68.7861275  95.2543393  53.4884437  74.3462219  89.1652178  60.3709680
  75.0787391  88.5951394  60.6047509  73.5901574  88.7773778  60.8116185
  63.6206798  92.1269272  53.8626333  63.5043056  91.4514175  54.5307417
  63.7309057  91.6401646  53.0458486  65.9638339  91.5879419  57.5673022
  65.5996546  91.0610040  58.2785944  66.8205454  91.1977888  57.3939508
  65.6043825  86.6169319  52.5634371  65.7718228  87.4849555  52.9304842
  65.4140995  86.7796600  51.6395660  68.3619159  95.0786298  64.2300201
  68.0619882  95.9811336  64.1216008  68.0170218  94.8118481  65.0821354
  61.8131640  91.5300094  60.2636906  60.8882137  91.3976309  60.4714597
  62.0616053  92.3094314  60.7606848  65.5833046  89.0726976  53.5481038
  65.4632672  89.5184027  54.3866518  64.8885635  89.4212294  52.9894576
  59.1740451  91.1733368  61.0980695  59.3032832  91.4267847  62.0120106
  58.4937902  91.7661076  60.7785350  63.3439938 101.8430618  57.1971169
  63.2663968 102.7938443  57.2759649  62.7401582 101.4976490  57.8546095
  71.2818113  89.5448449  54.3761372  72.1935969  89.7775836  54.2009069
  70.7727760  90.1285494  53.8136450  64.0903541  91.8243937  69.4150503
  64.8318225  92.3628981  69.1385326  63.3840526  92.4510226  69.5722054
  69.8887695  94.5274268  61.7674953  69.2596557  94.6919982  61.0651021
  69.5013357  94.9415877  62.5385917  73.7676927  95.4628706  59.1219317
  73.0827965  95.8427607  58.5716350  73.8520776  96.0724032  59.8551265
  71.0227858  93.1088665  65.7214660  71.2344754  93.7520425  65.0449041
  70.9757607  92.2750981  65.2536590  65.4415657  94.2648676  59.0325038
  65.9054002  94.5436379  58.2429661  65.1772455  93.3632121  58.8498129
  62.3339738  93.8120157  61.9704801  62.9041095  94.2407426  61.3322286
  62.9247850  93.5302742  62.6688987  64.3784543  90.3871828  55.8414603
  65.0808586  90.8392872  56.3088530  64.0465171  89.7455647  56.4694496
  72.1373686  95.9860620  63.8937018  72.9591130  95.5840807  63.6119699
  72.1336089  95.8828854  64.8453133  65.9030290  95.5344663  66.0497728
  65.9674722  95.9965071  66.8855900  65.1941214  94.9042028  66.1780038
  80.2279679  92.3299369  60.2421989  79.4743388  91.7606767  60.0865994
  80.3627221  92.2962033  61.1892624  65.6178307  97.2012771  55.9176709
  65.4823982  98.0464307  56.3461556  66.1588120  97.4032049  55.1542642
  59.0707705  94.7188209  56.4904634  59.5832225  95.5131459  56.6410198
  59.7230418  94.0214499  56.4238235  60.8802589  97.8353965  58.5727387
  61.0569218  98.7571930  58.3848371  61.6759423  97.5212384  59.0021767
  60.1654946  89.8818597  68.4489550  60.0508461  88.9803854  68.7496649
  59.3099464  90.1282294  68.0974367  67.2446784  97.8236337  70.0477051
  66.8010638  97.0372716  69.7297955  67.9063997  98.0115488  69.3820941
  62.0033905  99.3532139  64.5737729  62.5541330  99.2249202  63.8014723
  61.1645381  99.6527028  64.2232622  69.3428022  98.1039137  68.0758452
  69.3246497  98.9248018  67.5838721  70.2647942  97.9793213  68.3008593
  65.8001076  95.6183267  68.9181960  66.3329413  94.8571555  68.6881268
  65.2715157  95.3256919  69.6606115  57.0356622  93.0476863  57.2664204
  57.8731844  93.4573872  57.0497912  57.2134889  92.1076305  57.2364398
  68.9321054  90.7151944  52.9548037  68.4167677  91.4856549  53.1936424
  68.6598362  90.0417080  53.5781099  73.9055328  93.4684299  54.8901211
  73.1284771  93.1295458  54.4456373  74.5846809  93.4736922  54.2156176
  68.7207357  88.5879036  54.7807818  68.4157492  88.9025185  55.6317961
  69.6737799  88.6660456  54.8235151  67.1653789  94.7469259  56.4300772
  66.6375150  94.0122019  56.1174010  66.6641291  95.5243936  56.1840741
  72.1446635  92.9418280  61.5467819  71.4870309  93.6317541  61.6347947
  72.9487034  93.3314712  61.8901805  70.9552094  91.2962653  59.5971760
  71.4683975  91.9292644  60.0993470  71.6053317  90.6963848  59.2315120
  62.2242103  87.4393387  52.8103269  61.3879416  87.7768073  53.1312544
  62.0846873  87.3042366  51.8730406  65.3106389  92.5649470  49.4335745
  64.4033451  92.3338723  49.6326894  65.8077421  91.7687089  49.6209727
  68.2174468 101.2746977  52.3532431  67.5436167 101.5778674  52.9617389
  68.6040290 102.0776057  52.0037889  68.2167972  90.1703524  56.9732781
  68.9639791  90.6824921  56.6639903  68.4859562  89.8487576  57.8337175
  66.4894622  92.6662064  53.9559735  65.5805842  92.3821097  54.0532205
  66.5189706  93.0861143  53.0963042  71.7213890  96.2768654  57.7250903
  71.2676217  95.4359564  57.7816093  71.0907856  96.9130052  58.0625683
  70.1646829  98.1145151  58.6600721  70.4569803  98.6750208  57.9413087
  70.6745450  98.4073712  59.4153880  65.0379516  90.2790685  60.0569531
  65.0928126  89.3264521  59.9812007  64.2270718  90.4350124  60.5410829
  66.1870710  94.2070808  51.2947814  65.7490140  93.4906667  50.8353451
  66.9281151  94.4346923  50.7332905  65.1280454  98.8925502  59.7494174
  65.0856633  99.1186348  58.8202706  66.0443153  98.6588876  59.8979975
  74.3043825  92.4828005  57.3524133  74.1661723  92.6729601  56.4245322
  73.9480044  93.2447388  57.8092184  74.3313204  94.5504532  62.3635404
  74.7649711  94.4579821  63.2118458  75.0444785  94.5262033  61.7255420
  63.2446255  95.7688531  59.5456137  64.0386853  95.2738851  59.3438712
  62.5337947  95.2406394  59.1823843  68.0641099  98.1506626  63.8968505
  68.1178122  98.7197563  64.6646221  67.1955881  98.3208511  63.5322542
  75.1928754  94.5928233  64.8968289  75.3864644  95.4974043  65.1427564
  75.0929372  94.1335652  65.7306874  70.2543863  94.7434976  70.4709170
  70.1029369  94.5145527  69.5539254  70.2448542  95.7005577  70.4840515
  67.0229199  92.3166888  65.4555436  67.9521259  92.4678048  65.2824404
  66.6020229  92.4050909  64.6004083  65.8217531  96.3417553  63.2253974
  65.6828617  95.9736337  64.0979912  65.0332127  96.8565192  63.0537932
  66.4165683 101.4426649  54.5679511  66.5917439 100.9714692  55.3825133
  65.7298471 102.0692415  54.7960771  67.3722746  95.7199155  60.6142812
  67.0372579  95.6799925  61.5100462  66.8726692  95.0543871  60.1413222
  61.3466990  91.1266785  66.1395393  61.2086788  90.3947024  66.7406932
  62.2571914  91.0375686  65.8579581  70.3081938  93.0655190  50.8879872
  69.6911108  92.3402018  50.7912924  69.8398426  93.8264550  50.5446946
  63.9749291  90.8386745  65.6279073  64.6848909  90.1979937  65.5865691
  63.9318599  91.0899640  66.5505253  71.9636069  97.7754098  68.5485652
  71.9048616  97.0913318  67.8816235  72.3655588  98.5173088  68.0966278
  60.9826768 104.5916012  61.3419371  61.2223366 105.2234536  62.0198389
  60.1395965 104.2404052  61.6284730  62.0980484  87.2840614  50.0101176
  61.2209950  87.1629415  49.6463422  62.5738237  86.4926692  49.7580064
  71.9653477  95.7393682  66.7799632  71.0780255  95.4019604  66.9026030
  72.5352028  95.0076713  67.0168397  53.6182624  92.0717774  60.1042683
  54.3053664  91.7579504  59.5163698  53.4630752  92.9759138  59.8309934
  65.4954630 100.3995134  63.7460875  65.4224802 101.2050106  64.2580179
  65.0532023 100.5987100  62.9208896  65.2844410  99.6366904  57.2563696
  64.5011932 100.1788585  57.3501921  65.9837155 100.1540884  57.6557937
  76.4470817  91.1501899  61.5416193  76.4360693  92.0326615  61.1710126
  75.5788197  90.7973450  61.3470730  67.9553314 100.2981968  65.9019033
  68.6681286 100.9329433  65.8294935  67.4643342 100.3945834  65.0859035
  69.6770840  94.2033221  57.4736325  68.7427119  94.3234684  57.3041029
  69.8547509  93.3005688  57.2096335  73.0643392  90.0450540  58.0086359
  73.5303844  90.8778532  57.9346662  73.5150892  89.5795522  58.7131618
  63.0065227  98.0476412  66.7224604  63.7074687  98.6812895  66.8753998
  62.5360342  98.3891143  65.9620244  71.1319623  96.3894362  55.0072511
  71.4079467  96.2750956  55.9166385  70.2624122  95.9911847  54.9684684
  70.8066513  90.6021019  64.5477155  70.1537963  90.8496927  63.8929607
  71.1846893  89.7885158  64.2139632  67.7673687 100.6380713  58.6505325
  67.9496081  99.8202368  59.1133077  68.5906673 100.8548405  58.2130215
  68.1015852  99.5648898  55.9120373  68.6303619  99.0541352  55.2990535
  68.3644072  99.2491428  56.7765906  58.6032945  97.5812767  63.6555707
  59.1886382  96.8356455  63.7883611  58.4057784  97.8916724  64.5392371
  61.4571600 100.6164014  58.6718149  60.7881976 101.1010142  58.1882189
  61.3184470 100.8633235  59.5861528  53.1950600  90.1518367  62.3760150
  53.2334699  89.6181958  63.1697268  52.6890893  89.6253573  61.7571127
  65.5976869 102.6507758  65.2700808  66.1495177 102.8139379  66.0349893
  65.9383062 103.2412196  64.5980833  70.4487743  97.4769015  71.1249462
  70.9927647  98.0898974  70.6304417  69.8674588  98.0348594  71.6416475
  68.7345256 100.5989733  62.2564490  68.6096396  99.7979473  61.7475435
  69.3924347 101.0935927  61.7678460  70.7980165  98.3998753  63.8844040
  69.8510500  98.2804105  63.8122367  71.1462938  97.5121252  63.9670301
  67.8026598  98.1951470  60.0848392  67.6551560  97.2668177  60.2655962
  68.6280091  98.2171560  59.6005467  61.6688842  86.8469537  55.9428884
  62.0084915  87.3755458  55.2207493  62.1160963  87.1849943  56.7187451
  71.4060720  99.0180028  61.1713265  72.3307267  98.8122890  61.0337716
  71.2376023  98.7696430  62.0802606  63.6556989  85.3444158  54.1422177
  64.3765352  85.7225411  53.6385894  63.0322293  86.0633035  54.2457155
  62.5387334  89.0075021  61.6551254  62.3931914  89.3215324  62.5475536
  62.0612537  89.6259921  61.1022153  71.1956036  99.5365696  56.5275356
  71.3692914  98.9712118  55.7749209  71.6884927 100.3366591  56.3454846
  77.0495427  92.3002119  58.1465656  77.4926573  91.5509444  57.7484779
  76.1721937  92.2912255  57.7639388  72.1831208  98.8532460  53.6272255
  72.8782113  99.4739153  53.8459569  72.5254359  98.0027812  53.9024633
  74.0822632  96.3032166  55.1559585  74.6073956  96.6419439  54.4308905
  73.9944984  95.3679181  54.9722720  65.7442680 100.2166239  67.2849462
  66.0529807  99.9715386  68.1572162  66.5418162 100.4212878  66.7968332
  65.7663292 102.3704149  59.5154839  65.3268283 101.8780528  60.2087695
  66.5171409 101.8277117  59.2746914  58.2455631  98.5615690  59.5179467
  59.0713651  98.2619462  59.1378110  57.8949683  97.7923312  59.9669255
  63.2137164  97.9142158  61.5877140  62.5917174  97.2512863  61.2879368
  63.8842031  97.9403290  60.9050788  56.4464236  96.4802016  60.4768400
  55.6096145  96.0524191  60.2952402  56.4187882  96.6734460  61.4139191
  73.7716538  96.9365069  70.4610783  72.9812081  96.9189208  69.9215283
  73.5349892  97.4753363  71.2159820  73.8914413  93.7857536  67.7743512
  73.9412418  93.6207543  68.7159035  73.7828336  92.9184795  67.3841393
  62.7750671  96.4646082  55.0635601  62.9238792  97.1481546  54.4102274
  63.5817115  96.4451172  55.5785057  75.3932610  96.2054477  68.0185533
  75.1017418  96.5684458  68.8548994  74.7804741  95.4921486  67.8398866
  76.5928292  93.7707357  60.5388104  77.4275183  94.2097161  60.7025664
  76.7287421  93.2946010  59.7196349  73.6419798  91.3287092  66.4865591
  74.1173919  91.5214738  65.6784443  72.7185363  91.3846278  66.2408975
  60.5303304  92.4911259  56.0696670  60.2849346  91.5873589  56.2676880
  60.6999219  92.4928410  55.1276148  66.2746077  98.9594212  52.5347348
  65.7020044  99.5784399  52.0817820  66.8478871  99.5093574  53.0687270
  69.4943337  99.2431362  53.6655931  70.4274010  99.1776924  53.8688806
  69.4066550 100.0787629  53.2070463  72.1231353  98.5597232  50.6259878
  72.0444985  98.2257096  51.5195636  72.9441020  99.0519000  50.6251350
  74.8209545  91.4258972  63.8336197  74.7885865  90.4874972  64.0195881
  75.4310168  91.5043008  63.1002022  66.6592875  90.2955025  49.8763401
  67.6051980  90.1661233  49.9451819  66.2807120  89.5569687  50.3532829
  80.6386094  92.4874979  62.9742233  81.3689483  92.2260267  63.5349937
  80.0293040  91.7503701  63.0144301  78.7201392  90.6282841  63.5716685
  77.9934555  90.4938806  62.9633176  78.3048678  90.9359670  64.3773403
  66.5431568  94.3472771  71.3364058  67.4634577  94.5251370  71.5304104
  66.5081151  93.4028816  71.1843757  64.8435793  88.2205001  49.8118286
  63.9367248  87.9238114  49.8881000  65.1211774  87.9234819  48.9452572
  59.5393641  92.2573806  63.9786839  59.7579650  93.1890913  63.9974873
  59.9519414  91.8981780  64.7641643  66.4597858  82.7641891  55.9662527
  65.6498587  82.4188976  56.3417773  67.1482275  82.4549435  56.5550139
  63.6134577  85.0791936  49.9530265  64.4753741  85.4046835  50.2126082
  63.7984921  84.2923432  49.4403331  55.6301993  93.1614276  62.2310454
  54.9365464  92.7468229  61.7180408  56.3774984  93.2034813  61.6343873
  64.2752776  91.2604150  72.1854649  63.7919858  92.0604510  72.3918538
  64.3613715  91.2712095  71.2322093  57.5438735  93.0932530  60.1076469
  57.5209424  93.1920217  59.1558352  57.8539372  93.9397681  60.4293635
  60.2026113  95.1508685  64.2223083  61.1569367  95.1192627  64.1553015
  60.0038637  94.6899309  65.0373309  60.7925495  93.7209801  66.7893881
  61.6118384  94.2153880  66.8128718  61.0662303  92.8041769  66.7611448
  76.3379186  86.8494693  60.9250116  76.9323677  86.6090429  60.2143425
  76.4105770  86.1301824  61.5523653  58.5576342 100.6928304  61.2393281
  58.4230810  99.9328705  60.6731279  58.1408404 101.4169204  60.7722070
  69.6935305  95.8765228  50.2469856  70.3971155  96.0815230  50.8627512
  68.9697954  96.4441990  50.5118940  70.5233115  91.6275089  56.3672127
  70.4668317  92.0843641  55.5279759  71.0761458  90.8665774  56.1894969
  74.3337921  87.4164821  57.1922246  74.0774856  87.0161457  58.0230454
  73.7090789  88.1308615  57.0672385  78.6450259  90.1560894  59.6993537
  78.0849817  90.2254084  60.4725100  78.0393763  89.9801879  58.9793034
  61.7145468 101.5897621  61.4511724  61.5977852 102.5343054  61.3490414
  60.8937914 101.2871183  61.8397523  71.6022003  96.3147757  52.2968316
  72.4367606  95.8828956  52.1145791  71.4406345  96.1429771  53.2245211
  71.2567895  92.8179870  53.6624656  71.2016699  92.6524142  52.7213100
  70.6313950  93.5255903  53.8186845  68.5713802  95.1228782  72.9878219
  69.4404962  95.2969435  72.6264853  68.0920553  95.9423199  72.8653948
  64.5664020  82.3187979  53.2409974  64.5542690  83.2629819  53.3978245
  65.4587442  82.1358125  52.9469435  62.7399982 102.2425883  64.6667652
  63.6427229 102.2749493  64.9834147  62.5137352 101.3126334  64.6813988
  64.4953584 100.9956870  61.3277731  63.5449215 100.9958731  61.2142103
  64.7986070 100.2489604  60.8113765  80.2306278 106.8317408  62.3923493
  80.8684688 106.7124156  61.6886833  80.1127121 107.7798252  62.4511445
  77.0395984 106.7844836  62.3285018  76.7014495 106.6685901  61.4405553
  77.9085752 106.3836001  62.3086024  72.8982800 108.6380313  58.3181909
  72.3347665 108.5470250  57.5498197  72.7835195 107.8180217  58.7984401
  77.5215767 107.9379688  68.2871223  77.5104408 107.5432486  67.4151727
  77.6836406 107.2045761  68.8804995  70.4447232 110.1331504  61.1566129
  71.2368523 109.7922329  60.7412429  70.6843882 110.2426479  62.0768283
  78.4782358 112.3051280  53.6296374  77.8270338 112.8905361  53.2430388
  79.2726721 112.8357475  53.6891411  72.4037986 109.3940418  54.0283508
  73.1768862 108.8469405  53.8896384  72.7563384 110.2584667  54.2397969
  74.2423028 110.7216800  67.2350407  73.9512894 111.6262431  67.1197074
  74.8780012 110.7633327  67.9494477  75.1679235 108.0993648  63.8251767
  75.7642807 107.8749671  63.1108730  75.2254206 107.3578394  64.4277215
  74.7404263 105.5533084  51.6601958  74.9929784 105.0314605  50.8985421
  73.8028822 105.3899229  51.7628642  79.7847546 104.5568862  59.4676701
  80.5710635 104.1388285  59.1167118  80.0486250 105.4614954  59.6358350
  79.9557623 109.9941712  54.1665358  79.3203456 110.0676339  54.8786263
  79.6255030 110.5835311  53.4884437  85.1855973 104.4944095  60.3709680
  85.9181145 103.9243312  60.6047509  84.4295329 104.1065696  60.8116185
  74.4600552 107.4561190  53.8626333  74.3436810 106.7806093  54.5307417
  74.5702812 106.9693564  53.0458486  76.8032093 106.9171337  57.5673022
  76.4390300 106.3901958  58.2785944  77.6599209 106.5269806  57.3939508
  82.7081394  98.2065669  64.8304288  82.3764718  99.0761080  64.6065503
  82.1127007  97.8901953  65.5098319  76.4437580 101.9461236  52.5634371
  76.6111982 102.8141473  52.9304842  76.2534749 102.1088518  51.6395660
  79.2012913 110.4078215  64.2300201  78.9013636 111.3103254  64.1216008
  78.8563973 110.1410399  65.0821354  72.6525395 106.8592012  60.2636906
  71.7275891 106.7268226  60.4714597  72.9009808 107.6386231  60.7606848
  82.6010057 102.9260756  61.9097638  81.6926934 102.8576164  61.6156399
  82.5497653 103.4032700  62.7379464  76.4226801 104.4018894  53.5481038
  76.3026426 104.8475945  54.3866518  75.7279389 104.7504212  52.9894576
  70.0134206 106.5025286  61.0980695  70.1426587 106.7559765  62.0120106
  69.3331657 107.0952994  60.7785350  74.1833693 117.1722536  57.1971169
  74.1057723 118.1230361  57.2759649  73.5795337 116.8268408  57.8546095
  76.6750923 104.3450401  69.8532536  75.8984257 104.9044321  69.8435400
  77.3141486 104.8307184  70.3747406  84.4671703 101.1277194  63.6875512
  83.8246084 101.4209727  63.0415307  83.9626632 101.0130114  64.4928709
  82.1211867 104.8740367  54.3761372  83.0329723 105.1067754  54.2009069
  81.6121514 105.4577411  53.8136450  74.9297295 107.1535854  69.4150503
  75.6711979 107.6920898  69.1385326  74.2234281 107.7802143  69.5722054
  80.4052635 109.2964995  68.0122664  80.8135991 108.8547405  67.2677297
  79.6829896 108.7217622  68.2656857  76.7583705 104.2337602  65.3856221
  77.6044900 104.6577015  65.5290870  76.6982342 103.5771226  66.0794784
  80.7281449 109.8566186  61.7674953  80.0990312 110.0211900  61.0651021
  80.3407111 110.2707795  62.5385917  84.6070681 110.7920623  59.1219317
  83.9221719 111.1719525  58.5716350  84.6914531 111.4015950  59.8551265
  79.9083150 101.8941970  67.0437395  79.6644082 102.6484031  66.5071670
  80.1843081 102.2727318  67.8784642  81.8621613 108.4380582  65.7214660
  82.0738508 109.0812342  65.0449041  81.8151361 107.6042899  65.2536590
  79.4647842 101.0498403  62.6251232  78.6032321 101.3479657  62.9167970
  79.4910276 101.2668802  61.6932265  76.2809411 109.5940594  59.0325038
  76.7447757 109.8728297  58.2429661  76.0166209 108.6924038  58.8498129
  73.1733492 109.1412075  61.9704801  73.7434849 109.5699344  61.3322286
  73.7641604 108.8594660  62.6688987  75.2178297 105.7163746  55.8414603
  75.9202341 106.1684790  56.3088530  74.8858926 105.0747565  56.4694496
  73.6658659 104.3075503  70.2165813  73.0357319 104.9891783  70.4501209
  73.5594747 104.1958584  69.2718951  68.9603631 103.9747299  61.1431737
  68.1702685 104.2304827  60.6671847  69.4514879 104.7895637  61.2483777
  82.9767441 111.3152538  63.8937018  83.7984884 110.9132725  63.6119699
  82.9729844 111.2120772  64.8453133  70.9118377 104.3391878  58.1015214
  70.1149540 104.4510572  58.6198709  70.6843969 104.6778530  57.2356104
  76.7424044 110.8636581  66.0497728  76.8068477 111.3256988  66.8855900
  76.0334968 110.2333946  66.1780038  67.2441334 104.2277789  63.5746728
  67.4949373 105.1124799  63.8404304  67.7800883 104.0482391  62.8021819
  91.0673434 107.6591286  60.2421989  90.3137142 107.0898684  60.0865994
  91.2020975 107.6253951  61.1892624  76.4572062 112.5304689  55.9176709
  76.3217737 113.3756224  56.3461556  76.9981874 112.7323966  55.1542642
  72.9439402  98.6096268  72.5791064  72.5506347  98.0562467  73.2538708
  73.7605542  98.9206847  72.9697581  69.9101459 110.0480127  56.4904634
  70.4225980 110.8423377  56.6410198  70.5624172 109.3506417  56.4238235
  71.7196344 113.1645883  58.5727387  71.8962972 114.0863848  58.3848371
  72.5153177 112.8504302  59.0021767  75.8607363 100.0254148  70.1711320
  76.6017076 100.6261301  70.0915783  76.0925285  99.2831785  69.6129363
  71.0048701 105.2110515  68.4489550  70.8902216 104.3095772  68.7496649
  70.1493218 105.4574212  68.0974367  78.0840538 113.1528255  70.0477051
  77.6404392 112.3664634  69.7297955  78.7457752 113.3407406  69.3820941
  72.8427659 114.6824057  64.5737729  73.3935085 114.5541120  63.8014723
  72.0039135 114.9818946  64.2232622  80.1821776 113.4331055  68.0758452
  80.1640252 114.2539936  67.5838721  81.1041696 113.3085130  68.3008593
  76.6394830 110.9475185  68.9181960  77.1723167 110.1863473  68.6881268
  76.1108912 110.6548836  69.6606115  79.8064525  96.0535250  64.4475602
  79.4628795  96.9436892  64.3714713  80.1743488  95.8636908  63.5845187
  67.8750376 108.3768781  57.2664204  68.7125598 108.7865789  57.0497912
  68.0528644 107.4368223  57.2364398  79.7714808 106.0443862  52.9548037
  79.2561432 106.8148466  53.1936424  79.4992117 105.3708998  53.5781099
  77.3561919 100.8893562  58.0133275  76.5003516 100.5000413  57.8338914
  77.7688871 100.9685523  57.1533061  78.8861066  98.4239906  62.4124835
  78.3825861  98.3870041  61.5992641  79.1791673  99.3332648  62.4721492
  75.1303952  98.5078635  61.4191017  75.9956948  98.3121444  61.0596906
  75.1981461  98.2788987  62.3460374  84.7449082 108.7976216  54.8901211
  83.9678525 108.4587376  54.4456373  85.4240563 108.8028839  54.2156176
  79.5601111 103.9170954  54.7807818  79.2551247 104.2317103  55.6317961
  80.5131553 103.9952374  54.8235151  78.0047543 110.0761177  56.4300772
  77.4768905 109.3413937  56.1174010  77.5035046 110.8535853  56.1840741
  82.9840389 108.2710198  61.5467819  82.3264064 108.9609459  61.6347947
  83.7880788 108.6606629  61.8901805  72.7366271 100.7380843  58.7907384
  73.3110023 100.5156025  58.0580577  73.3237253 100.8069538  59.5435985
  81.7945848 106.6254570  59.5971760  82.3077730 107.2584562  60.0993470
  82.4447072 106.0255766  59.2315120  73.0635858 102.7685304  52.8103269
  72.2273170 103.1059991  53.1312544  72.9240628 102.6334284  51.8730406
  75.0388939  97.6122092  57.5182453  74.3853351  97.2971109  56.8939068
  74.9969413  96.9897833  58.2442276  76.1500143 107.8941387  49.4335745
  75.2427205 107.6630641  49.6326894  76.6471175 107.0979007  49.6209727
  79.0568222 116.6038894  52.3532431  78.3829921 116.9070591  52.9617389
  79.4434044 117.4067975  52.0037889  78.2726679 104.1004026  61.8430101
  77.3549240 104.3218973  61.6851789  78.6886822 104.1750336  60.9841808
  79.0561727 105.4995441  56.9732781  79.8033546 106.0116839  56.6639903
  79.3253316 105.1779494  57.8337175  77.3288377 107.9953982  53.9559735
  76.4199596 107.7113015  54.0532205  77.3583461 108.4153061  53.0963042
  82.5607644 111.6060572  57.7250903  82.1069971 110.7651482  57.7816093
  81.9301611 112.2421970  58.0625683  81.5040564 102.5352558  58.9551570
  80.7663321 102.0229944  59.2861813  81.7567337 102.0952939  58.1434847
  81.0040583 113.4437068  58.6600721  81.2963558 114.0042125  57.9413087
  81.5139204 113.7365629  59.4153880  81.6052191  95.3128810  59.5493340
  81.9111068  94.4526173  59.2619255  82.3304796  95.9046430  59.3492334
  67.8976547 105.7159496  57.9374938  67.7000947 105.1228857  57.2126004
  67.3423211 105.4111706  58.6550876  75.8773271 105.6082603  60.0569531
  75.9321881 104.6556439  59.9812007  75.0664473 105.7642042  60.5410829
  77.0264465 109.5362726  51.2947814  76.5883895 108.8198585  50.8353451
  77.7674905 109.7638841  50.7332905  73.8165631 104.2259662  57.8159910
  73.0033496 104.5253833  58.2225102  74.3124625 103.8315351  58.5334392
  75.9674209 114.2217419  59.7494174  75.9250387 114.4478266  58.8202706
  76.8836908 113.9880794  59.8979975  79.4139842 104.6901487  66.6474803
  79.7689230 104.9172960  67.5069269  80.0611974 105.0219864  66.0252059
  85.1437579 107.8119923  57.3524133  85.0055478 108.0021519  56.4245322
  84.7873798 108.5739306  57.8092184  73.3079706 101.7978018  63.4321145
  73.9479085 101.6566777  62.7344108  72.4757236 101.5112531  63.0559747
  85.1706959 109.8796450  62.3635404  85.6043466 109.7871739  63.2118458
  85.8838540 109.8553950  61.7255420  74.0840009 111.0980448  59.5456137
  74.8780608 110.6030769  59.3438712  73.3731702 110.5698312  59.1823843
  78.9034854 113.4798544  63.8968505  78.9571876 114.0489480  64.6646221
  78.0349635 113.6500429  63.5322542  70.3922773 105.2423530  55.6215890
  69.4620361 105.1807986  55.8385852  70.4880245 104.7199483  54.8252531
  70.3108322 101.7678343  58.2094131  70.5715139 102.6823676  58.1003292
  71.1325494 101.3002786  58.3590744  71.7833247 103.1816100  65.3792956
  72.4556301 102.9733462  64.7305605  70.9563034 102.9838186  64.9398188
  86.0322509 109.9220151  64.8968289  86.2258399 110.8265961  65.1427564
  85.9323127 109.4627570  65.7306874  77.6858819  99.8078041  67.3958617
  77.0386734 100.5067991  67.3023093  78.4559835 100.2414185  67.7634865
  81.0937617 110.0726893  70.4709170  80.9423124 109.8437445  69.5539254
  81.0842297 111.0297495  70.4840515  77.8622954 107.6458806  65.4555436
  78.7915014 107.7969966  65.2824404  77.4413984 107.7342827  64.6004083
  76.6611285 111.6709470  63.2253974  76.5222371 111.3028255  64.0979912
  75.8725882 112.1857110  63.0537932  77.2559437 116.7718567  54.5679511
  77.4311193 116.3006610  55.3825133  76.5692225 117.3984333  54.7960771
  78.2116501 111.0491073  60.6142812  77.8766333 111.0091843  61.5100462
  77.7120446 110.3835789  60.1413222  72.1860745 106.4558703  66.1395393
  72.0480542 105.7238942  66.7406932  73.0965668 106.3667603  65.8579581
  81.1475692 108.3947107  50.8879872  80.5304863 107.6693936  50.7912924
  80.6792181 109.1556468  50.5446946  74.8143045 106.1678662  65.6279073
  75.5242664 105.5271855  65.5865691  74.7712353 106.4191557  66.5505253
  82.8029824 113.1046016  68.5485652  82.7442370 112.4205236  67.8816235
  83.2049342 113.8465006  68.0966278  73.5271979 103.1543880  67.4474712
  72.9909336 102.7034619  68.0996308  72.9388688 103.2889789  66.7045177
  71.8220523 119.9207930  61.3419371  72.0617121 120.5526454  62.0198389
  70.9789719 119.5695970  61.6284730  72.9374238 102.6132532  50.0101176
  72.0603704 102.4921333  49.6463422  73.4131991 101.8218610  49.7580064
  82.8047231 111.0685600  66.7799632  81.9174010 110.7311522  66.9026030
  83.3745782 110.3368631  67.0168397  64.4576378 107.4009691  60.1042683
  65.1447418 107.0871422  59.5163698  64.3024507 108.3051056  59.8309934
  69.2611100 102.2899888  64.5327707  69.1769289 101.6825558  63.7978117
  68.4393807 102.7808906  64.5337203  76.3348385 115.7287052  63.7460875
  76.2618556 116.5342024  64.2580179  75.8925778 115.9279018  62.9208896
  76.1238164 114.9658822  57.2563696  75.3405686 115.5080502  57.3501921
  76.8230909 115.4832802  57.6557937  79.4334814 100.7753452  59.8997902
  79.9303514 100.0223414  59.5798972  78.6621796 100.8117768  59.3341111
  87.2864572 106.4793817  61.5416193  87.2754448 107.3618533  61.1710126
  86.4181951 106.1265368  61.3470730  78.7947068 115.6273886  65.9019033
  79.5075040 116.2621351  65.8294935  78.3037097 115.7237752  65.0859035
  80.5164595 109.5325139  57.4736325  79.5820874 109.6526601  57.3041029
  80.6941263 108.6297606  57.2096335  76.0169783 102.9170835  59.6269586
  75.6467571 102.3641875  60.3150492  76.5128875 102.3128968  59.0744586
  83.9037146 105.3742458  58.0086359  84.3697599 106.2070450  57.9346662
  84.3544647 104.9087440  58.7131618  73.8458982 113.3768330  66.7224604
  74.5468441 114.0104813  66.8753998  73.3754097 113.7183061  65.9620244
  81.9713377 111.7186279  55.0072511  82.2473221 111.6042874  55.9166385
  81.1017876 111.3203764  54.9684684  81.8753809  97.7423045  62.0477261
  80.9616889  97.9727272  62.2159468  82.3046911  97.8261489  62.8991293
  81.6460268 105.9312937  64.5477155  80.9931718 106.1788844  63.8929607
  82.0240647 105.1177075  64.2139632  78.6067441 115.9672630  58.6505325
  78.7889836 115.1494286  59.1133077  79.4300427 116.1840322  58.2130215
  78.9409607 114.8940815  55.9120373  79.4697373 114.3833270  55.2990535
  79.2037827 114.5783346  56.7765906  77.6947841 106.6732748  71.0343192
  77.0188478 106.5726877  71.7045567  78.5175474 106.5171962  71.4979189
  69.4426700 112.9104685  63.6555707  70.0280136 112.1648373  63.7883611
  69.2451538 113.2208641  64.5392371  72.2965355 115.9455932  58.6718149
  71.6275730 116.4302060  58.1882189  72.1578225 116.1925152  59.5861528
  64.0344354 105.4810285  62.3760150  64.0728454 104.9473876  63.1697268
  63.5284647 104.9545490  61.7571127  76.4370623 117.9799676  65.2700808
  76.9888931 118.1431297  66.0349893  76.7776817 118.5704113  64.5980833
  71.4135117 100.3274825  65.8722692  71.4776443 101.1889656  65.4600090
  71.3502237  99.7148827  65.1395051  70.8887389 102.3997958  69.5195727
  71.5159428 102.0175035  70.1333251  70.0315308 102.1812160  69.8851419
  81.2881498 112.8060933  71.1249462  81.8321402 113.4190891  70.6304417
  80.7068343 113.3640511  71.6416475  67.6652932 104.2074387  55.4514081
  67.9606373 103.2985065  55.3981135  66.7640968 104.1862126  55.1295084
  79.5739011 115.9281651  62.2564490  79.4490150 115.1271391  61.7475435
  80.2318102 116.4227844  61.7678460  71.1947179 102.2830384  61.4341630
  70.4733765 102.8966351  61.2949103  71.9840435 102.8188148  61.3558276
  81.6373919 113.7290671  63.8844040  80.6904255 113.6096022  63.8122367
  81.9856692 112.8413169  63.9670301  73.9973492  99.6184810  67.7082282
  74.5207894  99.8647107  68.4708591  73.7785826 100.4504845  67.2885419
  69.3940774 101.8888485  55.5753407  69.0653480 101.0085864  55.3928513
  69.7480144 101.8336153  56.4629796  78.6420352 113.5243387  60.0848392
  78.4945315 112.5960095  60.2655962  79.4673846 113.5463478  59.6005467
  72.5082597 102.1761454  55.9428884  72.8478669 102.7047376  55.2207493
  72.9554717 102.5141861  56.7187451  82.2454474 114.3471946  61.1713265
  83.1701022 114.1414807  61.0337716  82.0769778 114.0988347  62.0802606
  75.2026038 100.5598505  65.3931952  74.8622858  99.7606318  65.7952632
  74.4965044 100.8600216  64.8208786  75.8542509  97.6447818  63.8459275
  76.6768579  97.1708296  63.7238166  76.0980573  98.4238301  64.3457962
  74.4950744 100.6736076  54.1422177  75.2159106 101.0517329  53.6385894
  73.8716048 101.3924953  54.2457155  78.6381867 101.3781225  55.0780509
  78.8545481 102.2605863  54.7769338  78.1575934 100.9867438  54.3486151
  73.3781088 104.3366938  61.6551254  73.2325669 104.6507241  62.5475536
  72.9006292 104.9551839  61.1022153  75.2377471 101.3269486  61.7032144
  75.2239040 100.4310580  61.3664441  75.9549899 101.3340150  62.3370430
  77.0903602 101.7606826  63.7485271  76.8321380 102.6823897  63.7469601
  76.5588642 101.3637261  64.4385735  82.0349790 114.8657614  56.5275356
  82.2086668 114.3004036  55.7749209  82.5278682 115.6658508  56.3454846
  67.8526750 106.8772283  64.5938915  67.3080218 107.6532091  64.7259190
  68.7306100 107.2243087  64.4358037  74.6414367 100.2083867  56.9719714
  74.7630278  99.2800513  57.1710601  74.3516409 100.2222552  56.0598029
  77.5105557  97.8938777  60.1086434  77.5327254  97.9578110  59.1538413
  77.9273616  97.0543286  60.3026940  87.8889182 107.6294037  58.1465656
  88.3320328 106.8801362  57.7484779  87.0115692 107.6204173  57.7639388
  83.0224963 114.1824378  53.6272255  83.7175868 114.8031071  53.8459569
  83.3648113 113.3319729  53.9024633  68.6392772 106.0042179  67.4869072
  67.8974508 106.1524814  68.0733702  68.3185516 106.2650445  66.6235821
  84.9216386 111.6324083  55.1559585  85.4467710 111.9711356  54.4308905
  84.8338739 110.6971099  54.9722720  76.5836435 115.5458157  67.2849462
  76.8923561 115.3007304  68.1572162  77.3811917 115.7504796  66.7968332
  76.6057047 117.6996067  59.5154839  76.1662037 117.2072445  60.2087695
  77.3565164 117.1569034  59.2746914  69.0849386 113.8907608  59.5179467
  69.9107406 113.5911380  59.1378110  68.7343438 113.1215230  59.9669255
  74.0530919 113.2434076  61.5877140  73.4310928 112.5804781  61.2879368
  74.7235786 113.2695208  60.9050788  67.2857991 111.8093934  60.4768400
  66.4489899 111.3816108  60.2952402  67.2581636 112.0026377  61.4139191
  74.1255446 101.7215864  71.1809646  74.1743602 102.5977987  70.7987416
  74.6677961 101.1793257  70.6081290  84.6110292 112.2656987  70.4610783
  83.8205836 112.2481126  69.9215283  84.3743647 112.8045281  71.2159820
  84.7308167 109.1149454  67.7743512  84.7806172 108.9499461  68.7159035
  84.6222091 108.2476713  67.3841393  73.6144426 111.7937999  55.0635601
  73.7632546 112.4773464  54.4102274  74.4210869 111.7743089  55.5785057
  82.0211930 105.0980382  69.0902819  82.9221792 104.9586846  68.7986816
  82.0959904 105.2634836  70.0300996  76.3554735 102.4747236  67.9356005
  75.4858044 102.7680802  67.6638593  76.5914215 103.0587681  68.6563269
  86.2326364 111.5346395  68.0185533  85.9411172 111.8976376  68.8548994
  85.6198495 110.8213403  67.8398866  87.4322046 109.0999275  60.5388104
  88.2668938 109.5389079  60.7025664  87.5681175 108.6237928  59.7196349
  84.4813552 106.6579010  66.4865591  84.9567674 106.8506656  65.6784443
  83.5579118 106.7138195  66.2408975  71.3697059 107.8203177  56.0696670
  71.1243101 106.9165507  56.2676880  71.5392973 107.8220327  55.1276148
  79.0593769  98.6926853  65.4521425  79.5775713  99.4287880  65.1267914
  78.7048902  98.9990847  66.2868184  70.6392706 103.5531534  53.5682831
  69.9461951 103.6275889  52.9122867  70.3944458 102.7891878  54.0904348
  79.3106363  95.1127136  60.9722322  79.5908117  94.4450325  61.5982748
  80.0956970  95.3056231  60.4596986  77.1139831 114.2886130  52.5347348
  76.5413799 114.9076317  52.0817820  77.6872625 114.8385491  53.0687270
  83.1815221 103.5344770  64.7193897  84.1332644 103.6342867  64.7406121
  83.0118672 102.7423038  65.2291981  81.2029601 100.6200353  64.9053298
  80.6079533 100.9005366  64.2099787  80.9179297 101.1094254  65.6770039
  80.3337091 114.5723280  53.6655931  81.2667764 114.5068841  53.8688806
  80.2460304 115.4079547  53.2070463  82.9625108 113.8889150  50.6259878
  82.8838739 113.5549014  51.5195636  83.7834775 114.3810918  50.6251350
  85.6603299 106.7550889  63.8336197  85.6279619 105.8166890  64.0195881
  86.2703923 106.8334926  63.1002022  77.4986630 105.6246942  49.8763401
  78.4445735 105.4953151  49.9451819  77.1200875 104.8861604  50.3532829
  85.8097788 103.5461933  63.8794480  85.2936836 102.7620389  63.6924409
  86.6937736 103.2180649  64.0440999  83.4708514  97.2902948  59.8390293
  83.2733336  96.9818037  60.7233625  84.0808220  98.0164587  59.9688222
  91.4779849 107.8166896  62.9742233  92.2083237 107.5552184  63.5349937
  90.8686794 107.0795618  63.0144301  89.5595146 105.9574759  63.5716685
  88.8328310 105.8230724  62.9633176  89.1442433 106.2651587  64.3773403
  77.3825322 109.6764689  71.3364058  78.3028332 109.8543288  71.5304104
  77.3474905 108.7320734  71.1843757  75.6829547 103.5496919  49.8118286
  74.7761002 103.2530032  49.8881000  75.9605528 103.2526737  48.9452572
  66.6007487 104.8703282  60.2617332  66.2810272 104.0168590  59.9691706
  66.0540916 105.0851860  61.0175300  70.3787395 107.5865723  63.9786839
  70.5973405 108.5182831  63.9974873  70.7913169 107.2273698  64.7641643
  77.2991613  98.0933809  55.9662527  76.4892341  97.7480893  56.3417773
  77.9876030  97.7841352  56.5550139  79.2282161  97.1711855  57.5886824
  79.7813200  97.5907309  58.2476847  79.4652247  96.2447603  57.6309780
  75.2515260 103.1598929  73.3689588  75.1511987 104.1093286  73.3001679
  75.0336802 102.8317168  72.4965658  74.4528332 100.4083854  49.9530265
  75.3147496 100.7338752  50.2126082  74.6378676  99.6215350  49.4403331
  66.4695747 108.4906194  62.2310454  65.7759219 108.0760146  61.7180408
  67.2168738 108.5326730  61.6343873  82.6060968  99.2812380  57.0965488
  82.0259637  99.9397185  56.7143541  82.3396901  98.4589725  56.6852906
  81.0564535  98.6817438  59.2986808  81.5564313  98.7933973  58.4901127
  81.7000142  98.3778491  59.9387617  75.1146530 106.5896068  72.1854649
  74.6313612 107.3896428  72.3918538  75.2007469 106.6004013  71.2322093
  68.3832490 108.4224447  60.1076469  68.3603178 108.5212135  59.1558352
  68.6933126 109.2689598  60.4293635  71.0419868 110.4800602  64.2223083
  71.9963121 110.4484545  64.1553015  70.8432391 110.0191226  65.0373309
  71.6319250 109.0501719  66.7893881  72.4512139 109.5445797  66.8128718
  71.9056058 108.1333687  66.7611448  81.3885846 101.4412471  56.1521836
  80.5011701 101.7262121  55.9342031  81.8039835 101.2806234  55.3049113
  84.7400382 101.4658992  59.8676176  85.5160772 101.9555444  60.1400792
  84.0148516 101.8917046  60.3248045  87.1772941 102.1786611  60.9250116
  87.7717432 101.9382347  60.2143425  87.2499525 101.4593742  61.5523653
  69.3970097 116.0220222  61.2393281  69.2624565 115.2620623  60.6731279
  68.9802159 116.7461122  60.7722070  80.5329060 111.2057146  50.2469856
  81.2364910 111.4107148  50.8627512  79.8091708 111.7733907  50.5118940
  81.3626870 106.9567007  56.3672127  81.3062071 107.4135558  55.5279759
  81.9155212 106.1957691  56.1894969  85.1731676 102.7456739  57.1922246
  84.9168610 102.3453374  58.0230454  84.5484544 103.4600533  57.0672385
  89.4844014 105.4852812  59.6993537  88.9243572 105.5546001  60.4725100
  88.8787517 105.3093797  58.9793034  72.5539223 116.9189539  61.4511724
  72.4371607 117.8634971  61.3490414  71.7331669 116.6163101  61.8397523
  82.4415757 111.6439675  52.2968316  83.2761361 111.2120873  52.1145791
  82.2800100 111.4721688  53.2245211  82.0961649 108.1471788  53.6624656
  82.0410453 107.9816059  52.7213100  81.4707705 108.8547821  53.8186845
  66.8854164 103.3839852  67.4886078  67.5313028 102.8738806  67.9773303
  66.6771315 104.1208534  68.0629503  79.4107556 110.4520700  72.9878219
  80.2798716 110.6261352  72.6264853  78.9314308 111.2715117  72.8653948
  75.4057775  97.6479897  53.2409974  75.3936445  98.5921737  53.3978245
  76.2981197  97.4650042  52.9469435  73.5793737 117.5717801  64.6667652
  74.4820983 117.6041411  64.9834147  73.3531107 116.6418252  64.6813988
  75.3347339 116.3248787  61.3277731  74.3842970 116.3250649  61.2142103
  75.6379825 115.5781522  60.8113765  79.2209894  94.2422674  57.4955911
  78.4542290  93.6881160  57.6412593  79.6320599  94.3144542  58.3570063
  71.2251655 100.5307469  71.5861092  72.0883117 100.1744274  71.7964417
  70.6517066 100.1921364  72.2736496  91.0700032 122.1609326  62.3923493
  91.7078442 122.0416073  61.6886833  90.9520875 123.1090170  62.4511445
  87.8789738 122.1136754  62.3285018  87.5408250 121.9977819  61.4405553
  88.7479507 121.7127919  62.3086024  83.7376554 123.9672230  58.3181909
  83.1741419 123.8762167  57.5498197  83.6228949 123.1472135  58.7984401
  88.3609521 123.2671606  68.2871223  88.3498162 122.8724404  67.4151727
  88.5230161 122.5337678  68.8804995  81.2840986 125.4623422  61.1566129
  82.0762278 125.1214247  60.7412429  81.5237636 125.5718397  62.0768283
  83.2431740 124.7232335  54.0283508  84.0162616 124.1761322  53.8896384
  83.5957139 125.5876585  54.2397969  85.0816783 126.0508717  67.2350407
  84.7906649 126.9554348  67.1197074  85.7173767 126.0925245  67.9494477
  86.0072989 123.4285566  63.8251767  86.6036562 123.2041588  63.1108730
  86.0647961 122.6870311  64.4277215  85.5798018 120.8825001  51.6601958
  85.8323538 120.3606523  50.8985421  84.6422577 120.7191147  51.7628642
  90.6241301 119.8860780  59.4676701  91.4104390 119.4680203  59.1167118
  90.8880005 120.7906872  59.6358350  96.0249728 119.8236013  60.3709680
  96.7574900 119.2535230  60.6047509  95.2689083 119.4357613  60.8116185
  85.2994307 122.7853107  53.8626333  85.1830565 122.1098011  54.5307417
  85.4096566 122.2985481  53.0458486  87.6425847 122.2463254  57.5673022
  87.2784055 121.7193875  58.2785944  88.4992963 121.8561723  57.3939508
  93.5475148 113.5357587  64.8304288  93.2158473 114.4052998  64.6065503
  92.9520762 113.2193871  65.5098319  87.2831334 117.2753154  52.5634371
  87.4505737 118.1433390  52.9304842  87.0928504 117.4380436  51.6395660
  83.4919149 122.1883930  60.2636906  82.5669646 122.0560144  60.4714597
  83.7403562 122.9678149  60.7606848  93.4403811 118.2552673  61.9097638
  92.5320689 118.1868082  61.6156399  93.3891407 118.7324618  62.7379464
  87.2620555 119.7310812  53.5481038  87.1420181 120.1767862  54.3866518
  86.5673144 120.0796129  52.9894576  80.8527960 121.8317203  61.0980695
  80.9820341 122.0851682  62.0120106  80.1725411 122.4244911  60.7785350
  87.5144677 119.6742319  69.8532536  86.7378011 120.2336239  69.8435400
  88.1535240 120.1599102  70.3747406  95.3065458 116.4569112  63.6875512
  94.6639838 116.7501645  63.0415307  94.8020386 116.3422032  64.4928709
  92.9605622 120.2032285  54.3761372  93.8723478 120.4359672  54.2009069
  92.4515269 120.7869329  53.8136450  85.7691050 122.4827772  69.4150503
  86.5105734 123.0212816  69.1385326  85.0628035 123.1094061  69.5722054
  91.2446389 124.6256913  68.0122664  91.6529745 124.1839323  67.2677297
  90.5223651 124.0509540  68.2656857  87.5977459 119.5629519  65.3856221
  88.4438654 119.9868933  65.5290870  87.5376097 118.9063144  66.0794784
  90.7476905 117.2233888  67.0437395  90.5037836 117.9775948  66.5071670
  91.0236835 117.6019235  67.8784642  90.3041596 116.3790321  62.6251232
  89.4426075 116.6771574  62.9167970  90.3304031 116.5960720  61.6932265
  87.1203166 124.9232511  59.0325038  87.5841511 125.2020214  58.2429661
  86.8559964 124.0215956  58.8498129  84.0127247 124.4703993  61.9704801
  84.5828604 124.8991261  61.3322286  84.6035359 124.1886578  62.6688987
  86.0572052 121.0455664  55.8414603  86.7596095 121.4976707  56.3088530
  85.7252680 120.4039483  56.4694496  84.5052413 119.6367420  70.2165813
  83.8751074 120.3183701  70.4501209  84.3988501 119.5250502  69.2718951
  79.7997386 119.3039216  61.1431737  79.0096440 119.5596745  60.6671847
  80.2908633 120.1187554  61.2483777  81.7512131 119.6683796  58.1015214
  80.9543294 119.7802490  58.6198709  81.5237723 120.0070448  57.2356104
  87.5817799 126.1928499  66.0497728  87.6462231 126.6548906  66.8855900
  86.8728723 125.5625864  66.1780038  78.0835089 119.5569707  63.5746728
  78.3343127 120.4416717  63.8404304  78.6194637 119.3774308  62.8021819
  83.7833156 113.9388186  72.5791064  83.3900102 113.3854385  73.2538708
  84.5999296 114.2498765  72.9697581  80.7495214 125.3772044  56.4904634
  81.2619734 126.1715295  56.6410198  81.4017927 124.6798335  56.4238235
  82.5590098 128.4937801  58.5727387  82.7356727 129.4155765  58.3848371
  83.3546932 128.1796220  59.0021767  86.7001117 115.3546065  70.1711320
  87.4410830 115.9553218  70.0915783  86.9319040 114.6123703  69.6129363
  81.8442455 120.5402432  68.4489550  81.7295970 119.6387690  68.7496649
  80.9886973 120.7866129  68.0974367  83.6821414 130.0115974  64.5737729
  84.2328839 129.8833038  63.8014723  82.8432890 130.3110863  64.2232622
  87.4788585 126.2767102  68.9181960  88.0116922 125.5155390  68.6881268
  86.9502666 125.9840754  69.6606115  90.6458280 111.3827168  64.4475602
  90.3022549 112.2728810  64.3714713  91.0137243 111.1928826  63.5845187
  78.7144131 123.7060699  57.2664204  79.5519353 124.1157707  57.0497912
  78.8922398 122.7660141  57.2364398  90.6108563 121.3735779  52.9548037
  90.0955186 122.1440384  53.1936424  90.3385871 120.7000915  53.5781099
  88.1955674 116.2185480  58.0133275  87.3397270 115.8292330  57.8338914
  88.6082625 116.2977441  57.1533061  89.7254820 113.7531823  62.4124835
  89.2219616 113.7161958  61.5992641  90.0185427 114.6624566  62.4721492
  85.9697706 113.8370553  61.4191017  86.8350703 113.6413362  61.0596906
  86.0375215 113.6080905  62.3460374  90.3994866 119.2462871  54.7807818
  90.0945001 119.5609021  55.6317961  91.3525308 119.3244291  54.8235151
  88.8441298 125.4053095  56.4300772  88.3162659 124.6705854  56.1174010
  88.3428800 126.1827771  56.1840741  83.5760025 116.0672761  58.7907384
  84.1503777 115.8447942  58.0580577  84.1631008 116.1361455  59.5435985
  92.6339602 121.9546488  59.5971760  93.1471484 122.5876480  60.0993470
  93.2840826 121.3547683  59.2315120  83.9029612 118.0977222  52.8103269
  83.0666925 118.4351909  53.1312544  83.7634382 117.9626202  51.8730406
  85.8782693 112.9414010  57.5182453  85.2247105 112.6263027  56.8939068
  85.8363167 112.3189750  58.2442276  86.9893898 123.2233305  49.4335745
  86.0820960 122.9922558  49.6326894  87.4864930 122.4270924  49.6209727
  89.1120433 119.4295943  61.8430101  88.1942995 119.6510890  61.6851789
  89.5280577 119.5042254  60.9841808  89.8955481 120.8287359  56.9732781
  90.6427300 121.3408756  56.6639903  90.1647071 120.5071412  57.8337175
  88.1682131 123.3245900  53.9559735  87.2593351 123.0404933  54.0532205
  88.1977215 123.7444978  53.0963042  92.3434318 117.8644475  58.9551570
  91.6057075 117.3521862  59.2861813  92.5961092 117.4244857  58.1434847
  92.4445946 110.6420727  59.5493340  92.7504822 109.7818091  59.2619255
  93.1698550 111.2338348  59.3492334  78.7370302 121.0451414  57.9374938
  78.5394701 120.4520775  57.2126004  78.1816966 120.7403624  58.6550876
  86.7167025 120.9374520  60.0569531  86.7715635 119.9848357  59.9812007
  85.9058227 121.0933960  60.5410829  87.8658219 124.8654643  51.2947814
  87.4277649 124.1490502  50.8353451  88.6068660 125.0930758  50.7332905
  84.6559385 119.5551580  57.8159910  83.8427251 119.8545751  58.2225102
  85.1518379 119.1607269  58.5334392  90.2533597 120.0193405  66.6474803
  90.6082985 120.2464878  67.5069269  90.9005728 120.3511781  66.0252059
  84.1473460 117.1269936  63.4321145  84.7872839 116.9858695  62.7344108
  83.3150991 116.8404449  63.0559747  84.9233764 126.4272366  59.5456137
  85.7174362 125.9322686  59.3438712  84.2125456 125.8990229  59.1823843
  81.2316527 120.5715448  55.6215890  80.3014115 120.5099903  55.8385852
  81.3273999 120.0491401  54.8252531  81.1502076 117.0970261  58.2094131
  81.4108894 118.0115594  58.1003292  81.9719249 116.6294703  58.3590744
  82.6227002 118.5108018  65.3792956  83.2950055 118.3025380  64.7305605
  81.7956788 118.3130104  64.9398188  88.5252574 115.1369959  67.3958617
  87.8780489 115.8359908  67.3023093  89.2953589 115.5706103  67.7634865
  88.7016708 122.9750724  65.4555436  89.6308768 123.1261883  65.2824404
  88.2807738 123.0634744  64.6004083  87.5005040 127.0001388  63.2253974
  87.3616126 126.6320173  64.0979912  86.7119636 127.5149028  63.0537932
  89.0510255 126.3782991  60.6142812  88.7160088 126.3383761  61.5100462
  88.5514201 125.7127707  60.1413222  83.0254499 121.7850621  66.1395393
  82.8874297 121.0530860  66.7406932  83.9359422 121.6959521  65.8579581
  91.9869447 123.7239025  50.8879872  91.3698617 122.9985853  50.7912924
  91.5185935 124.4848385  50.5446946  85.6536800 121.4970580  65.6279073
  86.3636418 120.8563772  65.5865691  85.6106108 121.7483475  66.5505253
  84.3665734 118.4835798  67.4474712  83.8303091 118.0326536  68.0996308
  83.7782442 118.6181707  66.7045177  83.7767993 117.9424449  50.0101176
  82.8997459 117.8213250  49.6463422  84.2525746 117.1510528  49.7580064
  75.2970133 122.7301609  60.1042683  75.9841173 122.4163339  59.5163698
  75.1418261 123.6342974  59.8309934  80.1004855 117.6191806  64.5327707
  80.0163044 117.0117475  63.7978117  79.2787561 118.1100824  64.5337203
  90.2728569 116.1045369  59.8997902  90.7697268 115.3515332  59.5798972
  89.5015550 116.1409686  59.3341111  91.3558349 124.8617056  57.4736325
  90.4214628 124.9818519  57.3041029  91.5335018 123.9589523  57.2096335
  86.8563538 118.2462752  59.6269586  86.4861325 117.6933793  60.3150492
  87.3522630 117.6420886  59.0744586  94.7430901 120.7034376  58.0086359
  95.2091353 121.5362367  57.9346662  95.1938401 120.2379357  58.7131618
  84.6852736 128.7060247  66.7224604  85.3862196 129.3396730  66.8753998
  84.2147851 129.0474979  65.9620244  92.7147564 113.0714963  62.0477261
  91.8010643 113.3019190  62.2159468  93.1440665 113.1553407  62.8991293
  92.4854022 121.2604855  64.5477155  91.8325472 121.5080762  63.8929607
  92.8634402 120.4468993  64.2139632  88.5341595 122.0024666  71.0343192
  87.8582232 121.9018795  71.7045567  89.3569229 121.8463880  71.4979189
  80.2820454 128.2396602  63.6555707  80.8673891 127.4940290  63.7883611
  80.0845293 128.5500559  64.5392371  74.8738109 120.8102203  62.3760150
  74.9122208 120.2765793  63.1697268  74.3678402 120.2837408  61.7571127
  82.2528871 115.6566743  65.8722692  82.3170198 116.5181574  65.4600090
  82.1895991 115.0440745  65.1395051  81.7281144 117.7289876  69.5195727
  82.3553183 117.3466953  70.1333251  80.8709063 117.5104078  69.8851419
  78.5046686 119.5366305  55.4514081  78.8000128 118.6276983  55.3981135
  77.6034722 119.5154044  55.1295084  82.0340933 117.6122301  61.4341630
  81.3127519 118.2258269  61.2949103  82.8234189 118.1480066  61.3558276
  84.8367247 114.9476728  67.7082282  85.3601649 115.1939024  68.4708591
  84.6179580 115.7796763  67.2885419  80.2334528 117.2180402  55.5753407
  79.9047234 116.3377781  55.3928513  80.5873899 117.1628071  56.4629796
  83.3476351 117.5053372  55.9428884  83.6872424 118.0339293  55.2207493
  83.7948472 117.8433778  56.7187451  86.0419792 115.8890423  65.3931952
  85.7016612 115.0898236  65.7952632  85.3358798 116.1892134  64.8208786
  86.6936264 112.9739735  63.8459275  87.5162333 112.5000213  63.7238166
  86.9374327 113.7530219  64.3457962  85.3344498 116.0027994  54.1422177
  86.0552861 116.3809247  53.6385894  84.7109802 116.7216871  54.2457155
  89.4775621 116.7073143  55.0780509  89.6939236 117.5897781  54.7769338
  88.9969688 116.3159356  54.3486151  84.2174843 119.6658856  61.6551254
  84.0719423 119.9799159  62.5475536  83.7400046 120.2843756  61.1022153
  86.0771225 116.6561404  61.7032144  86.0632794 115.7602497  61.3664441
  86.7943654 116.6632068  62.3370430  87.9297356 117.0898744  63.7485271
  87.6715134 118.0115815  63.7469601  87.3982397 116.6929179  64.4385735
  78.6920505 122.2064200  64.5938915  78.1473973 122.9824008  64.7259190
  79.5699855 122.5535005  64.4358037  85.4808121 115.5375784  56.9719714
  85.6024033 114.6092430  57.1710601  85.1910164 115.5514470  56.0598029
  88.3499312 113.2230695  60.1086434  88.3721009 113.2870028  59.1538413
  88.7667371 112.3835203  60.3026940  79.4786527 121.3334097  67.4869072
  78.7368263 121.4816732  68.0733702  79.1579271 121.5942362  66.6235821
  79.9243140 129.2199525  59.5179467  80.7501160 128.9203297  59.1378110
  79.5737192 128.4507148  59.9669255  84.8924673 128.5725994  61.5877140
  84.2704683 127.9096699  61.2879368  85.5629540 128.5987125  60.9050788
  78.1251745 127.1385852  60.4768400  77.2883654 126.7108026  60.2952402
  78.0975391 127.3318295  61.4139191  84.9649201 117.0507782  71.1809646
  85.0137356 117.9269904  70.7987416  85.5071715 116.5085175  70.6081290
  84.4538180 127.1229917  55.0635601  84.6026301 127.8065381  54.4102274
  85.2604624 127.1035007  55.5785057  92.8605684 120.4272299  69.0902819
  93.7615547 120.2878764  68.7986816  92.9353659 120.5926754  70.0300996
  87.1948489 117.8039154  67.9356005  86.3251799 118.0972720  67.6638593
  87.4307970 118.3879599  68.6563269  82.2090813 123.1495095  56.0696670
  81.9636855 122.2457425  56.2676880  82.3786728 123.1512245  55.1276148
  89.8987523 114.0218771  65.4521425  90.4169467 114.7579798  65.1267914
  89.5442656 114.3282764  66.2868184  81.4786461 118.8823452  53.5682831
  80.7855706 118.9567807  52.9122867  81.2338213 118.1183796  54.0904348
  90.1500117 110.4419053  60.9722322  90.4301871 109.7742242  61.5982748
  90.9350724 110.6348149  60.4596986  94.0208976 118.8636687  64.7193897
  94.9726399 118.9634785  64.7406121  93.8512426 118.0714956  65.2291981
  92.0423355 115.9492271  64.9053298  91.4473287 116.2297283  64.2099787
  91.7573052 116.4386172  65.6770039  88.3380384 120.9538860  49.8763401
  89.2839489 120.8245068  49.9451819  87.9594629 120.2153522  50.3532829
  96.6491542 118.8753851  63.8794480  96.1330591 118.0912307  63.6924409
  97.5331491 118.5472567  64.0440999  94.3102269 112.6194866  59.8390293
  94.1127090 112.3109954  60.7233625  94.9201975 113.3456505  59.9688222
  88.2219077 125.0056606  71.3364058  89.1422086 125.1835205  71.5304104
  88.1868660 124.0612652  71.1843757  86.5223302 118.8788836  49.8118286
  85.6154757 118.5821949  49.8881000  86.7999283 118.5818655  48.9452572
  77.4401242 120.1995200  60.2617332  77.1204026 119.3460508  59.9691706
  76.8934670 120.4143778  61.0175300  81.2181149 122.9157641  63.9786839
  81.4367159 123.8474749  63.9974873  81.6306923 122.5565615  64.7641643
  88.1385367 113.4225726  55.9662527  87.3286096 113.0772811  56.3417773
  88.8269784 113.1133270  56.5550139  90.0675916 112.5003773  57.5886824
  90.6206954 112.9199226  58.2476847  90.3046002 111.5739521  57.6309780
  86.0909015 118.4890847  73.3689588  85.9905742 119.4385204  73.3001679
  85.8730557 118.1609086  72.4965658  85.2922086 115.7375772  49.9530265
  86.1541250 116.0630670  50.2126082  85.4772430 114.9507268  49.4403331
  77.3089502 123.8198111  62.2310454  76.6152973 123.4052064  61.7180408
  78.0562493 123.8618648  61.6343873  93.4454723 114.6104298  57.0965488
  92.8653392 115.2689102  56.7143541  93.1790655 113.7881643  56.6852906
  91.8958289 114.0109356  59.2986808  92.3958067 114.1225890  58.4901127
  92.5393897 113.7070409  59.9387617  85.9540285 121.9187985  72.1854649
  85.4707367 122.7188346  72.3918538  86.0401224 121.9295930  71.2322093
  79.2226244 123.7516365  60.1076469  79.1996933 123.8504052  59.1558352
  79.5326881 124.5981516  60.4293635  81.8813622 125.8092520  64.2223083
  82.8356876 125.7776463  64.1553015  81.6826146 125.3483144  65.0373309
  82.4713004 124.3793636  66.7893881  83.2905893 124.8737715  66.8128718
  82.7449812 123.4625604  66.7611448  92.2279601 116.7704389  56.1521836
  91.3405456 117.0554039  55.9342031  92.6433590 116.6098152  55.3049113
  95.5794137 116.7950910  59.8676176  96.3554527 117.2847362  60.1400792
  94.8542271 117.2208964  60.3248045  98.0166695 117.5078529  60.9250116
  98.6111186 117.2674265  60.2143425  98.0893279 116.7885659  61.5523653
  92.2020624 122.2858924  56.3672127  92.1455826 122.7427476  55.5279759
  92.7548967 121.5249609  56.1894969  96.0125430 118.0748656  57.1922246
  95.7562365 117.6745292  58.0230454  95.3878298 118.7892450  57.0672385
  92.9355404 123.4763706  53.6624656  92.8804208 123.3107977  52.7213100
  92.3101459 124.1839739  53.8186845  77.7247919 118.7131770  67.4886078
  78.3706782 118.2030724  67.9773303  77.5165070 119.4500452  68.0629503
  86.2451529 112.9771815  53.2409974  86.2330199 113.9213655  53.3978245
  87.1374951 112.7941960  52.9469435  90.0603649 109.5714591  57.4955911
  89.2936044 109.0173078  57.6412593  90.4714354 109.6436460  58.3570063
  82.0645410 115.8599387  71.5861092  82.9276871 115.5036192  71.7964417
  81.4910820 115.5213282  72.2736496  26.0337506   7.1919942  49.1168800
  26.6715916   7.0726690  48.4132140  25.9158349   8.1400786  49.1756752
  22.8427213   7.1447370  49.0530325  22.5045724   7.0288435  48.1650859
  23.7116981   6.7438536  49.0331331  18.7014028   8.9982847  45.0427215
  18.1378894   8.9072784  44.2743503  18.5866423   8.1782751  45.5229708
  23.3246996   8.2982222  55.0116530  23.3135637   7.9035020  54.1397034
  23.4867635   7.5648295  55.6050302  16.2478460  10.4934038  47.8811436
  17.0399752  10.1524863  47.4657735  16.4875111  10.6029014  48.8013589
  24.2813587  12.6653815  40.3541680  23.6301567  13.2507895  39.9675694
  25.0757950  13.1960010  40.4136718  18.2069214   9.7542952  40.7528815
  18.9800090   9.2071939  40.6141691  18.5594613  10.6187201  40.9643276
  20.0454257  11.0819334  53.9595714  19.7544123  11.9864965  53.8442380
  20.6811241  11.1235862  54.6739784  20.9710464   8.4596183  50.5497074
  21.5674036   8.2352205  49.8354037  21.0285435   7.7180928  51.1522522
  20.5435492   5.9135618  38.3847265  20.7961013   5.3917139  37.6230728
  19.6060051   5.7501763  38.4873948  25.5878775   4.9171396  46.1922008
  26.3741864   4.4990819  45.8412425  25.8517479   5.8217488  46.3603656
  25.7588852  10.3544247  40.8910665  25.1234685  10.4278873  41.6031569
  25.4286259  10.9437845  40.2129744  30.9887202   4.8546629  47.0954986
  31.7212374   4.2845846  47.3292816  30.2326558   4.4668230  47.5361492
  20.2631781   7.8163724  40.5871640  20.1468039   7.1408627  41.2552724
  20.3734041   7.3296098  39.7703793  22.6063322   7.2773871  44.2918329
  22.2421529   6.7504492  45.0031250  23.4630438   6.8872340  44.1184814
  25.0044142  10.7680750  50.9545508  24.7044865  11.6705788  50.8461315
  24.6595201  10.5012933  51.8066661  18.4556623   7.2194546  46.9882212
  17.5307120   7.0870760  47.1959904  18.7041037   7.9988766  47.4852155
  28.4041286   3.2863290  48.6342945  27.4958163   3.2178698  48.3401706
  28.3528882   3.7635235  49.4624771  22.2258030   4.7621428  40.2726344
  22.1057655   5.2078479  41.1111824  21.5310618   5.1106746  39.7139882
  19.9864922  17.5325070  43.9216475  19.9088951  18.4832895  44.0004956
  19.3826565  17.1870942  44.5791402  22.4782152   4.7052935  56.5777842
  21.7015486   5.2646855  56.5680707  23.1172715   5.1909718  57.0992712
  30.2702932   1.4879728  50.4120819  29.6277312   1.7812261  49.7660614
  29.7657861   1.3732648  51.2174016  27.9243096   5.2342901  41.1006678
  28.8360952   5.4670288  40.9254376  27.4152743   5.8179946  40.5381757
  20.7328524   7.5138389  56.1395809  21.4743208   8.0523433  55.8630633
  20.0265509   8.1404677  56.2967361  26.2083863   9.6567529  54.7367971
  26.6167220   9.2149940  53.9922603  25.4861125   9.0820157  54.9902164
  22.5614934   4.5940136  52.1101528  23.4076129   5.0179549  52.2536177
  22.5013571   3.9373760  52.8040091  26.5312678  10.2168720  48.4920260
  25.9021541  10.3814434  47.7896328  26.1438340  10.6310329  49.2631224
  30.4101910  11.1523158  45.8464623  29.7252948  11.5322059  45.2961657
  30.4945759  11.7618484  46.5796571  25.7114379   2.2544504  53.7682701
  25.4675311   3.0086565  53.2316977  25.9874309   2.6329852  54.6029948
  27.6652842   8.7983117  52.4459967  27.8769737   9.4414877  51.7694348
  27.6182590   7.9645433  51.9781897  25.2679071   1.4100937  49.3496539
  24.4063550   1.7082191  49.6413277  25.2941505   1.6271336  48.4177572
  22.0840640   9.9543128  45.7570345  22.5478986  10.2330831  44.9674967
  21.8197438   9.0526572  45.5743435  18.9764721   9.5014609  48.6950108
  19.5466078   9.9301878  48.0567593  19.5672833   9.2197194  49.3934294
  21.0209526   6.0766280  42.5659910  21.7233569   6.5287324  43.0333836
  20.6890155   5.4350099  43.1939803  28.7798670  11.6755072  50.6182324
  29.6016113  11.2735259  50.3365006  28.7761072  11.5723306  51.5698440
  22.5455273  11.2239115  52.7743035  22.6099706  11.6859523  53.6101207
  21.8366197  10.5936480  52.9025345  36.8704663   8.0193821  46.9667296
  36.1168371   7.4501219  46.8111300  37.0052204   7.9856485  47.9137930
  22.2603291  12.8907223  42.6422015  22.1248965  13.7358759  43.0706863
  22.8013103  13.0926500  41.8787949  15.7132688  10.4082661  43.2149940
  16.2257209  11.2025911  43.3655505  16.3655401   9.7108951  43.1483542
  17.5227573  13.5248417  45.2972693  17.6994201  14.4466382  45.1093677
  18.3184406  13.2106836  45.7267073  23.8871767  13.5130789  56.7722357
  23.4435621  12.7267168  56.4543262  24.5488981  13.7009940  56.1066248
  18.6458888  15.0426591  51.2983036  19.1966313  14.9143654  50.5260030
  17.8070364  15.3421480  50.9477929  25.9853005  13.7933589  54.8003759
  25.9671480  14.6142470  54.3084028  26.9072925  13.6687664  55.0253900
  22.4426059  11.3077719  55.6427267  22.9754396  10.5466007  55.4126575
  21.9140140  11.0151371  56.3851421  25.5746037   6.4046396  39.6793344
  25.0592660   7.1751000  39.9181731  25.3023345   5.7311532  40.3026405
  30.5480311   9.1578750  41.6146517  29.7709754   8.8189910  41.1701679
  31.2271792   9.1631374  40.9401482  25.3632340   4.2773488  41.5053125
  25.0582476   4.5919637  42.3563268  26.3162782   4.3554908  41.5480458
  23.8078772  10.4363711  43.1546079  23.2800134   9.7016471  42.8419316
  23.3066275  11.2138388  42.9086047  28.7871618   8.6312732  48.2713125
  28.1295292   9.3211993  48.3593254  29.5912017   9.0209164  48.6147112
  27.5977077   6.9857104  46.3217067  28.1108959   7.6187096  46.8238777
  28.2478301   6.3858300  45.9560427  21.9531372   8.2543921  36.1581052
  21.0458434   8.0233175  36.3572201  22.4502404   7.4581541  36.3455033
  24.8599451  16.9641429  39.0777738  24.1861150  17.2673125  39.6862696
  25.2465273  17.7670509  38.7283195  24.0757908   4.4606560  48.5675407
  23.1580469   4.6821507  48.4097096  24.4918051   4.5352870  47.7087115
  24.8592955   5.8597976  43.6978088  25.6064774   6.3719373  43.3885210
  25.1284545   5.5382028  44.5582481  23.1319606   8.3556516  40.6805042
  22.2230825   8.0715549  40.7777512  23.1614689   8.7755595  39.8208349
  28.3638873  11.9663106  44.4496210  27.9101200  11.1254016  44.5061400
  27.7332840  12.6024504  44.7870990  27.3071793   2.8955092  45.6796877
  26.5694549   2.3832478  46.0107120  27.5598566   2.4555473  44.8680154
  26.8071812  13.8039603  45.3846028  27.0994787  14.3644660  44.6658393
  27.3170433  14.0968164  46.1399187  21.6804500   5.9685137  46.7814837
  21.7353109   5.0158973  46.7057314  20.8695702   6.1244576  47.2656136
  22.8295693   9.8965260  38.0193121  22.3915123   9.1801119  37.5598758
  23.5706134  10.1241375  37.4578212  21.7705437  14.5819954  46.4739481
  21.7281616  14.8080800  45.5448013  22.6868136  14.3483328  46.6225282
  25.2171071   5.0504021  53.3720110  25.5720459   5.2775494  54.2314576
  25.8643202   5.3822398  52.7497365  30.9468808   8.1722457  44.0769439
  30.8086707   8.3624053  43.1490628  30.5905027   8.9341840  44.5337490
  30.9738188  10.2398984  49.0880711  31.4074694  10.1474273  49.9363765
  31.6869768  10.2156485  48.4500727  19.8871238  11.4582983  46.2701444
  20.6811837  10.9633303  46.0684019  19.1762931  10.9300846  45.9069149
  24.7066083  13.8401078  50.6213811  24.7603105  14.4092014  51.3891527
  23.8380864  14.0102963  50.2567848  31.8353737  10.2822685  51.6213596
  32.0289627  11.1868495  51.8672871  31.7354356   9.8230104  52.4552181
  26.8968846  10.4329427  57.1954477  26.7454352  10.2039979  56.2784560
  26.8873526  11.3900029  57.2085822  23.6654182   8.0061340  52.1800743
  24.5946242   8.1572500  52.0069710  23.2445212   8.0945361  51.3249390
  22.4642514  12.0312005  49.9499281  22.3253600  11.6630789  50.8225219
  21.6757110  12.5459644  49.7783239  23.0590666  17.1321101  41.2924817
  23.2342422  16.6609144  42.1070440  22.3723454  17.7586867  41.5206078
  24.0147729  11.4093607  47.3388119  23.6797562  11.3694377  48.2345768
  23.5151675  10.7438323  46.8658529  17.9891973   6.8161237  52.8640700
  17.8511771   6.0841476  53.4652239  18.8996897   6.7270137  52.5824887
  26.9506921   8.7549642  37.6125178  26.3336092   8.0296470  37.5158231
  26.4823409   9.5159002  37.2692252  20.6174274   6.5281197  52.3524379
  21.3273893   5.8874389  52.3110998  20.5743582   6.7794092  53.2750560
  28.6061053  13.4648550  55.2730959  28.5473599  12.7807770  54.6061542
  29.0080571  14.2067540  54.8211585  17.6251751  20.2810464  48.0664677
  17.8648350  20.9128988  48.7443696  16.7820948  19.9298504  48.3530037
  28.6078460  11.4288134  53.5044938  27.7205239  11.0914056  53.6271337
  29.1777011  10.6971165  53.7413704  22.1379613  16.0889586  50.4706181
  22.0649785  16.8944558  50.9825486  21.6957006  16.2881552  49.6454203
  21.9269393  15.3261356  43.9809003  21.1436915  15.8683037  44.0747227
  22.6262138  15.8435336  44.3803244  25.2366043   1.1355986  46.6243208
  25.7334743   0.3825948  46.3044279  24.4653025   1.1720302  46.0586418
  33.0895800   6.8396351  48.2661500  33.0785677   7.7221067  47.8955433
  32.2213180   6.4867902  48.0716037  24.5978297  15.9876420  52.6264340
  25.3106269  16.6223885  52.5540242  24.1068326  16.0840286  51.8104342
  26.3195824   9.8927673  44.1981632  25.3852103  10.0129135  44.0286336
  26.4972492   8.9900140  43.9341642  29.7068375   5.7344992  44.7331666
  30.1728827   6.5672984  44.6591969  30.1575876   5.2689974  45.4376924
  19.6490210  13.7370864  53.4469911  20.3499670  14.3707347  53.5999305
  19.1785325  14.0785595  52.6865550  27.7744606  12.0788814  41.7317818
  28.0504450  11.9645408  42.6411692  26.9049105  11.6806298  41.6929991
  27.4491496   6.2915471  51.2722461  26.7962947   6.5391379  50.6174914
  27.8271876   5.4779609  50.9384939  24.4098670  16.3275164  45.3750632
  24.5921065  15.5096820  45.8378384  25.2331656  16.5442857  44.9375522
  24.7440836  15.2543350  42.6365680  25.2728602  14.7435804  42.0235842
  25.0069055  14.9385880  43.5011213  23.4979069   7.0335282  57.7588498
  22.8219706   6.9329412  58.4290874  24.3206703   6.8774496  58.2224496
  15.2457928  13.2707219  50.3801014  15.8311365  12.5250907  50.5128918
  15.0482767  13.5811176  51.2637677  18.0996584  16.3058466  45.3963456
  17.4306959  16.7904594  44.9127496  17.9609453  16.5527687  46.3106835
  22.2401852  18.3402210  51.9946114  22.7920160  18.5033831  52.7595200
  22.5808046  18.9306648  51.3226139  27.0912727  13.1663467  57.8494769
  27.6352631  13.7793426  57.3549724  26.5099571  13.7243046  58.3661782
  25.3770240  16.2884185  48.9809797  25.2521379  15.4873925  48.4720742
  26.0349331  16.7830379  48.4923766  27.4405148  14.0893205  50.6089347
  26.4935483  13.9698557  50.5367673  27.7887921  13.2015703  50.6915608
  24.4451581  13.8845922  46.8093699  24.2976544  12.9562629  46.9901269
  25.2705075  13.9066012  46.3250774  28.0485703  14.7074480  47.8958572
  28.9732251  14.5017342  47.7583023  27.8801006  14.4590881  48.8047913
  27.8381019  15.2260148  43.2520663  28.0117897  14.6606570  42.4994515
  28.3309911  16.0261043  43.0700153  33.6920410   7.9896571  44.8710963
  34.1351556   7.2403896  44.4730086  32.8146921   7.9806707  44.4884695
  28.8256192  14.5426912  40.3517561  29.5207096  15.1633605  40.5704876
  29.1679342  13.6922263  40.6269939  30.7247615  11.9926618  41.8804892
  31.2498939  12.3313890  41.1554212  30.6369967  11.0573633  41.6968027
  22.3867664  15.9060691  54.0094769  22.6954790  15.6609838  54.8817468
  23.1843146  16.1107330  53.5213639  22.4088276  18.0598601  46.2400145
  21.9693266  17.5674980  46.9333002  23.1596393  17.5171569  45.9992220
  14.8880615  14.2510142  46.2424773  15.7138635  13.9513914  45.8623417
  14.5374667  13.4817764  46.6914562  19.8562148  13.6036610  48.3122447
  19.2342157  12.9407315  48.0124675  20.5267015  13.6297742  47.6296095
  13.0889220  12.1696468  47.2013707  12.2521128  11.7418643  47.0197708
  13.0612865  12.3628912  48.1384498  30.4141521  12.6259521  57.1856090
  29.6237065  12.6083660  56.6460589  30.1774876  13.1647815  57.9405127
  30.5339396   9.4751988  54.4988819  30.5837401   9.3101995  55.4404341
  30.4253319   8.6079247  54.1086699  19.4175655  12.1540533  41.7880907
  19.5663775  12.8375998  41.1347580  20.2242098  12.1345623  42.3030363
  27.8243158   5.4582916  55.8148125  28.7253021   5.3189381  55.5232123
  27.8991133   5.6237371  56.7546303  32.0357593  11.8948929  54.7430840
  31.7442401  12.2578910  55.5794301  31.4229724  11.1815938  54.5644172
  33.2353275   9.4601809  47.2633410  34.0700167   9.8991613  47.4270971
  33.3712404   8.9840462  46.4441656  30.2844781   7.0181544  53.2110898
  30.7598903   7.2109190  52.4029749  29.3610346   7.0740730  52.9654282
  17.1728288   8.1805711  42.7941976  16.9274330   7.2768041  42.9922187
  17.3424202   8.1822861  41.8521454  22.9171060  14.6488664  39.2592655
  22.3445027  15.2678851  38.8063127  23.4903854  15.1988026  39.7932577
  28.9846450   3.8947304  51.4439204  29.9363873   3.9945402  51.4651428
  28.8149900   3.1025573  51.9537288  27.0060830   0.9802887  51.6298605
  26.4110762   1.2607900  50.9345093  26.7210526   1.4696788  52.4015346
  26.1368320  14.9325814  40.3901237  27.0698993  14.8671376  40.5934113
  26.0491533  15.7682081  39.9315770  28.7656337  14.2491684  37.3505185
  28.6869968  13.9151548  38.2440943  29.5866003  14.7413452  37.3496657
  31.4634528   7.1153424  50.5581503  31.4310848   6.1769424  50.7441187
  32.0735152   7.1937460  49.8247328  23.3017859   5.9849477  36.6008707
  24.2476963   5.8555685  36.6697125  22.9232104   5.2464139  37.0778136
  31.6129016   3.9064467  50.6039787  31.0968065   3.1222924  50.4169715
  32.4968965   3.5783184  50.7686306  37.2811078   8.1769430  49.6987540
  38.0114466   7.9154719  50.2595243  36.6718023   7.4398152  49.7389608
  35.3626375   6.3177293  50.2961991  34.6359538   6.1833258  49.6878483
  34.9473662   6.6254122  51.1018709  23.1856551  10.0367223  58.0609364
  24.1059561  10.2145822  58.2549411  23.1506134   9.0923268  57.9089064
  16.1818624   7.9468257  50.7032146  16.4004634   8.8785365  50.7220179
  16.5944398   7.5876232  51.4886949  28.4092197  -0.3585085  43.8210795
  27.8290866   0.2999719  43.4388847  28.1428130  -1.1807741  43.4098212
  20.9177759   6.9498602  58.9099956  20.4344841   7.7498962  59.1163845
  21.0038698   6.9606547  57.9567400  14.1863719   8.7826982  46.8321775
  14.1634407   8.8814669  45.8803659  14.4964355   9.6292132  47.1538942
  16.8451097  10.8403137  50.9468390  17.7994350  10.8087079  50.8798321
  16.6463620  10.3793760  51.7618616  17.4350479   9.4104253  53.5139188
  18.2543368   9.9048331  53.5374025  17.7087286   8.4936221  53.4856755
  27.1917075   1.8015005  42.8767143  26.3042930   2.0864656  42.6587338
  27.6071064   1.6408768  42.0294420  30.5431611   1.8261526  46.5921482
  31.3192001   2.3157978  46.8646099  29.8179745   2.2519580  47.0493352
  32.9804170   2.5389145  47.6495423  33.5748661   2.2984881  46.9388731
  33.0530753   1.8196276  48.2768959  15.2001325  16.3822756  47.9638588
  15.0655793  15.6223157  47.3976586  14.7833388  17.1063656  47.4967377
  26.3360288  11.5659680  36.9715163  27.0396139  11.7709682  37.5872819
  25.6122937  12.1336442  37.2364247  27.1658099   7.3169541  43.0917433
  27.1093300   7.7738092  42.2525066  27.7186441   6.5560226  42.9140276
  30.9762905   3.1059273  43.9167553  30.7199839   2.7055909  44.7475760
  30.3515773   3.8203067  43.7917692  35.2875243   5.8455346  46.4238844
  34.7274800   5.9148535  47.1970406  34.6818746   5.6696331  45.7038340
  18.3570451  17.2792073  48.1757030  18.2402835  18.2237506  48.0735721
  17.5362898  16.9765635  48.5642830  28.2446986  12.0042209  39.0213623
  29.0792590  11.5723407  38.8391098  28.0831329  11.8324223  39.9490518
  27.8992878   8.5074322  40.3869962  27.8441682   8.3418594  39.4458407
  27.2738933   9.2150355  40.5432152  25.2138785  10.8123234  59.7123525
  26.0829945  10.9863886  59.3510160  24.7345537  11.6317651  59.5899255
  19.3824965  17.9320335  51.3912959  20.2852212  17.9643945  51.7079454
  19.1562336  17.0020786  51.4059295  21.1378567  16.6851322  48.0523037
  20.1874198  16.6853183  47.9387410  21.4411054  15.9384056  47.5359072
  36.8731261  22.5211860  49.1168800  37.5109671  22.4018607  48.4132140
  36.7552104  23.4692704  49.1756752  33.6820967  22.4739288  49.0530325
  33.3439479  22.3580353  48.1650859  34.5510735  22.0730453  49.0331331
  29.5407783  24.3274765  45.0427215  28.9772648  24.2364702  44.2743503
  29.4260178  23.5074669  45.5229708  34.1640750  23.6274140  55.0116530
  34.1529391  23.2326938  54.1397034  34.3261390  22.8940212  55.6050302
  27.0872215  25.8225956  47.8811436  27.8793507  25.4816781  47.4657735
  27.3268865  25.9320931  48.8013589  35.1207342  27.9945732  40.3541680
  34.4695321  28.5799813  39.9675694  35.9151704  28.5251927  40.4136718
  29.0462969  25.0834869  40.7528815  29.8193845  24.5363857  40.6141691
  29.3988368  25.9479119  40.9643276  30.8848011  26.4111252  53.9595714
  30.5937877  27.3156883  53.8442380  31.5204996  26.4527779  54.6739784
  31.8104218  23.7888100  50.5497074  32.4067790  23.5644123  49.8354037
  31.8679190  23.0472846  51.1522522  31.3829247  21.2427536  38.3847265
  31.6354767  20.7209057  37.6230728  30.4453806  21.0793681  38.4873948
  36.4272529  20.2463314  46.1922008  37.2135619  19.8282737  45.8412425
  36.6911234  21.1509406  46.3603656  36.5982607  25.6836164  40.8910665
  35.9628440  25.7570791  41.6031569  36.2680013  26.2729763  40.2129744
  41.8280957  20.1838547  47.0954986  42.5606129  19.6137764  47.3292816
  41.0720312  19.7960148  47.5361492  31.1025535  23.1455641  40.5871640
  30.9861793  22.4700545  41.2552724  31.2127795  22.6588015  39.7703793
  33.4457076  22.6065789  44.2918329  33.0815284  22.0796410  45.0031250
  34.3024192  22.2164258  44.1184814  39.3506377  13.8960121  51.5549595
  39.0189702  14.7655532  51.3310810  38.7551990  13.5796405  52.2343625
  33.0862563  17.6355688  39.2879677  33.2536966  18.5035925  39.6550148
  32.8959732  17.7982970  38.3640967  35.8437896  26.0972667  50.9545508
  35.5438620  26.9997706  50.8461315  35.4988956  25.8304850  51.8066661
  29.2950378  22.5486464  46.9882212  28.3700874  22.4162678  47.1959904
  29.5434791  23.3280683  47.4852155  39.2435040  18.6155207  48.6342945
  38.3351918  18.5470616  48.3401706  39.1922636  19.0927152  49.4624771
  33.0651784  20.0913346  40.2726344  32.9451409  20.5370397  41.1111824
  32.3704373  20.4398663  39.7139882  26.6559189  22.1919738  47.8226001
  26.7851570  22.4454217  48.7365413  25.9756640  22.7847446  47.5030656
  30.8258676  32.8616988  43.9216475  30.7482706  33.8124813  44.0004956
  30.2220320  32.5162860  44.5791402  33.3175906  20.0344853  56.5777842
  32.5409240  20.5938773  56.5680707  33.9566469  20.5201636  57.0992712
  41.1096687  16.8171646  50.4120819  40.4671067  17.1104179  49.7660614
  40.6051615  16.7024566  51.2174016  38.7636850  20.5634819  41.1006678
  39.6754706  20.7962206  40.9254376  38.2546497  21.1471863  40.5381757
  31.5722278  22.8430306  56.1395809  32.3136963  23.3815350  55.8630633
  30.8659264  23.4696595  56.2967361  37.0477618  24.9859447  54.7367971
  37.4560974  24.5441857  53.9922603  36.3254879  24.4112074  54.9902164
  33.4008688  19.9232054  52.1101528  34.2469883  20.3471467  52.2536177
  33.3407326  19.2665678  52.8040091  37.3706433  25.5460637  48.4920260
  36.7415295  25.7106352  47.7896328  36.9832095  25.9602247  49.2631224
  41.2495665  26.4815075  45.8464623  40.5646703  26.8613977  45.2961657
  41.3339514  27.0910402  46.5796571  36.5508133  17.5836422  53.7682701
  36.3069065  18.3378482  53.2316977  36.8268064  17.9621770  54.6029948
  38.5046596  24.1275034  52.4459967  38.7163491  24.7706794  51.7694348
  38.4576344  23.2937351  51.9781897  36.1072825  16.7392855  49.3496539
  35.2457304  17.0374109  49.6413277  36.1335260  16.9563254  48.4177572
  32.9234394  25.2835046  45.7570345  33.3872740  25.5622749  44.9674967
  32.6591193  24.3818490  45.5743435  29.8158476  24.8306527  48.6950108
  30.3859833  25.2593795  48.0567593  30.4066587  24.5489112  49.3934294
  31.8603281  21.4058198  42.5659910  32.5627324  21.8579242  43.0333836
  31.5283909  20.7642017  43.1939803  30.3083642  19.9969955  56.9411119
  29.6782303  20.6786235  57.1746516  30.2019730  19.8853036  55.9964258
  25.6028615  19.6641751  47.8677043  24.8127668  19.9199279  47.3917154
  26.0939862  20.4790088  47.9729084  39.6192424  27.0046990  50.6182324
  40.4409868  26.6027177  50.3365006  39.6154827  26.9015224  51.5698440
  27.5543360  20.0286330  44.8260520  26.7574523  20.1405024  45.3444016
  27.3268952  20.3672982  43.9601411  33.3849028  26.5531033  52.7743035
  33.4493460  27.0151440  53.6101207  32.6759951  25.9228398  52.9025345
  23.8866317  19.9172241  50.2992034  24.1374356  20.8019251  50.5649610
  24.4225866  19.7376843  49.5267126  47.7098417  23.3485738  46.9667296
  46.9562126  22.7793136  46.8111300  47.8445958  23.3148403  47.9137930
  33.0997045  28.2199141  42.6422015  32.9642720  29.0650676  43.0706863
  33.6406858  28.4218418  41.8787949  29.5864385  14.2990720  59.3036370
  29.1931330  13.7456919  59.9784015  30.4030525  14.6101299  59.6942888
  26.5526443  25.7374579  43.2149940  27.0650963  26.5317829  43.3655505
  27.2049155  25.0400869  43.1483542  28.3621327  28.8540335  45.2972693
  28.5387956  29.7758300  45.1093677  29.1578161  28.5398754  45.7267073
  32.5032346  15.7148599  56.8956627  33.2442059  16.3155753  56.8161089
  32.7350269  14.9726237  56.3374670  27.6473684  20.9004967  55.1734857
  27.5327199  19.9990224  55.4741956  26.7918202  21.1468663  54.8219673
  34.7265522  28.8422707  56.7722357  34.2829376  28.0559086  56.4543262
  35.3882735  29.0301858  56.1066248  29.4852643  30.3718509  51.2983036
  30.0360068  30.2435572  50.5260030  28.6464119  30.6713398  50.9477929
  36.8246760  29.1225507  54.8003759  36.8065235  29.9434388  54.3084028
  37.7466680  28.9979582  55.0253900  33.2819814  26.6369636  55.6427267
  33.8148151  25.8757925  55.4126575  32.7533895  26.3443288  56.3851421
  36.4489509  11.7429702  51.1720909  36.1053778  12.6331344  51.0960019
  36.8168471  11.5531360  50.3090494  24.5175359  24.0663233  43.9909511
  25.3550581  24.4760241  43.7743218  24.6953627  23.1262675  43.9609705
  36.4139791  21.7338313  39.6793344  35.8986415  22.5042918  39.9181731
  36.1417100  21.0603450  40.3026405  33.9986902  16.5788014  44.7378582
  33.1428499  16.1894865  44.5584221  34.4113854  16.6579975  43.8778368
  35.5286049  14.1134358  49.1370142  35.0250845  14.0764493  48.3237947
  35.8216656  15.0227100  49.1966799  31.7728935  14.1973087  48.1436324
  32.6381932  14.0015896  47.7842213  31.8406444  13.9683439  49.0705680
  41.3874066  24.4870668  41.6146517  40.6103508  24.1481828  41.1701679
  42.0665547  24.4923291  40.9401482  36.2026095  19.6065406  41.5053125
  35.8976230  19.9211555  42.3563268  37.1556537  19.6846825  41.5480458
  34.6472526  25.7655629  43.1546079  34.1193888  25.0308388  42.8419316
  34.1460029  26.5430305  42.9086047  39.6265372  23.9604649  48.2713125
  38.9689047  24.6503911  48.3593254  40.4305772  24.3501081  48.6147112
  29.3791254  16.4275295  45.5152690  29.9535006  16.2050477  44.7825883
  29.9662237  16.4963990  46.2681292  38.4370831  22.3149022  46.3217067
  38.9502713  22.9479014  46.8238777  39.0872055  21.7150218  45.9560427
  29.7060841  18.4579756  39.5348576  28.8698153  18.7954443  39.8557850
  29.5665611  18.3228736  38.5975713  31.6813922  13.3016544  44.2427760
  31.0278334  12.9865561  43.6184375  31.6394396  12.6792285  44.9687583
  32.7925127  23.5835839  36.1581052  31.8852188  23.3525093  36.3572201
  33.2896159  22.7873458  36.3455033  35.6993206  32.2933346  39.0777738
  35.0254904  32.5965043  39.6862696  36.0859028  33.0962427  38.7283195
  34.9151662  19.7898478  48.5675407  33.9974224  20.0113425  48.4097096
  35.3311806  19.8644788  47.7087115  35.6986710  21.1889893  43.6978088
  36.4458529  21.7011291  43.3885210  35.9678299  20.8673946  44.5582481
  33.9713360  23.6848434  40.6805042  33.0624579  23.4007467  40.7777512
  34.0008444  24.1047513  39.8208349  39.2032628  27.2955024  44.4496210
  38.7494955  26.4545933  44.5061400  38.5726594  27.9316422  44.7870990
  38.1465547  18.2247010  45.6796877  37.4088304  17.7124396  46.0107120
  38.3992321  17.7847391  44.8680154  37.6465567  29.1331520  45.3846028
  37.9388541  29.6936577  44.6658393  38.1564187  29.4260081  46.1399187
  38.2477174  11.0023262  46.2738646  38.5536051  10.1420625  45.9864561
  38.9729779  11.5940882  46.0737640  24.5401530  21.4053948  44.6620244
  24.3425930  20.8123309  43.9371311  23.9848194  21.1006158  45.3796183
  32.5198254  21.2977055  46.7814837  32.5746864  20.3450891  46.7057314
  31.7089456  21.4536494  47.2656136  33.6689448  25.2257178  38.0193121
  33.2308878  24.5093037  37.5598758  34.4099889  25.4533293  37.4578212
  30.4590614  19.9154114  44.5405216  29.6458480  20.2148285  44.9470408
  30.9549608  19.5209803  45.2579698  32.6099192  29.9111871  46.4739481
  32.5675371  30.1372718  45.5448013  33.5261891  29.6775246  46.6225282
  36.0564826  20.3795939  53.3720110  36.4114213  20.6067412  54.2314576
  36.7036957  20.7114316  52.7497365  41.7862563  23.5014375  44.0769439
  41.6480461  23.6915971  43.1490628  41.4298781  24.2633758  44.5337490
  29.9504689  17.4872470  50.1566451  30.5904068  17.3461229  49.4589415
  29.1182219  17.2006983  49.7805053  41.8131942  25.5690902  49.0880711
  42.2468449  25.4766191  49.9363765  42.5263523  25.5448402  48.4500727
  30.7264993  26.7874900  46.2701444  31.5205591  26.2925220  46.0684019
  30.0156685  26.2592763  45.9069149  35.5459837  29.1692996  50.6213811
  35.5996859  29.7383932  51.3891527  34.6774619  29.3394881  50.2567848
  27.0347756  20.9317982  42.3461196  26.1045344  20.8702438  42.5631158
  27.1305228  20.4093935  41.5497838  26.9533305  17.4572795  44.9339438
  27.2140123  18.3718128  44.8248598  27.7750478  16.9897237  45.0836051
  28.4258231  18.8710552  52.1038263  29.0981284  18.6627914  51.4550911
  27.5988017  18.6732638  51.6643495  42.6747492  25.6114602  51.6213596
  42.8683382  26.5160413  51.8672871  42.5748110  25.1522021  52.4552181
  34.3283803  15.4972493  54.1203923  33.6811718  16.1962443  54.0268400
  35.0984818  15.9308637  54.4880172  37.7362601  25.7621345  57.1954477
  37.5848107  25.5331897  56.2784560  37.7267280  26.7191947  57.2085822
  34.5047937  23.3353258  52.1800743  35.4339997  23.4864418  52.0069710
  34.0838967  23.4237279  51.3249390  33.3036269  27.3603922  49.9499281
  33.1647354  26.9922707  50.8225219  32.5150865  27.8751562  49.7783239
  33.8984421  32.4613019  41.2924817  34.0736176  31.9901062  42.1070440
  33.2117209  33.0878785  41.5206078  34.8541484  26.7385525  47.3388119
  34.5191316  26.6986295  48.2345768  34.3545430  26.0730241  46.8658529
  28.8285728  22.1453155  52.8640700  28.6905526  21.4133394  53.4652239
  29.7390651  22.0562055  52.5824887  37.7900676  24.0841559  37.6125178
  37.1729846  23.3588388  37.5158231  37.3217164  24.8450920  37.2692252
  31.4568028  21.8573114  52.3524379  32.1667647  21.2166307  52.3110998
  31.4137337  22.1086009  53.2750560  39.4454807  28.7940468  55.2730959
  39.3867353  28.1099688  54.6061542  39.8474326  29.5359458  54.8211585
  30.1696962  18.8438332  54.1720019  29.6334319  18.3929071  54.8241615
  29.5813671  18.9784241  53.4290483  28.4645506  35.6102382  48.0664677
  28.7042104  36.2420906  48.7443696  27.6214702  35.2590422  48.3530037
  29.5799221  18.3026984  36.7346482  28.7028688  18.1815784  36.3708729
  30.0556974  17.5113062  36.4825371  39.4472214  26.7580052  53.5044938
  38.5598993  26.4205973  53.6271337  40.0170765  26.0263083  53.7413704
  21.1001362  23.0904143  46.8287990  21.7872401  22.7765873  46.2409005
  20.9449490  23.9945508  46.5555241  25.9036084  17.9794340  51.2573013
  25.8194272  17.3720010  50.5223423  25.0818790  18.4703358  51.2582510
  32.9773368  31.4181504  50.4706181  32.9043539  32.2236475  50.9825486
  32.5350761  31.6173470  49.6454203  32.7663147  30.6553274  43.9809003
  31.9830669  31.1974954  44.0747227  33.4655893  31.1727254  44.3803244
  36.0759798  16.4647903  46.6243208  36.5728497  15.7117866  46.3044279
  35.3046779  16.5012220  46.0586418  43.9289555  22.1688269  48.2661500
  43.9179431  23.0512984  47.8955433  43.0606934  21.8159820  48.0716037
  35.4372051  31.3168338  52.6264340  36.1500024  31.9515803  52.5540242
  34.9462080  31.4132204  51.8104342  37.1589578  25.2219591  44.1981632
  36.2245857  25.3421053  44.0286336  37.3366247  24.3192057  43.9341642
  32.6594766  18.6065286  46.3514893  32.2892554  18.0536327  47.0395799
  33.1553859  18.0023420  45.7989893  40.5462130  21.0636910  44.7331666
  41.0122582  21.8964902  44.6591969  40.9969630  20.5981892  45.4376924
  30.4883965  29.0662781  53.4469911  31.1893424  29.6999264  53.5999305
  30.0179080  29.4077513  52.6865550  38.6138361  27.4080731  41.7317818
  38.8898205  27.2937326  42.6411692  37.7442859  27.0098216  41.6929991
  38.5178792  13.4317497  48.7722567  37.6041872  13.6621724  48.9404774
  38.9471894  13.5155941  49.6236600  38.2885251  21.6207389  51.2722461
  37.6356701  21.8683296  50.6174914  38.6665631  20.8071527  50.9384939
  35.2492425  31.6567082  45.3750632  35.4314819  30.8388738  45.8378384
  36.0725411  31.8734774  44.9375522  35.5834590  30.5835267  42.6365680
  36.1122357  30.0727722  42.0235842  35.8462810  30.2677797  43.5011213
  34.3372824  22.3627200  57.7588498  33.6613461  22.2621329  58.4290874
  35.1600458  22.2066414  58.2224496  26.0851683  28.5999137  50.3801014
  26.6705120  27.8542824  50.5128918  25.8876521  28.9103093  51.2637677
  28.9390338  31.6350384  45.3963456  28.2700713  32.1196512  44.9127496
  28.8003208  31.8819604  46.3106835  20.6769338  21.1704737  49.1005457
  20.7153437  20.6368327  49.8942575  20.1709631  20.6439942  48.4816434
  33.0795607  33.6694127  51.9946114  33.6313915  33.8325749  52.7595200
  33.4201800  34.2598565  51.3226139  28.0560100  16.0169277  52.5967999
  28.1201426  16.8784108  52.1845397  27.9927220  15.4043279  51.8640358
  27.5312373  18.0892410  56.2441033  28.1584411  17.7069487  56.8578558
  26.6740291  17.8706612  56.6096726  37.9306481  28.4955385  57.8494769
  38.4746385  29.1085343  57.3549724  37.3493326  29.0534963  58.3661782
  24.3077915  19.8968839  42.1759388  24.6031356  18.9879517  42.1226442
  23.4065951  19.8756578  41.8540390  36.2163994  31.6176103  48.9809797
  36.0915133  30.8165843  48.4720742  36.8743085  32.1122296  48.4923766
  27.8372162  17.9724835  48.1586937  27.1158748  18.5860803  48.0194410
  28.6265418  18.5082600  48.0803583  38.2798902  29.4185123  50.6089347
  37.3329238  29.2990474  50.5367673  38.6281676  28.5307621  50.6915608
  30.6398476  15.3079262  54.4327588  31.1632878  15.5541559  55.1953898
  30.4210809  16.1399297  54.0130726  26.0365757  17.5782937  42.2998713
  25.7078463  16.6980315  42.1173819  26.3905128  17.5230605  43.1875103
  35.2845336  29.2137839  46.8093699  35.1370298  28.2854547  46.9901269
  36.1098829  29.2357930  46.3250774  29.1507580  17.8655906  42.6674191
  29.4903653  18.3941828  41.9452799  29.5979700  18.2036312  43.4432757
  38.8879458  30.0366398  47.8958572  39.8126005  29.8309259  47.7583023
  38.7194761  29.7882799  48.8047913  31.8451021  16.2492957  52.1177259
  31.5047841  15.4500770  52.5197939  31.1390027  16.5494668  51.5454092
  32.4967493  13.3342269  50.5704582  33.3193562  12.8602748  50.4483472
  32.7405556  14.1132753  51.0703268  31.1375727  16.3630528  40.8667484
  31.8584090  16.7411781  40.3631201  30.5141031  17.0819405  40.9702462
  35.2806850  17.0675677  41.8025816  35.4970464  17.9500315  41.5014644
  34.8000917  16.6761890  41.0731458  30.0206071  20.0261390  48.3796561
  29.8750652  20.3401693  49.2720842  29.5431275  20.6446290  47.8267459
  31.8802454  17.0163938  48.4277450  31.8664023  16.1205031  48.0909748
  32.5974882  17.0234602  49.0615736  33.7328585  17.4501278  50.4730578
  33.4746363  18.3718349  50.4714908  33.2013625  17.0531713  51.1631042
  38.6774774  30.5552065  43.2520663  38.8511651  29.9898488  42.4994515
  39.1703665  31.3552960  43.0700153  24.4951734  22.5666735  51.3184222
  23.9505202  23.3426542  51.4504496  25.3731083  22.9137539  51.1603343
  31.2839350  15.8978318  43.6965020  31.4055261  14.9694965  43.8955908
  30.9941393  15.9117004  42.7843336  34.1530541  13.5833229  46.8331740
  34.1752237  13.6472562  45.8783720  34.5698600  12.7437737  47.0272246
  44.5314165  23.3188488  44.8710963  44.9745311  22.5695814  44.4730086
  43.6540675  23.3098625  44.4884695  39.6649946  29.8718830  40.3517561
  40.3600851  30.4925523  40.5704876  40.0073096  29.0214181  40.6269939
  25.2817755  21.6936631  54.2114379  24.5399491  21.8419266  54.7979009
  24.9610500  21.9544896  53.3481128  41.5641369  27.3218535  41.8804892
  42.0892693  27.6605808  41.1554212  41.4763722  26.3865551  41.6968027
  33.2261418  31.2352609  54.0094769  33.5348545  30.9901756  54.8817468
  34.0236900  31.4399247  53.5213639  33.2482030  33.3890519  46.2400145
  32.8087020  32.8966897  46.9333002  33.9990147  32.8463486  45.9992220
  25.7274369  29.5802060  46.2424773  26.5532389  29.2805831  45.8623417
  25.3768421  28.8109682  46.6914562  30.6955902  28.9328528  48.3122447
  30.0735912  28.2699233  48.0124675  31.3660769  28.9589660  47.6296095
  23.9282974  27.4988386  47.2013707  23.0914882  27.0710560  47.0197708
  23.9006620  27.6920829  48.1384498  30.7680430  17.4110316  57.9054953
  30.8168585  18.2872439  57.5232723  31.3102944  16.8687709  57.3326596
  41.2535275  27.9551439  57.1856090  40.4630819  27.9375578  56.6460589
  41.0168630  28.4939733  57.9405127  41.3733150  24.8043905  54.4988819
  41.4231155  24.6393913  55.4404341  41.2647074  23.9371164  54.1086699
  30.2569409  27.4832451  41.7880907  30.4057530  28.1667915  41.1347580
  31.0635853  27.4637541  42.3030363  38.6636913  20.7874833  55.8148125
  39.5646776  20.6481298  55.5232123  38.7384887  20.9529288  56.7546303
  32.9979718  18.1641688  54.6601312  32.1283028  18.4575254  54.3883900
  33.2339199  18.7482133  55.3808575  42.8751347  27.2240847  54.7430840
  42.5836156  27.5870827  55.5794301  42.2623479  26.5107855  54.5644172
  44.0747030  24.7893727  47.2633410  44.9093921  25.2283531  47.4270971
  44.2106158  24.3132380  46.4441656  41.1238536  22.3473462  53.2110898
  41.5992657  22.5401108  52.4029749  40.2004101  22.4032647  52.9654282
  28.0122042  23.5097629  42.7941976  27.7668084  22.6059959  42.9922187
  28.1817957  23.5114779  41.8521454  35.7018752  14.3821305  52.1766732
  36.2200696  15.1182332  51.8513221  35.3473885  14.6885298  53.0113491
  27.2817690  19.2425986  40.2928138  26.5886935  19.3170341  39.6368174
  27.0369442  18.4786330  40.8149655  35.9531346  10.8021588  47.6967629
  36.2333100  10.1344777  48.3228055  36.7381953  10.9950683  47.1842292
  33.7564815  29.9780582  39.2592655  33.1838782  30.5970769  38.8063127
  34.3297608  30.5279943  39.7932577  39.8240205  19.2239222  51.4439204
  40.7757627  19.3237319  51.4651428  39.6543655  18.4317490  51.9537288
  37.8454584  16.3094805  51.6298605  37.2504516  16.5899818  50.9345093
  37.5604281  16.7988706  52.4015346  36.9762074  30.2617732  40.3901237
  37.9092748  30.1963293  40.5934113  36.8885287  31.0973999  39.9315770
  39.6050091  29.5783602  37.3505185  39.5263723  29.2443466  38.2440943
  40.4259758  30.0705370  37.3496657  42.3028282  22.4445341  50.5581503
  42.2704602  21.5061342  50.7441187  42.9128906  22.5229378  49.8247328
  34.1411613  21.3141394  36.6008707  35.0870718  21.1847602  36.6697125
  33.7625858  20.5756056  37.0778136  42.4522771  19.2356385  50.6039787
  41.9361819  18.4514841  50.4169715  43.3362719  18.9075101  50.7686306
  40.1133498  12.9797400  46.5635599  39.9158319  12.6712489  47.4478931
  40.7233203  13.7059039  46.6933529  48.1204832  23.5061348  49.6987540
  48.8508221  23.2446636  50.2595243  47.5111778  22.7690070  49.7389608
  46.2020129  21.6469211  50.2961991  45.4753293  21.5125176  49.6878483
  45.7867416  21.9546039  51.1018709  34.0250306  25.3659140  58.0609364
  34.9453315  25.5437739  58.2549411  33.9899889  24.4215186  57.9089064
  32.3254530  19.2391371  36.5363593  31.4185986  18.9424483  36.6126306
  32.6030511  18.9421189  35.6697879  23.2432471  20.5597734  46.9862639
  22.9235255  19.7063042  46.6937013  22.6965899  20.7746312  47.7420606
  27.0212378  23.2760175  50.7032146  27.2398388  24.2077283  50.7220179
  27.4338152  22.9168149  51.4886949  33.9416596  13.7828260  42.6907834
  33.1317324  13.4375345  43.0663080  34.6301013  13.4735804  43.2795445
  35.8707144  12.8606307  44.3132131  36.4238183  13.2801761  44.9722154
  36.1077231  11.9342055  44.3555087  31.8940244  18.8493381  60.0934894
  31.7936971  19.7987738  60.0246986  31.6761786  18.5211620  59.2210965
  31.0953315  16.0978306  36.6775572  31.9572479  16.4233204  36.9371389
  31.2803659  15.3109802  36.1648638  23.1120731  24.1800646  48.9555761
  22.4184202  23.7654598  48.4425715  23.8593722  24.2221182  48.3589179
  39.2485951  14.9706832  43.8210795  38.6684621  15.6291636  43.4388847
  38.9821884  14.1484177  43.4098212  37.6989518  14.3711890  46.0232115
  38.1989296  14.4828425  45.2146434  38.3425126  14.0672943  46.6632924
  31.7571514  22.2790520  58.9099956  31.2738595  23.0790880  59.1163845
  31.8432453  22.2898465  57.9567400  25.0257473  24.1118899  46.8321775
  25.0028161  24.2106587  45.8803659  25.3358110  24.9584050  47.1538942
  27.6844851  26.1695054  50.9468390  28.6388105  26.1378997  50.8798321
  27.4857375  25.7085678  51.7618616  28.2744233  24.7396170  53.5139188
  29.0937122  25.2340249  53.5374025  28.5481041  23.8228139  53.4856755
  38.0310829  17.1306923  42.8767143  37.1436685  17.4156573  42.6587338
  38.4464819  16.9700686  42.0294420  41.3825366  17.1553444  46.5921482
  42.1585756  17.6449896  46.8646099  40.6573500  17.5811498  47.0493352
  43.8197924  17.8681063  47.6495423  44.4142415  17.6276799  46.9388731
  43.8924508  17.1488194  48.2768959  26.0395080  31.7114674  47.9638588
  25.9049548  30.9515075  47.3976586  25.6227142  32.4355574  47.4967377
  37.1754043  26.8951597  36.9715163  37.8789893  27.1001600  37.5872819
  36.4516692  27.4628359  37.2364247  38.0051853  22.6461459  43.0917433
  37.9487055  23.1030010  42.2525066  38.5580196  21.8852143  42.9140276
  41.8156659  18.4351191  43.9167553  41.5593593  18.0347826  44.7475760
  41.1909527  19.1494984  43.7917692  46.1268997  21.1747264  46.4238844
  45.5668555  21.2440453  47.1970406  45.5212500  20.9988248  45.7038340
  29.1964206  32.6083991  48.1757030  29.0796590  33.5529423  48.0735721
  28.3756652  32.3057552  48.5642830  39.0840740  27.3334127  39.0213623
  39.9186344  26.9015325  38.8391098  38.9225083  27.1616140  39.9490518
  38.7386633  23.8366240  40.3869962  38.6835436  23.6710511  39.4458407
  38.1132688  24.5442273  40.5432152  23.5279148  19.0734304  54.2131385
  24.1738011  18.5633258  54.7018610  23.3196299  19.8102986  54.7874810
  36.0532540  26.1415152  59.7123525  36.9223699  26.3155804  59.3510160
  35.5739291  26.9609569  59.5899255  32.0482758  13.3374349  39.9655281
  32.0361428  14.2816189  40.1223552  32.9406180  13.1544494  39.6714742
  30.2218720  33.2612253  51.3912959  31.1245967  33.2935863  51.7079454
  29.9956090  32.3312704  51.4059295  31.9772322  32.0143239  48.0523037
  31.0267953  32.0145101  47.9387410  32.2804808  31.2675974  47.5359072
  35.8634877   9.9317126  44.2201218  35.0967273   9.3775612  44.3657900
  36.2745582  10.0038994  45.0815369  27.8676639  16.2201921  58.3106399
  28.7308100  15.8638726  58.5209723  27.2942049  15.8815816  58.9981803
  47.7125015  37.8503778  49.1168800  48.3503425  37.7310525  48.4132140
  47.5945858  38.7984622  49.1756752  44.5214722  37.8031206  49.0530325
  44.1833233  37.6872271  48.1650859  45.3904490  37.4022371  49.0331331
  40.3801537  39.6566682  45.0427215  39.8166403  39.5656619  44.2743503
  40.2653932  38.8366587  45.5229708  37.9265969  41.1517874  47.8811436
  38.7187261  40.8108698  47.4657735  38.1662620  41.2612849  48.8013589
  45.9601096  43.3237650  40.3541680  45.3089076  43.9091730  39.9675694
  46.7545459  43.8543845  40.4136718  39.8856723  40.4126787  40.7528815
  40.6587599  39.8655774  40.6141691  40.2382122  41.2771036  40.9643276
  42.6497973  39.1180018  50.5497074  43.2461545  38.8936040  49.8354037
  42.7072944  38.3764763  51.1522522  42.2223001  36.5719453  38.3847265
  42.4748522  36.0500974  37.6230728  41.2847560  36.4085599  38.4873948
  47.2666284  35.5755232  46.1922008  48.0529373  35.1574655  45.8412425
  47.5304988  36.4801324  46.3603656  47.4376361  41.0128082  40.8910665
  46.8022194  41.0862708  41.6031569  47.1073768  41.6021681  40.2129744
  52.6674711  35.5130465  47.0954986  53.3999883  34.9429682  47.3292816
  51.9114067  35.1252065  47.5361492  41.9419290  38.4747559  40.5871640
  41.8255548  37.7992463  41.2552724  42.0521550  37.9879933  39.7703793
  44.2850831  37.9357706  44.2918329  43.9209038  37.4088327  45.0031250
  45.1417947  37.5456175  44.1184814  50.1900131  29.2252039  51.5549595
  49.8583456  30.0947450  51.3310810  49.5945745  28.9088323  52.2343625
  43.9256318  32.9647606  39.2879677  44.0930720  33.8327842  39.6550148
  43.7353487  33.1274888  38.3640967  46.6831651  41.4264585  50.9545508
  46.3832374  42.3289624  50.8461315  46.3382710  41.1596768  51.8066661
  40.1344132  37.8778382  46.9882212  39.2094629  37.7454596  47.1959904
  40.3828546  38.6572601  47.4852155  50.0828795  33.9447125  48.6342945
  49.1745672  33.8762533  48.3401706  50.0316391  34.4219070  49.4624771
  43.9045539  35.4205263  40.2726344  43.7845164  35.8662314  41.1111824
  43.2098127  35.7690581  39.7139882  37.4952943  37.5211655  47.8226001
  37.6245325  37.7746134  48.7365413  36.8150395  38.1139363  47.5030656
  41.6652431  48.1908905  43.9216475  41.5876460  49.1416730  44.0004956
  41.0614074  47.8454778  44.5791402  51.9490441  32.1463563  50.4120819
  51.3064821  32.4396097  49.7660614  51.4445370  32.0316484  51.2174016
  49.6030605  35.8926737  41.1006678  50.5148461  36.1254123  40.9254376
  49.0940252  36.4763781  40.5381757  48.2100187  40.8752555  48.4920260
  47.5809050  41.0398269  47.7896328  47.8225849  41.2894165  49.2631224
  52.0889419  41.8106993  45.8464623  51.4040457  42.1905894  45.2961657
  52.1733268  42.4202320  46.5796571  46.9466580  32.0684773  49.3496539
  46.0851059  32.3666026  49.6413277  46.9729014  32.2855172  48.4177572
  43.7628149  40.6126963  45.7570345  44.2266495  40.8914666  44.9674967
  43.4984947  39.7110408  45.5743435  40.6552230  40.1598445  48.6950108
  41.2253587  40.5885713  48.0567593  41.2460342  39.8781029  49.3934294
  42.6997035  36.7350116  42.5659910  43.4021078  37.1871159  43.0333836
  42.3677664  36.0933934  43.1939803  41.1477397  35.3261872  56.9411119
  40.5176057  36.0078153  57.1746516  41.0413484  35.2144954  55.9964258
  36.4422369  34.9933668  47.8677043  35.6521423  35.2491197  47.3917154
  36.9333616  35.8082006  47.9729084  38.3937114  35.3578247  44.8260520
  37.5968278  35.4696942  45.3444016  38.1662707  35.6964900  43.9601411
  44.2242782  41.8822951  52.7743035  44.2887215  42.3443358  53.6101207
  43.5153706  41.2520316  52.9025345  34.7260072  35.2464159  50.2992034
  34.9768110  36.1311169  50.5649610  35.2619620  35.0668760  49.5267126
  58.5492172  38.6777656  46.9667296  57.7955880  38.1085054  46.8111300
  58.6839713  38.6440320  47.9137930  43.9390800  43.5491058  42.6422015
  43.8036474  44.3942594  43.0706863  44.4800612  43.7510336  41.8787949
  40.4258139  29.6282638  59.3036370  40.0325085  29.0748837  59.9784015
  41.2424280  29.9393217  59.6942888  37.3920197  41.0666496  43.2149940
  37.9044718  41.8609746  43.3655505  38.0442910  40.3692787  43.1483542
  39.2015082  44.1832253  45.2972693  39.3781710  45.1050217  45.1093677
  39.9971915  43.8690672  45.7267073  43.3426100  31.0440517  56.8956627
  44.0835814  31.6447670  56.8161089  43.5744023  30.3018155  56.3374670
  38.4867438  36.2296884  55.1734857  38.3720953  35.3282142  55.4741956
  37.6311956  36.4760581  54.8219673  40.3246397  45.7010426  51.2983036
  40.8753822  45.5727490  50.5260030  39.4857873  46.0005315  50.9477929
  47.2883263  27.0721620  51.1720909  46.9447533  27.9623262  51.0960019
  47.6562226  26.8823278  50.3090494  35.3569114  39.3955151  43.9909511
  36.1944336  39.8052159  43.7743218  35.5347382  38.4554593  43.9609705
  47.2533546  37.0630231  39.6793344  46.7380169  37.8334836  39.9181731
  46.9810854  36.3895367  40.3026405  44.8380657  31.9079932  44.7378582
  43.9822253  31.5186782  44.5584221  45.2507609  31.9871893  43.8778368
  46.3679804  29.4426275  49.1370142  45.8644599  29.4056410  48.3237947
  46.6610410  30.3519018  49.1966799  42.6122689  29.5265005  48.1436324
  43.4775686  29.3307814  47.7842213  42.6800198  29.2975357  49.0705680
  52.2267820  39.8162586  41.6146517  51.4497263  39.4773745  41.1701679
  52.9059301  39.8215209  40.9401482  47.0419849  34.9357323  41.5053125
  46.7369985  35.2503472  42.3563268  47.9950291  35.0138743  41.5480458
  45.4866281  41.0947547  43.1546079  44.9587643  40.3600306  42.8419316
  44.9853784  41.8722223  42.9086047  50.4659127  39.2896567  48.2713125
  49.8082801  39.9795828  48.3593254  51.2699526  39.6792999  48.6147112
  40.2185009  31.7567213  45.5152690  40.7928760  31.5342394  44.7825883
  40.8055991  31.8255907  46.2681292  49.2764586  37.6440940  46.3217067
  49.7896468  38.2770932  46.8238777  49.9265810  37.0442135  45.9560427
  40.5454596  33.7871674  39.5348576  39.7091908  34.1246360  39.8557850
  40.4059365  33.6520654  38.5975713  42.5207676  28.6308462  44.2427760
  41.8672089  28.3157479  43.6184375  42.4788150  28.0084202  44.9687583
  43.6318881  38.9127757  36.1581052  42.7245943  38.6817010  36.3572201
  44.1289913  38.1165376  36.3455033  46.5386960  47.6225264  39.0777738
  45.8648659  47.9256961  39.6862696  46.9252782  48.4254344  38.7283195
  45.7545417  35.1190395  48.5675407  44.8367978  35.3405342  48.4097096
  46.1705560  35.1936706  47.7087115  46.5380464  36.5181811  43.6978088
  47.2852283  37.0303208  43.3885210  46.8072054  36.1965864  44.5582481
  44.8107115  39.0140352  40.6805042  43.9018334  38.7299385  40.7777512
  44.8402198  39.4339430  39.8208349  48.9859302  33.5538927  45.6796877
  48.2482058  33.0416313  46.0107120  49.2386075  33.1139309  44.8680154
  49.0870929  26.3315179  46.2738646  49.3929806  25.4712543  45.9864561
  49.8123534  26.9232799  46.0737640  35.3795285  36.7345866  44.6620244
  35.1819685  36.1415227  43.9371311  34.8241949  36.4298076  45.3796183
  43.3592009  36.6268972  46.7814837  43.4140618  35.6742809  46.7057314
  42.5483211  36.7828411  47.2656136  44.5083202  40.5549095  38.0193121
  44.0702632  39.8384954  37.5598758  45.2493643  40.7825210  37.4578212
  41.2984369  35.2446032  44.5405216  40.4852234  35.5440203  44.9470408
  41.7943363  34.8501721  45.2579698  43.4492946  45.2403789  46.4739481
  43.4069125  45.4664635  45.5448013  44.3655645  45.0067164  46.6225282
  52.6256317  38.8306292  44.0769439  52.4874216  39.0207888  43.1490628
  52.2692536  39.5925675  44.5337490  40.7898443  32.8164388  50.1566451
  41.4297823  32.6753147  49.4589415  39.9575974  32.5298901  49.7805053
  52.6525697  40.8982819  49.0880711  53.0862203  40.8058109  49.9363765
  53.3657277  40.8740320  48.4500727  41.5658747  42.1166818  46.2701444
  42.3599346  41.6217138  46.0684019  40.8550440  41.5884681  45.9069149
  37.8741511  36.2609900  42.3461196  36.9439099  36.1994355  42.5631158
  37.9698983  35.7385853  41.5497838  37.7927060  32.7864713  44.9339438
  38.0533877  33.7010046  44.8248598  38.6144232  32.3189155  45.0836051
  39.2651985  34.2002470  52.1038263  39.9375038  33.9919832  51.4550911
  38.4381772  34.0024556  51.6643495  45.1677557  30.8264411  54.1203923
  44.5205472  31.5254360  54.0268400  45.9378572  31.2600555  54.4880172
  44.1430023  42.6895840  49.9499281  44.0041109  42.3214624  50.8225219
  43.3544619  43.2043479  49.7783239  44.7378175  47.7904936  41.2924817
  44.9129931  47.3192980  42.1070440  44.0510963  48.4170703  41.5206078
  45.6935238  42.0677443  47.3388119  45.3585071  42.0278213  48.2345768
  45.1939184  41.4022159  46.8658529  39.6679482  37.4745073  52.8640700
  39.5299280  36.7425312  53.4652239  40.5784406  37.3853973  52.5824887
  48.6294430  39.4133477  37.6125178  48.0123601  38.6880305  37.5158231
  48.1610918  40.1742837  37.2692252  42.2961783  37.1865032  52.3524379
  43.0061402  36.5458224  52.3110998  42.2531091  37.4377927  53.2750560
  41.0090717  34.1730250  54.1720019  40.4728074  33.7220988  54.8241615
  40.4207425  34.3076159  53.4290483  40.4192976  33.6318901  36.7346482
  39.5422442  33.5107702  36.3708729  40.8950729  32.8404980  36.4825371
  31.9395116  38.4196061  46.8287990  32.6266156  38.1057791  46.2409005
  31.7843245  39.3237426  46.5555241  36.7429838  33.3086258  51.2573013
  36.6588027  32.7011927  50.5223423  35.9212545  33.7995276  51.2582510
  43.6056902  45.9845192  43.9809003  42.8224424  46.5266872  44.0747227
  44.3049647  46.5019171  44.3803244  46.9153552  31.7939821  46.6243208
  47.4122252  31.0409783  46.3044279  46.1440534  31.8304138  46.0586418
  54.7683309  37.4980187  48.2661500  54.7573186  38.3804902  47.8955433
  53.9000689  37.1451738  48.0716037  47.9983333  40.5511508  44.1981632
  47.0639611  40.6712971  44.0286336  48.1760001  39.6483975  43.9341642
  43.4988521  33.9357204  46.3514893  43.1286308  33.3828245  47.0395799
  43.9947613  33.3315338  45.7989893  51.3855884  36.3928828  44.7331666
  51.8516336  37.2256819  44.6591969  51.8363385  35.9273809  45.4376924
  49.3572547  28.7609415  48.7722567  48.4435627  28.9913641  48.9404774
  49.7865648  28.8447859  49.6236600  36.9245437  43.9291054  50.3801014
  37.5098874  43.1834742  50.5128918  36.7270276  44.2395011  51.2637677
  39.7784093  46.9642302  45.3963456  39.1094468  47.4488429  44.9127496
  39.6396962  47.2111522  46.3106835  31.5163092  36.4996654  49.1005457
  31.5547192  35.9660245  49.8942575  31.0103385  35.9731860  48.4816434
  38.8953854  31.3461195  52.5967999  38.9595181  32.2076026  52.1845397
  38.8320975  30.7335197  51.8640358  38.3706127  33.4184327  56.2441033
  38.9978166  33.0361405  56.8578558  37.5134046  33.1998529  56.6096726
  35.1471670  35.2260757  42.1759388  35.4425111  34.3171435  42.1226442
  34.2459706  35.2048496  41.8540390  38.6765917  33.3016753  48.1586937
  37.9552503  33.9152721  48.0194410  39.4659173  33.8374518  48.0803583
  41.4792230  30.6371180  54.4327588  42.0026632  30.8833476  55.1953898
  41.2604564  31.4691214  54.0130726  36.8759511  32.9074854  42.2998713
  36.5472217  32.0272233  42.1173819  37.2298882  32.8522523  43.1875103
  39.9901334  33.1947824  42.6674191  40.3297407  33.7233745  41.9452799
  40.4373455  33.5328230  43.4432757  42.6844775  31.5784875  52.1177259
  42.3441596  30.7792688  52.5197939  41.9783782  31.8786586  51.5454092
  43.3361247  28.6634187  50.5704582  44.1587316  28.1894665  50.4483472
  43.5799311  29.4424671  51.0703268  41.9769482  31.6922446  40.8667484
  42.6977844  32.0703698  40.3631201  41.3534786  32.4111322  40.9702462
  46.1200605  32.3967595  41.8025816  46.3364219  33.2792232  41.5014644
  45.6394672  32.0053808  41.0731458  40.8599826  35.3553308  48.3796561
  40.7144407  35.6693611  49.2720842  40.3825030  35.9738208  47.8267459
  42.7196209  32.3455856  48.4277450  42.7057778  31.4496949  48.0909748
  43.4368637  32.3526520  49.0615736  44.5722339  32.7793196  50.4730578
  44.3140117  33.7010267  50.4714908  44.0407380  32.3823631  51.1631042
  35.3345488  37.8958652  51.3184222  34.7898956  38.6718460  51.4504496
  36.2124838  38.2429457  51.1603343  42.1233105  31.2270236  43.6965020
  42.2449016  30.2986882  43.8955908  41.8335147  31.2408922  42.7843336
  44.9924295  28.9125147  46.8331740  45.0145992  28.9764480  45.8783720
  45.4092354  28.0729655  47.0272246  55.3707919  38.6480406  44.8710963
  55.8139065  37.8987731  44.4730086  54.4934430  38.6390542  44.4884695
  36.1211510  37.0228548  54.2114379  35.3793246  37.1711184  54.7979009
  35.8004254  37.2836814  53.3481128  36.5668124  44.9093977  46.2424773
  37.3926144  44.6097749  45.8623417  36.2162176  44.1401600  46.6914562
  41.5349657  44.2620445  48.3122447  40.9129666  43.5991150  48.0124675
  42.2054524  44.2881577  47.6296095  34.7676729  42.8280304  47.2013707
  33.9308637  42.4002478  47.0197708  34.7400374  43.0212747  48.1384498
  41.6074184  32.7402233  57.9054953  41.6562340  33.6164356  57.5232723
  42.1496698  32.1979627  57.3326596  41.0963164  42.8124369  41.7880907
  41.2451284  43.4959833  41.1347580  41.9029607  42.7929459  42.3030363
  43.8373473  33.4933606  54.6601312  42.9676782  33.7867172  54.3883900
  44.0732953  34.0774051  55.3808575  54.9140784  40.1185644  47.2633410
  55.7487676  40.5575448  47.4270971  55.0499913  39.6424298  46.4441656
  38.8515797  38.8389546  42.7941976  38.6061839  37.9351876  42.9922187
  39.0211711  38.8406697  41.8521454  46.5412507  29.7113223  52.1766732
  47.0594450  30.4474250  51.8513221  46.1867639  30.0177216  53.0113491
  38.1211444  34.5717904  40.2928138  37.4280689  34.6462259  39.6368174
  37.8763196  33.8078248  40.8149655  46.7925101  26.1313505  47.6967629
  47.0726854  25.4636694  48.3228055  47.5775708  26.3242601  47.1842292
  44.5958569  45.3072499  39.2592655  44.0232536  45.9262686  38.8063127
  45.1691363  45.8571861  39.7932577  48.6848339  31.6386723  51.6298605
  48.0898271  31.9191735  50.9345093  48.3998035  32.1280623  52.4015346
  50.4443846  44.9075520  37.3505185  50.3657477  44.5735383  38.2440943
  51.2653512  45.3997288  37.3496657  53.1422037  37.7737259  50.5581503
  53.1098357  36.8353260  50.7441187  53.7522660  37.8521296  49.8247328
  44.9805368  36.6433312  36.6008707  45.9264472  36.5139520  36.6697125
  44.6019613  35.9047974  37.0778136  53.2916525  34.5648302  50.6039787
  52.7755574  33.7806759  50.4169715  54.1756474  34.2367019  50.7686306
  50.9527252  28.3089318  46.5635599  50.7552073  28.0004406  47.4478931
  51.5626958  29.0350957  46.6933529  58.9598587  38.8353266  49.6987540
  59.6901975  38.5738554  50.2595243  58.3505532  38.0981988  49.7389608
  57.0413884  36.9761128  50.2961991  56.3147047  36.8417093  49.6878483
  56.6261171  37.2837957  51.1018709  43.1648285  34.5683288  36.5363593
  42.2579740  34.2716401  36.6126306  43.4424266  34.2713106  35.6697879
  34.0826225  35.8889652  46.9862639  33.7629010  35.0354960  46.6937013
  33.5359653  36.1038230  47.7420606  37.8606133  38.6052093  50.7032146
  38.0792143  39.5369201  50.7220179  38.2731907  38.2460067  51.4886949
  44.7810351  29.1120178  42.6907834  43.9711079  28.7667263  43.0663080
  45.4694768  28.8027722  43.2795445  46.7100899  28.1898225  44.3132131
  47.2631937  28.6093678  44.9722154  46.9470985  27.2633973  44.3555087
  42.7333998  34.1785299  60.0934894  42.6330725  35.1279655  60.0246986
  42.5155540  33.8503537  59.2210965  41.9347069  31.4270224  36.6775572
  42.7966233  31.7525122  36.9371389  42.1197414  30.6401719  36.1648638
  33.9514485  39.5092563  48.9555761  33.2577957  39.0946516  48.4425715
  34.6987476  39.5513100  48.3589179  50.0879706  30.2998750  43.8210795
  49.5078375  30.9583554  43.4388847  49.8215639  29.4776095  43.4098212
  48.5383272  29.7003808  46.0232115  49.0383051  29.8120342  45.2146434
  49.1818880  29.3964861  46.6632924  35.8651228  39.4410817  46.8321775
  35.8421916  39.5398504  45.8803659  36.1751864  40.2875968  47.1538942
  38.5238606  41.4986972  50.9468390  39.4781859  41.4670914  50.8798321
  38.3251129  41.0377596  51.7618616  39.1137988  40.0688088  53.5139188
  39.9330877  40.5632167  53.5374025  39.3874795  39.1520056  53.4856755
  48.8704584  32.4598840  42.8767143  47.9830439  32.7448491  42.6587338
  49.2858573  32.2992604  42.0294420  52.2219120  32.4845361  46.5921482
  52.9979510  32.9741814  46.8646099  51.4967254  32.9103416  47.0493352
  54.6591679  33.1972981  47.6495423  55.2536170  32.9568717  46.9388731
  54.7318262  32.4780111  48.2768959  36.8788834  47.0406592  47.9638588
  36.7443302  46.2806992  47.3976586  36.4620897  47.7647491  47.4967377
  48.0147797  42.2243515  36.9715163  48.7183648  42.4293518  37.5872819
  47.2910446  42.7920277  37.2364247  48.8445608  37.9753376  43.0917433
  48.7880809  38.4321928  42.2525066  49.3973950  37.2144061  42.9140276
  52.6550414  33.7643108  43.9167553  52.3987348  33.3639744  44.7475760
  52.0303282  34.4786902  43.7917692  56.9662751  36.5039181  46.4238844
  56.4062309  36.5732371  47.1970406  56.3606255  36.3280166  45.7038340
  40.0357960  47.9375909  48.1757030  39.9190344  48.8821341  48.0735721
  39.2150407  47.6349470  48.5642830  49.5780387  39.1658158  40.3869962
  49.5229191  39.0002429  39.4458407  48.9526442  39.8734191  40.5432152
  34.3672902  34.4026222  54.2131385  35.0131766  33.8925176  54.7018610
  34.1590053  35.1394904  54.7874810  42.8876512  28.6666267  39.9655281
  42.8755182  29.6108107  40.1223552  43.7799934  28.4836412  39.6714742
  42.8166076  47.3435157  48.0523037  41.8661707  47.3437019  47.9387410
  43.1198563  46.5967892  47.5359072  46.7028632  25.2609043  44.2201218
  45.9361028  24.7067530  44.3657900  47.1139337  25.3330912  45.0815369
  38.7070393  31.5493839  58.3106399  39.5701855  31.1930644  58.5209723
  38.1335804  31.2107734  58.9981803  53.0616756  51.9011371  38.3847265
  53.3142276  51.3792892  37.6230728  52.1241315  51.7377516  38.4873948
  54.7650072  48.2939524  39.2879677  54.9324475  49.1619760  39.6550148
  54.5747241  48.4566805  38.3640967  53.3601431  43.9600379  44.2427760
  52.7065843  43.6449397  43.6184375  53.3181905  43.3376120  44.9687583
  59.8253056  48.8830845  45.6796877  59.0875813  48.3708231  46.0107120
  60.0779830  48.4431227  44.8680154  51.2586730  48.9610819  36.7346482
  50.3816197  48.8399620  36.3708729  51.7344483  48.1696897  36.4825371
  56.9594359  47.7259512  41.8025816  57.1757973  48.6084150  41.5014644
  56.4788426  47.3345726  41.0731458  55.8318050  44.2417064  46.8331740
  55.8539746  44.3056397  45.8783720  56.2486109  43.4021573  47.0272246
  54.0042039  49.8975206  36.5363593  53.0973495  49.6008319  36.6126306
  54.2818020  49.6005024  35.6697879  55.6204105  44.4412096  42.6907834
  54.8104833  44.0959181  43.0663080  56.3088522  44.1319639  43.2795445
  57.5494653  43.5190143  44.3132131  58.1025692  43.9385596  44.9722154
  57.7864740  42.5925891  44.3555087  52.7740824  46.7562141  36.6775572
  53.6359988  47.0817040  36.9371389  52.9591168  45.9693637  36.1648638
  60.9273460  45.6290668  43.8210795  60.3472129  46.2875472  43.4388847
  60.6609393  44.8068012  43.4098212  57.5422386  40.5900961  44.2201218
  56.7754782  40.0359448  44.3657900  57.9533091  40.6622830  45.0815369
  59.6053478  71.8101709  47.8811436  60.3974770  71.4692534  47.4657735
  59.8450128  71.9196684  48.8013589  67.6388605  73.9821485  40.3541680
  66.9876585  74.5675566  39.9675694  68.4332968  74.5127680  40.4136718
  61.5644232  71.0710622  40.7528815  62.3375108  70.5239610  40.6141691
  61.9169631  71.9354872  40.9643276  63.3439940  78.8492741  43.9216475
  63.2663969  79.8000566  44.0004956  62.7401583  78.5038613  44.5791402
  73.7676928  72.4690828  45.8464623  73.0827966  72.8489730  45.2961657
  73.8520777  73.0786155  46.5796571  80.2279681  69.3361491  46.9667296
  79.4743389  68.7668889  46.8111300  80.3627222  69.3024156  47.9137930
  65.6178309  74.2074894  42.6422015  65.4823983  75.0526429  43.0706863
  66.1588121  74.4094171  41.8787949  59.0707706  71.7250332  43.2149940
  59.5832227  72.5193582  43.3655505  59.7230419  71.0276622  43.1483542
  60.8802591  74.8416088  45.2972693  61.0569219  75.7634053  45.1093677
  61.6759424  74.5274507  45.7267073  62.0033906  76.3594262  51.2983036
  62.5541331  76.2311325  50.5260030  61.1645382  76.6589151  50.9477929
  57.0356623  70.0538986  43.9909511  57.8731845  70.4635994  43.7743218
  57.2134891  69.1138428  43.9609705  68.2174469  78.2809099  39.0777738
  67.5436168  78.5840796  39.6862696  68.6040291  79.0838180  38.7283195
  70.1646830  75.1207273  45.3846028  70.4569805  75.6812330  44.6658393
  70.6745451  75.4135834  46.1399187  65.1280455  75.8987624  46.4739481
  65.0856634  76.1248471  45.5448013  66.0443154  75.6650999  46.6225282
  63.2446256  72.7750653  46.2701444  64.0386855  72.2800973  46.0684019
  62.5337949  72.2468516  45.9069149  68.0641101  75.1568749  50.6213811
  68.1178123  75.7259685  51.3891527  67.1955882  75.3270634  50.2567848
  65.8217532  73.3479675  49.9499281  65.6828618  72.9798460  50.8225219
  65.0332128  73.8627315  49.7783239  66.4165684  78.4488772  41.2924817
  66.5917440  77.9776815  42.1070440  65.7298472  79.0754538  41.5206078
  60.9826769  81.5978135  48.0664677  61.2223368  82.2296659  48.7443696
  60.1395966  81.2466175  48.3530037  53.6182625  69.0779896  46.8287990
  54.3053665  68.7641626  46.2409005  53.4630754  69.9821261  46.5555241
  65.4954631  77.4057257  50.4706181  65.4224803  78.2112229  50.9825486
  65.0532024  77.6049223  49.6454203  65.2844411  76.6429027  43.9809003
  64.5011933  77.1850707  44.0747227  65.9837156  77.1603007  44.3803244
  76.4470818  68.1564022  48.2661500  76.4360695  69.0388737  47.8955433
  75.5788198  67.8035573  48.0716037  67.9553315  77.3044091  52.6264340
  68.6681287  77.9391556  52.5540242  67.4643343  77.4007957  51.8104342
  67.7673688  77.6442835  45.3750632  67.9496083  76.8264491  45.8378384
  68.5906674  77.8610527  44.9375522  68.1015854  76.5711020  42.6365680
  68.6303620  76.0603475  42.0235842  68.3644073  76.2553550  43.5011213
  58.6032946  74.5874890  50.3801014  59.1886383  73.8418577  50.5128918
  58.4057785  74.8978846  51.2637677  61.4571602  77.6226137  45.3963456
  60.7881977  78.1072265  44.9127496  61.3184471  77.8695357  46.3106835
  65.5976870  79.6569880  51.9946114  66.1495178  79.8201502  52.7595200
  65.9383064  80.2474318  51.3226139  68.7345257  77.6051856  48.9809797
  68.6096397  76.8041596  48.4720742  69.3924349  78.0998049  48.4923766
  70.7980166  75.4060876  50.6089347  69.8510501  75.2866227  50.5367673
  71.1462939  74.5183374  50.6915608  67.8026599  75.2013592  46.8093699
  67.6551562  74.2730300  46.9901269  68.6280093  75.2233683  46.3250774
  71.4060721  76.0242151  47.8958572  72.3307269  75.8185012  47.7583023
  71.2376024  75.7758552  48.8047913  71.1956037  76.5427818  43.2520663
  71.3692915  75.9774241  42.4994515  71.6884928  77.3428713  43.0700153
  72.1831210  75.8594583  40.3517561  72.8782114  76.4801276  40.5704876
  72.5254360  75.0089934  40.6269939  74.0822633  73.3094288  41.8804892
  74.6073957  73.6481561  41.1554212  73.9944985  72.3741304  41.6968027
  65.7663294  79.3766272  46.2400145  65.3268284  78.8842650  46.9333002
  66.5171411  78.8339239  45.9992220  58.2455633  75.5677813  46.2424773
  59.0713652  75.2681584  45.8623417  57.8949685  74.7985435  46.6914562
  63.2137166  74.9204281  48.3122447  62.5917175  74.2574986  48.0124675
  63.8842033  74.9465413  47.6296095  56.4464238  73.4864139  47.2013707
  55.6096146  73.0586313  47.0197708  56.4187883  73.6796582  48.1384498
  62.7750673  73.4708204  41.7880907  62.9238793  74.1543669  41.1347580
  63.5817116  73.4513294  42.3030363  76.5928293  70.7769480  47.2633410
  77.4275184  71.2159284  47.4270971  76.7287422  70.3008133  46.4441656
  60.5303306  69.4973382  42.7941976  60.2849348  68.5935712  42.9922187
  60.6999220  69.4990532  41.8521454  66.2746078  75.9656335  39.2592655
  65.7020045  76.5846522  38.8063127  66.8478872  76.5155696  39.7932577
  69.4943338  76.2493485  40.3901237  70.4274011  76.1839046  40.5934113
  69.4066551  77.0849752  39.9315770  80.6386096  69.4937101  49.6987540
  81.3689484  69.2322389  50.2595243  80.0293041  68.7565823  49.7389608
  57.5438737  70.0994652  46.8321775  57.5209425  70.1982340  45.8803659
  57.8539373  70.9459803  47.1538942  58.5576343  77.6990427  47.9638588
  58.4230811  76.9390828  47.3976586  58.1408406  78.4231327  47.4967377
  78.6450260  67.1623017  46.4238844  78.0849818  67.2316206  47.1970406
  78.0393764  66.9864001  45.7038340  61.7145469  78.5959744  48.1757030
  61.5977853  79.5405176  48.0735721  60.8937916  78.2933305  48.5642830
  62.7399983  79.2488006  51.3912959  63.6427230  79.2811616  51.7079454
  62.5137353  78.3188457  51.4059295  64.4953585  78.0018992  48.0523037
  63.5449216  78.0020854  47.9387410  64.7986072  77.2551727  47.5359072
  80.2306279  83.8379531  49.1168800  80.8684689  83.7186278  48.4132140
  80.1127122  84.7860375  49.1756752  77.0395985  83.7906959  49.0530325
  76.7014497  83.6748024  48.1650859  77.9085753  83.3898124  49.0331331
  72.8982801  85.6442435  45.0427215  72.3347666  85.5532372  44.2743503
  72.7835196  84.8242340  45.5229708  70.4447233  87.1393627  47.8811436
  71.2368525  86.7984452  47.4657735  70.6843883  87.2488602  48.8013589
  78.4782360  89.3113403  40.3541680  77.8270339  89.8967483  39.9675694
  79.2726722  89.8419598  40.4136718  72.4037987  86.4002540  40.7528815
  73.1768863  85.8531527  40.6141691  72.7563386  87.2646789  40.9643276
  74.2423029  87.7278922  53.9595714  73.9512895  88.6324553  53.8442380
  74.8780014  87.7695450  54.6739784  75.1679236  85.1055771  50.5497074
  75.7642808  84.8811793  49.8354037  75.2254208  84.3640516  51.1522522
  74.7404265  82.5595206  38.3847265  74.9929785  82.0376728  37.6230728
  73.8028824  82.3961352  38.4873948  79.7847547  81.5630985  46.1922008
  80.5710637  81.1450408  45.8412425  80.0486252  82.4677077  46.3603656
  79.9557625  87.0003835  40.8910665  79.3203458  87.0738461  41.6031569
  79.6255031  87.5897434  40.2129744  85.1855975  81.5006218  47.0954986
  85.9181146  80.9305435  47.3292816  84.4295330  81.1127818  47.5361492
  74.4600553  84.4623312  40.5871640  74.3436811  83.7868216  41.2552724
  74.5702813  83.9755686  39.7703793  76.8032094  83.9233459  44.2918329
  76.4390301  83.3964080  45.0031250  77.6599210  83.5331928  44.1184814
  82.7081395  75.2127792  51.5549595  82.3764720  76.0823203  51.3310810
  82.1127008  74.8964076  52.2343625  76.4437581  78.9523359  39.2879677
  76.6111984  79.8203595  39.6550148  76.2534750  79.1150641  38.3640967
  79.2012914  87.4140338  50.9545508  78.9013638  88.3165377  50.8461315
  78.8563974  87.1472521  51.8066661  72.6525396  83.8654135  46.9882212
  71.7275892  83.7330349  47.1959904  72.9009809  84.6448354  47.4852155
  82.6010058  79.9322878  48.6342945  81.6926936  79.8638287  48.3401706
  82.5497654  80.4094823  49.4624771  76.4226802  81.4081016  40.2726344
  76.3026427  81.8538067  41.1111824  75.7279390  81.7566334  39.7139882
  70.0134207  83.5087408  47.8226001  70.1426588  83.7621887  48.7365413
  69.3331658  84.1015116  47.5030656  74.1833694  94.1784658  43.9216475
  74.1057724  95.1292483  44.0004956  73.5795338  93.8330531  44.5791402
  84.4671705  78.1339316  50.4120819  83.8246085  78.4271850  49.7660614
  83.9626633  78.0192237  51.2174016  82.1211868  81.8802490  41.1006678
  83.0329724  82.1129876  40.9254376  81.6121515  82.4639534  40.5381757
  80.4052636  86.3027118  54.7367971  80.8135992  85.8609528  53.9922603
  79.6829897  85.7279745  54.9902164  80.7281451  86.8628308  48.4920260
  80.0990313  87.0274022  47.7896328  80.3407113  87.2769918  49.2631224
  84.6070682  87.7982746  45.8464623  83.9221721  88.1781647  45.2961657
  84.6914532  88.4078073  46.5796571  79.9083151  78.9004093  53.7682701
  79.6644083  79.6546153  53.2316977  80.1843082  79.2789440  54.6029948
  81.8621614  85.4442705  52.4459967  82.0738509  86.0874465  51.7694348
  81.8151362  84.6105022  51.9781897  79.4647843  78.0560526  49.3496539
  78.6032322  78.3541779  49.6413277  79.4910278  78.2730925  48.4177572
  76.2809412  86.6002716  45.7570345  76.7447758  86.8790419  44.9674967
  76.0166211  85.6986161  45.5743435  73.1733494  86.1474198  48.6950108
  73.7434851  86.5761466  48.0567593  73.7641605  85.8656782  49.3934294
  75.2178299  82.7225869  42.5659910  75.9202342  83.1746912  43.0333836
  74.8858927  82.0809687  43.1939803  68.9603632  80.9809421  47.8677043
  68.1702686  81.2366950  47.3917154  69.4514880  81.7957759  47.9729084
  82.9767442  88.3214660  50.6182324  83.7984886  87.9194848  50.3365006
  82.9729845  88.2182895  51.5698440  70.9118378  81.3454001  44.8260520
  70.1149541  81.4572695  45.3444016  70.6843970  81.6840653  43.9601411
  76.7424045  87.8698704  52.7743035  76.8068478  88.3319111  53.6101207
  76.0334969  87.2396069  52.9025345  67.2441335  81.2339912  50.2992034
  67.4949374  82.1186922  50.5649610  67.7800884  81.0544513  49.5267126
  91.0673435  84.6653409  46.9667296  90.3137143  84.0960807  46.8111300
  91.2020976  84.6316073  47.9137930  76.4572063  89.5366811  42.6422015
  76.3217738  90.3818347  43.0706863  76.9981876  89.7386089  41.8787949
  69.9101461  87.0542249  43.2149940  70.4225981  87.8485500  43.3655505
  70.5624173  86.3568540  43.1483542  71.7196345  90.1708006  45.2972693
  71.8962974  91.0925970  45.1093677  72.5153179  89.8566425  45.7267073
  78.0840540  90.1590378  56.7722357  77.6404394  89.3726756  56.4543262
  78.7457753  90.3469528  56.1066248  72.8427661  91.6886179  51.2983036
  73.3935086  91.5603243  50.5260030  72.0039137  91.9881068  50.9477929
  80.1821778  90.4393178  54.8003759  80.1640253  91.2602059  54.3084028
  81.1041698  90.3147253  55.0253900  76.6394832  87.9537307  55.6427267
  77.1723169  87.1925595  55.4126575  76.1108913  87.6610959  56.3851421
  79.8064527  73.0597373  51.1720909  79.4628796  73.9499015  51.0960019
  80.1743489  72.8699031  50.3090494  67.8750377  85.3830904  43.9909511
  68.7125599  85.7927912  43.7743218  68.0528645  84.4430346  43.9609705
  79.7714809  83.0505984  39.6793344  79.2561433  83.8210589  39.9181731
  79.4992118  82.3771120  40.3026405  77.3561920  77.8955685  44.7378582
  76.5003517  77.5062535  44.5584221  77.7688872  77.9747646  43.8778368
  78.8861067  75.4302028  49.1370142  78.3825863  75.3932163  48.3237947
  79.1791674  76.3394771  49.1966799  75.1303953  75.5140758  48.1436324
  75.9956950  75.3183567  47.7842213  75.1981462  75.2851110  49.0705680
  84.7449084  85.8038339  41.6146517  83.9678526  85.4649498  41.1701679
  85.4240565  85.8090962  40.9401482  79.5601113  80.9233076  41.5053125
  79.2551248  81.2379225  42.3563268  80.5131555  81.0014496  41.5480458
  78.0047544  87.0823300  43.1546079  77.4768906  86.3476059  42.8419316
  77.5035047  87.8597976  42.9086047  82.9840390  85.2772320  48.2713125
  82.3264065  85.9671581  48.3593254  83.7880790  85.6668752  48.6147112
  72.7366272  77.7442966  45.5152690  73.3110024  77.5218147  44.7825883
  73.3237254  77.8131660  46.2681292  81.7945849  83.6316693  46.3217067
  82.3077731  84.2646685  46.8238777  82.4447073  83.0317888  45.9560427
  73.0635859  79.7747427  39.5348576  72.2273171  80.1122113  39.8557850
  72.9240629  79.6396407  38.5975713  75.0388940  74.6184215  44.2427760
  74.3853352  74.3033232  43.6184375  74.9969414  73.9959955  44.9687583
  76.1500145  84.9003510  36.1581052  75.2427206  84.6692763  36.3572201
  76.6471177  84.1041129  36.3455033  79.0568224  93.6101017  39.0777738
  78.3829922  93.9132714  39.6862696  79.4434045  94.4130097  38.7283195
  78.2726680  81.1066148  48.5675407  77.3549241  81.3281095  48.4097096
  78.6886824  81.1812459  47.7087115  79.0561728  82.5057564  43.6978088
  79.8033547  83.0178961  43.3885210  79.3253317  82.1841617  44.5582481
  77.3288378  85.0016105  40.6805042  76.4199597  84.7175138  40.7777512
  77.3583462  85.4215183  39.8208349  82.5607645  88.6122694  44.4496210
  82.1069973  87.7713604  44.5061400  81.9301612  89.2484093  44.7870990
  81.5040565  79.5414680  45.6796877  80.7663322  79.0292066  46.0107120
  81.7567339  79.1015062  44.8680154  81.0040585  90.4499191  45.3846028
  81.2963559  91.0104248  44.6658393  81.5139205  90.7427752  46.1399187
  81.6052192  72.3190932  46.2738646  81.9111069  71.4588296  45.9864561
  82.3304797  72.9108552  46.0737640  67.8976548  82.7221619  44.6620244
  67.7000948  82.1290980  43.9371311  67.3423212  82.4173829  45.3796183
  75.8773272  82.6144725  46.7814837  75.9321882  81.6618562  46.7057314
  75.0664474  82.7704164  47.2656136  77.0264466  86.5424848  38.0193121
  76.5883896  85.8260707  37.5598758  77.7674907  86.7700963  37.4578212
  73.8165632  81.2321785  44.5405216  73.0033498  81.5315956  44.9470408
  74.3124626  80.8377474  45.2579698  75.9674210  91.2279542  46.4739481
  75.9250389  91.4540388  45.5448013  76.8836909  90.9942917  46.6225282
  79.4139844  81.6963610  53.3720110  79.7689231  81.9235083  54.2314576
  80.0611975  82.0281986  52.7497365  85.1437581  84.8182045  44.0769439
  85.0055479  85.0083641  43.1490628  84.7873799  85.5801428  44.5337490
  73.3079707  78.8040141  50.1566451  73.9479086  78.6628900  49.4589415
  72.4757237  78.5174654  49.7805053  85.1706960  86.8858572  49.0880711
  85.6043467  86.7933862  49.9363765  85.8838541  86.8616073  48.4500727
  74.0840011  88.1042571  46.2701444  74.8780609  87.6092891  46.0684019
  73.3731703  87.5760434  45.9069149  78.9034855  90.4860667  50.6213811
  78.9571877  91.0551603  51.3891527  78.0349637  90.6562552  50.2567848
  70.3922774  82.2485653  42.3461196  69.4620362  82.1870108  42.5631158
  70.4880246  81.7261606  41.5497838  70.3108323  78.7740466  44.9339438
  70.5715140  79.6885799  44.8248598  71.1325496  78.3064908  45.0836051
  71.7833249  80.1878223  52.1038263  72.4556302  79.9795585  51.4550911
  70.9563035  79.9900309  51.6643495  86.0322510  86.9282273  51.6213596
  86.2258400  87.8328084  51.8672871  85.9323128  86.4689692  52.4552181
  81.0937618  87.0789016  57.1954477  80.9423125  86.8499568  56.2784560
  81.0842298  88.0359617  57.2085822  77.8622955  84.6520929  52.1800743
  78.7915015  84.8032088  52.0069710  77.4413985  84.7404949  51.3249390
  76.6611287  88.6771593  49.9499281  76.5222372  88.3090377  50.8225219
  75.8725883  89.1919232  49.7783239  77.2559439  93.7780689  41.2924817
  77.4311194  93.3068733  42.1070440  76.5692227  94.4046456  41.5206078
  78.2116502  88.0553196  47.3388119  77.8766334  88.0153966  48.2345768
  77.7120448  87.3897912  46.8658529  72.1860746  83.4620826  52.8640700
  72.0480544  82.7301065  53.4652239  73.0965669  83.3729726  52.5824887
  81.1475693  85.4009230  37.6125178  80.5304864  84.6756058  37.5158231
  80.6792182  86.1618590  37.2692252  82.8029825  90.1108138  55.2730959
  82.7442371  89.4267359  54.6061542  83.2049344  90.8527128  54.8211585
  71.8220524  96.9270052  48.0664677  72.0617122  97.5588576  48.7443696
  70.9789720  96.5758092  48.3530037  72.9374239  79.6194654  36.7346482
  72.0603706  79.4983455  36.3708729  73.4131992  78.8280733  36.4825371
  82.8047232  88.0747722  53.5044938  81.9174011  87.7373644  53.6271337
  83.3745783  87.3430754  53.7413704  64.4576380  84.4071814  46.8287990
  65.1447419  84.0933544  46.2409005  64.3024508  85.3113179  46.5555241
  69.2611102  79.2962011  51.2573013  69.1769290  78.6887680  50.5223423
  68.4393808  79.7871029  51.2582510  76.3348386  92.7349175  50.4706181
  76.2618557  93.5404146  50.9825486  75.8925779  92.9341141  49.6454203
  76.1238165  91.9720945  43.9809003  75.3405687  92.5142625  44.0747227
  76.8230911  92.4894924  44.3803244  79.4334816  77.7815574  46.6243208
  79.9303515  77.0285537  46.3044279  78.6621797  77.8179891  46.0586418
  87.2864573  83.4855940  48.2661500  87.2754449  84.3680655  47.8955433
  86.4181952  83.1327491  48.0716037  78.7947069  92.6336009  52.6264340
  79.5075042  93.2683474  52.5540242  78.3037098  92.7299875  51.8104342
  80.5164596  86.5387261  44.1981632  79.5820875  86.6588724  44.0286336
  80.6941265  85.6359728  43.9341642  76.0169784  79.9232957  46.3514893
  75.6467572  79.3703998  47.0395799  76.5128877  79.3191091  45.7989893
  83.9037148  82.3804581  44.7331666  84.3697600  83.2132572  44.6591969
  84.3544648  81.9149562  45.4376924  73.8458983  90.3830452  53.4469911
  74.5468442  91.0166935  53.5999305  73.3754098  90.7245184  52.6865550
  81.9713379  88.7248402  41.7317818  82.2473223  88.6104997  42.6411692
  81.1017877  88.3265887  41.6929991  81.8753810  74.7485168  48.7722567
  80.9616890  74.9789395  48.9404774  82.3046912  74.8323612  49.6236600
  81.6460269  82.9375060  51.2722461  80.9931719  83.1850967  50.6174914
  82.0240649  82.1239198  50.9384939  78.6067443  92.9734753  45.3750632
  78.7889837  92.1556409  45.8378384  79.4300429  93.1902445  44.9375522
  78.9409608  91.9002938  42.6365680  79.4697375  91.3895393  42.0235842
  79.2037828  91.5845468  43.5011213  69.4426701  89.9166807  50.3801014
  70.0280138  89.1710495  50.5128918  69.2451539  90.2270764  51.2637677
  72.2965356  92.9518055  45.3963456  71.6275731  93.4364182  44.9127496
  72.1578226  93.1987275  46.3106835  64.0344356  82.4872407  49.1005457
  64.0728455  81.9535998  49.8942575  63.5284648  81.9607613  48.4816434
  76.4370625  94.9861798  51.9946114  76.9888933  95.1493420  52.7595200
  76.7776818  95.5766236  51.3226139  81.2881499  89.8123056  57.8494769
  81.8321403  90.4253014  57.3549724  80.7068344  90.3702634  58.3661782
  67.6652933  81.2136510  42.1759388  67.9606374  80.3047188  42.1226442
  66.7640969  81.1924249  41.8540390  79.5739012  92.9343774  48.9809797
  79.4490151  92.1333514  48.4720742  80.2318103  93.4289967  48.4923766
  71.1947180  79.2892506  48.1586937  70.4733766  79.9028474  48.0194410
  71.9840436  79.8250271  48.0803583  81.6373920  90.7352794  50.6089347
  80.6904256  90.6158145  50.5367673  81.9856693  89.8475292  50.6915608
  69.3940775  78.8950607  42.2998713  69.0653481  78.0147986  42.1173819
  69.7480146  78.8398276  43.1875103  78.6420354  90.5305510  46.8093699
  78.4945316  89.6022217  46.9901269  79.4673847  90.5525601  46.3250774
  72.5082598  79.1823577  42.6674191  72.8478670  79.7109498  41.9452799
  72.9554718  79.5203983  43.4432757  82.2454476  91.3534069  47.8958572
  83.1701023  91.1476930  47.7583023  82.0769779  91.1050470  48.8047913
  74.4950745  77.6798199  40.8667484  75.2159108  78.0579451  40.3631201
  73.8716049  78.3987075  40.9702462  78.6381868  78.3843348  41.8025816
  78.8545482  79.2667985  41.5014644  78.1575935  77.9929561  41.0731458
  73.3781089  81.3429061  48.3796561  73.2325670  81.6569364  49.2720842
  72.9006293  81.9613961  47.8267459  75.2377472  78.3331609  48.4277450
  75.2239041  77.4372702  48.0909748  75.9549900  78.3402273  49.0615736
  77.0903603  78.7668949  50.4730578  76.8321381  79.6886020  50.4714908
  76.5588643  78.3699384  51.1631042  82.0349792  91.8719736  43.2520663
  82.2086669  91.3066159  42.4994515  82.5278683  92.6720631  43.0700153
  67.8526752  83.8834405  51.3184222  67.3080220  84.6594213  51.4504496
  68.7306101  84.2305210  51.1603343  74.6414368  77.2145989  43.6965020
  74.7630279  76.2862635  43.8955908  74.3516411  77.2284675  42.7843336
  77.5105559  74.9000900  46.8331740  77.5327255  74.9640233  45.8783720
  77.9273618  74.0605408  47.0272246  87.8889183  84.6356159  44.8710963
  88.3320329  83.8863484  44.4730086  87.0115693  84.6266295  44.4884695
  83.0224964  91.1886501  40.3517561  83.7175869  91.8093193  40.5704876
  83.3648114  90.3381852  40.6269939  68.6392773  83.0104302  54.2114379
  67.8974509  83.1586937  54.7979009  68.3185518  83.2712567  53.3481128
  84.9216387  88.6386206  41.8804892  85.4467711  88.9773479  41.1554212
  84.8338740  87.7033221  41.6968027  76.5836436  92.5520280  54.0094769
  76.8923562  92.3069427  54.8817468  77.3811918  92.7566918  53.5213639
  76.6057048  94.7058189  46.2400145  76.1662038  94.2134568  46.9333002
  77.3565165  94.1631157  45.9992220  69.0849387  90.8969730  46.2424773
  69.9107407  90.5973502  45.8623417  68.7343439  90.1277353  46.6914562
  74.0530920  90.2496198  48.3122447  73.4310930  89.5866903  48.0124675
  74.7235787  90.2757330  47.6296095  67.2857992  88.8156057  47.2013707
  66.4489900  88.3878231  47.0197708  67.2581638  89.0088500  48.1384498
  84.6110293  89.2719110  57.1856090  83.8205837  89.2543249  56.6460589
  84.3743648  89.8107403  57.9405127  84.7308168  86.1211576  54.4988819
  84.7806173  85.9561584  55.4404341  84.6222092  85.2538835  54.1086699
  73.6144427  88.8000122  41.7880907  73.7632548  89.4835586  41.1347580
  74.4210871  88.7805212  42.3030363  82.0211931  82.1042504  55.8148125
  82.9221794  81.9648969  55.5232123  82.0959905  82.2696959  56.7546303
  86.2326365  88.5408518  54.7430840  85.9411174  88.9038498  55.5794301
  85.6198497  87.8275526  54.5644172  87.4322048  86.1061397  47.2633410
  88.2668939  86.5451201  47.4270971  87.5681176  85.6300051  46.4441656
  84.4813554  83.6641132  53.2110898  84.9567675  83.8568779  52.4029749
  83.5579119  83.7200318  52.9654282  71.3697060  84.8265299  42.7941976
  71.1243102  83.9227629  42.9922187  71.5392975  84.8282450  41.8521454
  79.0593770  75.6988976  52.1766732  79.5775714  76.4350003  51.8513221
  78.7048903  76.0052969  53.0113491  70.6392708  80.5593657  40.2928138
  69.9461953  80.6338012  39.6368174  70.3944460  79.7954001  40.8149655
  79.3106364  72.1189258  47.6967629  79.5908118  71.4512447  48.3228055
  80.0956971  72.3118354  47.1842292  77.1139833  91.2948252  39.2592655
  76.5413800  91.9138439  38.8063127  77.6872626  91.8447614  39.7932577
  83.1815223  80.5406892  51.4439204  84.1332645  80.6404990  51.4651428
  83.0118673  79.7485161  51.9537288  81.2029602  77.6262476  51.6298605
  80.6079534  77.9067488  50.9345093  80.9179299  78.1156376  52.4015346
  80.3337092  91.5785402  40.3901237  81.2667766  91.5130964  40.5934113
  80.2460305  92.4141669  39.9315770  82.9625109  90.8951273  37.3505185
  82.8838741  90.5611136  38.2440943  83.7834776  91.3873041  37.3496657
  85.6603300  83.7613012  50.5581503  85.6279620  82.8229013  50.7441187
  86.2703924  83.8397049  49.8247328  77.4986631  82.6309065  36.6008707
  78.4445736  82.5015273  36.6697125  77.1200876  81.8923727  37.0778136
  85.8097789  80.5524055  50.6039787  85.2936837  79.7682512  50.4169715
  86.6937737  80.2242772  50.7686306  83.4708516  74.2965071  46.5635599
  83.2733337  73.9880159  47.4478931  84.0808221  75.0226710  46.6933529
  91.4779850  84.8229019  49.6987540  92.2083239  84.5614307  50.2595243
  90.8686796  84.0857741  49.7389608  89.5595147  82.9636881  50.2961991
  88.8328311  82.8292846  49.6878483  89.1442434  83.2713710  51.1018709
  75.6829548  80.5559041  36.5363593  74.7761004  80.2592154  36.6126306
  75.9605529  80.2588859  35.6697879  66.6007489  81.8765405  46.9862639
  66.2810273  81.0230713  46.6937013  66.0540917  82.0913983  47.7420606
  70.3787396  84.5927846  50.7032146  70.5973406  85.5244954  50.7220179
  70.7913170  84.2335820  51.4886949  77.2991614  75.0995931  42.6907834
  76.4892342  74.7543016  43.0663080  77.9876031  74.7903475  43.2795445
  79.2282162  74.1773978  44.3132131  79.7813201  74.5969431  44.9722154
  79.4652249  73.2509726  44.3555087  66.4695749  85.4968316  48.9555761
  65.7759220  85.0822269  48.4425715  67.2168740  85.5388853  48.3589179
  82.6060969  76.2874503  43.8210795  82.0259638  76.9459307  43.4388847
  82.3396902  75.4651848  43.4098212  81.0564536  75.6879561  46.0232115
  81.5564314  75.7996095  45.2146434  81.7000144  75.3840614  46.6632924
  68.3832491  85.4286570  46.8321775  68.3603179  85.5274257  45.8803659
  68.6933128  86.2751721  47.1538942  71.0419869  87.4862725  50.9468390
  71.9963123  87.4546667  50.8798321  70.8432393  87.0253349  51.7618616
  71.6319251  86.0563841  53.5139188  72.4512140  86.5507920  53.5374025
  71.9056059  85.1395809  53.4856755  81.3885847  78.4474593  42.8767143
  80.5011702  78.7324244  42.6587338  81.8039837  78.2868357  42.0294420
  84.7400384  78.4721114  46.5921482  85.5160774  78.9617567  46.8646099
  84.0148518  78.8979169  47.0493352  87.1772942  79.1848734  47.6495423
  87.7717433  78.9444470  46.9388731  87.2499526  78.4655864  48.2768959
  69.3970098  93.0282345  47.9638588  69.2624566  92.2682745  47.3976586
  68.9802160  93.7523244  47.4967377  80.5329061  88.2119268  36.9715163
  81.2364911  88.4169271  37.5872819  79.8091710  88.7796030  37.2364247
  81.3626871  83.9629129  43.0917433  81.3062073  84.4197681  42.2525066
  81.9155214  83.2019814  42.9140276  85.1731677  79.7518861  43.9167553
  84.9168611  79.3515497  44.7475760  84.5484545  80.4662655  43.7917692
  89.4844015  82.4914934  46.4238844  88.9243573  82.5608124  47.1970406
  88.8787518  82.3155919  45.7038340  72.5539224  93.9251662  48.1757030
  72.4371608  94.8697094  48.0735721  71.7331670  93.6225223  48.5642830
  82.4415758  88.6501797  39.0213623  83.2761362  88.2182996  38.8391098
  82.2800101  88.4783811  39.9490518  82.0961651  85.1533911  40.3869962
  82.0410454  84.9878182  39.4458407  81.4707706  85.8609944  40.5432152
  66.8854165  80.3901975  54.2131385  67.5313029  79.8800929  54.7018610
  66.6771317  81.1270657  54.7874810  79.4107558  87.4582822  59.7123525
  80.2798717  87.6323475  59.3510160  78.9314309  88.2777239  59.5899255
  75.4057776  74.6542020  39.9655281  75.3936446  75.5983860  40.1223552
  76.2981198  74.4712165  39.6714742  73.5793738  94.5779923  51.3912959
  74.4820985  94.6103534  51.7079454  73.3531108  93.6480374  51.4059295
  75.3347340  93.3310910  48.0523037  74.3842971  93.3312772  47.9387410
  75.6379826  92.5843645  47.5359072  79.2209895  71.2484796  44.2201218
  78.4542291  70.6943283  44.3657900  79.6320600  71.3206665  45.0815369
  91.0700033  99.1671448  49.1168800  91.7078443  99.0478196  48.4132140
  90.9520876 100.1152292  49.1756752  87.8789740  99.1198877  49.0530325
  87.5408251  99.0039941  48.1650859  88.7479508  98.7190042  49.0331331
  83.7376555 100.9734353  45.0427215  83.1741421 100.8824290  44.2743503
  83.6228950 100.1534257  45.5229708  88.3609523 100.2733728  55.0116530
  88.3498163  99.8786527  54.1397034  88.5230162  99.5399801  55.6050302
  81.2840987 102.4685545  47.8811436  82.0762279 102.1276369  47.4657735
  81.5237637 102.5780520  48.8013589  89.3176114 104.6405321  40.3541680
  88.6664094 105.2259401  39.9675694  90.1120477 105.1711516  40.4136718
  83.2431741 101.7294458  40.7528815  84.0162617 101.1823445  40.6141691
  83.5957140 102.5938707  40.9643276  85.0816784 103.0570840  53.9595714
  84.7906650 103.9616471  53.8442380  85.7173768 103.0987368  54.6739784
  86.0072991 100.4347689  50.5497074  86.6036563 100.2103711  49.8354037
  86.0647962  99.6932434  51.1522522  85.5798019  97.8887124  38.3847265
  85.8323540  97.3668645  37.6230728  84.6422578  97.7253269  38.4873948
  90.6241302  96.8922902  46.1922008  91.4104391  96.4742325  45.8412425
  90.8880006  97.7968994  46.3603656  90.7951379 102.3295753  40.8910665
  90.1597212 102.4030379  41.6031569  90.4648786 102.9189351  40.2129744
  96.0249729  96.8298135  47.0954986  96.7574901  96.2597352  47.3292816
  95.2689085  96.4419736  47.5361492  85.2994308  99.7915230  40.5871640
  85.1830566  99.1160133  41.2552724  85.4096568  99.3047604  39.7703793
  87.6425849  99.2525377  44.2918329  87.2784056  98.7255998  45.0031250
  88.4992965  98.8623846  44.1184814  93.5475149  90.5419710  51.5549595
  93.2158474  91.4115121  51.3310810  92.9520763  90.2255994  52.2343625
  87.2831336  94.2815277  39.2879677  87.4505738  95.1495513  39.6550148
  87.0928505  94.4442558  38.3640967  90.0406669 102.7432256  50.9545508
  89.7407392 103.6457294  50.8461315  89.6957728 102.4764439  51.8066661
  83.4919150  99.1946052  46.9882212  82.5669647  99.0622267  47.1959904
  83.7403564  99.9740272  47.4852155  93.4403813  95.2614796  48.6342945
  92.5320690  95.1930204  48.3401706  93.3891408  95.7386741  49.4624771
  87.2620557  96.7372934  40.2726344  87.1420182  97.1829985  41.1111824
  86.5673145  97.0858252  39.7139882  80.8527961  98.8379326  47.8226001
  80.9820343  99.0913805  48.7365413  80.1725413  99.4307034  47.5030656
  85.0227449 109.5076576  43.9216475  84.9451478 110.4584401  44.0004956
  84.4189092 109.1622448  44.5791402  87.5144678  96.6804441  56.5777842
  86.7378013  97.2398361  56.5680707  88.1535242  97.1661224  57.0992712
  95.3065459  93.4631234  50.4120819  94.6639839  93.7563767  49.7660614
  94.8020388  93.3484155  51.2174016  92.9605623  97.2094407  41.1006678
  93.8723479  97.4421794  40.9254376  92.4515270  97.7931452  40.5381757
  85.7691051  99.4889895  56.1395809  86.5105735 100.0274939  55.8630633
  85.0628036 100.1156183  56.2967361  91.2446390 101.6319035  54.7367971
  91.6529746 101.1901446  53.9922603  90.5223652 101.0571663  54.9902164
  87.5977460  96.5691642  52.1101528  88.4438656  96.9931056  52.2536177
  87.5376098  95.9125266  52.8040091  91.5675205 102.1920226  48.4920260
  90.9384068 102.3565940  47.7896328  91.1800867 102.6061835  49.2631224
  95.4464437 103.1274664  45.8464623  94.7615475 103.5073565  45.2961657
  95.5308286 103.7369990  46.5796571  90.7476906  94.2296010  53.7682701
  90.5037838  94.9838071  53.2316977  91.0236836  94.6081358  54.6029948
  92.7015369 100.7734623  52.4459967  92.9132264 101.4166383  51.7694348
  92.6545117  99.9396939  51.9781897  90.3041598  93.3852443  49.3496539
  89.4426077  93.6833697  49.6413277  90.3304032  93.6022842  48.4177572
  87.1203167 101.9294634  45.7570345  87.5841512 102.2082337  44.9674967
  86.8559965 101.0278078  45.5743435  84.0127248 101.4766115  48.6950108
  84.5828605 101.9053384  48.0567593  84.6035360 101.1948700  49.3934294
  86.0572053  98.0517786  42.5659910  86.7596096  98.5038830  43.0333836
  85.7252681  97.4101605  43.1939803  84.5052415  96.6429543  56.9411119
  83.8751075  97.3245824  57.1746516  84.3988502  96.5312624  55.9964258
  79.7997387  96.3101339  47.8677043  79.0096441  96.5658867  47.3917154
  80.2908634  97.1249677  47.9729084  93.8161197 103.6506578  50.6182324
  94.6378640 103.2486765  50.3365006  93.8123599 103.5474812  51.5698440
  81.7512132  96.6745918  44.8260520  80.9543296  96.7864612  45.3444016
  81.5237725  97.0132570  43.9601411  87.5817800 103.1990621  52.7743035
  87.6462232 103.6611029  53.6101207  86.8728724 102.5687986  52.9025345
  78.0835090  96.5631829  50.2992034  78.3343128  97.4478839  50.5649610
  78.6194638  96.3836431  49.5267126 101.9067190  99.9945327  46.9667296
 101.1530898  99.4252725  46.8111300 102.0414731  99.9607991  47.9137930
  87.2965818 104.8658729  42.6422015  87.1611492 105.7110265  43.0706863
  87.8375630 105.0678007  41.8787949  83.7833157  90.9450309  59.3036370
  83.3900103  90.3916507  59.9784015  84.5999298  91.2560887  59.6942888
  80.7495215 102.3834167  43.2149940  81.2619736 103.1777417  43.3655505
  81.4017928 101.6860457  43.1483542  82.5590100 105.4999923  45.2972693
  82.7356728 106.4217888  45.1093677  83.3546933 105.1858342  45.7267073
  86.7001118  92.3608188  56.8956627  87.4410832  92.9615341  56.8161089
  86.9319041  91.6185826  56.3374670  81.8442456  97.5464555  55.1734857
  81.7295971  96.6449812  55.4741956  80.9886974  97.7928252  54.8219673
  88.9234294 105.4882295  56.7722357  88.4798148 104.7018674  56.4543262
  89.5851508 105.6761446  56.1066248  83.6821415 107.0178097  51.2983036
  84.2328840 106.8895160  50.5260030  82.8432891 107.3172986  50.9477929
  91.0215532 105.7685095  54.8003759  91.0034007 106.5893976  54.3084028
  91.9435452 105.6439171  55.0253900  87.4788586 103.2829225  55.6427267
  88.0116923 102.5217513  55.4126575  86.9502667 102.9902877  56.3851421
  90.6458281  88.3889291  51.1720909  90.3022551  89.2790932  51.0960019
  91.0137244  88.1990948  50.3090494  78.7144132 100.7122821  43.9909511
  79.5519354 101.1219830  43.7743218  78.8922399  99.7722263  43.9609705
  90.6108564  98.3797902  39.6793344  90.0955187  99.1502507  39.9181731
  90.3385872  97.7063038  40.3026405  88.1955675  93.2247603  44.7378582
  87.3397271  92.8354453  44.5584221  88.6082627  93.3039563  43.8778368
  89.7254822  90.7593946  49.1370142  89.2219617  90.7224081  48.3237947
  90.0185428  91.6686689  49.1966799  85.9697707  90.8432676  48.1436324
  86.8350704  90.6475484  47.7842213  86.0375216  90.6143027  49.0705680
  95.5842838 101.1330257  41.6146517  94.8072281 100.7941416  41.1701679
  96.2634319 101.1382880  40.9401482  90.3994867  96.2524994  41.5053125
  90.0945003  96.5671143  42.3563268  91.3525309  96.3306414  41.5480458
  88.8441299 102.4115217  43.1546079  88.3162661 101.6767977  42.8419316
  88.3428802 103.1889894  42.9086047  93.8234145 100.6064238  48.2713125
  93.1657819 101.2963499  48.3593254  94.6274544 100.9960670  48.6147112
  83.5760027  93.0734884  45.5152690  84.1503778  92.8510065  44.7825883
  84.1631009  93.1423578  46.2681292  92.6339604  98.9608610  46.3217067
  93.1471485  99.5938602  46.8238777  93.2840828  98.3609806  45.9560427
  83.9029614  95.1039345  39.5348576  83.0666926  95.4414031  39.8557850
  83.7634383  94.9688324  38.5975713  85.8782694  89.9476132  44.2427760
  85.2247107  89.6325150  43.6184375  85.8363168  89.3251873  44.9687583
  86.9893899 100.2295428  36.1581052  86.0820961  99.9984681  36.3572201
  87.4864931  99.4333047  36.3455033  89.8961978 108.9392935  39.0777738
  89.2223677 109.2424631  39.6862696  90.2827800 109.7422015  38.7283195
  89.1120435  96.4358066  48.5675407  88.1942996  96.6573013  48.4097096
  89.5280578  96.5104376  47.7087115  89.8955482  97.8349482  43.6978088
  90.6427301  98.3470879  43.3885210  90.1647072  97.5133534  44.5582481
  88.1682133 100.3308022  40.6805042  87.2593352 100.0467055  40.7777512
  88.1977216 100.7507101  39.8208349  93.4001400 103.9414612  44.4496210
  92.9463727 103.1005522  44.5061400  92.7695367 104.5776010  44.7870990
  92.3434320  94.8706598  45.6796877  91.6057076  94.3583984  46.0107120
  92.5961093  94.4306980  44.8680154  91.8434339 105.7791109  45.3846028
  92.1357314 106.3396166  44.6658393  92.3532960 106.0719670  46.1399187
  92.4445947  87.6482850  46.2738646  92.7504824  86.7880213  45.9864561
  93.1698552  88.2400470  46.0737640  78.7370303  98.0513537  44.6620244
  78.5394703  97.4582897  43.9371311  78.1816967  97.7465747  45.3796183
  86.7167027  97.9436643  46.7814837  86.7715636  96.9910479  46.7057314
  85.9058229  98.0996082  47.2656136  87.8658220 101.8716766  38.0193121
  87.4277650 101.1552625  37.5598758  88.6068661 102.0992881  37.4578212
  84.6559387  96.5613703  44.5405216  83.8427252  96.8607873  44.9470408
  85.1518381  96.1669392  45.2579698  86.8067964 106.5571460  46.4739481
  86.7644143 106.7832306  45.5448013  87.7230663 106.3234834  46.6225282
  90.2533598  97.0255527  53.3720110  90.6082986  97.2527000  54.2314576
  90.9005729  97.3573904  52.7497365  95.9831335 100.1473963  44.0769439
  95.8449234 100.3375559  43.1490628  95.6267554 100.9093346  44.5337490
  84.1473461  94.1332058  50.1566451  84.7872841  93.9920817  49.4589415
  83.3150992  93.8466572  49.7805053  96.0100715 102.2150490  49.0880711
  96.4437221 102.1225779  49.9363765  96.7232295 102.1907991  48.4500727
  84.9233765 103.4334489  46.2701444  85.7174364 102.9384809  46.0684019
  84.2125458 102.9052352  45.9069149  89.7428610 105.8152584  50.6213811
  89.7965632 106.3843521  51.3891527  88.8743391 105.9854469  50.2567848
  81.2316529  97.5777570  42.3461196  80.3014117  97.5162026  42.5631158
  81.3274001  97.0553523  41.5497838  81.1502078  94.1032383  44.9339438
  81.4108895  95.0177717  44.8248598  81.9719250  93.6356826  45.0836051
  82.6227003  95.5170140  52.1038263  83.2950056  95.3087503  51.4550911
  81.7956790  95.3192226  51.6643495  96.8716264 102.2574191  51.6213596
  97.0652154 103.1620001  51.8672871  96.7716882 101.7981610  52.4552181
  88.5252575  92.1432081  54.1203923  87.8780490  92.8422031  54.0268400
  89.2953590  92.5768225  54.4880172  91.9331373 102.4080934  57.1954477
  91.7816879 102.1791485  56.2784560  91.9236052 103.3651535  57.2085822
  88.7016709  99.9812846  52.1800743  89.6308769 100.1324006  52.0069710
  88.2807739 100.0696867  51.3249390  87.5005041 104.0063511  49.9499281
  87.3616127 103.6382295  50.8225219  86.7119637 104.5211150  49.7783239
  88.0953193 109.1072607  41.2924817  88.2704949 108.6360650  42.1070440
  87.4085981 109.7338373  41.5206078  89.0510256 103.3845113  47.3388119
  88.7160089 103.3445883  48.2345768  88.5514202 102.7189829  46.8658529
  83.0254500  98.7912743  52.8640700  82.8874298  98.0592982  53.4652239
  83.9359424  98.7021644  52.5824887  91.9869448 100.7301148  37.6125178
  91.3698619 100.0047976  37.5158231  91.5185936 101.4910508  37.2692252
  85.6536801  98.5032703  52.3524379  86.3636419  97.8625895  52.3110998
  85.6106109  98.7545598  53.2750560  93.6423580 105.4400056  55.2730959
  93.5836126 104.7559276  54.6061542  94.0443098 106.1819046  54.8211585
  84.3665735  95.4897921  54.1720019  83.8303092  95.0388659  54.8241615
  83.7782443  95.6243829  53.4290483  82.6614278 112.2561970  48.0664677
  82.9010877 112.8880494  48.7443696  81.8183475 111.9050010  48.3530037
  83.7767994  94.9486572  36.7346482  82.8997460  94.8275373  36.3708729
  84.2525747  94.1572650  36.4825371  93.6440987 103.4039640  53.5044938
  92.7567766 103.0665562  53.6271337  94.2139538 102.6722671  53.7413704
  75.2970134  99.7363732  46.8287990  75.9841174  99.4225462  46.2409005
  75.1418263 100.6405096  46.5555241  80.1004856  94.6253928  51.2573013
  80.0163045  94.0179598  50.5223423  79.2787563  95.1162947  51.2582510
  87.1742140 108.0641092  50.4706181  87.1012312 108.8696064  50.9825486
  86.7319533 108.2633058  49.6454203  86.9631920 107.3012862  43.9809003
  86.1799442 107.8434543  44.0747227  87.6624665 107.8186842  44.3803244
  90.2728570  93.1107492  46.6243208  90.7697270  92.3577454  46.3044279
  89.5015552  93.1471809  46.0586418  98.1258327  98.8147857  48.2661500
  98.1148204  99.6972573  47.8955433  97.2575707  98.4619408  48.0716037
  89.6340824 107.9627926  52.6264340  90.3468796 108.5975391  52.5540242
  89.1430852 108.0591792  51.8104342  91.3558351 101.8679179  44.1981632
  90.4214629 101.9880642  44.0286336  91.5335019 100.9651646  43.9341642
  86.8563539  95.2524875  46.3514893  86.4861326  94.6995915  47.0395799
  87.3522631  94.6483008  45.7989893  94.7430902  97.7096498  44.7331666
  95.2091354  98.5424490  44.6591969  95.1938403  97.2441480  45.4376924
  84.6852737 105.7122370  53.4469911  85.3862197 106.3458853  53.5999305
  84.2147852 106.0537101  52.6865550  92.8107133 104.0540320  41.7317818
  93.0866977 103.9396914  42.6411692  91.9411632 103.6557805  41.6929991
  92.7147565  90.0777085  48.7722567  91.8010645  90.3081312  48.9404774
  93.1440666  90.1615529  49.6236600  92.4854023  98.2666977  51.2722461
  91.8325474  98.5142885  50.6174914  92.8634403  97.4531116  50.9384939
  89.4461197 108.3026670  45.3750632  89.6283592 107.4848326  45.8378384
  90.2694183 108.5194363  44.9375522  89.7803363 107.2294856  42.6365680
  90.3091129 106.7187310  42.0235842  90.0431582 106.9137386  43.5011213
  88.5341596  99.0086788  57.7588498  87.8582233  98.9080918  58.4290874
  89.3569230  98.8526002  58.2224496  80.2820455 105.2458725  50.3801014
  80.8673892 104.5002413  50.5128918  80.0845294 105.5562682  51.2637677
  83.1359111 108.2809972  45.3963456  82.4669486 108.7656100  44.9127496
  82.9971980 108.5279193  46.3106835  74.8738110  97.8164325  49.1005457
  74.9122210  97.2827916  49.8942575  74.3678403  97.2899531  48.4816434
  87.2764379 110.3153716  51.9946114  87.8282687 110.4785337  52.7595200
  87.6170573 110.9058154  51.3226139  82.2528872  92.6628866  52.5967999
  82.3170199  93.5243697  52.1845397  82.1895993  92.0502867  51.8640358
  81.7281145  94.7351998  56.2441033  82.3553184  94.3529075  56.8578558
  80.8709064  94.5166200  56.6096726  92.1275254 105.1414973  57.8494769
  92.6715158 105.7544932  57.3549724  91.5462098 105.6994552  58.3661782
  78.5046688  96.5428427  42.1759388  78.8000129  95.6339106  42.1226442
  77.6034723  96.5216167  41.8540390  90.4132766 108.2635691  48.9809797
  90.2883906 107.4625431  48.4720742  91.0711858 108.7581885  48.4923766
  82.0340935  94.6184424  48.1586937  81.3127520  95.2320392  48.0194410
  82.8234190  95.1542189  48.0803583  92.4767675 106.0644711  50.6089347
  91.5298010 105.9450063  50.5367673  92.8250448 105.1767209  50.6915608
  84.8367248  91.9538850  54.4327588  85.3601650  92.2001147  55.1953898
  84.6179582  92.7858885  54.0130726  80.2334529  94.2242525  42.2998713
  79.9047235  93.3439904  42.1173819  80.5873900  94.1690194  43.1875103
  89.4814108 105.8597428  46.8093699  89.3339071 104.9314135  46.9901269
  90.3067602 105.8817518  46.3250774  83.3476352  94.5115495  42.6674191
  83.6872425  95.0401416  41.9452799  83.7948473  94.8495901  43.4432757
  93.0848230 106.6825986  47.8958572  94.0094777 106.4768848  47.7583023
  92.9163533 106.4342388  48.8047913  86.0419793  92.8952545  52.1177259
  85.7016614  92.0960359  52.5197939  85.3358800  93.1954256  51.5454092
  86.6936265  89.9801858  50.5704582  87.5162334  89.5062336  50.4483472
  86.9374329  90.7592342  51.0703268  85.3344500  93.0090116  40.8667484
  86.0552862  93.3871369  40.3631201  84.7109804  93.7278993  40.9702462
  89.4775622  93.7135265  41.8025816  89.6939237  94.5959903  41.5014644
  88.9969690  93.3221479  41.0731458  84.2174844  96.6720979  48.3796561
  84.0719425  96.9861282  49.2720842  83.7400047  97.2905879  47.8267459
  86.0771227  93.6623527  48.4277450  86.0632796  92.7664620  48.0909748
  86.7943655  93.6694190  49.0615736  87.9297357  94.0960867  50.4730578
  87.6715135  95.0177937  50.4714908  87.3982398  93.6991301  51.1631042
  92.8743546 107.2011654  43.2520663  93.0480424 106.6358076  42.4994515
  93.3672437 108.0012549  43.0700153  78.6920506  99.2126323  51.3184222
  78.1473974  99.9886131  51.4504496  79.5699856  99.5597127  51.1603343
  85.4808123  92.5437907  43.6965020  85.6024034  91.6154553  43.8955908
  85.1910165  92.5576593  42.7843336  88.3499313  90.2292817  46.8331740
  88.3721010  90.2932150  45.8783720  88.7667372  89.3897326  47.0272246
  98.7282937  99.9648077  44.8710963  99.1714083  99.2155402  44.4730086
  97.8509448  99.9558213  44.4884695  93.8618719 106.5178418  40.3517561
  94.5569623 107.1385111  40.5704876  94.2041869 105.6673769  40.6269939
  79.4786528  98.3396219  54.2114379  78.7368264  98.4878855  54.7979009
  79.1579272  98.6004485  53.3481128  95.7610142 103.9678124  41.8804892
  96.2861466 104.3065397  41.1554212  95.6732494 103.0325139  41.6968027
  87.4230191 107.8812197  54.0094769  87.7317317 107.6361344  54.8817468
  88.2205673 108.0858836  53.5213639  87.4450803 110.0350107  46.2400145
  87.0055793 109.5426486  46.9333002  88.1958920 109.4923075  45.9992220
  79.9243142 106.2261648  46.2424773  80.7501161 105.9265420  45.8623417
  79.5737194 105.4569270  46.6914562  84.8924675 105.5788116  48.3122447
  84.2704684 104.9158821  48.0124675  85.5629542 105.6049248  47.6296095
  78.1251747 104.1447974  47.2013707  77.2883655 103.7170149  47.0197708
  78.0975392 104.3380418  48.1384498  84.9649202  94.0569904  57.9054953
  85.0137358  94.9332027  57.5232723  85.5071716  93.5147297  57.3326596
  95.4504048 104.6011027  57.1856090  94.6599592 104.5835166  56.6460589
  95.2137402 105.1399321  57.9405127  95.5701923 101.4503494  54.4988819
  95.6199928 101.2853501  55.4404341  95.4615846 100.5830753  54.1086699
  84.4538182 104.1292039  41.7880907  84.6026302 104.8127504  41.1347580
  85.2604625 104.1097130  42.3030363  92.8605685  97.4334422  55.8148125
  93.7615548  97.2940887  55.5232123  92.9353660  97.5988877  56.7546303
  87.1948491  94.8101277  54.6601312  86.3251800  95.1034843  54.3883900
  87.4307971  95.3941722  55.3808575  97.0720120 103.8700435  54.7430840
  96.7804928 104.2330416  55.5794301  96.4592251 103.1567444  54.5644172
  98.2715802 101.4353315  47.2633410  99.1062693 101.8743119  47.4270971
  98.4074931 100.9591968  46.4441656  95.3207308  98.9933050  53.2110898
  95.7961430  99.1860696  52.4029749  94.3972873  99.0492236  52.9654282
  82.2090815 100.1557217  42.7941976  81.9636857  99.2519547  42.9922187
  82.3786729 100.1574368  41.8521454  89.8987524  91.0280893  52.1766732
  90.4169468  91.7641920  51.8513221  89.5442657  91.3344887  53.0113491
  81.4786462  95.8885575  40.2928138  80.7855707  95.9629930  39.6368174
  81.2338214  95.1245918  40.8149655  90.1500119  87.4481176  47.6967629
  90.4301872  86.7804365  48.3228055  90.9350726  87.6410272  47.1842292
  87.9533587 106.6240170  39.2592655  87.3807554 107.2430357  38.8063127
  88.5266381 107.1739532  39.7932577  94.0208977  95.8698810  51.4439204
  94.9726400  95.9696908  51.4651428  93.8512427  95.0777079  51.9537288
  92.0423356  92.9554393  51.6298605  91.4473289  93.2359406  50.9345093
  91.7573053  93.4448294  52.4015346  91.1730847 106.9077320  40.3901237
  92.1061520 106.8422882  40.5934113  91.0854060 107.7433587  39.9315770
  93.8018864 106.2243190  37.3505185  93.7232495 105.8903054  38.2440943
  94.6228530 106.7164958  37.3496657  96.4997055  99.0904930  50.5581503
  96.4673375  98.1520930  50.7441187  97.1097678  99.1688966  49.8247328
  88.3380386  97.9600983  36.6008707  89.2839490  97.8307191  36.6697125
  87.9594631  97.2215645  37.0778136  96.6491543  95.8815973  50.6039787
  96.1330592  95.0974430  50.4169715  97.5331492  95.5534690  50.7686306
  94.3102270  89.6256989  46.5635599  94.1127091  89.3172077  47.4478931
  94.9201976  90.3518628  46.6933529 102.3173605 100.1520937  49.6987540
 103.0476993  99.8906225  50.2595243 101.7080550  99.4149658  49.7389608
 100.3988902  98.2928799  50.2961991  99.6722065  98.1584764  49.6878483
  99.9836189  98.6005628  51.1018709  88.2219078 102.0118729  58.0609364
  89.1422088 102.1897328  58.2549411  88.1868661 101.0674774  57.9089064
  86.5223303  95.8850959  36.5363593  85.6154758  95.5884072  36.6126306
  86.7999284  95.5880777  35.6697879  77.4401243  97.2057322  46.9862639
  77.1204028  96.3522631  46.6937013  76.8934671  97.4205901  47.7420606
  81.2181151  99.9219763  50.7032146  81.4367161 100.8536871  50.7220179
  81.6306925  99.5627738  51.4886949  88.1385369  90.4287849  42.6907834
  87.3286097  90.0834934  43.0663080  88.8269785  90.1195393  43.2795445
  90.0675917  89.5065896  44.3132131  90.6206955  89.9261349  44.9722154
  90.3046003  88.5801644  44.3555087  86.0909016  95.4952969  60.0934894
  85.9905743  96.4447326  60.0246986  85.8730558  95.1671208  59.2210965
  85.2922087  92.7437894  36.6775572  86.1541251  93.0692793  36.9371389
  85.4772432  91.9569390  36.1648638  77.3089503 100.8260234  48.9555761
  76.6152975 100.4114187  48.4425715  78.0562494 100.8680770  48.3589179
  93.4454724  91.6166421  43.8210795  92.8653393  92.2751225  43.4388847
  93.1790657  90.7943765  43.4098212  91.8958290  91.0171478  46.0232115
  92.3958069  91.1288013  45.2146434  92.5393898  90.7132531  46.6632924
  85.9540286  98.9250108  58.9099956  85.4707368  99.7250468  59.1163845
  86.0401225  98.9358053  57.9567400  79.2226246 100.7578488  46.8321775
  79.1996934 100.8566175  45.8803659  79.5326882 101.6043639  47.1538942
  81.8813624 102.8154643  50.9468390  82.8356877 102.7838585  50.8798321
  81.6826147 102.3545267  51.7618616  82.4713006 101.3855759  53.5139188
  83.2905895 101.8799837  53.5374025  82.7449813 100.4687727  53.4856755
  92.2279602  93.7766511  42.8767143  91.3405457  94.0616162  42.6587338
  92.6433591  93.6160275  42.0294420  95.5794138  93.8013032  46.5921482
  96.3554528  94.2909485  46.8646099  94.8542272  94.2271086  47.0493352
  98.0166697  94.5140651  47.6495423  98.6111187  94.2736387  46.9388731
  98.0893280  93.7947782  48.2768959  80.2363852 108.3574262  47.9638588
  80.1018320 107.5974663  47.3976586  79.8195915 109.0815162  47.4967377
  91.3722815 103.5411186  36.9715163  92.0758666 103.7461188  37.5872819
  90.6485464 104.1087948  37.2364247  92.2020626  99.2921047  43.0917433
  92.1455827  99.7489598  42.2525066  92.7548968  98.5311732  42.9140276
  96.0125432  95.0810779  43.9167553  95.7562366  94.6807415  44.7475760
  95.3878300  95.7954573  43.7917692 100.3237769  97.8206852  46.4238844
  99.7637327  97.8900041  47.1970406  99.7181273  97.6447837  45.7038340
  83.3932978 109.2543579  48.1757030  83.2765362 110.1989012  48.0735721
  82.5725425 108.9517141  48.5642830  93.2809513 103.9793715  39.0213623
  94.1155117 103.5474913  38.8391098  93.1193856 103.8075729  39.9490518
  92.9355405 100.4825828  40.3869962  92.8804209 100.3170100  39.4458407
  92.3101460 101.1901861  40.5432152  77.7247920  95.7193893  54.2131385
  78.3706784  95.2092847  54.7018610  77.5165071  96.4562574  54.7874810
  90.2501312 102.7874740  59.7123525  91.1192472 102.9615392  59.3510160
  89.7708064 103.6069157  59.5899255  86.2451530  89.9833937  39.9655281
  86.2330200  90.9275777  40.1223552  87.1374952  89.8004083  39.6714742
  84.4187492 109.9071841  51.3912959  85.3214739 109.9395451  51.7079454
  84.1924862 108.9772292  51.4059295  86.1741094 108.6602828  48.0523037
  85.2236725 108.6604689  47.9387410  86.4773581 107.9135562  47.5359072
  90.0603650  86.5776714  44.2201218  89.2936046  86.0235201  44.3657900
  90.4714355  86.6498583  45.0815369  82.0645411  92.8661510  58.3106399
  82.9276873  92.5098315  58.5209723  81.4910822  92.5275405  58.9981803
 101.9093788 114.4963366  49.1168800 102.5472198 114.3770113  48.4132140
 101.7914631 115.4444210  49.1756752  98.7183494 114.4490794  49.0530325
  98.3802006 114.3331859  48.1650859  99.5873262 114.0481959  49.0331331
  94.5770310 116.3026271  45.0427215  94.0135175 116.2116208  44.2743503
  94.4622705 115.4826175  45.5229708  99.2003277 115.6025646  55.0116530
  99.1891918 115.2078444  54.1397034  99.3623917 114.8691719  55.6050302
  92.1234742 117.7977462  47.8811436  92.9156034 117.4568287  47.4657735
  92.3631392 117.9072437  48.8013589  94.0825496 117.0586375  40.7528815
  94.8556372 116.5115363  40.6141691  94.4350895 117.9230625  40.9643276
  95.9210538 118.3862758  53.9595714  95.6300404 119.2908389  53.8442380
  96.5567523 118.4279285  54.6739784  96.8466745 115.7639606  50.5497074
  97.4430317 115.5395629  49.8354037  96.9041717 115.0224352  51.1522522
  96.4191774 113.2179042  38.3847265  96.6717294 112.6960563  37.6230728
  95.4816333 113.0545187  38.4873948 101.4635056 112.2214820  46.1922008
 102.2498146 111.8034243  45.8412425 101.7273761 113.1260912  46.3603656
 106.8643484 112.1590053  47.0954986 107.5968655 111.5889270  47.3292816
 106.1082839 111.7711654  47.5361492  96.1388062 115.1207148  40.5871640
  96.0224320 114.4452051  41.2552724  96.2490322 114.6339521  39.7703793
  98.4819603 114.5817295  44.2918329  98.1177810 114.0547916  45.0031250
  99.3386719 114.1915764  44.1184814 104.3868904 105.8711627  51.5549595
 104.0552229 106.7407038  51.3310810 103.7914517 105.5547911  52.2343625
  98.1225090 109.6107194  39.2879677  98.2899493 110.4787431  39.6550148
  97.9322259 109.7734476  38.3640967  94.3312905 114.5237970  46.9882212
  93.4063401 114.3914184  47.1959904  94.5797318 115.3032189  47.4852155
 104.2797567 110.5906713  48.6342945 103.3714445 110.5222122  48.3401706
 104.2285163 111.0678658  49.4624771  98.1014311 112.0664852  40.2726344
  97.9813936 112.5121903  41.1111824  97.4066899 112.4150170  39.7139882
  91.6921716 114.1671244  47.8226001  91.8214097 114.4205723  48.7365413
  91.0119167 114.7598952  47.5030656  98.3538433 112.0096359  56.5777842
  97.5771767 112.5690279  56.5680707  98.9928996 112.4953142  57.0992712
 106.1459214 108.7923152  50.4120819 105.5033594 109.0855685  49.7660614
 105.6414142 108.6776072  51.2174016 103.7999377 112.5386325  41.1006678
 104.7117233 112.7713712  40.9254376 103.2909024 113.1223369  40.5381757
  96.6084805 114.8181812  56.1395809  97.3499490 115.3566856  55.8630633
  95.9021791 115.4448101  56.2967361 102.0840145 116.9610953  54.7367971
 102.4923501 116.5193363  53.9922603 101.3617406 116.3863580  54.9902164
  98.4371215 111.8983560  52.1101528  99.2832410 112.3222973  52.2536177
  98.3769853 111.2417184  52.8040091 101.5870660 109.5587928  53.7682701
 101.3431592 110.3129989  53.2316977 101.8630591 109.9373276  54.6029948
 101.1435352 108.7144361  49.3496539 100.2819831 109.0125615  49.6413277
 101.1697787 108.9314760  48.4177572  97.9596921 117.2586552  45.7570345
  98.4235267 117.5374255  44.9674967  97.6953720 116.3569996  45.5743435
  94.8521002 116.8058033  48.6950108  95.4222360 117.2345301  48.0567593
  95.4429114 116.5240618  49.3934294  96.8965807 113.3809704  42.5659910
  97.5989851 113.8330748  43.0333836  96.5646436 112.7393523  43.1939803
  95.3446169 111.9721461  56.9411119  94.7144830 112.6537741  57.1746516
  95.2382257 111.8604542  55.9964258  90.6391141 111.6393257  47.8677043
  89.8490195 111.8950785  47.3917154  91.1302389 112.4541594  47.9729084
  92.5905887 112.0037836  44.8260520  91.7937050 112.1156530  45.3444016
  92.3631479 112.3424488  43.9601411  98.4211554 118.5282539  52.7743035
  98.4855987 118.9902946  53.6101207  97.7122478 117.8979904  52.9025345
  88.9228844 111.8923747  50.2992034  89.1736883 112.7770757  50.5649610
  89.4588393 111.7128349  49.5267126  94.6226912 106.2742226  59.3036370
  94.2293857 105.7208425  59.9784015  95.4393052 106.5852805  59.6942888
  91.5888970 117.7126085  43.2149940  92.1013490 118.5069335  43.3655505
  92.2411682 117.0152375  43.1483542  93.3983854 120.8291841  45.2972693
  93.5750483 121.7509806  45.1093677  94.1940688 120.5150260  45.7267073
  97.5394873 107.6900106  56.8956627  98.2804586 108.2907259  56.8161089
  97.7712796 106.9477743  56.3374670  92.6836211 112.8756473  55.1734857
  92.5689726 111.9741730  55.4741956  91.8280728 113.1220170  54.8219673
  94.5215170 122.3470015  51.2983036  95.0722595 122.2187078  50.5260030
  93.6826646 122.6464904  50.9477929  98.3182341 118.6121142  55.6427267
  98.8510678 117.8509431  55.4126575  97.7896422 118.3194794  56.3851421
 101.4852036 103.7181208  51.1720909 101.1416305 104.6082850  51.0960019
 101.8530998 103.5282866  50.3090494  89.5537886 116.0414739  43.9909511
  90.3913108 116.4511747  43.7743218  89.7316154 115.1014181  43.9609705
 101.4502318 113.7089820  39.6793344 100.9348942 114.4794424  39.9181731
 101.1779627 113.0354956  40.3026405  99.0349429 108.5539520  44.7378582
  98.1791026 108.1646371  44.5584221  99.4476381 108.6331481  43.8778368
 100.5648576 106.0885864  49.1370142 100.0613372 106.0515999  48.3237947
 100.8579183 106.9978606  49.1966799  96.8091462 106.1724593  48.1436324
  97.6744459 105.9767402  47.7842213  96.8768971 105.9434945  49.0705680
 101.2388622 111.5816912  41.5053125 100.9338757 111.8963061  42.3563268
 102.1919064 111.6598332  41.5480458  99.6835053 117.7407135  43.1546079
  99.1556415 117.0059895  42.8419316  99.1822556 118.5181811  42.9086047
  94.4153781 108.4026801  45.5152690  94.9897533 108.1801983  44.7825883
  95.0024763 108.4715496  46.2681292 103.4733358 114.2900528  46.3217067
 103.9865240 114.9230520  46.8238777 104.1234582 113.6901724  45.9560427
  94.7423368 110.4331262  39.5348576  93.9060680 110.7705949  39.8557850
  94.6028138 110.2980242  38.5975713  96.7176449 105.2768050  44.2427760
  96.0640861 104.9617067  43.6184375  96.6756923 104.6543791  44.9687583
  97.8287654 115.5587345  36.1581052  96.9214715 115.3276599  36.3572201
  98.3258686 114.7624964  36.3455033  99.9514189 111.7649984  48.5675407
  99.0336750 111.9864931  48.4097096 100.3674333 111.8396294  47.7087115
 100.7349237 113.1641399  43.6978088 101.4821056 113.6762797  43.3885210
 101.0040826 112.8425452  44.5582481  99.0075887 115.6599940  40.6805042
  98.0987106 115.3758973  40.7777512  99.0370971 116.0799019  39.8208349
 103.1828074 110.1998516  45.6796877 102.4450831 109.6875902  46.0107120
 103.4354848 109.7598897  44.8680154 103.2839701 102.9774768  46.2738646
 103.5898578 102.1172131  45.9864561 104.0092306 103.5692388  46.0737640
  89.5764057 113.3805454  44.6620244  89.3788457 112.7874815  43.9371311
  89.0210721 113.0757664  45.3796183  97.5560781 113.2728561  46.7814837
  97.6109391 112.3202397  46.7057314  96.7451983 113.4288000  47.2656136
  98.7051975 117.2008684  38.0193121  98.2671405 116.4844543  37.5598758
  99.4462416 117.4284799  37.4578212  95.4953141 111.8905620  44.5405216
  94.6821007 112.1899791  44.9470408  95.9912135 111.4961309  45.2579698
 101.0927353 112.3547445  53.3720110 101.4476740 112.5818918  54.2314576
 101.7399484 112.6865822  52.7497365  94.9867216 109.4623976  50.1566451
  95.6266595 109.3212735  49.4589415  94.1544746 109.1758489  49.7805053
  95.7627520 118.7626406  46.2701444  96.5568118 118.2676727  46.0684019
  95.0519212 118.2344270  45.9069149  92.0710283 112.9069488  42.3461196
  91.1407871 112.8453944  42.5631158  92.1667755 112.3845441  41.5497838
  91.9895832 109.4324301  44.9339438  92.2502649 110.3469634  44.8248598
  92.8113005 108.9648744  45.0836051  93.4620758 110.8462058  52.1038263
  94.1343811 110.6379420  51.4550911  92.6350544 110.6484144  51.6643495
  99.3646330 107.4723999  54.1203923  98.7174245 108.1713949  54.0268400
 100.1347345 107.9060143  54.4880172  99.5410464 115.3104764  52.1800743
 100.4702524 115.4615924  52.0069710  99.1201494 115.3988785  51.3249390
  98.3398796 119.3355428  49.9499281  98.2009881 118.9674213  50.8225219
  97.5513392 119.8503068  49.7783239  99.8904011 118.7137031  47.3388119
  99.5553843 118.6737801  48.2345768  99.3907956 118.0481747  46.8658529
  93.8648255 114.1204661  52.8640700  93.7268053 113.3884900  53.4652239
  94.7753178 114.0313561  52.5824887 102.8263202 116.0593065  37.6125178
 102.2092373 115.3339894  37.5158231 102.3579691 116.8202426  37.2692252
  96.4930555 113.8324620  52.3524379  97.2030174 113.1917813  52.3110998
  96.4499864 114.0837515  53.2750560  95.2059489 110.8189838  54.1720019
  94.6696846 110.3680577  54.8241615  94.6176198 110.9535747  53.4290483
  94.6161748 110.2778490  36.7346482  93.7391215 110.1567291  36.3708729
  95.0919501 109.4864568  36.4825371  86.1363888 115.0655649  46.8287990
  86.8234928 114.7517379  46.2409005  85.9812017 115.9697014  46.5555241
  90.9398611 109.9545846  51.2573013  90.8556799 109.3471516  50.5223423
  90.1181317 110.4454864  51.2582510 101.1122325 108.4399410  46.6243208
 101.6091024 107.6869372  46.3044279 100.3409306 108.4763726  46.0586418
 102.1952105 117.1971097  44.1981632 101.2608384 117.3172559  44.0286336
 102.3728774 116.2943564  43.9341642  97.6957293 110.5816793  46.3514893
  97.3255081 110.0287833  47.0395799  98.1916386 109.9774926  45.7989893
 105.5824657 113.0388416  44.7331666 106.0485109 113.8716408  44.6591969
 106.0332157 112.5733398  45.4376924  95.5246492 121.0414288  53.4469911
  96.2255951 121.6750771  53.5999305  95.0541607 121.3829019  52.6865550
 103.5541319 105.4069003  48.7722567 102.6404399 105.6373230  48.9404774
 103.9834421 105.4907447  49.6236600 103.3247778 113.5958895  51.2722461
 102.6719228 113.8434802  50.6174914 103.7028158 112.7823033  50.9384939
  99.3735351 114.3378706  57.7588498  98.6975988 114.2372835  58.4290874
 100.1962985 114.1817920  58.2224496  91.1214210 120.5750643  50.3801014
  91.7067647 119.8294330  50.5128918  90.9239048 120.8854599  51.2637677
  85.7131865 113.1456243  49.1005457  85.7515964 112.6119833  49.8942575
  85.2072157 112.6191448  48.4816434  93.0922627 107.9920783  52.5967999
  93.1563953 108.8535614  52.1845397  93.0289747 107.3794785  51.8640358
  92.5674899 110.0643916  56.2441033  93.1946938 109.6820993  56.8578558
  91.7102818 109.8458118  56.6096726  89.3440442 111.8720345  42.1759388
  89.6393883 110.9631023  42.1226442  88.4428478 111.8508084  41.8540390
  92.8734689 109.9476342  48.1586937  92.1521275 110.5612309  48.0194410
  93.6627945 110.4834106  48.0803583  95.6761003 107.2830768  54.4327588
  96.1995405 107.5293065  55.1953898  95.4573336 108.1150803  54.0130726
  91.0728284 109.5534443  42.2998713  90.7440990 108.6731822  42.1173819
  91.4267654 109.4982111  43.1875103  94.1870107 109.8407412  42.6674191
  94.5266179 110.3693334  41.9452799  94.6342227 110.1787819  43.4432757
  96.8813548 108.2244463  52.1177259  96.5410368 107.4252276  52.5197939
  96.1752554 108.5246174  51.5454092  97.5330020 105.3093776  50.5704582
  98.3556089 104.8354254  50.4483472  97.7768083 106.0884259  51.0703268
  96.1738254 108.3382034  40.8667484  96.8946617 108.7163287  40.3631201
  95.5503558 109.0570911  40.9702462 100.3169377 109.0427183  41.8025816
 100.5332991 109.9251821  41.5014644  99.8363444 108.6513396  41.0731458
  95.0568598 112.0012896  48.3796561  94.9113179 112.3153199  49.2720842
  94.5793802 112.6197797  47.8267459  96.9164981 108.9915444  48.4277450
  96.9026550 108.0956537  48.0909748  97.6337409 108.9986108  49.0615736
  98.7691112 109.4252784  50.4730578  98.5108890 110.3469855  50.4714908
  98.2376152 109.0283219  51.1631042  89.5314261 114.5418241  51.3184222
  88.9867729 115.3178049  51.4504496  90.4093610 114.8889045  51.1603343
  96.3201877 107.8729824  43.6965020  96.4417788 106.9446471  43.8955908
  96.0303920 107.8868510  42.7843336  99.1893068 105.5584735  46.8331740
  99.2114764 105.6224068  45.8783720  99.6061127 104.7189244  47.0272246
  90.3180282 113.6688137  54.2114379  89.5762018 113.8170772  54.7979009
  89.9973027 113.9296402  53.3481128  90.7636896 121.5553566  46.2424773
  91.5894916 121.2557337  45.8623417  90.4130948 120.7861188  46.6914562
  95.7318429 120.9080034  48.3122447  95.1098439 120.2450739  48.0124675
  96.4023296 120.9341166  47.6296095  88.9645501 119.4739892  47.2013707
  88.1277409 119.0462066  47.0197708  88.9369147 119.6672335  48.1384498
  95.8042957 109.3861822  57.9054953  95.8531112 110.2623945  57.5232723
  96.3465471 108.8439215  57.3326596  95.2931936 119.4583957  41.7880907
  95.4420056 120.1419422  41.1347580  96.0998380 119.4389047  42.3030363
 103.6999440 112.7626339  55.8148125 104.6009303 112.6232804  55.5232123
 103.7747414 112.9280794  56.7546303  98.0342245 110.1393194  54.6601312
  97.1645555 110.4326760  54.3883900  98.2701726 110.7233639  55.3808575
  93.0484569 115.4849135  42.7941976  92.8030611 114.5811465  42.9922187
  93.2180484 115.4866285  41.8521454 100.7381279 106.3572811  52.1766732
 101.2563223 107.0933838  51.8513221 100.3836412 106.6636804  53.0113491
  92.3180217 111.2177492  40.2928138  91.6249462 111.2921847  39.6368174
  92.0731969 110.4537836  40.8149655 100.9893873 102.7773094  47.6967629
 101.2695627 102.1096283  48.3228055 101.7744480 102.9702189  47.1842292
 104.8602732 111.1990728  51.4439204 105.8120154 111.2988825  51.4651428
 104.6906182 110.4068996  51.9537288 102.8817111 108.2846311  51.6298605
 102.2867043 108.5651324  50.9345093 102.5966808 108.7740212  52.4015346
  99.1774140 113.2892900  36.6008707 100.1233245 113.1599108  36.6697125
  98.7988385 112.5507562  37.0778136 107.4885298 111.2107891  50.6039787
 106.9724346 110.4266347  50.4169715 108.3725246 110.8826607  50.7686306
 105.1496025 104.9548906  46.5635599 104.9520846 104.6463995  47.4478931
 105.7595730 105.6810545  46.6933529  99.0612833 117.3410646  58.0609364
  99.9815842 117.5189245  58.2549411  99.0262416 116.3966692  57.9089064
  97.3617057 111.2142877  36.5363593  96.4548513 110.9175989  36.6126306
  97.6393038 110.9172695  35.6697879  88.2794998 112.5349240  46.9862639
  87.9597782 111.6814548  46.6937013  87.7328426 112.7497818  47.7420606
  92.0574905 115.2511681  50.7032146  92.2760915 116.1828789  50.7220179
  92.4700679 114.8919656  51.4886949  98.9779123 105.7579766  42.6907834
  98.1679851 105.4126851  43.0663080  99.6663540 105.4487310  43.2795445
 100.9069671 104.8357813  44.3132131 101.4600710 105.2553267  44.9722154
 101.1439758 103.9093561  44.3555087  96.9302771 110.8244887  60.0934894
  96.8299497 111.7739244  60.0246986  96.7124313 110.4963126  59.2210965
  96.1315842 108.0729812  36.6775572  96.9935006 108.3984710  36.9371389
  96.3166186 107.2861308  36.1648638  88.1483258 116.1552152  48.9555761
  87.4546729 115.7406104  48.4425715  88.8956249 116.1972688  48.3589179
 104.2848478 106.9458338  43.8210795 103.7047147 107.6043142  43.4388847
 104.0184411 106.1235683  43.4098212 102.7352045 106.3463396  46.0232115
 103.2351823 106.4579931  45.2146434 103.3787653 106.0424449  46.6632924
  96.7934041 114.2542026  58.9099956  96.3101122 115.0542386  59.1163845
  96.8794980 114.2649971  57.9567400  90.0620000 116.0870405  46.8321775
  90.0390688 116.1858093  45.8803659  90.3720637 116.9335556  47.1538942
  92.7207378 118.1446560  50.9468390  93.6750632 118.1130503  50.8798321
  92.5219902 117.6837184  51.7618616  93.3106760 116.7147676  53.5139188
  94.1299649 117.2091755  53.5374025  93.5843568 115.7979645  53.4856755
 103.0673356 109.1058429  42.8767143 102.1799211 109.3908079  42.6587338
 103.4827345 108.9452192  42.0294420 106.4187893 109.1304950  46.5921482
 107.1948283 109.6201402  46.8646099 105.6936027 109.5563004  47.0493352
 108.8560451 109.8432569  47.6495423 109.4504942 109.6028305  46.9388731
 108.9287035 109.1239700  48.2768959  91.0757607 123.6866180  47.9638588
  90.9412075 122.9266581  47.3976586  90.6589669 124.4107080  47.4967377
 103.0414380 114.6212965  43.0917433 102.9849582 115.0781516  42.2525066
 103.5942723 113.8603649  42.9140276 106.8519186 110.4102697  43.9167553
 106.5956120 110.0099332  44.7475760 106.2272054 111.1246491  43.7917692
 103.7749159 115.8117746  40.3869962 103.7197963 115.6462017  39.4458407
 103.1495215 116.5193779  40.5432152  88.5641674 111.0485810  54.2131385
  89.2100538 110.5384764  54.7018610  88.3558826 111.7854492  54.7874810
  97.0845285 105.3125855  39.9655281  97.0723955 106.2567695  40.1223552
  97.9768707 105.1296000  39.6714742 100.8997404 101.9068632  44.2201218
 100.1329800 101.3527118  44.3657900 101.3108109 101.9790500  45.0815369
  92.9039165 108.1953427  58.3106399  93.7670627 107.8390232  58.5209723
  92.3304576 107.8567322  58.9981803  36.8731262  -0.4726017  35.8414106
  37.5109672  -0.5919270  35.1377447  36.7552105   0.4754827  35.9002059
  33.6820968  -0.5198589  35.7775631  33.3439480  -0.6357525  34.8896166
  34.5510737  -0.9207424  35.7576637  34.1640751   0.6336262  41.7361837
  34.1529392   0.2389061  40.8642340  34.3261391  -0.0997665  42.3295608
  27.0872216   2.8288079  34.6056743  27.8793508   2.4878903  34.1903042
  27.3268866   2.9383054  35.5258896  30.8848013   3.4173374  40.6841021
  30.5937879   4.3219005  40.5687687  31.5204997   3.4589902  41.3985090
  31.8104219   0.7950223  37.2742380  32.4067792   0.5706245  36.5599343
  31.8679191   0.0534968  37.8767828  41.8280958  -2.8099330  33.8200293
  42.5606130  -3.3800113  34.0538123  41.0720314  -3.1977730  34.2606799
  35.8437898   3.1034790  37.6790814  35.5438621   4.0059829  37.5706622
  35.4988957   2.8366973  38.5311967  39.2435042  -4.3782670  35.3588252
  38.3351919  -4.4467262  35.0647013  39.1922637  -3.9010725  36.1870077
  30.8258678   9.8679110  30.6461782  30.7482707  10.8186935  30.7250263
  30.2220321   9.5224983  31.3036708  33.3175907  -2.9593024  43.3023149
  32.5409241  -2.3999104  43.2926014  33.9566470  -2.4736241  43.8238019
  41.1096688  -6.1766232  37.1366126  40.4671068  -5.8833698  36.4905920
  40.6051616  -6.2913311  37.9419322  31.5722280  -0.1507571  42.8641116
  32.3136964   0.3877473  42.5875940  30.8659265   0.4758718  43.0212668
  37.0477619   1.9921569  41.4613277  37.4560975   1.5503980  40.7167910
  36.3254881   1.4174197  41.7147470  33.4008689  -3.0705824  38.8346834
  34.2469884  -2.6466410  38.9781483  33.3407327  -3.7272200  39.5285398
  37.3706434   2.5522760  35.2165566  36.7415296   2.7168474  34.5141634
  36.9832096   2.9664370  35.9876530  41.2495666   3.4877198  32.5709930
  40.5646704   3.8676099  32.0206963  41.3339515   4.0972525  33.3041878
  36.5508135  -5.4101455  40.4928008  36.3069066  -4.6559395  39.9562284
  36.8268065  -5.0316108  41.3275255  38.5046597   1.1337157  39.1705274
  38.7163493   1.7768917  38.4939655  38.4576346   0.2999473  38.7027204
  29.8158477   1.8368650  35.4195415  30.3859834   2.2655918  34.7812899
  30.4066589   1.5551234  36.1179600  39.6192425   4.0109112  37.3427631
  40.4409869   3.6089300  37.0610313  39.6154828   3.9077346  38.2943747
  33.3849029   3.5593156  39.4988341  33.4493461   4.0213563  40.3346513
  32.6759953   2.9290521  39.6270651  47.7098418   0.3547861  33.6912602
  46.9562127  -0.2144741  33.5356607  47.8445960   0.3210525  34.6383237
  28.3621329   5.8602457  32.0218000  28.5387957   6.7820422  31.8338984
  29.1578162   5.5460877  32.4512380  34.7265523   5.8484830  43.4967664
  34.2829377   5.0621208  43.1788568  35.3882736   6.0363980  42.8311555
  29.4852644   7.3780631  38.0228342  30.0360069   7.2497695  37.2505336
  28.6464120   7.6775520  37.6723235  36.8246761   6.1287630  41.5249065
  36.8065236   6.9496511  41.0329334  37.7466681   6.0041705  41.7499206
  33.2819815   3.6431759  42.3672574  33.8148152   2.8820047  42.1371881
  32.7533896   3.3505411  43.1096728  39.6265374   0.9666772  34.9958432
  38.9689048   1.6566033  35.0838560  40.4305773   1.3563204  35.3392418
  38.4370833  -0.6788855  33.0462374  38.9502714  -0.0458863  33.5484083
  39.0872056  -1.2787660  32.6805734  34.9151663  -3.2039400  35.2920714
  33.9974225  -2.9824453  35.1342402  35.3311807  -3.1293089  34.4332421
  39.2032629   4.3017146  31.1741516  38.7494956   3.4608056  31.2306707
  38.5726595   4.9378545  31.5116296  37.6465568   6.1393643  32.1091334
  37.9388542   6.6998700  31.3903700  38.1564189   6.4322204  32.8644493
  32.6099193   6.9173994  33.1984788  32.5675372   7.1434840  32.2693320
  33.5261892   6.6837368  33.3470589  36.0564827  -2.6141939  40.0965417
  36.4114215  -2.3870465  40.9559883  36.7036958  -2.2823562  39.4742672
  41.7862564   0.5076497  30.8014746  41.6480463   0.6978093  29.8735935
  41.4298783   1.2695880  31.2582797  41.8131944   2.5753024  35.8126017
  42.2468450   2.4828313  36.6609071  42.5263524   2.5510525  35.1746033
  35.5459838   6.1755118  37.3459118  35.5996861   6.7446055  38.1136834
  34.6774620   6.3457003  36.9813155  42.6747493   2.6176725  38.3458903
  42.8683383   3.5222536  38.5918178  42.5748111   2.1584144  39.1797488
  37.7362602   2.7683468  43.9199783  37.5848108   2.5394019  43.0029867
  37.7267281   3.7254069  43.9331128  34.5047938   0.3415380  38.9046050
  35.4339998   0.4926540  38.7315017  34.0838968   0.4299401  38.0494696
  33.3036270   4.3666045  36.6744587  33.1647356   3.9984829  37.5470525
  32.5150866   4.8813684  36.5028545  33.8984422   9.4675141  28.0170124
  34.0736178   8.9963185  28.8315747  33.2117210  10.0940908  28.2451385
  34.8541485   3.7447648  34.0633425  34.5191318   3.7048418  34.9591075
  34.3545431   3.0792364  33.5903835  28.8285729  -0.8484722  39.5886006
  28.6905527  -1.5804484  40.1897545  29.7390653  -0.9375822  39.3070194
  31.4568030  -1.1364763  39.0769686  32.1667648  -1.7771571  39.0356304
  31.4137338  -0.8851868  39.9995867  39.4454808   5.8002590  41.9976265
  39.3867355   5.1161810  41.3306848  39.8474327   6.5421580  41.5456891
  28.4645507  12.6164504  34.7909984  28.7042105  13.2483028  35.4689003
  27.6214704  12.2652544  35.0775343  39.4472216   3.7642174  40.2290245
  38.5598994   3.4268096  40.3516644  40.0170767   3.0325205  40.4659010
  32.9773369   8.4243627  37.1951488  32.9043541   9.2298598  37.7070793
  32.5350762   8.6235592  36.3699509  32.7663149   7.6615397  30.7054310
  31.9830671   8.2037077  30.7992534  33.4655894   8.1789376  31.1048551
  43.9289556  -0.8249608  34.9906806  43.9179432   0.0575107  34.6200740
  43.0606936  -1.1778058  34.7961344  35.4372053   8.3230461  39.3509647
  36.1500025   8.9577925  39.2785548  34.9462081   8.4194327  38.5349649
  30.4883966   6.0724904  40.1715218  31.1893426   6.7061387  40.3244612
  30.0179081   6.4139636  39.4110857  38.2885252  -1.3730488  37.9967768
  37.6356702  -1.1254581  37.3420221  38.6665632  -2.1866350  37.6630245
  35.2492426   8.6629205  32.0995938  35.4314821   7.8450861  32.5623691
  36.0725412   8.8796897  31.6620828  35.5834591   7.5897390  29.3610987
  36.1122358   7.0789844  28.7481149  35.8462811   7.2739920  30.2256520
  34.3372825  -0.6310677  44.4833805  33.6613462  -0.7316548  45.1536180
  35.1600459  -0.7871464  44.9469802  26.0851684   5.6061259  37.1046320
  26.6705121   4.8604947  37.2374224  25.8876523   5.9165216  37.9882984
  28.9390339   8.6412507  32.1208763  28.2700715   9.1258634  31.6372803
  28.8003209   8.8881727  33.0352141  33.0795608  10.6756250  38.7191421
  33.6313916  10.8387872  39.4840506  33.4201801  11.2660688  38.0471446
  37.9306482   5.5017508  44.5740075  38.4746386   6.1147466  44.0795030
  37.3493327   6.0597086  45.0907088  36.2163995   8.6238226  35.7055103
  36.0915135   7.8227965  35.1966049  36.8743086   9.1184419  35.2169073
  38.2798904   6.4247246  37.3334653  37.3329239   6.3052597  37.2612980
  38.6281677   5.5369744  37.4160915  35.2845337   6.2199962  33.5339005
  35.1370299   5.2916669  33.7146575  36.1098830   6.2420053  33.0496081
  38.8879459   7.0428521  34.6203878  39.8126006   6.8371382  34.4828329
  38.7194762   6.7944922  35.5293220  38.6774775   7.5614188  29.9765970
  38.8511653   6.9960611  29.2239822  39.1703666   8.3615083  29.7945460
  44.5314166   0.3250611  31.5956269  44.9745312  -0.4242064  31.1975393
  43.6540676   0.3160747  31.2130001  39.6649948   6.8780952  27.0762868
  40.3600852   7.4987645  27.2950183  40.0073098   6.0276304  27.3515246
  41.5641371   4.3280658  28.6050199  42.0892695   4.6667931  27.8799519
  41.4763723   3.3927673  28.4213333  33.2261419   8.2414732  40.7340075
  33.5348546   7.9963878  41.6062775  34.0236901   8.4461370  40.2458946
  33.2482031  10.3952641  32.9645452  32.8087022   9.9029020  33.6578309
  33.9990148   9.8525609  32.7237527  25.7274370   6.5864182  32.9670080
  26.5532390   6.2867954  32.5868723  25.3768422   5.8171805  33.4159869
  30.6955904   5.9390650  35.0367754  30.0735913   5.2761355  34.7369981
  31.3660770   5.9651782  34.3541401  41.2535277   4.9613562  43.9101397
  40.4630820   4.9437700  43.3705896  41.0168631   5.5001855  44.6650433
  41.3733152   1.8106028  41.2234125  41.4231157   1.6456035  42.1649648
  41.2647075   0.9433287  40.8332006  38.6636914  -2.2063044  42.5393432
  39.5646777  -2.3456579  42.2477430  38.7384889  -2.0408589  43.4791609
  42.8751349   4.2302970  41.4676147  42.5836157   4.5932950  42.3039608
  42.2623480   3.5169978  41.2889479  44.0747031   1.7955849  33.9878717
  44.9093922   2.2345653  34.1516277  44.2106160   1.3194503  33.1686963
  41.1238537  -0.6464416  39.9356205  41.5992658  -0.4536770  39.1275056
  40.2004102  -0.5905230  39.6899588  39.8240206  -3.7698656  38.1684510
  40.7757629  -3.6700558  38.1896734  39.6543656  -4.5620387  38.6782595
  37.8454585  -6.6843073  38.3543911  37.2504517  -6.4038060  37.6590400
  37.5604282  -6.1949172  39.1260652  42.3028284  -0.5492536  37.2826810
  42.2704604  -1.4876535  37.4686494  42.9128907  -0.4708499  36.5492635
  42.4522772  -3.7581493  37.3285093  41.9361821  -4.5423036  37.1415022
  43.3362721  -4.0862776  37.4931613  48.1204833   0.5123471  36.4232847
  48.8508222   0.2508759  36.9840550  47.5111779  -0.2247807  36.4634915
  46.2020131  -1.3468667  37.0207298  45.4753294  -1.4812702  36.4123790
  45.7867417  -1.0391838  37.8264016  34.0250307   2.3721263  44.7854671
  34.9453316   2.5499862  44.9794718  33.9899890   1.4277308  44.6334370
  27.0212380   0.2822298  37.4277452  27.2398389   1.2139405  37.4465486
  27.4338153  -0.0769728  38.2132256  31.7571515  -0.7147358  45.6345263
  31.2738597   0.0853002  45.8409152  31.8432454  -0.7039413  44.6812707
  27.6844852   3.1757177  37.6713697  28.6388106   3.1441119  37.6043628
  27.4857376   2.7147801  38.4863922  28.2744235   1.7458293  40.2384494
  29.0937124   2.2402372  40.2619331  28.5481042   0.8290261  40.2102062
  43.8197925  -5.1256814  34.3740730  44.4142416  -5.3661079  33.6634038
  43.8924509  -5.8449684  35.0014266  26.0395081   8.7176796  34.6883894
  25.9049549   7.9577197  34.1221892  25.6227143   9.4417696  34.2212683
  46.1268998  -1.8190614  33.1484151  45.5668556  -1.7497424  33.9215713
  45.5212502  -1.9949629  32.4283647  29.1964207   9.6146114  34.9002337
  29.0796591  10.5591546  34.7981027  28.3756653   9.3119675  35.2888136
  36.0532541   3.1477274  46.4368832  36.9223701   3.3217927  46.0755467
  35.5739292   3.9671691  46.3144561  30.2218721  10.2674375  38.1158265
  31.1245968  10.2997986  38.4324760  29.9956091   9.3374826  38.1304601
  31.9772323   9.0205362  34.7768344  31.0267954   9.0207224  34.6632716
  32.2804809   8.2738097  34.2604379  47.7125017  14.8565900  35.8414106
  48.3503427  14.7372648  35.1377447  47.5945860  15.8046744  35.9002059
  44.5214723  14.8093328  35.7775631  44.1833235  14.6934393  34.8896166
  45.3904491  14.4084494  35.7576637  40.3801539  16.6628805  31.7672522
  39.8166404  16.5718742  30.9988810  40.2653934  15.8428709  32.2475015
  45.0034506  15.9628180  41.7361837  44.9923147  15.5680978  40.8642340
  45.1655145  15.2294253  42.3295608  37.9265971  18.1579996  34.6056743
  38.7187263  17.8170821  34.1903042  38.1662621  18.2674971  35.5258896
  45.9601097  20.3299773  27.0786987  45.3089077  20.9153853  26.6921001
  46.7545460  20.8605967  27.1382024  39.8856725  17.4188910  27.4774121
  40.6587601  16.8717897  27.3386997  40.2382123  18.2833159  27.6888583
  41.7241767  18.7465292  40.6841021  41.4331633  19.6510923  40.5687687
  42.3598751  18.7881820  41.3985090  42.6497974  16.1242140  37.2742380
  43.2461546  15.8998163  36.5599343  42.7072946  15.3826886  37.8767828
  42.2223002  13.5781576  25.1092571  42.4748523  13.0563097  24.3476034
  41.2847561  13.4147721  25.2119255  47.2666285  12.5817354  32.9167315
  48.0529374  12.1636777  32.5657732  47.5304990  13.4863446  33.0848963
  47.4376363  18.0190204  27.6155971  46.8022196  18.0924831  28.3276876
  47.1073769  18.6083803  26.9375051  52.6674712  12.5192587  33.8200293
  53.3999884  11.9491804  34.0538123  51.9114068  12.1314188  34.2606799
  41.9419291  15.4809682  27.3116946  41.8255549  14.8054585  27.9798031
  42.0521551  14.9942056  26.4949099  44.2850832  14.9419829  31.0163635
  43.9209039  14.4150450  31.7276557  45.1417948  14.5518298  30.8430121
  50.1900133   6.2314161  38.2794902  49.8583457   7.1009572  38.0556117
  49.5945746   5.9150445  38.9588932  43.9256319   9.9709729  26.0124984
  44.0930721  10.8389965  26.3795455  43.7353488  10.1337010  25.0886273
  46.6831652  18.4326707  37.6790814  46.3832375  19.3351746  37.5706622
  46.3382712  18.1658891  38.5311967  40.1344134  14.8840504  33.7127519
  39.2094630  14.7516718  33.9205211  40.3828547  15.6634724  34.2097461
  50.0828796  10.9509248  35.3588252  49.1745673  10.8824656  35.0647013
  50.0316392  11.4281193  36.1870077  43.9045540  12.4267386  26.9971651
  43.7845165  12.8724437  27.8357131  43.2098128  12.7752704  26.4385189
  37.4952945  14.5273778  34.5471308  37.6245326  14.7808257  35.4610720
  36.8150396  15.1201486  34.2275963  41.6652432  25.1971028  30.6461782
  41.5876462  26.1478853  30.7250263  41.0614076  24.8516900  31.3036708
  44.1569662  12.3698893  43.3023149  43.3802996  12.9292813  43.2926014
  44.7960225  12.8555676  43.8238019  51.9490442   9.1525686  37.1366126
  51.3064823   9.4458219  36.4905920  51.4445371   9.0378606  37.9419322
  49.6030606  12.8988859  27.8251985  50.5148462  13.1316246  27.6499682
  49.0940253  13.4825903  27.2627063  42.4116034  15.1784347  42.8641116
  43.1530718  15.7169391  42.5875940  41.7053020  15.8050635  43.0212668
  47.8871374  17.3213487  41.4613277  48.2954730  16.8795898  40.7167910
  47.1648635  16.7466115  41.7147470  44.2402444  12.2586094  38.8346834
  45.0863639  12.6825507  38.9781483  44.1801081  11.6019718  39.5285398
  48.2100188  17.8814678  35.2165566  47.5809051  18.0460392  34.5141634
  47.8225850  18.2956287  35.9876530  52.0889420  18.8169116  32.5709930
  51.4040458  19.1968017  32.0206963  52.1733270  19.4264442  33.3041878
  47.3901889   9.9190462  40.4928008  47.1462821  10.6732523  39.9562284
  47.6661820  10.2975810  41.3275255  49.3440352  16.4629075  39.1705274
  49.5557247  17.1060834  38.4939655  49.2970100  15.6291391  38.7027204
  46.9466581   9.0746895  36.0741846  46.0851060   9.3728149  36.3658583
  46.9729015   9.2917294  35.1422878  43.7628150  17.6189086  32.4815651
  44.2266496  17.8976789  31.6920274  43.4984948  16.7172530  32.2988742
  40.6552231  17.1660567  35.4195415  41.2253588  17.5947836  34.7812899
  41.2460343  16.8843152  36.1179600  42.6997036  13.7412238  29.2905217
  43.4021080  14.1933282  29.7579143  42.3677665  13.0996057  29.9185110
  41.1477398  12.3323995  43.6656426  40.5176058  13.0140276  43.8991823
  41.0413486  12.2207076  42.7209564  36.4422370  11.9995791  34.5922350
  35.6521424  12.2553319  34.1162461  36.9333618  12.8144129  34.6974391
  50.4586180  19.3401030  37.3427631  51.2803624  18.9381217  37.0610313
  50.4548583  19.2369264  38.2943747  38.3937116  12.3640370  31.5505827
  37.5968279  12.4759064  32.0689323  38.1662708  12.7027022  30.6846717
  44.2242783  18.8885073  39.4988341  44.2887216  19.3505481  40.3346513
  43.5153707  18.2582438  39.6270651  34.7260073  12.2526281  37.0237341
  34.9768112  13.1373291  37.2894917  35.2619622  12.0730883  36.2512433
  58.5492173  15.6839778  33.6912602  57.7955881  15.1147177  33.5356607
  58.6839714  15.6502443  34.6383237  43.9390801  20.5553181  29.3667322
  43.8036476  21.4004717  29.7952170  44.4800613  20.7572458  28.6033256
  40.4258141   6.6344761  46.0281677  40.0325086   6.0810959  46.7029321
  41.2424281   6.9455339  46.4188195  37.3920198  18.0728619  29.9395247
  37.9044719  18.8671869  30.0900812  38.0442911  17.3754909  29.8728848
  39.2015083  21.1894375  32.0218000  39.3781711  22.1112340  31.8338984
  39.9971917  20.8752794  32.4512380  43.3426102   8.0502640  43.6201934
  44.0835815   8.6509793  43.5406396  43.5744024   7.3080278  43.0619976
  38.4867440  13.2359007  41.8980163  38.3720955  12.3344264  42.1987262
  37.6311957  13.4822704  41.5464980  45.5659277  21.1776747  43.4967664
  45.1223131  20.3913126  43.1788568  46.2276491  21.3655898  42.8311555
  40.3246398  22.7072549  38.0228342  40.8753824  22.5789612  37.2505336
  39.4857874  23.0067438  37.6723235  47.6640515  21.4579547  41.5249065
  47.6458991  22.2788428  41.0329334  48.5860435  21.3333622  41.7499206
  44.1213570  18.9723677  42.3672574  44.6541906  18.2111965  42.1371881
  43.5927651  18.6797329  43.1096728  47.2883264   4.0783743  37.8966215
  46.9447534   4.9685384  37.8205326  47.6562227   3.8885400  37.0335800
  35.3569115  16.4017273  30.7154817  36.1944337  16.8114281  30.4988525
  35.5347383  15.4616715  30.6855011  47.2533547  14.0692354  26.4038650
  46.7380171  14.8396958  26.6427038  46.9810856  13.3957490  27.0271712
  44.8380658   8.9142055  31.4623889  43.9822255   8.5248905  31.2829527
  45.2507610   8.9934015  30.6023674  46.3679805   6.4488398  35.8615449
  45.8644600   6.4118533  35.0483254  46.6610412   7.3581141  35.9212105
  42.6122691   6.5327128  34.8681630  43.4775688   6.3369936  34.5087520
  42.6800200   6.3037479  35.7950987  52.2267821  16.8224708  28.3391824
  51.4497264  16.4835868  27.8946986  52.9059302  16.8277332  27.6646789
  47.0419850  11.9419446  28.2298432  46.7369986  12.2565595  29.0808575
  47.9950293  12.0200866  28.2725765  45.4866282  18.1009669  29.8791386
  44.9587644  17.3662429  29.5664623  44.9853785  18.8784346  29.6331354
  50.4659128  16.2958690  34.9958432  49.8082803  16.9857951  35.0838560
  51.2699527  16.6855122  35.3392418  40.2185010   8.7629335  32.2397997
  40.7928762   8.5404517  31.5071190  40.8055992   8.8318030  32.9926598
  49.2764587  14.6503062  33.0462374  49.7896469  15.2833054  33.5484083
  49.9265811  14.0504258  32.6805734  40.5454597  10.7933796  26.2593882
  39.7091909  11.1308483  26.5803157  40.4059367  10.6582776  25.3221019
  42.5207678   5.6370584  30.9673066  41.8672090   5.3219602  30.3429681
  42.4788152   5.0146325  31.6932889  43.6318882  15.9189879  22.8826359
  42.7245944  15.6879133  23.0817508  44.1289914  15.1227499  23.0700340
  46.5386961  24.6287387  25.8023045  45.8648660  24.9319083  26.4108003
  46.9252783  25.4316467  25.4528502  45.7545418  12.1252518  35.2920714
  44.8367979  12.3467465  35.1342402  46.1705562  12.1998828  34.4332421
  46.5380466  13.5243934  30.4223394  47.2852285  14.0365331  30.1130516
  46.8072055  13.2027986  31.2827788  44.8107116  16.0202474  27.4050349
  43.9018335  15.7361507  27.5022818  44.8402200  16.4401553  26.5453656
  50.0426383  19.6309064  31.1741516  49.5888710  18.7899974  31.2306707
  49.4120350  20.2670462  31.5116296  48.9859303  10.5601050  32.4042184
  48.2482060  10.0478436  32.7352426  49.2386076  10.1201431  31.5925461
  48.4859323  21.4685561  32.1091334  48.7782297  22.0290618  31.3903700
  48.9957943  21.7614121  32.8644493  49.0870930   3.3377302  32.9983953
  49.3929807   2.4774665  32.7109868  49.8123535   3.9294922  32.7982947
  35.3795286  13.7407988  31.3865551  35.1819686  13.1477349  30.6616617
  34.8241950  13.4360199  32.1041490  43.3592010  13.6331095  33.5060144
  43.4140620  12.6804931  33.4302621  42.5483212  13.7890534  33.9901442
  44.5083204  17.5611218  24.7438427  44.0702634  16.8447077  24.2844065
  45.2493645  17.7887333  24.1823519  41.2984370  12.2508155  31.2650523
  40.4852235  12.5502325  31.6715715  41.7943364  11.8563843  31.9825005
  43.4492948  22.2465912  33.1984788  43.4069126  22.4726758  32.2693320
  44.3655647  22.0129286  33.3470589  46.8958581  12.7149979  40.0965417
  47.2507969  12.9421452  40.9559883  47.5430713  13.0468356  39.4742672
  52.6256318  15.8368415  30.8014746  52.4874217  16.0270011  29.8735935
  52.2692537  16.5987798  31.2582797  40.7898445   9.8226510  36.8811758
  41.4297824   9.6815269  36.1834721  39.9575975   9.5361024  36.5050360
  52.6525698  17.9044942  35.8126017  53.0862205  17.8120231  36.6609071
  53.3657279  17.8802442  35.1746033  41.5658748  19.1228941  32.9946750
  42.3599347  18.6279261  32.7929325  40.8550441  18.5946804  32.6314456
  46.3853593  21.5047036  37.3459118  46.4390615  22.0737972  38.1136834
  45.5168374  21.6748921  36.9813155  37.8741512  13.2672022  29.0706503
  36.9439100  13.2056478  29.2876465  37.9698984  12.7447975  28.2743144
  37.7927061   9.7926835  31.6584745  38.0533878  10.7072168  31.5493905
  38.6144233   9.3251278  31.8081357  39.2651986  11.2064592  38.8283569
  39.9375040  10.9981954  38.1796218  38.4381773  11.0086678  38.3888801
  53.5141248  17.9468643  38.3458903  53.7077138  18.8514453  38.5918178
  53.4141866  17.4876062  39.1797488  45.1677558   7.8326533  40.8449230
  44.5205473   8.5316483  40.7513706  45.9378574   8.2662677  41.2125478
  48.5756356  18.0975385  43.9199783  48.4241863  17.8685937  43.0029867
  48.5661036  19.0545987  43.9331128  45.3441693  15.6707298  38.9046050
  46.2733753  15.8218458  38.7315017  44.9232723  15.7591319  38.0494696
  44.1430024  19.6957963  36.6744587  44.0041110  19.3276747  37.5470525
  43.3544621  20.2105602  36.5028545  44.7378176  24.7967059  28.0170124
  44.9129932  24.3255102  28.8315747  44.0510964  25.4232825  28.2451385
  45.6935240  19.0739565  34.0633425  45.3585072  19.0340335  34.9591075
  45.1939185  18.4084281  33.5903835  39.6679484  14.4807195  39.5886006
  39.5299282  13.7487434  40.1897545  40.5784407  14.3916095  39.3070194
  48.6294431  16.4195600  24.3370485  48.0123602  15.6942428  24.2403537
  48.1610920  17.1804960  23.9937559  42.2961784  14.1927155  39.0769686
  43.0061403  13.5520347  39.0356304  42.2531092  14.4440049  39.9995867
  50.2848563  21.1294508  41.9976265  50.2261109  20.4453728  41.3306848
  50.6868081  21.8713498  41.5456891  41.0090718  11.1792373  40.8965325
  40.4728075  10.7283111  41.5486922  40.4207427  11.3138281  40.1535790
  39.3039262  27.9456422  34.7909984  39.5435860  28.5774946  35.4689003
  38.4608458  27.5944462  35.0775343  50.2865970  19.0934092  40.2290245
  49.3992749  18.7560014  40.3516644  50.8564521  18.3617123  40.4659010
  31.9395117  15.4258184  33.5533296  32.6266157  15.1119914  32.9654312
  31.7843246  16.3299548  33.2800548  36.7429839  10.3148380  37.9818320
  36.6588028   9.7074050  37.2468730  35.9212546  10.8057399  37.9827816
  43.8167124  23.7535544  37.1951488  43.7437295  24.5590516  37.7070793
  43.3744517  23.9527510  36.3699509  43.6056903  22.9907314  30.7054310
  42.8224425  23.5328994  30.7992534  44.3049648  23.5081294  31.1048551
  46.9153553   8.8001944  33.3488515  47.4122253   8.0471906  33.0289585
  46.1440535   8.8366260  32.7831724  54.7683311  14.5042309  34.9906806
  54.7573187  15.3867025  34.6200740  53.9000690  14.1513860  34.7961344
  46.2765807  23.6522378  39.3509647  46.9893779  24.2869843  39.2785548
  45.7855836  23.7486244  38.5349649  47.9983334  17.5573631  30.9226938
  47.0639613  17.6775093  30.7531643  48.1760002  16.6546098  30.6586948
  43.4988522  10.9419327  33.0760200  43.1286310  10.3890367  33.7641105
  43.9947615  10.3377460  32.5235200  51.3855885  13.3990950  31.4576973
  51.8516338  14.2318942  31.3837275  51.8363386  12.9335932  32.1622231
  41.3277721  21.4016822  40.1715218  42.0287180  22.0353305  40.3244612
  40.8572836  21.7431553  39.4110857  49.4532116  19.7434772  28.4563125
  49.7291960  19.6291366  29.3656999  48.5836615  19.3452256  28.4175298
  49.3572548   5.7671537  35.4967874  48.4435628   5.9975764  35.6650081
  49.7865650   5.8509981  36.3481906  49.1279007  13.9561429  37.9967768
  48.4750457  14.2037337  37.3420221  49.5059387  13.1425567  37.6630245
  46.0886180  23.9921122  32.0995938  46.2708575  23.1742778  32.5623691
  46.9119166  24.2088815  31.6620828  46.4228346  22.9189308  29.3610987
  46.9516112  22.4081762  28.7481149  46.6856566  22.6031838  30.2256520
  45.1766580  14.6981240  44.4833805  44.5007217  14.5975370  45.1536180
  45.9994214  14.5420454  44.9469802  36.9245439  20.9353177  37.1046320
  37.5098876  20.1896865  37.2374224  36.7270277  21.2457134  37.9882984
  39.7784094  23.9704424  32.1208763  39.1094469  24.4550552  31.6372803
  39.6396964  24.2173645  33.0352141  31.5163093  13.5058777  35.8250763
  31.5547193  12.9722368  36.6187881  31.0103386  12.9793983  35.2061741
  43.9189363  26.0048168  38.7191421  44.4707671  26.1679789  39.4840506
  44.2595556  26.5952606  38.0471446  38.8953856   8.3523318  39.3213306
  38.9595182   9.2138148  38.9090703  38.8320976   7.7397319  38.5885664
  38.3706128  10.4246450  42.9686340  38.9978167  10.0423527  43.5823864
  37.5134047  10.2060652  43.3342032  48.7700237  20.8309425  44.5740075
  49.3140141  21.4439384  44.0795030  48.1887082  21.3889004  45.0907088
  35.1471671  12.2322879  28.9004695  35.4425112  11.3233558  28.8471748
  34.2459707  12.2110619  28.5785697  47.0557750  23.9530143  35.7055103
  46.9308889  23.1519883  35.1966049  47.7136841  24.4476337  35.2169073
  38.6765918  10.3078876  34.8832243  37.9552504  10.9214843  34.7439717
  39.4659174  10.8436641  34.8048889  49.1192658  21.7539163  37.3334653
  48.1722994  21.6344515  37.2612980  49.4675431  20.8661661  37.4160915
  41.4792232   7.6433302  41.1572895  42.0026633   7.8895599  41.9199204
  41.2604565   8.4753337  40.7376032  36.8759513   9.9136977  29.0244020
  36.5472219   9.0334356  28.8419126  37.2298883   9.8584646  29.9120409
  46.1239091  21.5491880  33.5339005  45.9764054  20.6208587  33.7146575
  46.9492585  21.5711970  33.0496081  39.9901336  10.2009947  29.3919498
  40.3297408  10.7295868  28.6698106  40.4373456  10.5390353  30.1678064
  49.7273213  22.3720438  34.6203878  50.6519761  22.1663300  34.4828329
  49.5588517  22.1236839  35.5293220  42.6844777   8.5846997  38.8422566
  42.3441597   7.7854810  39.2443246  41.9783783   8.8848708  38.2699399
  43.3361248   5.6696310  37.2949889  44.1587318   5.1956788  37.1728779
  43.5799312   6.4486794  37.7948575  41.9769483   8.6984568  27.5912790
  42.6977845   9.0765821  27.0876507  41.3534787   9.4173445  27.6947768
  46.1200606   9.4029717  28.5271123  46.3364220  10.2854355  28.2259951
  45.6394673   9.0115931  27.7976765  40.8599827  12.3615430  35.1041867
  40.7144408  12.6755733  35.9966149  40.3825031  12.9800331  34.5512766
  42.7196210   9.3517978  35.1522757  42.7057779   8.4559072  34.8155055
  43.4368638   9.3588642  35.7861043  44.5722341   9.7855319  37.1975884
  44.3140119  10.7072389  37.1960215  44.0407381   9.3885753  37.8876348
  49.5168530  22.8906106  29.9765970  49.6905407  22.3252528  29.2239822
  50.0097421  23.6907001  29.7945460  35.3345489  14.9020775  38.0429528
  34.7898957  15.6780583  38.1749803  36.2124839  15.2491579  37.8848650
  42.1233106   8.2332359  30.4210327  42.2449017   7.3049005  30.6201214
  41.8335148   8.2471045  29.5088642  44.9924296   5.9187269  33.5577047
  45.0145993   5.9826602  32.6029026  45.4092355   5.0791778  33.7517553
  55.3707921  15.6542529  31.5956269  55.8139067  14.9049854  31.1975393
  54.4934431  15.6452665  31.2130001  50.5043702  22.2072870  27.0762868
  51.1994607  22.8279563  27.2950183  50.8466852  21.3568221  27.3515246
  36.1211511  14.0290671  40.9359685  35.3793247  14.1773306  41.5224316
  35.8004255  14.2898937  40.0726435  52.4035125  19.6572576  28.6050199
  52.9286449  19.9959848  27.8799519  52.3157478  18.7219591  28.4213333
  44.0655174  23.5706649  40.7340075  44.3742300  23.3255796  41.6062775
  44.8630656  23.7753288  40.2458946  44.0875786  25.7244559  32.9645452
  43.6480776  25.2320938  33.6578309  44.8383903  25.1817527  32.7237527
  36.5668125  21.9156100  32.9670080  37.3926145  21.6159872  32.5868723
  36.2162177  21.1463722  33.4159869  41.5349658  21.2682568  35.0367754
  40.9129667  20.6053273  34.7369981  42.2054525  21.2943700  34.3541401
  34.7676730  19.8342426  33.9259014  33.9308638  19.4064601  33.7443015
  34.7400375  20.0274870  34.8629805  41.6074186   9.7464356  44.6300260
  41.6562341  10.6226479  44.2478029  42.1496700   9.2041749  44.0571903
  52.0929031  20.2905479  43.9101397  51.3024575  20.2729618  43.3705896
  51.8562386  20.8293773  44.6650433  52.2126906  17.1397946  41.2234125
  52.2624911  16.9747953  42.1649648  52.1040830  16.2725205  40.8332006
  41.0963165  19.8186491  28.5126214  41.2451285  20.5021956  27.8592887
  41.9029608  19.7991581  29.0275670  49.5030669  13.1228874  42.5393432
  50.4040531  12.9835339  42.2477430  49.5778643  13.2883329  43.4791609
  43.8373474  10.4995728  41.3846618  42.9676783  10.7929295  41.1129207
  44.0732954  11.0836173  42.1053882  53.7145103  19.5594887  41.4676147
  53.4229911  19.9224868  42.3039608  53.1017234  18.8461895  41.2889479
  54.9140785  17.1247767  33.9878717  55.7487677  17.5637571  34.1516277
  55.0499914  16.6486420  33.1686963  51.9632291  14.6827502  39.9356205
  52.4386413  14.8755148  39.1275056  51.0397857  14.7386688  39.6899588
  38.8515798  15.8451669  29.5187283  38.6061840  14.9413999  29.7167493
  39.0211712  15.8468819  28.5766761  46.5412508   6.7175345  38.9012039
  47.0594452   7.4536372  38.5758527  46.1867641   7.0239339  39.7358798
  38.1211445  11.5780027  27.0173444  37.4280690  11.6524382  26.3613480
  37.8763197  10.8140370  27.5394961  46.7925102   3.1375628  34.4212935
  47.0726856   2.4698817  35.0473362  47.5775709   3.3304724  33.9087599
  44.5958570  22.3134622  25.9837962  44.0232538  22.9324809  25.5308433
  45.1691364  22.8633984  26.5177883  50.6633960  11.5593262  38.1684510
  51.6151383  11.6591360  38.1896734  50.4937411  10.7671530  38.6782595
  48.6848340   8.6448845  38.3543911  48.0898272   8.9253858  37.6590400
  48.3998036   9.1342746  39.1260652  47.8155830  22.5971772  27.1146544
  48.7486503  22.5317334  27.3179419  47.7279043  23.4328039  26.6561076
  50.4443847  21.9137642  24.0750491  50.3657478  21.5797506  24.9686249
  51.2653514  22.4059410  24.0741964  53.1422038  14.7799382  37.2826810
  53.1098358  13.8415382  37.4686494  53.7522662  14.8583418  36.5492635
  44.9805369  13.6495435  23.3254014  45.9264474  13.5201643  23.3942432
  44.6019614  12.9110096  23.8023442  53.2916527  11.5710425  37.3285093
  52.7755575  10.7868882  37.1415022  54.1756475  11.2429142  37.4931613
  50.9527253   5.3151441  33.2880906  50.7552075   5.0066529  34.1724238
  51.5626959   6.0413080  33.4178836  58.9598588  15.8415388  36.4232847
  59.6901976  15.5800677  36.9840550  58.3505533  15.1044110  36.4634915
  57.0413885  13.9823251  37.0207298  56.3147049  13.8479216  36.4123790
  56.6261172  14.2900080  37.8264016  44.8644061  17.7013181  44.7854671
  45.7847071  17.8791780  44.9794718  44.8293645  16.7569226  44.6334370
  34.0826226  12.8951774  33.7107946  33.7629011  12.0417083  33.4182320
  33.5359655  13.1100353  34.4665913  37.8606134  15.6114215  37.4277452
  38.0792144  16.5431323  37.4465486  38.2731908  15.2522190  38.2132256
  44.7810352   6.1182301  29.4153141  43.9711080   5.7729386  29.7908387
  45.4694769   5.8089844  30.0040752  46.7100900   5.1960347  31.0377437
  47.2631939   5.6155801  31.6967460  46.9470986   4.2696096  31.0800393
  42.7333999  11.1847421  46.8180201  42.6330726  12.1341778  46.7492292
  42.5155541  10.8565660  45.9456271  33.9514486  16.5154686  35.6801067
  33.2577958  16.1008639  35.1671022  34.6987477  16.5575222  35.0834486
  50.0879707   7.3060873  30.5456101  49.5078376   7.9645677  30.1634154
  49.8215640   6.4838217  30.1343519  48.5383274   6.7065930  32.7477422
  49.0383052   6.8182465  31.9391741  49.1818882   6.4026983  33.3878230
  42.5965269  14.6144560  45.6345263  42.1132351  15.4144920  45.8409152
  42.6826208  14.6252505  44.6812707  35.8651229  16.4472940  33.5567082
  35.8421917  16.5460627  32.6048965  36.1751866  17.2938090  33.8784248
  38.5238607  18.5049095  37.6713697  39.4781860  18.4733037  37.6043628
  38.3251130  18.0439718  38.4863922  39.1137989  17.0750211  40.2384494
  39.9330878  17.5694289  40.2619331  39.3874797  16.1582179  40.2102062
  48.8704585   9.4660963  29.6012450  47.9830440   9.7510614  29.3832644
  49.2858574   9.3054726  28.7539727  52.2219121   9.4907484  33.3166789
  52.9979511   9.9803936  33.5891406  51.4967256   9.9165538  33.7738658
  54.6591680  10.2035103  34.3740730  55.2536171   9.9630839  33.6634038
  54.7318264   9.4842234  35.0014266  36.8788836  24.0468714  34.6883894
  36.7443304  23.2869115  34.1221892  36.4620898  24.7709614  34.2212683
  48.0147799  19.2305638  23.6960470  48.7183649  19.4355640  24.3118125
  47.2910447  19.7982400  23.9609553  48.8445609  14.9815499  29.8162740
  48.7880810  15.4384050  28.9770372  49.3973951  14.2206184  29.6385583
  52.6550415  10.7705231  30.6412859  52.3987349  10.3701866  31.4721067
  52.0303283  11.4849025  30.5162999  56.9662753  13.5101304  33.1484151
  56.4062311  13.5794493  33.9215713  56.3606256  13.3342289  32.4283647
  40.0357962  24.9438031  34.9002337  39.9190346  25.8883464  34.7981027
  39.2150408  24.6411593  35.2888136  49.9234496  19.6688167  25.7458930
  50.7580100  19.2369365  25.5636405  49.7618839  19.4970181  26.6735824
  49.5780388  16.1720280  27.1115269  49.5229192  16.0064552  26.1703713
  48.9526444  16.8796313  27.2677459  34.3672903  11.4088345  40.9376691
  35.0131767  10.8987299  41.4263916  34.1590054  12.1457026  41.5120117
  46.8926295  18.4769192  46.4368832  47.7617455  18.6509844  46.0755467
  46.4133047  19.2963609  46.3144561  42.8876514   5.6728389  26.6900587
  42.8755184   6.6170229  26.8468858  43.7799936   5.4898535  26.3960049
  41.0612476  25.5966293  38.1158265  41.9639722  25.6289903  38.4324760
  40.8349846  24.6666744  38.1304601  42.8166078  24.3497280  34.7768344
  41.8661709  24.3499141  34.6632716  43.1198564  23.6030014  34.2604379
  46.7028633   2.2671166  30.9446524  45.9361029   1.7129653  31.0903207
  47.1139338   2.3393035  31.8060676  38.7070394   8.5555962  45.0351705
  39.5701856   8.1992767  45.2455030  38.1335805   8.2169856  45.7227110
  58.5518771  30.1857818  35.8414106  59.1897181  30.0664565  35.1377447
  58.4339614  31.1338662  35.9002059  55.3608477  30.1385246  35.7775631
  55.0226989  30.0226311  34.8896166  56.2298246  29.7376411  35.7576637
  51.2195293  31.9920723  31.7672522  50.6560158  31.9010659  30.9988810
  51.1047688  31.1720627  32.2475015  55.8428260  31.2920098  41.7361837
  55.8316901  30.8972896  40.8642340  56.0048900  30.5586170  42.3295608
  48.7659725  33.4871914  34.6056743  49.5581017  33.1462739  34.1903042
  49.0056375  33.5966889  35.5258896  56.7994852  35.6591690  27.0786987
  56.1482832  36.2445771  26.6921001  57.5939215  36.1897885  27.1382024
  50.7250479  32.7480827  27.4774121  51.4981355  32.2009814  27.3386997
  51.0775878  33.6125077  27.6888583  52.5635522  34.0757210  40.6841021
  52.2725388  34.9802840  40.5687687  53.1992506  34.1173737  41.3985090
  53.4891728  31.4534058  37.2742380  54.0855301  31.2290081  36.5599343
  53.5466700  30.7118804  37.8767828  53.0616757  28.9073493  25.1092571
  53.3142278  28.3855015  24.3476034  52.1241316  28.7439639  25.2119255
  58.1060040  27.9109272  32.9167315  58.8923129  27.4928695  32.5657732
  58.3698744  28.8155364  33.0848963  58.2770117  33.3482122  27.6155971
  57.6415950  33.4216749  28.3276876  57.9467523  33.9375721  26.9375051
  63.5068467  27.8484505  33.8200293  64.2393639  27.2783722  34.0538123
  62.7507823  27.4606105  34.2606799  52.7813046  30.8101599  27.3116946
  52.6649304  30.1346503  27.9798031  52.8915305  30.3233973  26.4949099
  55.1244587  30.2711747  31.0163635  54.7602794  29.7442368  31.7276557
  55.9811702  29.8810216  30.8430121  61.0293887  21.5606079  38.2794902
  60.6977212  22.4301490  38.0556117  60.4339501  21.2442363  38.9588932
  54.7650074  25.3001646  26.0124984  54.9324476  26.1681883  26.3795455
  54.5747243  25.4628928  25.0886273  57.5225407  33.7618625  37.6790814
  57.2226130  34.6643664  37.5706622  57.1776466  33.4950808  38.5311967
  50.9737888  30.2132422  33.7127519  50.0488385  30.0808636  33.9205211
  51.2222301  30.9926641  34.2097461  60.9222550  26.2801165  35.3588252
  60.0139428  26.2116574  35.0647013  60.8710146  26.7573110  36.1870077
  54.7439294  27.7559304  26.9971651  54.6238920  28.2016355  27.8357131
  54.0491883  28.1044621  26.4385189  48.3346699  29.8565696  34.5471308
  48.4639080  30.1100174  35.4610720  47.6544151  30.4493404  34.2275963
  52.5046186  40.5262945  30.6461782  52.4270216  41.4770771  30.7250263
  51.9007830  40.1808818  31.3036708  54.9963416  27.6990811  43.3023149
  54.2196750  28.2584731  43.2926014  55.6353979  28.1847594  43.8238019
  62.7884197  24.4817604  37.1366126  62.1458577  24.7750137  36.4905920
  62.2839125  24.3670524  37.9419322  60.4424361  28.2280777  27.8251985
  61.3542217  28.4608164  27.6499682  59.9334008  28.8117821  27.2627063
  53.2509789  30.5076264  42.8641116  53.9924473  31.0461308  42.5875940
  52.5446774  31.1342553  43.0212668  58.7265128  32.6505405  41.4613277
  59.1348484  32.2087815  40.7167910  58.0042390  32.0758032  41.7147470
  55.0796198  27.5878012  38.8346834  55.9257393  28.0117425  38.9781483
  55.0194836  26.9311636  39.5285398  59.0493943  33.2106595  35.2165566
  58.4202805  33.3752310  34.5141634  58.6619605  33.6248205  35.9876530
  62.9283175  34.1461033  32.5709930  62.2434213  34.5259935  32.0206963
  63.0127024  34.7556360  33.3041878  58.2295644  25.2482380  40.4928008
  57.9856575  26.0024440  39.9562284  58.5055574  25.6267727  41.3275255
  60.1834106  31.7920992  39.1705274  60.3951002  32.4352752  38.4939655
  60.1363855  30.9583309  38.7027204  57.7860335  24.4038813  36.0741846
  56.9244814  24.7020066  36.3658583  57.8122770  24.6209212  35.1422878
  54.6021905  32.9481003  32.4815651  55.0660250  33.2268706  31.6920274
  54.3378703  32.0464448  32.2988742  51.4945986  32.4952485  35.4195415
  52.0647343  32.9239753  34.7812899  52.0854098  32.2135070  36.1179600
  53.5390791  29.0704156  29.2905217  54.2414834  29.5225199  29.7579143
  53.2071419  28.4287975  29.9185110  51.9871152  27.6615912  43.6656426
  51.3569813  28.3432193  43.8991823  51.8807240  27.5498994  42.7209564
  47.2816125  27.3287708  34.5922350  46.4915179  27.5845237  34.1162461
  47.7727372  28.1436046  34.6974391  61.2979934  34.6692948  37.3427631
  62.1197378  34.2673135  37.0610313  61.2942337  34.5661182  38.2943747
  49.2330870  27.6932288  31.5505827  48.4362033  27.8050982  32.0689323
  49.0056462  28.0318940  30.6846717  55.0636538  34.2176991  39.4988341
  55.1280970  34.6797398  40.3346513  54.3547462  33.5874356  39.6270651
  45.5653828  27.5818199  37.0237341  45.8161866  28.4665209  37.2894917
  46.1013376  27.4022800  36.2512433  69.3885927  31.0131696  33.6912602
  68.6349636  30.4439094  33.5356607  69.5233469  30.9794361  34.6383237
  54.7784555  35.8845098  29.3667322  54.6430230  36.7296634  29.7952170
  55.3194368  36.0864376  28.6033256  51.2651895  21.9636678  46.0281677
  50.8718841  21.4102877  46.7029321  52.0818035  22.2747257  46.4188195
  48.2313953  33.4020536  29.9395247  48.7438473  34.1963787  30.0900812
  48.8836666  32.7046827  29.8728848  50.0408838  36.5186293  32.0218000
  50.2175466  37.4404257  31.8338984  50.8365671  36.2044712  32.4512380
  54.1819856  23.3794557  43.6201934  54.9229569  23.9801711  43.5406396
  54.4137779  22.6372195  43.0619976  49.3261194  28.5650925  41.8980163
  49.2114709  27.6636182  42.1987262  48.4705712  28.8114621  41.5464980
  56.4053032  36.5068665  43.4967664  55.9616886  35.7205044  43.1788568
  57.0670245  36.6947815  42.8311555  51.1640153  38.0364467  38.0228342
  51.7147578  37.9081530  37.2505336  50.3251629  38.3359356  37.6723235
  58.5034270  36.7871465  41.5249065  58.4852745  37.6080346  41.0329334
  59.4254190  36.6625540  41.7499206  54.9607324  34.3015594  42.3672574
  55.4935661  33.5403883  42.1371881  54.4321405  34.0089246  43.1096728
  58.1277019  19.4075660  37.8966215  57.7841288  20.2977302  37.8205326
  58.4955982  19.2177318  37.0335800  46.1962870  31.7309191  30.7154817
  47.0338092  32.1406199  30.4988525  46.3741137  30.7908633  30.6855011
  58.0927302  29.3984271  26.4038650  57.5773925  30.1688876  26.6427038
  57.8204610  28.7249408  27.0271712  55.6774413  24.2433972  31.4623889
  54.8216009  23.8540823  31.2829527  56.0901364  24.3225933  30.6023674
  57.2073559  21.7780315  35.8615449  56.7038355  21.7410451  35.0483254
  57.5004166  22.6873058  35.9212105  53.4516445  21.8619045  34.8681630
  54.3169442  21.6661854  34.5087520  53.5193954  21.6329397  35.7950987
  63.0661576  32.1516626  28.3391824  62.2891019  31.8127786  27.8946986
  63.7453057  32.1569249  27.6646789  57.8813605  27.2711364  28.2298432
  57.5763740  27.5857513  29.0808575  58.8344047  27.3492783  28.2725765
  56.3260037  33.4301587  29.8791386  55.7981398  32.6954346  29.5664623
  55.8247539  34.2076263  29.6331354  61.3052883  31.6250607  34.9958432
  60.6476557  32.3149869  35.0838560  62.1093282  32.0147039  35.3392418
  51.0578764  24.0921253  32.2397997  51.6322516  23.8696435  31.5071190
  51.6449747  24.1609948  32.9926598  60.1158342  29.9794980  33.0462374
  60.6290223  30.6124972  33.5484083  60.7659565  29.3796176  32.6805734
  51.3848351  26.1225714  26.2593882  50.5485664  26.4600401  26.5803157
  51.2453121  25.9874694  25.3221019  53.3601432  20.9662502  30.9673066
  52.7065844  20.6511519  30.3429681  53.3181906  20.3438243  31.6932889
  54.4712637  31.2481797  22.8826359  53.5639699  31.0171051  23.0817508
  54.9683669  30.4519416  23.0700340  57.3780716  39.9579304  25.8023045
  56.7042415  40.2611001  26.4108003  57.7646538  40.7608385  25.4528502
  56.5939172  27.4544436  35.2920714  55.6761734  27.6759383  35.1342402
  57.0099316  27.5290746  34.4332421  57.3774220  28.8535851  30.4223394
  58.1246039  29.3657248  30.1130516  57.6465810  28.5319904  31.2827788
  55.6500870  31.3494392  27.4050349  54.7412090  31.0653425  27.5022818
  55.6795954  31.7693471  26.5453656  60.8820138  34.9600981  31.1741516
  60.4282465  34.1191891  31.2306707  60.2514104  35.5962380  31.5116296
  59.8253057  25.8892968  32.4042184  59.0875814  25.3770354  32.7352426
  60.0779831  25.4493349  31.5925461  59.3253077  36.7977478  32.1091334
  59.6176051  37.3582535  31.3903700  59.8351698  37.0906039  32.8644493
  59.9264685  18.6669220  32.9983953  60.2323561  17.8066583  32.7109868
  60.6517289  19.2586840  32.7982947  46.2189041  29.0699906  31.3865551
  46.0213441  28.4769267  30.6616617  45.6635705  28.7652116  32.1041490
  54.1985764  28.9623013  33.5060144  54.2534374  28.0096849  33.4302621
  53.3876966  29.1182452  33.9901442  55.3476958  32.8903136  24.7438427
  54.9096388  32.1738995  24.2844065  56.0887399  33.1179250  24.1823519
  52.1378124  27.5800072  31.2650523  51.3245990  27.8794243  31.6715715
  52.6337118  27.1855761  31.9825005  54.2886702  37.5757829  33.1984788
  54.2462881  37.8018676  32.2693320  55.2049401  37.3421204  33.3470589
  57.7352336  28.0441897  40.0965417  58.0901724  28.2713370  40.9559883
  58.3824467  28.3760274  39.4742672  63.4650073  31.1660333  30.8014746
  63.3267972  31.3561929  29.8735935  63.1086292  31.9279716  31.2582797
  51.6292199  25.1518428  36.8811758  52.2691578  25.0107187  36.1834721
  50.7969730  24.8652941  36.5050360  63.4919453  33.2336860  35.8126017
  63.9255959  33.1412149  36.6609071  64.2051033  33.2094360  35.1746033
  52.4052503  34.4520858  32.9946750  53.1993101  33.9571178  32.7929325
  51.6944195  33.9238721  32.6314456  57.2247347  36.8338954  37.3459118
  57.2784370  37.4029890  38.1136834  56.3562129  37.0040839  36.9813155
  48.7135266  28.5963940  29.0706503  47.7832855  28.5348396  29.2876465
  48.8092738  28.0739893  28.2743144  48.6320815  25.1218753  31.6584745
  48.8927633  26.0364086  31.5493905  49.4537988  24.6543195  31.8081357
  50.1045741  26.5356510  38.8283569  50.7768794  26.3273872  38.1796218
  49.2775527  26.3378596  38.3888801  64.3535002  33.2760560  38.3458903
  64.5470892  34.1806371  38.5918178  64.2535620  32.8167979  39.1797488
  56.0071313  23.1618451  40.8449230  55.3599228  23.8608401  40.7513706
  56.7772328  23.5954595  41.2125478  59.4150111  33.4267303  43.9199783
  59.2635617  33.1977855  43.0029867  59.4054790  34.3837905  43.9331128
  56.1835447  30.9999216  38.9046050  57.1127507  31.1510375  38.7315017
  55.7626477  31.0883237  38.0494696  54.9823779  35.0249880  36.6744587
  54.8434865  34.6568665  37.5470525  54.1938375  35.5397520  36.5028545
  55.5771931  40.1258977  28.0170124  55.7523687  39.6547020  28.8315747
  54.8904719  40.7524743  28.2451385  56.5328994  34.4031483  34.0633425
  56.1978827  34.3632253  34.9591075  56.0332940  33.7376199  33.5903835
  50.5073238  29.8099113  39.5886006  50.3693036  29.0779352  40.1897545
  51.4178162  29.7208013  39.3070194  59.4688186  31.7487517  24.3370485
  58.8517356  31.0234345  24.2403537  59.0004674  32.5096878  23.9937559
  53.1355539  29.5219072  39.0769686  53.8455157  28.8812265  39.0356304
  53.0924847  29.7731967  39.9995867  61.1242317  36.4586426  41.9976265
  61.0654864  35.7745646  41.3306848  61.5261836  37.2005416  41.5456891
  51.8484473  26.5084290  40.8965325  51.3121830  26.0575029  41.5486922
  51.2601181  26.6430199  40.1535790  50.1433016  43.2748339  34.7909984
  50.3829614  43.9066864  35.4689003  49.3002213  42.9236380  35.0775343
  51.2586732  25.9672942  23.4591789  50.3816198  25.8461742  23.0954036
  51.7344485  25.1759020  23.2070678  61.1259725  34.4226010  40.2290245
  60.2386503  34.0851931  40.3516644  61.6958276  33.6909041  40.4659010
  42.7788872  30.7550101  33.5533296  43.4659912  30.4411831  32.9654312
  42.6237000  31.6591466  33.2800548  47.5823594  25.6440298  37.9818320
  47.4981783  25.0365967  37.2468730  46.7606300  26.1349316  37.9827816
  54.6560878  39.0827462  37.1951488  54.5831050  39.8882433  37.7070793
  54.2138271  39.2819428  36.3699509  54.4450658  38.3199232  30.7054310
  53.6618180  38.8620912  30.7992534  55.1443403  38.8373212  31.1048551
  57.7547308  24.1293861  33.3488515  58.2516007  23.3763824  33.0289585
  56.9834289  24.1658178  32.7831724  65.6077065  29.8334227  34.9906806
  65.5966941  30.7158942  34.6200740  64.7394445  29.4805778  34.7961344
  57.1159562  38.9814296  39.3509647  57.8287534  39.6161761  39.2785548
  56.6249590  39.0778162  38.5349649  58.8377088  32.8865549  30.9226938
  57.9033367  33.0067011  30.7531643  59.0153757  31.9838015  30.6586948
  54.3382277  26.2711244  33.0760200  53.9680064  25.7182285  33.7641105
  54.8341369  25.6669378  32.5235200  62.2249640  28.7282868  31.4576973
  62.6910092  29.5610860  31.3837275  62.6757140  28.2627850  32.1622231
  52.1671475  36.7308739  40.1715218  52.8680935  37.3645222  40.3244612
  51.6966590  37.0723471  39.4110857  60.2925871  35.0726689  28.4563125
  60.5685715  34.9583284  29.3656999  59.4230370  34.6744174  28.4175298
  60.1966303  21.0963455  35.4967874  59.2829382  21.3267682  35.6650081
  60.6259404  21.1801899  36.3481906  59.9672761  29.2853347  37.9967768
  59.3144211  29.5329254  37.3420221  60.3453141  28.4717485  37.6630245
  56.9279935  39.3213040  32.0995938  57.1102330  38.5034696  32.5623691
  57.7512921  39.5380732  31.6620828  57.2622100  38.2481225  29.3610987
  57.7909867  37.7373680  28.7481149  57.5250320  37.9323755  30.2256520
  56.0160334  30.0273158  44.4833805  55.3400971  29.9267287  45.1536180
  56.8387968  29.8712372  44.9469802  47.7639193  36.2645094  37.1046320
  48.3492630  35.5188782  37.2374224  47.5664032  36.5749051  37.9882984
  50.6177848  39.2996342  32.1208763  49.9488224  39.7842470  31.6372803
  50.4790718  39.5465562  33.0352141  42.3556848  28.8350695  35.8250763
  42.3940947  28.3014285  36.6187881  41.8497141  28.3085900  35.2061741
  54.7583117  41.3340085  38.7191421  55.3101425  41.4971707  39.4840506
  55.0989310  41.9244523  38.0471446  49.7347610  23.6815235  39.3213306
  49.7988937  24.5430066  38.9090703  49.6714730  23.0689237  38.5885664
  49.2099883  25.7538368  42.9686340  49.8371922  25.3715445  43.5823864
  48.3527802  25.5352570  43.3342032  59.6093991  36.1601343  44.5740075
  60.1533895  36.7731301  44.0795030  59.0280836  36.7180921  45.0907088
  45.9865426  27.5614797  28.9004695  46.2818867  26.6525475  28.8471748
  45.0853461  27.5402536  28.5785697  57.8951504  39.2822061  35.7055103
  57.7702644  38.4811801  35.1966049  58.5530595  39.7768254  35.2169073
  49.5159673  25.6370793  34.8832243  48.7946258  26.2506761  34.7439717
  50.3052928  26.1728558  34.8048889  59.9586413  37.0831081  37.3334653
  59.0116748  36.9636432  37.2612980  60.3069186  36.1953579  37.4160915
  52.3185986  22.9725220  41.1572895  52.8420388  23.2187516  41.9199204
  52.0998319  23.8045255  40.7376032  47.7153267  25.2428895  29.0244020
  47.3865973  24.3626273  28.8419126  48.0692638  25.1876563  29.9120409
  56.9632846  36.8783797  33.5339005  56.8157808  35.9500505  33.7146575
  57.7886339  36.9003888  33.0496081  50.8295090  25.5301864  29.3919498
  51.1691163  26.0587786  28.6698106  51.2767211  25.8682270  30.1678064
  60.5666968  37.7012356  34.6203878  61.4913515  37.4955217  34.4828329
  60.3982271  37.4528757  35.5293220  53.5238531  23.9138915  38.8422566
  53.1835351  23.1146728  39.2443246  52.8177537  24.2140626  38.2699399
  54.1755003  20.9988227  37.2949889  54.9981072  20.5248706  37.1728779
  54.4193066  21.7778711  37.7948575  52.8163237  24.0276486  27.5912790
  53.5371600  24.4057739  27.0876507  52.1928542  24.7465363  27.6947768
  56.9594360  24.7321635  28.5271123  57.1757975  25.6146273  28.2259951
  56.4788427  24.3407848  27.7976765  51.6993582  27.6907348  35.1041867
  51.5538162  28.0047651  35.9966149  51.2218785  28.3092248  34.5512766
  53.5589965  24.6809896  35.1522757  53.5451533  23.7850989  34.8155055
  54.2762393  24.6880560  35.7861043  55.4116095  25.1147236  37.1975884
  55.1533873  26.0364307  37.1960215  54.8801136  24.7177671  37.8876348
  60.3562284  38.2198023  29.9765970  60.5299162  37.6544446  29.2239822
  60.8491175  39.0198918  29.7945460  46.1739244  30.2312692  38.0429528
  45.6292712  31.0072500  38.1749803  47.0518594  30.5783497  37.8848650
  52.9626860  23.5624276  30.4210327  53.0842772  22.6340923  30.6201214
  52.6728903  23.5762962  29.5088642  55.8318051  21.2479187  33.5577047
  55.8539748  21.3118520  32.6029026  56.2486110  20.4083695  33.7517553
  66.2101675  30.9834446  31.5956269  66.6532821  30.2341772  31.1975393
  65.3328185  30.9744583  31.2130001  61.3437456  37.5364788  27.0762868
  62.0388361  38.1571480  27.2950183  61.6860607  36.6860139  27.3515246
  46.9605266  29.3582589  40.9359685  46.2187002  29.5065224  41.5224316
  46.6398010  29.6190854  40.0726435  63.2428880  34.9864493  28.6050199
  63.7680204  35.3251766  27.8799519  63.1551232  34.0511509  28.4213333
  54.9048928  38.8998567  40.7340075  55.2136055  38.6547714  41.6062775
  55.7024410  39.1045205  40.2458946  54.9269540  41.0536477  32.9645452
  54.4874531  40.5612855  33.6578309  55.6777657  40.5109444  32.7237527
  47.4061879  37.2448017  32.9670080  48.2319899  36.9451789  32.5868723
  47.0555931  36.4755640  33.4159869  52.3743413  36.5974486  35.0367754
  51.7523422  35.9345191  34.7369981  53.0448279  36.6235618  34.3541401
  45.6070484  35.1634344  33.9259014  44.7702393  34.7356518  33.7443015
  45.5794130  35.3566787  34.8629805  52.4467940  25.0756274  44.6300260
  52.4956095  25.9518397  44.2478029  52.9890454  24.5333667  44.0571903
  62.9322786  35.6197397  43.9101397  62.1418329  35.6021536  43.3705896
  62.6956140  36.1585691  44.6650433  63.0520661  32.4689863  41.2234125
  63.1018666  32.3039871  42.1649648  62.9434584  31.6017122  40.8332006
  51.9356919  35.1478409  28.5126214  52.0845040  35.8313873  27.8592887
  52.7423363  35.1283499  29.0275670  60.3424423  28.4520791  42.5393432
  61.2434286  28.3127256  42.2477430  60.4172398  28.6175246  43.4791609
  54.6767228  25.8287646  41.3846618  53.8070538  26.1221212  41.1129207
  54.9126709  26.4128091  42.1053882  64.5538858  34.8886805  41.4676147
  64.2623666  35.2516785  42.3039608  63.9410989  34.1753813  41.2889479
  65.7534540  32.4539685  33.9878717  66.5881431  32.8929489  34.1516277
  65.8893669  31.9778338  33.1686963  62.8026046  30.0119419  39.9356205
  63.2780167  30.2047066  39.1275056  61.8791611  30.0678605  39.6899588
  49.6909552  31.1743587  29.5187283  49.4455594  30.2705917  29.7167493
  49.8605467  31.1760737  28.5766761  57.3806262  22.0467263  38.9012039
  57.8988206  22.7828290  38.5758527  57.0261395  22.3531256  39.7358798
  48.9605200  26.9071944  27.0173444  48.2674445  26.9816299  26.3613480
  48.7156952  26.1432288  27.5394961  57.6318856  18.4667546  34.4212935
  57.9120610  17.7990735  35.0473362  58.4169463  18.6596641  33.9087599
  55.4352325  37.6426539  25.9837962  54.8626292  38.2616727  25.5308433
  56.0085119  38.1925901  26.5177883  61.5027715  26.8885180  38.1684510
  62.4545138  26.9883277  38.1896734  61.3331165  26.0963448  38.6782595
  59.5242094  23.9740763  38.3543911  58.9292026  24.2545776  37.6590400
  59.2391791  24.4634664  39.1260652  58.6549585  37.9263690  27.1146544
  59.5880258  37.8609251  27.3179419  58.5672798  38.7619956  26.6561076
  61.2837601  37.2429560  24.0750491  61.2051233  36.9089424  24.9686249
  62.1047268  37.7351328  24.0741964  63.9815793  30.1091299  37.2826810
  63.9492113  29.1707300  37.4686494  64.5916416  30.1875336  36.5492635
  55.8199123  28.9787352  23.3254014  56.7658228  28.8493560  23.3942432
  55.4413368  28.2402014  23.8023442  64.1310281  26.9002343  37.3285093
  63.6149330  26.1160799  37.1415022  65.0150230  26.5721059  37.4931613
  61.7921008  20.6443358  33.2880906  61.5945829  20.3358446  34.1724238
  62.4020714  21.3704997  33.4178836  69.7992342  31.1707306  36.4232847
  70.5295731  30.9092594  36.9840550  69.1899288  30.4336028  36.4634915
  67.8807640  29.3115169  37.0207298  67.1540803  29.1771134  36.4123790
  67.4654926  29.6191997  37.8264016  55.7037816  33.0305098  44.7854671
  56.6240825  33.2083697  44.9794718  55.6687399  32.0861144  44.6334370
  54.0042041  26.9037329  23.2608899  53.0973496  26.6070441  23.3371613
  54.2818022  26.6067147  22.3943185  44.9219981  28.2243692  33.7107946
  44.6022765  27.3709000  33.4182320  44.3753409  28.4392270  34.4665913
  48.6999889  30.9406133  37.4277452  48.9185898  31.8723241  37.4465486
  49.1125662  30.5814107  38.2132256  55.6204106  21.4474218  29.4153141
  54.8104835  21.1021303  29.7908387  56.3088523  21.1381762  30.0040752
  57.5494655  20.5252265  31.0377437  58.1025693  20.9447719  31.6967460
  57.7864741  19.5988013  31.0800393  53.5727754  26.5139339  46.8180201
  53.4724481  27.4633696  46.7492292  53.3549296  26.1857578  45.9456271
  52.7740825  23.7624264  23.4020878  53.6359989  24.0879162  23.6616696
  52.9591169  22.9755760  22.8893944  44.7908241  31.8446604  35.6801067
  44.0971712  31.4300556  35.1671022  45.5381232  31.8867140  35.0834486
  60.9273462  22.6352790  30.5456101  60.3472131  23.2937594  30.1634154
  60.6609394  21.8130135  30.1343519  59.3777028  22.0357848  32.7477422
  59.8776806  22.1474383  31.9391741  60.0212636  21.7318901  33.3878230
  53.4359024  29.9436478  45.6345263  52.9526106  30.7436838  45.8409152
  53.5219963  29.9544423  44.6812707  46.7044984  31.7764857  33.5567082
  46.6815672  31.8752545  32.6048965  47.0145620  32.6230008  33.8784248
  49.3632361  33.8341012  37.6713697  50.3175615  33.8024955  37.6043628
  49.1644885  33.3731636  38.4863922  49.9531744  32.4042128  40.2384494
  50.7724633  32.8986207  40.2619331  50.2268551  31.4874097  40.2102062
  59.7098340  24.7952881  29.6012450  58.8224195  25.0802531  29.3832644
  60.1252329  24.6346644  28.7539727  63.0612876  24.8199402  33.3166789
  63.8373266  25.3095854  33.5891406  62.3361010  25.2457456  33.7738658
  65.4985434  25.5327021  34.3740730  66.0929925  25.2922757  33.6634038
  65.5712018  24.8134151  35.0014266  47.7182590  39.3760632  34.6883894
  47.5837058  38.6161033  34.1221892  47.3014652  40.1001532  34.2212683
  58.8541553  34.5597555  23.6960470  59.5577403  34.7647558  24.3118125
  58.1304202  35.1274317  23.9609553  59.6839363  30.3107417  29.8162740
  59.6274565  30.7675968  28.9770372  60.2367706  29.5498101  29.6385583
  63.4944169  26.0997148  30.6412859  63.2381104  25.6993784  31.4721067
  62.8697037  26.8140942  30.5162999  67.8056507  28.8393222  33.1484151
  67.2456065  28.9086411  33.9215713  67.2000011  28.6634206  32.4283647
  50.8751716  40.2729949  34.9002337  50.7584100  41.2175381  34.7981027
  50.0544162  39.9703510  35.2888136  60.7628251  34.9980085  25.7458930
  61.5973855  34.5661283  25.5636405  60.6012594  34.8262098  26.6735824
  60.4174143  31.5012198  27.1115269  60.3622947  31.3356469  26.1703713
  59.7920198  32.2088231  27.2677459  45.2066658  26.7380262  40.9376691
  45.8525521  26.2279216  41.4263916  44.9983809  27.4748944  41.5120117
  57.7320050  33.8061110  46.4368832  58.6011210  33.9801762  46.0755467
  57.2526801  34.6255527  46.3144561  53.7270268  21.0020307  26.6900587
  53.7148938  21.9462147  26.8468858  54.6193690  20.8190452  26.3960049
  51.9006230  40.9258211  38.1158265  52.8033477  40.9581821  38.4324760
  51.6743600  39.9958662  38.1304601  53.6559832  39.6789197  34.7768344
  52.7055463  39.6791059  34.6632716  53.9592318  38.9321932  34.2604379
  57.5422388  17.5963084  30.9446524  56.7754784  17.0421570  31.0903207
  57.9533093  17.6684952  31.8060676  49.5464149  23.8847879  45.0351705
  50.4095610  23.5284684  45.2455030  48.9729559  23.5461774  45.7227110
  62.1045650  37.2928596  46.0281677  61.7112595  36.7394795  46.7029321
  62.9211790  37.6039174  46.4188195  60.1654949  43.8942842  41.8980163
  60.0508464  42.9928100  42.1987262  59.3099466  44.1406539  41.5464980
  57.0356624  47.0601108  30.7154817  57.8731846  47.4698117  30.4988525
  57.2134892  46.1200551  30.6855011  64.2910200  37.1910963  34.8681630
  65.1563197  36.9953772  34.5087520  64.3587709  36.9621315  35.7950987
  61.8972519  39.4213171  32.2397997  62.4716271  39.1988352  31.5071190
  62.4843501  39.4901865  32.9926598  64.1995187  36.2954420  30.9673066
  63.5459599  35.9803437  30.3429681  64.1575661  35.6730160  31.6932889
  65.3106391  46.5773715  22.8826359  64.4033453  46.3462968  23.0817508
  65.8077423  45.7811334  23.0700340  70.7658439  33.9961137  32.9983953
  71.0717316  33.1358501  32.7109868  71.4911044  34.5878757  32.7982947
  57.0582795  44.3991824  31.3865551  56.8607195  43.8061184  30.6616617
  56.5029459  44.0944034  32.1041490  59.5529021  43.9255858  29.0706503
  58.6226609  43.8640313  29.2876465  59.6486493  43.4031810  28.2743144
  59.4714570  40.4510671  31.6584745  59.7321387  41.3656004  31.5493905
  60.2931742  39.9835113  31.8081357  62.0980486  41.2964859  23.4591789
  61.2209952  41.1753660  23.0954036  62.5738239  40.5050938  23.2070678
  53.6182626  46.0842019  33.5533296  54.3053666  45.7703749  32.9654312
  53.4630755  46.9883384  33.2800548  53.1950602  44.1642612  35.8250763
  53.2334702  43.6306203  36.6187881  52.6890895  43.6377818  35.2061741
  60.5741365  39.0107153  39.3213306  60.6382691  39.8721984  38.9090703
  60.5108485  38.3981155  38.5885664  60.0493637  41.0830285  42.9686340
  60.6765676  40.7007363  43.5823864  59.1921556  40.8644487  43.3342032
  56.8259180  42.8906715  28.9004695  57.1212621  41.9817393  28.8471748
  55.9247216  42.8694454  28.5785697  63.1579741  38.3017138  41.1572895
  63.6814142  38.5479434  41.9199204  62.9392074  39.1337172  40.7376032
  58.5547022  40.5720812  29.0244020  58.2259728  39.6918191  28.8419126
  58.9086392  40.5168481  29.9120409  66.6711805  36.5771104  33.5577047
  66.6933502  36.6410438  32.6029026  67.0879864  35.7375613  33.7517553
  57.7999020  44.6874506  40.9359685  57.0580756  44.8357142  41.5224316
  57.4791764  44.9482772  40.0726435  59.7998954  42.2363862  27.0173444
  59.1068199  42.3108217  26.3613480  59.5550706  41.4724206  27.5394961
  68.4712611  33.7959463  34.4212935  68.7514365  33.1282652  35.0473362
  69.2563218  33.9888559  33.9087599  66.6592878  44.3079270  23.3254014
  67.6051983  44.1785478  23.3942432  66.2807123  43.5693932  23.8023442
  55.7613735  43.5535610  33.7107946  55.4416520  42.7000918  33.4182320
  55.2147164  43.7684188  34.4665913  66.4597861  36.7766136  29.4153141
  65.6498589  36.4313221  29.7908387  67.1482278  36.4673680  30.0040752
  68.3888409  35.8544183  31.0377437  68.9419448  36.2739636  31.6967460
  68.6258495  34.9279931  31.0800393  63.6134580  39.0916182  23.4020878
  64.4753744  39.4171080  23.6616696  63.7984924  38.3047677  22.8893944
  55.6301995  47.1738521  35.6801067  54.9365467  46.7592474  35.1671022
  56.3774986  47.2159058  35.0834486  57.5438738  47.1056775  33.5567082
  57.5209426  47.2044462  32.6048965  57.8539374  47.9521926  33.8784248
  56.0460412  42.0672180  40.9376691  56.6919276  41.5571134  41.4263916
  55.8377563  42.8040862  41.5120117  64.5664023  36.3312225  26.6900587
  64.5542693  37.2754064  26.8468858  65.4587445  36.1482370  26.3960049
  68.3816142  32.9255001  30.9446524  67.6148538  32.3713488  31.0903207
  68.7926847  32.9976870  31.8060676  60.3857903  39.2139797  45.0351705
  61.2489365  38.8576602  45.2455030  59.8123314  38.8753692  45.7227110
  78.4782361  66.3175526  27.0786987  77.8270341  66.9029606  26.6921001
  79.2726724  66.8481720  27.1382024  79.9557626  64.0065958  27.6155971
  79.3203459  64.0800584  28.3276876  79.6255032  64.5959556  26.9375051
  85.1855976  58.5068340  33.8200293  85.9181148  57.9367557  34.0538123
  84.4295331  58.1189941  34.2606799  74.1833695  71.1846781  30.6461782
  74.1057725  72.1354606  30.7250263  73.5795339  70.8392653  31.3036708
  82.1211870  58.8864612  27.8251985  83.0329726  59.1191999  27.6499682
  81.6121517  59.4701656  27.2627063  91.0673436  61.6715532  33.6912602
  90.3137145  61.1022930  33.5356607  91.2020978  61.6378196  34.6383237
  76.4572064  66.5428934  29.3667322  76.3217739  67.3880470  29.7952170
  76.9981877  66.7448211  28.6033256  79.7714811  60.0568107  26.4038650
  79.2561434  60.8272711  26.6427038  79.4992119  59.3833243  27.0271712
  84.7449085  62.8100461  28.3391824  83.9678528  62.4711621  27.8946986
  85.4240566  62.8153085  27.6646789  76.1500146  61.9065632  22.8826359
  75.2427208  61.6754886  23.0817508  76.6471178  61.1103252  23.0700340
  79.0568225  70.6163140  25.8023045  78.3829924  70.9194836  26.4108003
  79.4434047  71.4192220  25.4528502  77.0264467  63.5486971  24.7438427
  76.5883897  62.8322830  24.2844065  77.7674908  63.7763086  24.1823519
  75.9674211  68.2341665  33.1984788  75.9250390  68.4602511  32.2693320
  76.8836910  68.0005039  33.3470589  85.1437582  61.8244168  30.8014746
  85.0055480  62.0145764  29.8735935  84.7873801  62.5863551  31.2582797
  77.2559440  70.7842812  28.0170124  77.4311196  70.3130855  28.8315747
  76.5692228  71.4108578  28.2451385  81.1475695  62.4071353  24.3370485
  80.5304865  61.6818181  24.2403537  80.6792183  63.1680713  23.9937559
  76.1238167  68.9783067  30.7054310  75.3405689  69.5204748  30.7992534
  76.8230912  69.4957047  31.1048551  87.2864574  60.4918062  34.9906806
  87.2754450  61.3742778  34.6200740  86.4181954  60.1389613  34.7961344
  83.9037149  59.3866703  31.4576973  84.3697601  60.2194695  31.3837275
  84.3544649  58.9211685  32.1622231  81.9713380  65.7310525  28.4563125
  82.2473224  65.6167119  29.3656999  81.1017879  65.3328009  28.4175298
  76.4370626  71.9923921  38.7191421  76.9888934  72.1555542  39.4840506
  76.7776819  72.5828359  38.0471446  81.2881500  66.8185178  44.5740075
  81.8321404  67.4315137  44.0795030  80.7068345  67.3764757  45.0907088
  87.8889184  61.6418282  31.5956269  88.3320330  60.8925607  31.1975393
  87.0115694  61.6328418  31.2130001  83.0224965  68.1948623  27.0762868
  83.7175870  68.8155316  27.2950183  83.3648116  67.3443974  27.3515246
  84.9216389  65.6448329  28.6050199  85.4467713  65.9835601  27.8799519
  84.8338741  64.7095344  28.4213333  76.6057049  71.7120312  32.9645452
  76.1662040  71.2196691  33.6578309  77.3565166  71.1693280  32.7237527
  84.6110295  66.2781232  43.9101397  83.8205838  66.2605371  43.3705896
  84.3743649  66.8169526  44.6650433  86.2326367  65.5470640  41.4676147
  85.9411175  65.9100621  42.3039608  85.6198498  64.8337649  41.2889479
  87.4322049  63.1123520  33.9878717  88.2668940  63.5513324  34.1516277
  87.5681178  62.6362173  33.1686963  77.1139834  68.3010375  25.9837962
  76.5413801  68.9200562  25.5308433  77.6872628  68.8509737  26.5177883
  80.3337094  68.5847525  27.1146544  81.2667767  68.5193087  27.3179419
  80.2460307  69.4203792  26.6561076  82.9625110  67.9013395  24.0750491
  82.8838742  67.5673259  24.9686249  83.7834777  68.3935163  24.0741964
  77.4986632  59.6371188  23.3254014  78.4445737  59.5077396  23.3942432
  77.1200877  58.8985850  23.8023442  91.4779851  61.8291141  36.4232847
  92.2083240  61.5676430  36.9840550  90.8686797  61.0919863  36.4634915
  89.5595149  59.9699004  37.0207298  88.8328312  59.8354969  36.4123790
  89.1442435  60.2775833  37.8264016  87.1772943  56.1910856  34.3740730
  87.7717434  55.9506592  33.6634038  87.2499527  55.4717987  35.0014266
  80.5329062  65.2181391  23.6960470  81.2364912  65.4231393  24.3118125
  79.8091711  65.7858153  23.9609553  81.3626872  60.9691252  29.8162740
  81.3062074  61.4259803  28.9770372  81.9155215  60.2081937  29.6385583
  85.1731678  56.7580984  30.6412859  84.9168613  56.3577620  31.4721067
  84.5484546  57.4724778  30.5162999  89.4844016  59.4977057  33.1484151
  88.9243574  59.5670246  33.9215713  88.8787520  59.3218042  32.4283647
  82.4415760  65.6563920  25.7458930  83.2761364  65.2245118  25.5636405
  82.2800102  65.4845934  26.6735824  82.0961652  62.1596033  27.1115269
  82.0410456  61.9940305  26.1703713  81.4707707  62.8672066  27.2677459
  79.4107559  64.4644945  46.4368832  80.2798719  64.6385597  46.0755467
  78.9314310  65.2839362  46.3144561  91.0700035  76.1733571  35.8414106
  91.7078445  76.0540318  35.1377447  90.9520878  77.1214415  35.9002059
  87.8789741  76.1260999  35.7775631  87.5408252  76.0102064  34.8896166
  88.7479509  75.7252164  35.7576637  83.7376557  77.9796476  31.7672522
  83.1741422  77.8886412  30.9988810  83.6228952  77.1596380  32.2475015
  88.3609524  77.2795851  41.7361837  88.3498165  76.8848649  40.8642340
  88.5230163  76.5461923  42.3295608  81.2840989  79.4747667  34.6056743
  82.0762280  79.1338492  34.1903042  81.5237639  79.5842642  35.5258896
  89.3176115  81.6467443  27.0786987  88.6664095  82.2321524  26.6921001
  90.1120478  82.1773638  27.1382024  83.2431743  78.7356580  27.4774121
  84.0162619  78.1885567  27.3386997  83.5957141  79.6000830  27.6888583
  85.0816785  80.0632963  40.6841021  84.7906651  80.9678594  40.5687687
  85.7173769  80.1049490  41.3985090  86.0072992  77.4409811  37.2742380
  86.6036564  77.2165834  36.5599343  86.0647963  76.6994557  37.8767828
  85.5798020  74.8949247  25.1092571  85.8323541  74.3730768  24.3476034
  84.6422579  74.7315392  25.2119255  90.6241303  73.8985025  32.9167315
  91.4104392  73.4804448  32.5657732  90.8880007  74.8031117  33.0848963
  90.7951381  79.3357875  27.6155971  90.1597213  79.4092502  28.3276876
  90.4648787  79.9251474  26.9375051  96.0249730  73.8360258  33.8200293
  96.7574902  73.2659475  34.0538123  95.2689086  73.4481859  34.2606799
  85.2994309  76.7977352  27.3116946  85.1830567  76.1222256  27.9798031
  85.4096569  76.3109726  26.4949099  87.6425850  76.2587500  31.0163635
  87.2784057  75.7318121  31.7276557  88.4992966  75.8685969  30.8430121
  93.5475151  67.5481832  38.2794902  93.2158475  68.4177243  38.0556117
  92.9520764  67.2318116  38.9588932  87.2831337  71.2877399  26.0124984
  87.4505739  72.1557636  26.3795455  87.0928506  71.4504681  25.0886273
  90.0406670  79.7494378  37.6790814  89.7407393  80.6519417  37.5706622
  89.6957730  79.4826561  38.5311967  83.4919152  76.2008175  33.7127519
  82.5669648  76.0684389  33.9205211  83.7403565  76.9802394  34.2097461
  93.4403814  72.2676918  35.3588252  92.5320691  72.1992327  35.0647013
  93.3891410  72.7448863  36.1870077  87.2620558  73.7435057  26.9971651
  87.1420183  74.1892108  27.8357131  86.5673146  74.0920374  26.4385189
  80.8527963  75.8441449  34.5471308  80.9820344  76.0975928  35.4610720
  80.1725414  76.4369157  34.2275963  85.0227450  86.5138699  30.6461782
  84.9451480  87.4646524  30.7250263  84.4189094  86.1684571  31.3036708
  87.5144680  73.6866564  43.3023149  86.7378014  74.2460484  43.2926014
  88.1535243  74.1723347  43.8238019  95.3065460  70.4693357  37.1366126
  94.6639841  70.7625890  36.4905920  94.8020389  70.3546277  37.9419322
  92.9605624  74.2156530  27.8251985  93.8723480  74.4483917  27.6499682
  92.4515271  74.7993574  27.2627063  85.7691052  76.4952017  42.8641116
  86.5105736  77.0337061  42.5875940  85.0628038  77.1218306  43.0212668
  91.2446392  78.6381158  41.4613277  91.6529748  78.1963568  40.7167910
  90.5223653  78.0633785  41.7147470  87.5977462  73.5753765  38.8346834
  88.4438657  73.9993178  38.9781483  87.5376099  72.9187389  39.5285398
  91.5675206  79.1982348  35.2165566  90.9384069  79.3628063  34.5141634
  91.1800868  79.6123958  35.9876530  95.4464438  80.1336786  32.5709930
  94.7615476  80.5135688  32.0206963  95.5308288  80.7432113  33.3041878
  90.7476907  71.2358133  40.4928008  90.5037839  71.9900193  39.9562284
  91.0236838  71.6143481  41.3275255  92.7015370  77.7796745  39.1705274
  92.9132265  78.4228505  38.4939655  92.6545118  76.9459062  38.7027204
  90.3041599  70.3914566  36.0741846  89.4426078  70.6895819  36.3658583
  90.3304033  70.6084965  35.1422878  87.1203168  78.9356756  32.4815651
  87.5841514  79.2144459  31.6920274  86.8559966  78.0340201  32.2988742
  84.0127249  78.4828238  35.4195415  84.5828606  78.9115506  34.7812899
  84.6035361  78.2010823  36.1179600  86.0572054  75.0579909  29.2905217
  86.7596098  75.5100953  29.7579143  85.7252683  74.4163728  29.9185110
  84.5052416  73.6491665  43.6656426  83.8751076  74.3307946  43.8991823
  84.3988504  73.5374747  42.7209564  79.7997388  73.3163462  34.5922350
  79.0096442  73.5720990  34.1162461  80.2908636  74.1311799  34.6974391
  93.8161198  80.6568701  37.3427631  94.6378642  80.2548888  37.0610313
  93.8123601  80.5536935  38.2943747  81.7512134  73.6808041  31.5505827
  80.9543297  73.7926735  32.0689323  81.5237726  74.0194693  30.6846717
  87.5817801  80.2052744  39.4988341  87.6462234  80.6673151  40.3346513
  86.8728725  79.5750109  39.6270651  78.0835091  73.5693952  37.0237341
  78.3343130  74.4540962  37.2894917  78.6194640  73.3898554  36.2512433
 101.9067191  77.0007449  33.6912602 101.1530899  76.4314847  33.5356607
 102.0414732  76.9670114  34.6383237  87.2965819  81.8720851  29.3667322
  87.1611494  82.7172387  29.7952170  87.8375631  82.0740129  28.6033256
  83.7833159  67.9512431  46.0281677  83.3900104  67.3978630  46.7029321
  84.5999299  68.2623010  46.4188195  80.7495216  79.3896290  29.9395247
  81.2619737  80.1839540  30.0900812  81.4017929  78.6922580  29.8728848
  82.5590101  82.5062046  32.0218000  82.7356729  83.4280010  31.8338984
  83.3546934  82.1920465  32.4512380  86.7001120  69.3670310  43.6201934
  87.4410833  69.9677464  43.5406396  86.9319042  68.6247948  43.0619976
  81.8442458  74.5526678  41.8980163  81.7295973  73.6511935  42.1987262
  80.9886975  74.7990374  41.5464980  88.9234295  82.4944418  43.4967664
  88.4798149  81.7080797  43.1788568  89.5851509  82.6823568  42.8311555
  83.6821416  84.0240220  38.0228342  84.2328842  83.8957283  37.2505336
  82.8432892  84.3235109  37.6723235  91.0215533  82.7747218  41.5249065
  91.0034009  83.5956099  41.0329334  91.9435453  82.6501293  41.7499206
  87.4788587  80.2891347  42.3672574  88.0116924  79.5279636  42.1371881
  86.9502669  79.9964999  43.1096728  90.6458282  65.3951413  37.8966215
  90.3022552  66.2853055  37.8205326  91.0137245  65.2053071  37.0335800
  78.7144133  77.7184944  30.7154817  79.5519355  78.1281952  30.4988525
  78.8922401  76.7784386  30.6855011  90.6108565  75.3860024  26.4038650
  90.0955189  76.1564629  26.6427038  90.3385874  74.7125161  27.0271712
  88.1955676  70.2309725  31.4623889  87.3397273  69.8416576  31.2829527
  88.6082628  70.3101686  30.6023674  89.7254823  67.7656069  35.8615449
  89.2219618  67.7286204  35.0483254  90.0185430  68.6748811  35.9212105
  85.9697709  67.8494798  34.8681630  86.8350705  67.6537607  34.5087520
  86.0375218  67.6205150  35.7950987  95.5842839  78.1392379  28.3391824
  94.8072282  77.8003539  27.8946986  96.2634320  78.1445002  27.6646789
  90.3994868  73.2587117  28.2298432  90.0945004  73.5733266  29.0808575
  91.3525310  73.3368536  28.2725765  88.8441300  79.4177340  29.8791386
  88.3162662  78.6830099  29.5664623  88.3428803  80.1952016  29.6331354
  93.8234146  77.6126360  34.9958432  93.1657821  78.3025622  35.0838560
  94.6274545  78.0022792  35.3392418  83.5760028  70.0797006  32.2397997
  84.1503780  69.8572188  31.5071190  84.1631010  70.1485701  32.9926598
  92.6339605  75.9670733  33.0462374  93.1471487  76.6000725  33.5484083
  93.2840829  75.3671929  32.6805734  83.9029615  72.1101467  26.2593882
  83.0666927  72.4476154  26.5803157  83.7634385  71.9750447  25.3221019
  85.8782696  66.9538255  30.9673066  85.2247108  66.6387272  30.3429681
  85.8363170  66.3313996  31.6932889  86.9893900  77.2357550  22.8826359
  86.0820962  77.0046804  23.0817508  87.4864932  76.4395169  23.0700340
  89.8961979  85.9455057  25.8023045  89.2223678  86.2486754  26.4108003
  90.2827801  86.7484138  25.4528502  89.1120436  73.4420189  35.2920714
  88.1942997  73.6635136  35.1342402  89.5280579  73.5166499  34.4332421
  89.8955484  74.8411604  30.4223394  90.6427303  75.3533002  30.1130516
  90.1647073  74.5195657  31.2827788  88.1682134  77.3370145  27.4050349
  87.2593353  77.0529178  27.5022818  88.1977218  77.7569224  26.5453656
  93.4001401  80.9476735  31.1741516  92.9463728  80.1067644  31.2306707
  92.7695368  81.5838133  31.5116296  92.3434321  71.8768721  32.4042184
  91.6057078  71.3646107  32.7352426  92.5961094  71.4369102  31.5925461
  91.8434340  82.7853231  32.1091334  92.1357315  83.3458288  31.3903700
  92.3532961  83.0781792  32.8644493  92.4445948  64.6544973  32.9983953
  92.7504825  63.7942336  32.7109868  93.1698553  65.2462593  32.7982947
  78.7370304  75.0575659  31.3865551  78.5394704  74.4645020  30.6616617
  78.1816968  74.7527869  32.1041490  86.7167028  74.9498766  33.5060144
  86.7715638  73.9972602  33.4302621  85.9058230  75.1058205  33.9901442
  87.8658222  78.8778889  24.7438427  87.4277652  78.1614748  24.2844065
  88.6068662  79.1055004  24.1823519  84.6559388  73.5675825  31.2650523
  83.8427253  73.8669996  31.6715715  85.1518382  73.1731514  31.9825005
  86.8067966  83.5633582  33.1984788  86.7644144  83.7894429  32.2693320
  87.7230665  83.3296957  33.3470589  90.2533599  74.0317650  40.0965417
  90.6082987  74.2589123  40.9559883  90.9005731  74.3636027  39.4742672
  95.9831336  77.1536086  30.8014746  95.8449235  77.3437682  29.8735935
  95.6267555  77.9155469  31.2582797  84.1473463  71.1394181  36.8811758
  84.7872842  70.9982940  36.1834721  83.3150993  70.8528694  36.5050360
  96.0100716  79.2212613  35.8126017  96.4437223  79.1287902  36.6609071
  96.7232297  79.1970113  35.1746033  84.9233766  80.4396611  32.9946750
  85.7174365  79.9446931  32.7929325  84.2125459  79.9114474  32.6314456
  89.7428611  82.8214707  37.3459118  89.7965633  83.3905643  38.1136834
  88.8743392  82.9916592  36.9813155  81.2316530  74.5839693  29.0706503
  80.3014118  74.5224149  29.2876465  81.3274002  74.0615646  28.2743144
  82.6227004  72.5232263  38.8283569  83.2950058  72.3149625  38.1796218
  81.7956791  72.3254349  38.3888801  96.8716266  79.2636313  38.3458903
  97.0652156  80.1682124  38.5918178  96.7716884  78.8043732  39.1797488
  88.5252576  69.1494204  40.8449230  87.8780491  69.8484154  40.7513706
  89.2953592  69.5830348  41.2125478  91.9331374  79.4143056  43.9199783
  91.7816881  79.1853608  43.0029867  91.9236054  80.3713658  43.9331128
  88.7016711  76.9874969  38.9046050  89.6308771  77.1386128  38.7315017
  88.2807741  77.0758990  38.0494696  87.5005042  81.0125633  36.6744587
  87.3616128  80.6444418  37.5470525  86.7119639  81.5273273  36.5028545
  88.0953194  86.1134730  28.0170124  88.2704950  85.6422773  28.8315747
  87.4085982  86.7400496  28.2451385  89.0510258  80.3907236  34.0633425
  88.7160090  80.3508006  34.9591075  88.5514203  79.7251952  33.5903835
  83.0254502  75.7974866  39.5886006  82.8874299  75.0655105  40.1897545
  83.9359425  75.7083766  39.3070194  91.9869449  77.7363270  24.3370485
  91.3698620  77.0110098  24.2403537  91.5185938  78.4972631  23.9937559
  85.6536802  75.5094825  39.0769686  86.3636421  74.8688018  39.0356304
  85.6106110  75.7607720  39.9995867  93.6423581  82.4462179  41.9976265
  93.5836127  81.7621399  41.3306848  94.0443099  83.1881169  41.5456891
  84.3665736  72.4960043  40.8965325  83.8303093  72.0450782  41.5486922
  83.7782445  72.6305952  40.1535790  82.6614280  89.2624093  34.7909984
  82.9010878  89.8942617  35.4689003  81.8183476  88.9112133  35.0775343
  83.7767995  71.9548695  23.4591789  82.8997461  71.8337495  23.0954036
  84.2525748  71.1634773  23.2070678  93.6440988  80.4101763  40.2290245
  92.7567767  80.0727684  40.3516644  94.2139539  79.6784794  40.4659010
  87.1742142  85.0703215  37.1951488  87.1012313  85.8758186  37.7070793
  86.7319535  85.2695181  36.3699509  86.9631921  84.3074985  30.7054310
  86.1799443  84.8496665  30.7992534  87.6624666  84.8248965  31.1048551
  90.2728571  70.1169614  33.3488515  90.7697271  69.3639577  33.0289585
  89.5015553  70.1533931  32.7831724  98.1258329  75.8209980  34.9906806
  98.1148205  76.7034695  34.6200740  97.2575708  75.4681531  34.7961344
  89.6340825  84.9690049  39.3509647  90.3468797  85.6037514  39.2785548
  89.1430854  85.0653915  38.5349649  91.3558352  78.8741302  30.9226938
  90.4214631  78.9942764  30.7531643  91.5335020  77.9713768  30.6586948
  86.8563540  72.2586997  33.0760200  86.4861328  71.7058038  33.7641105
  87.3522632  71.6545131  32.5235200  94.7430903  74.7158621  31.4576973
  95.2091356  75.5486613  31.3837275  95.1938404  74.2503603  32.1622231
  84.6852739  82.7184492  40.1715218  85.3862198  83.3520975  40.3244612
  84.2147854  83.0599224  39.4110857  92.8107134  81.0602442  28.4563125
  93.0866978  80.9459037  29.3656999  91.9411633  80.6619927  28.4175298
  92.7147566  67.0839208  35.4967874  91.8010646  67.3143435  35.6650081
  93.1440668  67.1677652  36.3481906  92.4854025  75.2729100  37.9967768
  91.8325475  75.5205007  37.3420221  92.8634404  74.4593238  37.6630245
  89.4461198  85.3088793  32.0995938  89.6283593  84.4910449  32.5623691
  90.2694184  85.5256485  31.6620828  89.7803364  84.2356978  29.3610987
  90.3091130  83.7249433  28.7481149  90.0431584  83.9199508  30.2256520
  88.5341598  76.0148911  44.4833805  87.8582235  75.9143040  45.1536180
  89.3569231  75.8588125  44.9469802  80.2820457  82.2520848  37.1046320
  80.8673893  81.5064535  37.2374224  80.0845295  82.5624804  37.9882984
  83.1359112  85.2872095  32.1208763  82.4669487  85.7718223  31.6372803
  82.9971982  85.5341315  33.0352141  87.2764380  87.3215838  38.7191421
  87.8282688  87.4847460  39.4840506  87.6170574  87.9120276  38.0471446
  81.7281146  71.7414121  42.9686340  82.3553185  71.3591198  43.5823864
  80.8709065  71.5228323  43.3342032  92.1275255  82.1477096  44.5740075
  92.6715159  82.7607054  44.0795030  91.5462100  82.7056674  45.0907088
  78.5046689  73.5490550  28.9004695  78.8000130  72.6401228  28.8471748
  77.6034725  73.5278289  28.5785697  90.4132768  85.2697814  35.7055103
  90.2883907  84.4687554  35.1966049  91.0711859  85.7644007  35.2169073
  82.0340936  71.6246546  34.8832243  81.3127522  72.2382514  34.7439717
  82.8234192  72.1604311  34.8048889  92.4767676  83.0706834  37.3334653
  91.5298012  82.9512185  37.2612980  92.8250449  82.1829332  37.4160915
  84.8367249  68.9600973  41.1572895  85.3601651  69.2063269  41.9199204
  84.6179583  69.7921008  40.7376032  80.2334531  71.2304648  29.0244020
  79.9047237  70.3502026  28.8419126  80.5873901  71.1752316  29.9120409
  89.4814109  82.8659550  33.5339005  89.3339072  81.9376258  33.7146575
  90.3067603  82.8879641  33.0496081  83.3476354  71.5177617  29.3919498
  83.6872426  72.0463539  28.6698106  83.7948474  71.8558023  30.1678064
  93.0848231  83.6888109  34.6203878  94.0094779  83.4830970  34.4828329
  92.9163535  83.4404510  35.5293220  86.0419795  69.9014668  38.8422566
  85.7016615  69.1022481  39.2443246  85.3358801  70.2016379  38.2699399
  86.6936266  66.9863980  37.2949889  87.5162336  66.5124459  37.1728779
  86.9374330  67.7654464  37.7948575  85.3344501  70.0152239  27.5912790
  86.0552863  70.3933492  27.0876507  84.7109805  70.7341116  27.6947768
  89.4775624  70.7197388  28.5271123  89.6939238  71.6022026  28.2259951
  88.9969691  70.3283601  27.7976765  84.2174845  73.6783101  35.1041867
  84.0719426  73.9923404  35.9966149  83.7400049  74.2968001  34.5512766
  86.0771228  70.6685649  35.1522757  86.0632797  69.7726742  34.8155055
  86.7943656  70.6756313  35.7861043  87.9297359  71.1022989  37.1975884
  87.6715137  72.0240060  37.1960215  87.3982399  70.7053424  37.8876348
  92.8743547  84.2073776  29.9765970  93.0480425  83.6420199  29.2239822
  93.3672439  85.0074671  29.7945460  78.6920507  76.2188446  38.0429528
  78.1473975  76.9948253  38.1749803  79.5699857  76.5659250  37.8848650
  85.4808124  69.5500029  30.4210327  85.6024035  68.6216676  30.6201214
  85.1910166  69.5638715  29.5088642  88.3499314  67.2354940  33.5577047
  88.3721011  67.2994273  32.6029026  88.7667373  66.3959448  33.7517553
  98.7282939  76.9710199  31.5956269  99.1714085  76.2217525  31.1975393
  97.8509449  76.9620336  31.2130001  93.8618720  83.5240541  27.0762868
  94.5569625  84.1447234  27.2950183  94.2041870  82.6735892  27.3515246
  79.4786529  75.3458342  40.9359685  78.7368265  75.4940977  41.5224316
  79.1579273  75.6066607  40.0726435  95.7610143  80.9740246  28.6050199
  96.2861467  81.3127519  27.8799519  95.6732496  80.0387262  28.4213333
  87.4230192  84.8874320  40.7340075  87.7317318  84.6423467  41.6062775
  88.2205674  85.0920958  40.2458946  87.4450804  87.0412230  32.9645452
  87.0055794  86.5488608  33.6578309  88.1958921  86.4985197  32.7237527
  79.9243143  83.2323770  32.9670080  80.7501163  82.9327542  32.5868723
  79.5737195  82.4631393  33.4159869  84.8924676  82.5850239  35.0367754
  84.2704685  81.9220944  34.7369981  85.5629543  82.6111371  34.3541401
  78.1251748  81.1510097  33.9259014  77.2883656  80.7232271  33.7443015
  78.0975393  81.3442540  34.8629805  84.9649203  71.0632027  44.6300260
  85.0137359  71.9394150  44.2478029  85.5071718  70.5209420  44.0571903
  95.4504049  81.6073150  43.9101397  94.6599593  81.5897289  43.3705896
  95.2137404  82.1461444  44.6650433  95.5701924  78.4565616  41.2234125
  95.6199929  78.2915624  42.1649648  95.4615848  77.5892875  40.8332006
  84.4538183  81.1354162  28.5126214  84.6026303  81.8189626  27.8592887
  85.2604626  81.1159252  29.0275670  92.8605687  74.4396544  42.5393432
  93.7615549  74.3003009  42.2477430  92.9353661  74.6050999  43.4791609
  87.1948492  71.8163399  41.3846618  86.3251801  72.1096965  41.1129207
  87.4307972  72.4003844  42.1053882  97.0720121  80.8762558  41.4676147
  96.7804929  81.2392538  42.3039608  96.4592252  80.1629566  41.2889479
  98.2715803  78.4415438  33.9878717  99.1062695  78.8805242  34.1516277
  98.4074932  77.9654091  33.1686963  95.3207309  75.9995173  39.9356205
  95.7961431  76.1922819  39.1275056  94.3972875  76.0554358  39.6899588
  82.2090816  77.1619340  29.5187283  81.9636858  76.2581670  29.7167493
  82.3786730  77.1636490  28.5766761  89.8987526  68.0343016  38.9012039
  90.4169470  68.7704043  38.5758527  89.5442659  68.3407009  39.7358798
  81.4786463  72.8947697  27.0173444  80.7855708  72.9692052  26.3613480
  81.2338215  72.1308041  27.5394961  90.1500120  64.4543299  34.4212935
  90.4301874  63.7866488  35.0473362  90.9350727  64.6472394  33.9087599
  87.9533588  83.6302293  25.9837962  87.3807556  84.2492480  25.5308433
  88.5266382  84.1801654  26.5177883  94.0208978  72.8760933  38.1684510
  94.9726401  72.9759030  38.1896734  93.8512429  72.0839201  38.6782595
  92.0423358  69.9616516  38.3543911  91.4473290  70.2421529  37.6590400
  91.7573054  70.4510417  39.1260652  91.1730848  83.9139443  27.1146544
  92.1061521  83.8485004  27.3179419  91.0854061  84.7495710  26.6561076
  93.8018865  83.2305313  24.0750491  93.7232496  82.8965177  24.9686249
  94.6228532  83.7227081  24.0741964  96.4997056  76.0967052  37.2826810
  96.4673376  75.1583053  37.4686494  97.1097680  76.1751089  36.5492635
  88.3380387  74.9663105  23.3254014  89.2839492  74.8369313  23.3942432
  87.9594632  74.2277767  23.8023442  96.6491545  72.8878096  37.3285093
  96.1330593  72.1036552  37.1415022  97.5331493  72.5596812  37.4931613
  94.3102271  66.6319111  33.2880906  94.1127093  66.3234199  34.1724238
  94.9201977  67.3580750  33.4178836 102.3173606  77.1583059  36.4232847
 103.0476994  76.8968347  36.9840550 101.7080551  76.4211781  36.4634915
 100.3988903  75.2990922  37.0207298  99.6722067  75.1646887  36.4123790
  99.9836190  75.6067750  37.8264016  88.2219079  79.0180851  44.7854671
  89.1422089  79.1959450  44.9794718  88.1868662  78.0736897  44.6334370
  86.5223304  72.8913082  23.2608899  85.6154759  72.5946194  23.3371613
  86.7999285  72.5942900  22.3943185  81.2181152  76.9281886  37.4277452
  81.4367162  77.8598994  37.4465486  81.6306926  76.5689860  38.2132256
  88.1385370  67.4349971  29.4153141  87.3286098  67.0897056  29.7908387
  88.8269787  67.1257515  30.0040752  90.0675918  66.5128018  31.0377437
  90.6206957  66.9323472  31.6967460  90.3046004  65.5863766  31.0800393
  86.0909017  72.5015092  46.8180201  85.9905744  73.4509449  46.7492292
  85.8730559  72.1733331  45.9456271  85.2922089  69.7500017  23.4020878
  86.1541253  70.0754915  23.6616696  85.4772433  68.9631513  22.8893944
  93.4454725  68.6228543  30.5456101  92.8653394  69.2813347  30.1634154
  93.1790658  67.8005888  30.1343519  91.8958292  68.0233601  32.7477422
  92.3958070  68.1350136  31.9391741  92.5393899  67.7194654  33.3878230
  85.9540287  75.9312231  45.6345263  85.4707369  76.7312591  45.8409152
  86.0401226  75.9420176  44.6812707  79.2226247  77.7640610  33.5567082
  79.1996935  77.8628298  32.6048965  79.5326883  78.6105761  33.8784248
  81.8813625  79.8216765  37.6713697  82.8356878  79.7900708  37.6043628
  81.6826148  79.3607389  38.4863922  82.4713007  78.3917881  40.2384494
  83.2905896  78.8861960  40.2619331  82.7449815  77.4749850  40.2102062
  92.2279603  70.7828634  29.6012450  91.3405458  71.0678284  29.3832644
  92.6433592  70.6222397  28.7539727  95.5794139  70.8075155  33.3166789
  96.3554529  71.2971607  33.5891406  94.8542273  71.2333209  33.7738658
  98.0166698  71.5202774  34.3740730  98.6111189  71.2798510  33.6634038
  98.0893282  70.8009904  35.0014266  80.2363854  85.3636385  34.6883894
  80.1018322  84.6036786  34.1221892  79.8195916  86.0877285  34.2212683
  91.3722817  80.5473308  23.6960470  92.0758667  80.7523311  24.3118125
  90.6485465  81.1150070  23.9609553  92.2020627  76.2983170  29.8162740
  92.1455828  76.7551721  28.9770372  92.7548969  75.5373854  29.6385583
  96.0125433  72.0872902  30.6412859  95.7562367  71.6869537  31.4721067
  95.3878301  72.8016695  30.5162999 100.3237771  74.8268975  33.1484151
  99.7637329  74.8962164  33.9215713  99.7181274  74.6509959  32.4283647
  83.3932980  86.2605702  34.9002337  83.2765364  87.2051134  34.7981027
  82.5725426  85.9579263  35.2888136  93.2809514  80.9855838  25.7458930
  94.1155118  80.5537036  25.5636405  93.1193857  80.8137851  26.6735824
  92.9355406  77.4887951  27.1115269  92.8804210  77.3232222  26.1703713
  92.3101462  78.1963984  27.2677459  77.7247921  72.7256015  40.9376691
  78.3706785  72.2154969  41.4263916  77.5165072  73.4624697  41.5120117
  90.2501313  79.7936863  46.4368832  91.1192473  79.9677515  46.0755467
  89.7708065  80.6131280  46.3144561  86.2451532  66.9896060  26.6900587
  86.2330202  67.9337900  26.8468858  87.1374954  66.8066205  26.3960049
  84.4187494  86.9133964  38.1158265  85.3214740  86.9457574  38.4324760
  84.1924864  85.9834415  38.1304601  86.1741096  85.6664950  34.7768344
  85.2236727  85.6666812  34.6632716  86.4773582  84.9197685  34.2604379
  90.0603651  63.5838837  30.9446524  89.2936047  63.0297323  31.0903207
  90.4714356  63.6560705  31.8060676  82.0645412  69.8723632  45.0351705
  82.9276874  69.5160437  45.2455030  81.4910823  69.5337527  45.7227110
 101.9093789  91.5025489  35.8414106 102.5472199  91.3832236  35.1377447
 101.7914632  92.4506333  35.9002059  98.7183495  91.4552917  35.7775631
  98.3802007  91.3393982  34.8896166  99.5873264  91.0544082  35.7576637
  94.5770311  93.3088393  31.7672522  94.0135176  93.2178330  30.9988810
  94.4622706  92.4888298  32.2475015  99.2003278  92.6087769  41.7361837
  99.1891919  92.2140567  40.8642340  99.3623918  91.8753841  42.3295608
  92.1234743  94.8039585  34.6056743  92.9156035  94.4630409  34.1903042
  92.3631393  94.9134560  35.5258896 100.1569870  96.9759361  27.0786987
  99.5057850  97.5613441  26.6921001 100.9514233  97.5065556  27.1382024
  94.0825497  94.0648498  27.4774121  94.8556373  93.5177485  27.3386997
  94.4350896  94.9292747  27.6888583  95.9210540  95.3924880  40.6841021
  95.6300406  96.2970511  40.5687687  96.5567524  95.4341408  41.3985090
  96.8466746  92.7701729  37.2742380  97.4430319  92.5457751  36.5599343
  96.9041718  92.0286474  37.8767828  96.4191775  90.2241164  25.1092571
  96.6717296  89.7022685  24.3476034  95.4816334  90.0607310  25.2119255
 101.4635058  89.2276943  32.9167315 102.2498147  88.8096366  32.5657732
 101.7273762  90.1323035  33.0848963 101.6345135  94.6649793  27.6155971
 100.9990968  94.7384419  28.3276876 101.3042541  95.2543392  26.9375051
 106.8643485  89.1652176  33.8200293 107.5968657  88.5951393  34.0538123
 106.1082840  88.7773776  34.2606799  96.1388064  92.1269270  27.3116946
  96.0224322  91.4514174  27.9798031  96.2490323  91.6401644  26.4949099
  98.4819604  91.5879417  31.0163635  98.1177812  91.0610038  31.7276557
  99.3386720  91.1977886  30.8430121 104.3868905  82.8773750  38.2794902
 104.0552230  83.7469161  38.0556117 103.7914519  82.5610034  38.9588932
  98.1225091  86.6169317  26.0124984  98.2899494  87.4849553  26.3795455
  97.9322261  86.7796599  25.0886273 100.8800425  95.0786296  37.6790814
 100.5801148  95.9811335  37.5706622 100.5351484  94.8118479  38.5311967
  94.3312906  91.5300093  33.7127519  93.4063403  91.3976307  33.9205211
  94.5797319  92.3094312  34.2097461 104.2797568  87.5968836  35.3588252
 103.3714446  87.5284244  35.0647013 104.2285164  88.0740781  36.1870077
  98.1014312  89.0726974  26.9971651  97.9813938  89.5184025  27.8357131
  97.4066901  89.4212292  26.4385189  91.6921717  91.1733366  34.5471308
  91.8214098  91.4267845  35.4610720  91.0119168  91.7661074  34.2275963
  95.8621204 101.8430616  30.6461782  95.7845234 102.7938441  30.7250263
  95.2582848 101.4976489  31.3036708  98.3538434  89.0158482  43.3023149
  97.5771768  89.5752402  43.2926014  98.9928997  89.5015265  43.8238019
 106.1459215  85.7985274  37.1366126 105.5033595  86.0917808  36.4905920
 105.6414143  85.6838195  37.9419322 103.7999379  89.5448448  27.8251985
 104.7117235  89.7775834  27.6499682 103.2909026  90.1285492  27.2627063
  96.6084807  91.8243935  42.8641116  97.3499491  92.3628979  42.5875940
  95.9021792  92.4510224  43.0212668 102.0840146  93.9673075  41.4613277
 102.4923502  93.5255486  40.7167910 101.3617408  93.3925703  41.7147470
  98.4371216  88.9045682  38.8346834  99.2832411  89.3285096  38.9781483
  98.3769854  88.2479307  39.5285398 102.4068961  94.5274266  35.2165566
 101.7777823  94.6919980  34.5141634 102.0194623  94.9415876  35.9876530
 106.2858193  95.4628704  32.5709930 105.6009231  95.8427605  32.0206963
 106.3702042  96.0724031  33.3041878 101.5870662  86.5650051  40.4928008
 101.3431593  87.3192111  39.9562284 101.8630592  86.9435398  41.3275255
 103.5409124  93.1088663  39.1705274 103.7526020  93.7520423  38.4939655
 103.4938873  92.2750980  38.7027204 101.1435353  85.7206484  36.0741846
 100.2819832  86.0187737  36.3658583 101.1697788  85.9376882  35.1422878
  97.9596923  94.2648674  32.4815651  98.4235268  94.5436377  31.6920274
  97.6953721  93.3632119  32.2988742  94.8521004  93.8120156  35.4195415
  95.4222361  94.2407424  34.7812899  95.4429116  93.5302740  36.1179600
  96.8965809  90.3871827  29.2905217  97.5989852  90.8392870  29.7579143
  96.5646437  89.7455645  29.9185110  95.3446170  88.9783583  43.6656426
  94.7144831  89.6599864  43.8991823  95.2382258  88.8666665  42.7209564
  90.6391143  88.6455379  34.5922350  89.8490197  88.9012908  34.1162461
  91.1302390  89.4603717  34.6974391 104.6554952  95.9860618  37.3427631
 105.4772396  95.5840806  37.0610313 104.6517355  95.8828853  38.2943747
  92.5905888  89.0099958  31.5505827  91.7937051  89.1218653  32.0689323
  92.3631480  89.3486611  30.6846717  98.4211556  95.5344662  39.4988341
  98.4855988  95.9965069  40.3346513  97.7122480  94.9042027  39.6270651
  88.9228846  88.8985870  37.0237341  89.1736884  89.7832880  37.2894917
  89.4588394  88.7190471  36.2512433 112.7460945  92.3299367  33.6912602
 111.9924654  91.7606765  33.5356607 112.8808487  92.2962031  34.6383237
  98.1359573  97.2012769  29.3667322  98.0005248  98.0464305  29.7952170
  98.6769386  97.4032047  28.6033256  94.6226913  83.2804349  46.0281677
  94.2293859  82.7270548  46.7029321  95.4393053  83.5914927  46.4188195
  91.5888971  94.7188207  29.9395247  92.1013491  95.5131457  30.0900812
  92.2411684  94.0214498  29.8728848  93.3983855  97.8353963  32.0218000
  93.5750484  98.7571928  31.8338984  94.1940689  97.5212383  32.4512380
  97.5394874  84.6962228  43.6201934  98.2804587  85.2969381  43.5406396
  97.7712797  83.9539866  43.0619976  92.6836212  89.8818595  41.8980163
  92.5689727  88.9803853  42.1987262  91.8280730  90.1282292  41.5464980
  99.7628050  97.8236336  43.4967664  99.3191904  97.0372714  43.1788568
 100.4245263  98.0115486  42.8311555  94.5215171  99.3532137  38.0228342
  95.0722596  99.2249201  37.2505336  93.6826647  99.6527026  37.6723235
 101.8609288  98.1039136  41.5249065 101.8427763  98.9248017  41.0329334
 102.7829208  97.9793211  41.7499206  98.3182342  95.6183265  42.3672574
  98.8510679  94.8571553  42.1371881  97.7896423  95.3256917  43.1096728
 101.4852037  80.7243331  37.8966215 101.1416306  81.6144973  37.8205326
 101.8531000  80.5344989  37.0335800  89.5537888  93.0476862  30.7154817
  90.3913110  93.4573870  30.4988525  89.7316155  92.1076304  30.6855011
 101.4502320  90.7151942  26.4038650 100.9348943  91.4856547  26.6427038
 101.1779628  90.0417078  27.0271712  99.0349431  85.5601643  31.4623889
  98.1791027  85.1708493  31.2829527  99.4476382  85.6393604  30.6023674
 100.5648577  83.0947986  35.8615449 100.0613373  83.0578121  35.0483254
 100.8579184  84.0040729  35.9212105  96.8091463  83.1786716  34.8681630
  97.6744460  82.9829525  34.5087520  96.8768972  82.9497068  35.7950987
 106.4236594  93.4684297  28.3391824 105.6466037  93.1295456  27.8946986
 107.1028075  93.4736920  27.6646789 101.2388623  88.5879034  28.2298432
 100.9338758  88.9025183  29.0808575 102.1919065  88.6660454  28.2725765
  99.6835055  94.7469258  29.8791386  99.1556416  94.0122017  29.5664623
  99.1822557  95.5243934  29.6331354 104.6627901  92.9418278  34.9958432
 104.0051575  93.6317539  35.0838560 105.4668300  93.3314710  35.3392418
  94.4153782  85.4088924  32.2397997  94.9897534  85.1864105  31.5071190
  95.0024765  85.4777618  32.9926598 103.4733360  91.2962651  33.0462374
 103.9865241  91.9292643  33.5484083 104.1234583  90.6963846  32.6805734
  94.7423369  87.4393385  26.2593882  93.9060682  87.7768071  26.5803157
  94.6028139  87.3042365  25.3221019  96.7176450  82.2830173  30.9673066
  96.0640862  81.9679190  30.3429681  96.6756924  81.6605913  31.6932889
  97.8287655  92.5649468  22.8826359  96.9214717  92.3338721  23.0817508
  98.3258687  91.7687087  23.0700340  99.9514190  88.7712106  35.2920714
  99.0336752  88.9927053  35.1342402 100.3674334  88.8458417  34.4332421
 100.7349238  90.1703522  30.4223394 101.4821057  90.6824919  30.1130516
 101.0040828  89.8487575  31.2827788  99.0075888  92.6662063  27.4050349
  98.0987108  92.3821096  27.5022818  99.0370972  93.0861141  26.5453656
 104.2395156  96.2768652  31.1741516 103.7857483  95.4359562  31.2306707
 103.6089122  96.9130051  31.5116296 103.1828075  87.2060638  32.4042184
 102.4450832  86.6938024  32.7352426 103.4354849  86.7661020  31.5925461
 102.6828095  98.1145149  32.1091334 102.9751069  98.6750206  31.3903700
 103.1926716  98.4073710  32.8644493 103.2839703  79.9836890  32.9983953
 103.5898579  79.1234254  32.7109868 104.0092307  80.5754510  32.7982947
  89.5764059  90.3867577  31.3865551  89.3788458  89.7936938  30.6616617
  89.0210723  90.0819787  32.1041490  97.5560782  90.2790683  33.5060144
  97.6109392  89.3264520  33.4302621  96.7451984  90.4350122  33.9901442
  98.7051976  94.2070806  24.7438427  98.2671406  93.4906665  24.2844065
  99.4462417  94.4346921  24.1823519  95.4953142  88.8967743  31.2650523
  94.6821008  89.1961914  31.6715715  95.9912136  88.5023432  31.9825005
  97.6461720  98.8925500  33.1984788  97.6037899  99.1186346  32.2693320
  98.5624419  98.6588875  33.3470589 101.0927354  89.3609568  40.0965417
 101.4476742  89.5881041  40.9559883 101.7399485  89.6927944  39.4742672
 106.8225091  92.4828003  30.8014746 106.6842989  92.6729599  29.8735935
 106.4661310  93.2447386  31.2582797  94.9867217  86.4686099  36.8811758
  95.6266596  86.3274858  36.1834721  94.1544748  86.1820612  36.5050360
 106.8494470  94.5504530  35.8126017 107.2830977  94.4579820  36.6609071
 107.5626051  94.5262031  35.1746033  95.7627521  95.7688529  32.9946750
  96.5568119  95.2738849  32.7929325  95.0519213  95.2406392  32.6314456
 100.5822365  98.1506625  37.3459118 100.6359388  98.7197561  38.1136834
  99.7137147  98.3208510  36.9813155  92.0710284  89.9131611  29.0706503
  91.1407872  89.8516066  29.2876465  92.1667756  89.3907563  28.2743144
  91.9895833  86.4386424  31.6584745  92.2502651  87.3531757  31.5493905
  92.8113006  85.9710866  31.8081357  93.4620759  87.8524181  38.8283569
  94.1343812  87.6441543  38.1796218  92.6350545  87.6546267  38.3888801
 107.7110020  94.5928231  38.3458903 107.9045910  95.4974042  38.5918178
 107.6110638  94.1335650  39.1797488  99.3646331  84.4786122  40.8449230
  98.7174246  85.1776071  40.7513706 100.1347346  84.9122266  41.2125478
 102.7725129  94.7434974  43.9199783 102.6210635  94.5145526  43.0029867
 102.7629808  95.7005575  43.9331128  99.5410465  92.3166887  38.9046050
 100.4702525  92.4678046  38.7315017  99.1201495  92.4050907  38.0494696
  98.3398797  96.3417551  36.6744587  98.2009883  95.9736335  37.5470525
  97.5513393  96.8565190  36.5028545  98.9346949 101.4426647  28.0170124
  99.1098705 100.9714691  28.8315747  98.2479737 102.0692414  28.2451385
  99.8904012  95.7199154  34.0633425  99.5553845  95.6799924  34.9591075
  99.3907958  95.0543870  33.5903835  93.8648256  91.1266784  39.5886006
  93.7268054  90.3947023  40.1897545  94.7753179  91.0375684  39.3070194
 102.8263204  93.0655188  24.3370485 102.2092374  92.3402016  24.2403537
 102.3579692  93.8264548  23.9937559  96.4930557  90.8386743  39.0769686
  97.2030175  90.1979935  39.0356304  96.4499865  91.0899638  39.9995867
 104.4817335  97.7754096  41.9976265 104.4229882  97.0913316  41.3306848
 104.8836854  98.5173086  41.5456891  95.2059491  87.8251961  40.8965325
  94.6696848  87.3742699  41.5486922  94.6176199  87.9597870  40.1535790
  93.5008034 104.5916010  34.7909984  93.7404632 105.2234534  35.4689003
  92.6577231 104.2404050  35.0775343  94.6161750  87.2840612  23.4591789
  93.7391216  87.1629413  23.0954036  95.0919503  86.4926691  23.2070678
 104.4834743  95.7393680  40.2290245 103.5961521  95.4019602  40.3516644
 105.0533294  95.0076712  40.4659010  86.1363890  92.0717772  33.5533296
  86.8234930  91.7579502  32.9654312  85.9812018  92.9759137  33.2800548
  90.9398612  86.9607969  37.9818320  90.8556801  86.3533638  37.2468730
  90.1181318  87.4516987  37.9827816  98.0135896 100.3995133  37.1951488
  97.9406068 101.2050104  37.7070793  97.5713289 100.5987098  36.3699509
  97.8025676  99.6366903  30.7054310  97.0193198 100.1788583  30.7992534
  98.5018421 100.1540882  31.1048551 101.1122326  85.4461532  33.3488515
 101.6091025  84.6931494  33.0289585 100.3409307  85.4825849  32.7831724
 108.9652083  91.1501898  34.9906806 108.9541959  92.0326613  34.6200740
 108.0969463  90.7973448  34.7961344 100.4734580 100.2981967  39.3509647
 101.1862552 100.9329431  39.2785548  99.9824608 100.3945833  38.5349649
 102.1952106  94.2033219  30.9226938 101.2608385  94.3234682  30.7531643
 102.3728775  93.3005686  30.6586948  97.6957295  87.5878915  33.0760200
  97.3255082  87.0349956  33.7641105  98.1916387  86.9837049  32.5235200
 105.5824658  90.0450539  31.4576973 106.0485110  90.8778530  31.3837275
 106.0332158  89.5795520  32.1622231  95.5246493  98.0476410  40.1715218
  96.2255953  98.6812893  40.3244612  95.0541608  98.3891142  39.4110857
 103.6500889  96.3894360  28.4563125 103.9260733  96.2750955  29.3656999
 102.7805388  95.9911845  28.4175298 103.5541321  82.4131126  35.4967874
 102.6404400  82.6435352  35.6650081 103.9834422  82.4969570  36.3481906
 103.3247779  90.6021018  37.9967768 102.6719229  90.8496925  37.3420221
 103.7028159  89.7885156  37.6630245 100.2854953 100.6380711  32.0995938
 100.4677347  99.8202367  32.5623691 101.1087939 100.8548403  31.6620828
 100.6197118  99.5648896  29.3610987 101.1484885  99.0541350  28.7481149
 100.8825338  99.2491426  30.2256520  99.3735352  91.3440829  44.4833805
  98.6975989  91.2434958  45.1536180 100.1962986  91.1880042  44.9469802
  91.1214211  97.5812765  37.1046320  91.7067648  96.8356453  37.2374224
  90.9239050  97.8916722  37.9882984  93.9752866 100.6164013  32.1208763
  93.3063242 101.1010140  31.6372803  93.8365736 100.8633233  33.0352141
  85.7131866  90.1518365  35.8250763  85.7515965  89.6181956  36.6187881
  85.2072159  89.6253571  35.2061741  98.1158135 102.6507756  38.7191421
  98.6676443 102.8139378  39.4840506  98.4564328 103.2412194  38.0471446
  93.0922628  84.9982906  39.3213306  93.1563955  85.8597737  38.9090703
  93.0289748  84.3856908  38.5885664  92.5674901  87.0706038  42.9686340
  93.1946940  86.6883116  43.5823864  91.7102820  86.8520240  43.3342032
 102.9669009  97.4769014  44.5740075 103.5108913  98.0898972  44.0795030
 102.3855854  98.0348592  45.0907088  89.3440443  88.8782468  28.9004695
  89.6393885  87.9693146  28.8471748  88.4428479  88.8570207  28.5785697
 101.2526522 100.5989732  35.7055103 101.1277662  99.7979471  35.1966049
 101.9105613 101.0935925  35.2169073  92.8734690  86.9538464  34.8832243
  92.1521276  87.5674432  34.7439717  93.6627946  87.4896229  34.8048889
 103.3161431  98.3998752  37.3334653 102.3691766  98.2804103  37.2612980
 103.6644204  97.5121250  37.4160915  95.6761004  84.2892891  41.1572895
  96.1995406  84.5355187  41.9199204  95.4573337  85.1212925  40.7376032
  91.0728285  86.5596565  29.0244020  90.7440991  85.6793944  28.8419126
  91.4267656  86.5044234  29.9120409 100.3207864  98.1951468  33.5339005
 100.1732826  97.2668175  33.7146575 101.1461357  98.2171559  33.0496081
  94.1870108  86.8469535  29.3919498  94.5266181  87.3755456  28.6698106
  94.6342229  87.1849941  30.1678064 103.9241986  99.0180027  34.6203878
 104.8488533  98.8122888  34.4828329 103.7557289  98.7696428  35.5293220
  96.8813549  85.2306586  38.8422566  96.5410369  84.4314399  39.2443246
  96.1752555  85.5308297  38.2699399  97.5330021  82.3155898  37.2949889
  98.3556090  81.8416376  37.1728779  97.7768084  83.0946382  37.7948575
  96.1738255  85.3444157  27.5912790  96.8946618  85.7225409  27.0876507
  95.5503559  86.0633033  27.6947768 100.3169378  86.0489306  28.5271123
 100.5332993  86.9313943  28.2259951  99.8363445  85.6575519  27.7976765
  95.0568600  89.0075019  35.1041867  94.9113180  89.3215322  35.9966149
  94.5793803  89.6259919  34.5512766  96.9164982  85.9977567  35.1522757
  96.9026551  85.1018660  34.8155055  97.6337411  86.0048231  35.7861043
  98.7691113  86.4314907  37.1975884  98.5108891  87.3531978  37.1960215
  98.2376154  86.0345342  37.8876348 103.7137302  99.5365694  29.9765970
 103.8874180  98.9712117  29.2239822 104.2066193 100.3366589  29.7945460
  89.5314262  91.5480363  38.0429528  88.9867730  92.3240171  38.1749803
  90.4093612  91.8951168  37.8848650  96.3201878  84.8791947  30.4210327
  96.4417790  83.9508593  30.6201214  96.0303921  84.8930633  29.5088642
  99.1893069  82.5646858  33.5577047  99.2114766  82.6286191  32.6029026
  99.6061128  81.7251366  33.7517553 109.5676693  92.3002117  31.5956269
 110.0107839  91.5509442  31.1975393 108.6903203  92.2912253  31.2130001
 104.7012474  98.8532459  27.0762868 105.3963379  99.4739151  27.2950183
 105.0435625  98.0027810  27.3515246  90.3180284  90.6750259  40.9359685
  89.5762020  90.8232895  41.5224316  89.9973028  90.9358525  40.0726435
 106.6003898  96.3032164  28.6050199 107.1255222  96.6419437  27.8799519
 106.5126250  95.3679179  28.4213333  98.2623946 100.2166238  40.7340075
  98.5711073  99.9715384  41.6062775  99.0599428 100.4212876  40.2458946
  98.2844558 102.3704147  32.9645452  97.8449549 101.8780526  33.6578309
  99.0352675 101.8277115  32.7237527  90.7636897  98.5615688  32.9670080
  91.5894917  98.2619460  32.5868723  90.4130949  97.7923311  33.4159869
  95.7318430  97.9142156  35.0367754  95.1098440  97.2512861  34.7369981
  96.4023297  97.9403288  34.3541401  88.9645502  96.4802015  33.9259014
  88.1277411  96.0524189  33.7443015  88.9369148  96.6734458  34.8629805
  95.8042958  86.3923944  44.6300260  95.8531113  87.2686067  44.2478029
  96.3465472  85.8501337  44.0571903 106.2897804  96.9365068  43.9101397
 105.4993347  96.9189207  43.3705896 106.0531158  97.4753361  44.6650433
 106.4095679  93.7857534  41.2234125 106.4593684  93.6207542  42.1649648
 106.3009602  92.9184793  40.8332006  95.2931937  96.4646080  28.5126214
  95.4420058  97.1481544  27.8592887  96.0998381  96.4451170  29.0275670
 103.6999441  89.7688462  42.5393432 104.6009304  89.6294927  42.2477430
 103.7747416  89.9342917  43.4791609  98.0342246  87.1455317  41.3846618
  97.1645556  87.4388883  41.1129207  98.2701727  87.7295762  42.1053882
 107.9113876  96.2054476  41.4676147 107.6198684  96.5684456  42.3039608
 107.2986007  95.4921484  41.2889479 109.1109558  93.7707355  33.9878717
 109.9456449  94.2097159  34.1516277 109.2468687  93.2946009  33.1686963
 106.1601064  91.3287090  39.9356205 106.6355185  91.5214737  39.1275056
 105.2366629  91.3846276  39.6899588  93.0484570  92.4911257  29.5187283
  92.8030612  91.5873587  29.7167493  93.2180485  92.4928408  28.5766761
 100.7381280  83.3634934  38.9012039 101.2563224  84.0995961  38.5758527
 100.3836413  83.6698927  39.7358798  92.3180218  88.2239615  27.0173444
  91.6249463  88.2983970  26.3613480  92.0731970  87.4599959  27.5394961
 100.9893874  79.7835216  34.4212935 101.2695628  79.1158405  35.0473362
 101.7744481  79.9764312  33.9087599  98.7927343  98.9594210  25.9837962
  98.2201310  99.5784397  25.5308433  99.3660137  99.5093572  26.5177883
 104.8602733  88.2052850  38.1684510 105.8120156  88.3050948  38.1896734
 104.6906183  87.4131119  38.6782595 102.8817112  85.2908434  38.3543911
 102.2867044  85.5713446  37.6590400 102.5966809  85.7802334  39.1260652
 102.0124603  99.2431360  27.1146544 102.9455276  99.1776922  27.3179419
 101.9247816 100.0787627  26.6561076 107.3390811  91.4258970  37.2826810
 107.3067131  90.4874971  37.4686494 107.9491434  91.5043007  36.5492635
  99.1774141  90.2955023  23.3254014 100.1233246  90.1661231  23.3942432
  98.7988386  89.5569685  23.8023442 107.4885299  88.2170013  37.3285093
 106.9724348  87.4328470  37.1415022 108.3725248  87.8888730  37.4931613
 105.1496026  81.9611029  33.2880906 104.9520847  81.6526117  34.1724238
 105.7595732  82.6872668  33.4178836 113.1567360  92.4874977  36.4232847
 113.8870749  92.2260265  36.9840550 112.5474306  91.7503699  36.4634915
 111.2382658  90.6282839  37.0207298 110.5115821  90.4938804  36.4123790
 110.8229944  90.9359668  37.8264016  99.0612834  94.3472769  44.7854671
  99.9815843  94.5251368  44.9794718  99.0262417  93.4028814  44.6334370
  97.3617059  88.2204999  23.2608899  96.4548514  87.9238112  23.3371613
  97.6393040  87.9234817  22.3943185  88.2794999  89.5411363  33.7107946
  87.9597783  88.6876671  33.4182320  87.7328427  89.7559941  34.4665913
  92.0574906  92.2573804  37.4277452  92.2760916  93.1890912  37.4465486
  92.4700680  91.8981778  38.2132256  98.9779124  82.7641889  29.4153141
  98.1679853  82.4188974  29.7908387  99.6663541  82.4549433  30.0040752
 100.9069673  81.8419936  31.0377437 101.4600711  82.2615389  31.6967460
 101.1439759  80.9155684  31.0800393  96.9302772  87.8307009  46.8180201
  96.8299499  88.7801366  46.7492292  96.7124314  87.5025248  45.9456271
  96.1315843  85.0791935  23.4020878  96.9935007  85.4046833  23.6616696
  96.3166187  84.2923430  22.8893944  88.1483259  93.1614274  35.6801067
  87.4546730  92.7468227  35.1671022  88.8956250  93.2034811  35.0834486
 104.2848480  83.9520461  30.5456101 103.7047149  84.6105265  30.1634154
 104.0184412  83.1297806  30.1343519 102.7352046  83.3525519  32.7477422
 103.2351824  83.4642053  31.9391741 103.3787654  83.0486572  33.3878230
  96.7934042  91.2604148  45.6345263  96.3101124  92.0604508  45.8409152
  96.8794981  91.2712093  44.6812707  90.0620001  93.0932528  33.5567082
  90.0390690  93.1920215  32.6048965  90.3720638  93.9397679  33.8784248
  92.7207379  95.1508683  37.6713697  93.6750633  95.1192625  37.6043628
  92.5219903  94.6899307  38.4863922  93.3106761  93.7209799  40.2384494
  94.1299650  94.2153878  40.2619331  93.5843569  92.8041767  40.2102062
 103.0673358  86.1120551  29.6012450 102.1799213  86.3970202  29.3832644
 103.4827347  85.9514315  28.7539727 106.4187894  86.1367072  33.3166789
 107.1948284  86.6263525  33.5891406 105.6936028  86.5625127  33.7738658
 108.8560452  86.8494692  34.3740730 109.4504943  86.6090428  33.6634038
 108.9287036  86.1301822  35.0014266  91.0757608 100.6928303  34.6883894
  90.9412076  99.9328703  34.1221892  90.6589670 101.4169202  34.2212683
 103.0414381  91.6275087  29.8162740 102.9849583  92.0843639  28.9770372
 103.5942724  90.8665772  29.6385583 106.8519187  87.4164819  30.6412859
 106.5956122  87.0161455  31.4721067 106.2272055  88.1308613  30.5162999
 111.1631525  90.1560892  33.1484151 110.6031083  90.2254082  33.9215713
 110.5575029  89.9801877  32.4283647  94.2326734 101.5897620  34.9002337
  94.1159118 102.5343052  34.7981027  93.4119180 101.2871181  35.2888136
 104.1203269  96.3147755  25.7458930 104.9548872  95.8828954  25.5636405
 103.9587611  96.1429769  26.6735824 103.7749161  92.8179869  27.1115269
 103.7197965  92.6524140  26.1703713 103.1495216  93.5255901  27.2677459
  88.5641676  88.0547933  40.9376691  89.2100539  87.5446887  41.4263916
  88.3558827  88.7916615  41.5120117 101.0895068  95.1228780  46.4368832
 101.9586228  95.2969433  46.0755467 100.6101819  95.9423197  46.3144561
  97.0845286  82.3187978  26.6900587  97.0723956  83.2629818  26.8468858
  97.9768708  82.1358123  26.3960049  95.2581248 102.2425881  38.1158265
  96.1608495 102.2749492  38.4324760  95.0318618 101.3126332  38.1304601
  97.0134850 100.9956868  34.7768344  96.0630481 100.9958730  34.6632716
  97.3167336 100.2489603  34.2604379 100.8997406  78.9130754  30.9446524
 100.1329801  78.3589241  31.0903207 101.3108111  78.9852623  31.8060676
  92.9039167  85.2015550  45.0351705  93.7670628  84.8452355  45.2455030
  92.3304577  84.8629445  45.7227110 112.7487544 106.8317406  35.8414106
 113.3865954 106.7124154  35.1377447 112.6308387 107.7798250  35.9002059
 109.5577250 106.7844834  35.7775631 109.2195761 106.6685899  34.8896166
 110.4267018 106.3836000  35.7576637 110.0397033 107.9379686  41.7361837
 110.0285674 107.5432484  40.8642340 110.2017672 107.2045759  42.3295608
 102.9628498 110.1331503  34.6056743 103.7549789 109.7922327  34.1903042
 103.2025148 110.2426478  35.5258896 106.7604294 110.7216798  40.6841021
 106.4694160 111.6262429  40.5687687 107.3961278 110.7633326  41.3985090
 107.6860501 108.0993647  37.2742380 108.2824073 107.8749669  36.5599343
 107.7435472 107.3578392  37.8767828 115.2262660  98.2065668  38.2794902
 114.8945984  99.0761079  38.0556117 114.6308273  97.8901952  38.9588932
 105.1706661 106.8592010  33.7127519 104.2457157 106.7268224  33.9205211
 105.4191074 107.6386230  34.2097461 115.1191323 102.9260754  35.3588252
 114.2108200 102.8576162  35.0647013 115.0678919 103.4032699  36.1870077
 102.5315472 106.5025284  34.5471308 102.6607853 106.7559763  35.4610720
 101.8512923 107.0952992  34.2275963 109.1932189 104.3450399  43.3023149
 108.4165523 104.9044319  43.2926014 109.8322752 104.8307182  43.8238019
 116.9852969 101.1277192  37.1366126 116.3427350 101.4209725  36.4905920
 116.4807898 101.0130112  37.9419322 107.4478561 107.1535853  42.8641116
 108.1893245 107.6920897  42.5875940 106.7415546 107.7802141  43.0212668
 112.9233901 109.2964993  41.4613277 113.3317257 108.8547404  40.7167910
 112.2011162 108.7217621  41.7147470 109.2764971 104.2337600  38.8346834
 110.1226166 104.6577013  38.9781483 109.2163608 103.5771224  39.5285398
 112.4264416 101.8941968  40.4928008 112.1825348 102.6484029  39.9562284
 112.7024347 102.2727316  41.3275255 111.9829108 101.0498401  36.0741846
 111.1213587 101.3479655  36.3658583 112.0091542 101.2668800  35.1422878
 105.6914758 109.1412073  35.4195415 106.2616115 109.5699342  34.7812899
 106.2822870 108.8594658  36.1179600 106.1839925 104.3075501  43.6656426
 105.5538585 104.9891782  43.8991823 106.0776013 104.1958582  42.7209564
 101.4784897 103.9747297  34.5922350 100.6883951 104.2304825  34.1162461
 101.9696145 104.7895635  34.6974391 103.4299643 104.3391876  31.5505827
 102.6330806 104.4510570  32.0689323 103.2025235 104.6778528  30.6846717
 109.2605310 110.8636579  39.4988341 109.3249743 111.3256987  40.3346513
 108.5516234 110.2333944  39.6270651  99.7622600 104.2277787  37.0237341
 100.0130639 105.1124797  37.2894917 100.2982149 104.0482389  36.2512433
 105.4620667  98.6096267  46.0281677 105.0687613  98.0562465  46.7029321
 106.2786808  98.9206845  46.4188195 108.3788628 100.0254146  43.6201934
 109.1198342 100.6261299  43.5406396 108.6106551  99.2831784  43.0619976
 103.5229966 105.2110513  41.8980163 103.4083482 104.3095770  42.1987262
 102.6674484 105.4574210  41.5464980 105.3608925 114.6824055  38.0228342
 105.9116351 114.5541118  37.2505336 104.5220401 114.9818944  37.6723235
 109.1576096 110.9475183  42.3672574 109.6904433 110.1863471  42.1371881
 108.6290178 110.6548835  43.1096728 112.3245791  96.0535249  37.8966215
 111.9810061  96.9436890  37.8205326 112.6924754  95.8636906  37.0335800
 109.8743185 100.8893561  31.4623889 109.0184782 100.5000411  31.2829527
 110.2870137 100.9685521  30.6023674 111.4042332  98.4239904  35.8615449
 110.9007127  98.3870039  35.0483254 111.6972939  99.3332647  35.9212105
 107.6485218  98.5078634  34.8681630 108.5138214  98.3121442  34.5087520
 107.7162727  98.2788985  35.7950987 105.2547537 100.7380842  32.2397997
 105.8291289 100.5156023  31.5071190 105.8418519 100.8069536  32.9926598
 107.5570204  97.6122090  30.9673066 106.9034617  97.2971108  30.3429681
 107.5150679  96.9897831  31.6932889 110.7907945 104.1004024  35.2920714
 109.8730506 104.3218971  35.1342402 111.2068088 104.1750334  34.4332421
 114.1233457  95.3128808  32.9983953 114.4292334  94.4526171  32.7109868
 114.8486062  95.9046428  32.7982947 100.4157813 105.7159494  31.3865551
 100.2182213 105.1228855  30.6616617  99.8604477 105.4111705  32.1041490
 108.3954537 105.6082601  33.5060144 108.4503147 104.6556437  33.4302621
 107.5845739 105.7642040  33.9901442 106.3346897 104.2259661  31.2650523
 105.5214762 104.5253831  31.6715715 106.8305891 103.8315349  31.9825005
 111.9321108 104.6901485  40.0965417 112.2870496 104.9172958  40.9559883
 112.5793240 105.0219862  39.4742672 105.8260972 101.7978016  36.8811758
 106.4660351 101.6566775  36.1834721 104.9938502 101.5112530  36.5050360
 102.8289588 101.7678341  31.6584745 103.0896405 102.6823674  31.5493905
 103.6506760 101.3002784  31.8081357 104.3014513 103.1816098  38.8283569
 104.9737567 102.9733461  38.1796218 103.4744300 102.9838184  38.3888801
 110.2040085  99.8078039  40.8449230 109.5568000 100.5067989  40.7513706
 110.9741101 100.2414183  41.2125478 110.3804220 107.6458804  38.9046050
 111.3096280 107.7969964  38.7315017 109.9595250 107.7342825  38.0494696
 109.1792551 111.6709469  36.6744587 109.0403637 111.3028253  37.5470525
 108.3907148 112.1857108  36.5028545 104.7042011 106.4558701  39.5886006
 104.5661808 105.7238940  40.1897545 105.6146934 106.3667601  39.3070194
 107.3324311 106.1678661  39.0769686 108.0423930 105.5271853  39.0356304
 107.2893619 106.4191556  39.9995867 106.0453245 103.1543879  40.8965325
 105.5090602 102.7034617  41.5486922 105.4569954 103.2889787  40.1535790
  96.9757644 107.4009690  33.5533296  97.6628684 107.0871420  32.9654312
  96.8205773 108.3051054  33.2800548 101.7792366 102.2899886  37.9818320
 101.6950555 101.6825556  37.2468730 100.9575073 102.7808905  37.9827816
 111.9516080 100.7753450  33.3488515 112.4484780 100.0223412  33.0289585
 111.1803062 100.8117766  32.7831724 108.5351049 102.9170833  33.0760200
 108.1648837 102.3641873  33.7641105 109.0310141 102.3128966  32.5235200
 106.3640248 113.3768328  40.1715218 107.0649707 114.0104811  40.3244612
 105.8935363 113.7183059  39.4110857 114.3935075  97.7423043  35.4967874
 113.4798155  97.9727270  35.6650081 114.8228177  97.8261487  36.3481906
 114.1641534 105.9312935  37.9967768 113.5112984 106.1788843  37.3420221
 114.5421913 105.1177073  37.6630245 110.2129107 106.6732746  44.4833805
 109.5369744 106.5726876  45.1536180 111.0356740 106.5171960  44.9469802
 101.9607966 112.9104683  37.1046320 102.5461402 112.1648371  37.2374224
 101.7632804 113.2208640  37.9882984  96.5525620 105.4810283  35.8250763
  96.5909720 104.9473874  36.6187881  96.0465913 104.9545489  35.2061741
 103.9316383 100.3274824  39.3213306 103.9957709 101.1889654  38.9090703
 103.8683503  99.7148825  38.5885664 103.4068655 102.3997956  42.9686340
 104.0340694 102.0175033  43.5823864 102.5496574 102.1812158  43.3342032
 100.1834198 104.2074385  28.9004695 100.4787639 103.2985064  28.8471748
  99.2822234 104.1862125  28.5785697 103.7128445 102.2830382  34.8832243
 102.9915031 102.8966350  34.7439717 104.5021701 102.8188147  34.8048889
 106.5154758  99.6184808  41.1572895 107.0389160  99.8647105  41.9199204
 106.2967092 100.4504843  40.7376032 101.9122040 101.8888483  29.0244020
 101.5834746 101.0085862  28.8419126 102.2661410 101.8336152  29.9120409
 107.7207304 100.5598503  38.8422566 107.3804124  99.7606316  39.2443246
 107.0146310 100.8600214  38.2699399 108.3723775  97.6447816  37.2949889
 109.1949845  97.1708294  37.1728779 108.6161839  98.4238300  37.7948575
 105.8962354 104.3366936  35.1041867 105.7506935 104.6507240  35.9966149
 105.4187558 104.9551837  34.5512766 107.7558737 101.3269484  35.1522757
 107.7420306 100.4310578  34.8155055 108.4731165 101.3340148  35.7861043
 109.6084868 101.7606825  37.1975884 109.3502646 102.6823895  37.1960215
 109.0769908 101.3637259  37.8876348 100.3708016 106.8772281  38.0429528
  99.8261484 107.6532089  38.1749803 101.2487366 107.2243085  37.8848650
 107.1595633 100.2083865  30.4210327 107.2811544  99.2800511  30.6201214
 106.8697675 100.2222551  29.5088642 110.0286823  97.8938775  33.5577047
 110.0508520  97.9578108  32.6029026 110.4454882  97.0543284  33.7517553
 101.1574038 106.0042177  40.9359685 100.4155774 106.1524812  41.5224316
 100.8366782 106.2650443  40.0726435  99.8039257 111.8093932  33.9259014
  98.9671165 111.3816107  33.7443015  99.7762902 112.0026376  34.8629805
 106.6436712 101.7215862  44.6300260 106.6924868 102.5977985  44.2478029
 107.1859227 101.1793255  44.0571903 114.5393196 105.0980380  42.5393432
 115.4403058 104.9586845  42.2477430 114.6141170 105.2634835  43.4791609
 108.8736001 102.4747235  41.3846618 108.0039310 102.7680801  41.1129207
 109.1095481 103.0587680  42.1053882 111.5775035  98.6926851  38.9012039
 112.0956979  99.4287878  38.5758527 111.2230168  98.9990845  39.7358798
 111.8287629  95.1127134  34.4212935 112.1089383  94.4450323  35.0473362
 112.6138236  95.3056230  33.9087599 115.6996487 103.5344768  38.1684510
 116.6513910 103.6342866  38.1896734 115.5299938 102.7423037  38.6782595
 113.7210867 100.6200351  38.3543911 113.1260799 100.9005364  37.6590400
 113.4360563 101.1094252  39.1260652 118.3279054 103.5461931  37.3285093
 117.8118102 102.7620388  37.1415022 119.2119002 103.2180648  37.4931613
 115.9889780  97.2902947  33.2880906 115.7914602  96.9818035  34.1724238
 116.5989486  98.0164586  33.4178836 109.9006588 109.6764687  44.7854671
 110.8209598 109.8543286  44.9794718 109.8656171 108.7320732  44.6334370
  99.1188753 104.8703280  33.7107946  98.7991538 104.0168589  33.4182320
  98.5722182 105.0851859  34.4665913 102.8968661 107.5865721  37.4277452
 103.1154671 108.5182829  37.4465486 103.3094435 107.2273696  38.2132256
 109.8172879  98.0933807  29.4153141 109.0073607  97.7480892  29.7908387
 110.5057296  97.7841350  30.0040752 111.7463427  97.1711854  31.0377437
 112.2994466  97.5907307  31.6967460 111.9833513  96.2447602  31.0800393
 107.7696526 103.1598927  46.8180201 107.6693253 104.1093284  46.7492292
 107.5518068 102.8317166  45.9456271  98.9877013 108.4906192  35.6801067
  98.2940485 108.0760145  35.1671022  99.7350004 108.5326728  35.0834486
 113.5745801  98.6817436  32.7477422 114.0745579  98.7933971  31.9391741
 114.2181408  98.3778489  33.3878230 107.6327796 106.5896066  45.6345263
 107.1494878 107.3896426  45.8409152 107.7188735 106.6004011  44.6812707
 100.9013756 108.4224446  33.5567082 100.8784444 108.5212133  32.6048965
 101.2114392 109.2689596  33.8784248 103.5601134 110.4800601  37.6713697
 104.5144387 110.4484543  37.6043628 103.3613657 110.0191224  38.4863922
 104.1500516 109.0501717  40.2384494 104.9693405 109.5445795  40.2619331
 104.4237324 108.1333685  40.2102062  99.4035430 103.3839851  40.9376691
 100.0494294 102.8738805  41.4263916  99.1952581 104.1208532  41.5120117
 111.7391160  94.2422672  30.9446524 110.9723556  93.6881159  31.0903207
 112.1501865  94.3144541  31.8060676 103.7432921 100.5307468  45.0351705
 104.6064383 100.1744273  45.2455030 103.1698332 100.1921363  45.7227110
  50.2848564  -1.8643369  28.7221572  50.2261110  -2.5484149  28.0552155
  50.6868083  -1.1224379  28.2702198  48.7700238  -2.1628452  31.2985382
  49.3140142  -1.5498494  30.8040337  48.1887083  -1.6048874  31.8152395
  52.0929032  -2.7032398  30.6346703  51.3024576  -2.7208259  30.0951203
  51.8562387  -2.1644104  31.3895740  53.7145104  -3.4342990  28.1921453
  53.4229913  -3.0713010  29.0284914  53.1017236  -4.1475982  28.0134785
  46.8926297  -4.5168685  33.1614138  47.7617456  -4.3428033  32.8000773
  46.4133048  -3.6974269  33.0389868  58.5518772   7.1919941  22.5659413
  59.1897182   7.0726688  21.8622753  58.4339615   8.1400785  22.6247365
  55.3608479   7.1447369  22.5020938  55.0226990   7.0288433  21.6141473
  56.2298247   6.7438534  22.4821944  55.8428262   8.2982220  28.4607143
  55.8316902   7.9035019  27.5887647  56.0048901   7.5648293  29.0540915
  48.7659726  10.4934037  21.3302049  49.5581018  10.1524861  20.9148349
  49.0056377  10.6029012  22.2504203  52.5635523  11.0819332  27.4086327
  52.2725389  11.9864963  27.2932994  53.1992507  11.1235860  28.1230397
  53.4891730   8.4596181  23.9987687  54.0855302   8.2352203  23.2844650
  53.5466701   7.7180926  24.6013135  63.5068468   4.8546628  20.5445600
  64.2393640   4.2845844  20.7783429  62.7507824   4.4668228  20.9852105
  61.0293888  -1.4331798  25.0040208  60.6977213  -0.5636387  24.7801423
  60.4339502  -1.7495514  25.6834239  57.5225408  10.7680748  24.4036121
  57.2226131  11.6705787  24.2951928  57.1776467  10.5012931  25.2557274
  60.9222552   3.2863288  22.0833558  60.0139429   3.2178696  21.7892319
  60.8710148   3.7635233  22.9115384  52.5046188  17.5325068  17.3707089
  52.4270217  18.4832893  17.4495569  51.9007831  17.1870941  18.0282015
  54.9963418   4.7052934  30.0268456  54.2196752   5.2646854  30.0171320
  55.6353981   5.1909716  30.5483326  62.7884198   1.4879726  23.8611432
  62.1458578   1.7812259  23.2151227  62.2839127   1.3732647  24.6664629
  53.2509790   7.5138387  29.5886423  53.9924474   8.0523431  29.3121246
  52.5446775   8.1404676  29.7457974  58.7265129   9.6567527  28.1858584
  59.1348485   9.2149938  27.4413216  58.0042391   9.0820155  28.4392777
  55.0796200   4.5940134  25.5592141  55.9257395   5.0179548  25.7026790
  55.0194837   3.9373758  26.2530704  59.0493944  10.2168718  21.9410873
  58.4202807  10.3814432  21.2386941  58.6619606  10.6310328  22.7121837
  62.9283176  11.1523156  19.2955237  62.2434214  11.5322057  18.7452270
  63.0127025  11.7618482  20.0287184  58.2295645   2.2544502  27.2173315
  57.9856577   3.0086563  26.6807590  58.5055575   2.6329850  28.0520562
  60.1834108   8.7983115  25.8950580  60.3951003   9.4414875  25.2184961
  60.1363856   7.9645431  25.4272510  51.4945987   9.5014608  22.1440721
  52.0647344   9.9301876  21.5058206  52.0854099   9.2197192  22.8424907
  51.9871154   4.6678035  30.3901733  51.3569814   5.3494316  30.6237129
  51.8807241   4.5561117  29.4454871  61.2979936  11.6755070  24.0672938
  62.1197379  11.2735258  23.7855619  61.2942338  11.5723304  25.0189053
  55.0636539  11.2239114  26.2233648  55.1280972  11.6859521  27.0591820
  54.3547463  10.5936478  26.3515958  69.3885929   8.0193819  20.4157909
  68.6349637   7.4501217  20.2601913  69.5233470   7.9856483  21.3628544
  51.2651896  -1.0301199  32.7526984  50.8718842  -1.5835001  33.4274628
  52.0818037  -0.7190621  33.1433501  50.0408839  13.5248415  18.7463307
  50.2175467  14.4466380  18.5584291  50.8365672  13.2106835  19.1757686
  54.1819857   0.3856680  30.3447240  54.9229571   0.9863833  30.2651703
  54.4137780  -0.3565682  29.7865283  49.3261195   5.5713047  28.6225470
  49.2114710   4.6698304  28.9232569  48.4705713   5.8176744  28.2710286
  56.4053033  13.5130788  30.2212971  55.9616887  12.7267166  29.9033875
  57.0670247  13.7009938  29.5556861  51.1640154  15.0426589  24.7473649
  51.7147579  14.9143653  23.9750643  50.3251630  15.3421478  24.3968542
  58.5034271  13.7933587  28.2494372  58.4852746  14.6142469  27.7574641
  59.4254191  13.6687663  28.4744513  54.9607325  11.3077717  29.0917880
  55.4935662  10.5466005  28.8617188  54.4321406  11.0151369  29.8342035
  61.3052884   8.6312730  21.7203738  60.6476558   9.3211991  21.8083867
  62.1093283   9.0209162  22.0637725  60.1158343   6.9857103  19.7707680
  60.6290225   7.6187094  20.2729390  60.7659567   6.3858298  19.4051040
  56.5939174   4.4606558  22.0166021  55.6761735   4.6821505  21.8587709
  57.0099317   4.5352869  21.1577728  60.8820139  11.9663104  17.8986823
  60.4282466  11.1254014  17.9552013  60.2514106  12.6024502  18.2361603
  59.3253078  13.8039601  18.8336641  59.6176053  14.3644658  18.1149007
  59.8351699  14.0968162  19.5889800  54.2886703  14.5819952  19.9230094
  54.2462882  14.8080798  18.9938626  55.2049402  14.3483326  20.0715895
  57.7352337   5.0504019  26.8210723  58.0901725   5.2775493  27.6805189
  58.3824468   5.3822396  26.1987979  63.4650074   8.1722455  17.5260052
  63.3267973   8.3624051  16.5981242  63.1086293   8.9341838  17.9828104
  63.4919454  10.2398982  22.5371324  63.9255960  10.1474271  23.3854378
  64.2051034  10.2156483  21.8991340  57.2247349  13.8401076  24.0704425
  57.2784371  14.4092013  24.8382140  56.3562130  14.0102961  23.7058462
  50.1045742   3.5418633  25.5528876  50.7768795   3.3335995  24.9041525
  49.2775529   3.3440719  25.1134108  64.3535003  10.2822683  25.0704209
  64.5470893  11.1868493  25.3163484  64.2535622   9.8230102  25.9042794
  56.0071314   0.1680574  27.5694537  55.3599229   0.8670523  27.4759013
  56.7772329   0.6016717  27.9370785  59.4150112  10.4329426  30.6445090
  59.2635618  10.2039977  29.7275174  59.4054791  11.3900027  30.6576435
  56.1835448   8.0061338  25.6291356  57.1127508   8.1572498  25.4560324
  55.7626478   8.0945359  24.7740003  54.9823780  12.0312003  23.3989894
  54.8434866  11.6630787  24.2715832  54.1938376  12.5459642  23.2273852
  55.5771932  17.1321099  14.7415431  55.7523688  16.6609143  15.5561053
  54.8904720  17.7586866  14.9696691  56.5328995  11.4093606  20.7878732
  56.1978828  11.3694376  21.6836382  56.0332941  10.7438321  20.3149142
  50.5073239   6.8161236  26.3131313  50.3693037   6.0841474  26.9142852
  51.4178163   6.7270136  26.0315501  53.1355540   6.5281195  25.8014993
  53.8455159   5.8874387  25.7601611  53.0924848   6.7794090  26.7241173
  61.1242319  13.4648548  28.7221572  61.0654865  12.7807768  28.0552155
  61.5261837  14.2067538  28.2702198  51.8484474   3.5146413  27.6210632
  51.3121831   3.0637151  28.2732228  51.2601182   3.6492322  26.8781096
  50.1433017  20.2810462  21.5155291  50.3829616  20.9128986  22.1934309
  49.3002214  19.9298502  21.8020650  61.1259726  11.4288132  26.9535551
  60.2386505  11.0914054  27.0761950  61.6958277  10.6971163  27.1904317
  54.6560879  16.0889585  23.9196795  54.5831051  16.8944556  24.4316099
  54.2138272  16.2881550  23.0944816  54.4450659  15.3261355  17.4299616
  53.6618181  15.8683035  17.5237841  55.1443404  15.8435334  17.8293857
  65.6077066   6.8396350  21.7152113  65.5966943   7.7221065  21.3446046
  64.7394446   6.4867900  21.5206650  57.1159563  15.9876419  26.0754953
  57.8287535  16.6223883  26.0030855  56.6249591  16.0840285  25.2594955
  52.1671476  13.7370862  26.8960524  52.8680936  14.3707345  27.0489918
  51.6966591  14.0785594  26.1356163  59.9672762   6.2915469  24.7213075
  59.3144213   6.5391377  24.0665527  60.3453142   5.4779608  24.3875552
  56.9279936  16.3275163  18.8241245  57.1102331  15.5096819  19.2868997
  57.7512922  16.5442855  18.3866135  57.2622102  15.2543348  16.0856293
  57.7909868  14.7435802  15.4726455  57.5250321  14.9385878  16.9501826
  56.0160335   7.0335281  31.2079112  55.3400972   6.9329410  31.8781487
  56.8387969   6.8774494  31.6715109  47.7639194  13.2707217  23.8291627
  48.3492631  12.5250905  23.9619531  47.5664033  13.5811174  24.7128291
  50.6177850  16.3058464  18.8454069  49.9488225  16.7904592  18.3618109
  50.4790719  16.5527685  19.7597448  54.7583118  18.3402208  25.4436728
  55.3101426  18.5033829  26.2085813  55.0989312  18.9306646  24.7716752
  49.2099884   2.7600490  29.6931647  49.8371923   2.3777568  30.3069171
  48.3527803   2.5414692  30.0587339  59.6093993  13.1663465  31.2985382
  60.1533897  13.7793424  30.8040337  59.0280837  13.7243044  31.8152395
  57.8951506  16.2884184  22.4300410  57.7702645  15.4873923  21.9211355
  58.5530597  16.7830377  21.9414380  59.9586414  14.0893204  24.0579960
  59.0116749  13.9698555  23.9858287  60.3069187  13.2015702  24.1406221
  52.3185987  -0.0212657  27.8818202  52.8420389   0.2249639  28.6444511
  52.0998321   0.8107377  27.4621339  56.9632847  13.8845920  20.2584312
  56.8157810  12.9562627  20.4391882  57.7886341  13.9066011  19.7741387
  60.5666969  14.7074479  21.3449185  61.4913517  14.5017340  21.2073636
  60.3982272  14.4590880  22.2538526  53.5238532   0.9201038  25.5667872
  53.1835353   0.1208851  25.9688552  52.8177539   1.2202748  24.9944705
  55.4116097   2.1209359  23.9221191  55.1533874   3.0426430  23.9205521
  54.8801137   1.7239793  24.6121655  60.3562285  15.2260146  16.7011276
  60.5299163  14.6606568  15.9485129  60.8491176  16.0261041  16.5190766
  46.1739245   7.2374815  24.7674835  45.6292713   8.0134623  24.8995109
  47.0518595   7.5845620  24.6093957  66.2101676   7.9896569  18.3201576
  66.6532822   7.2403894  17.9220699  65.3328187   7.9806705  17.9375308
  61.3437458  14.5426910  13.8008175  62.0388362  15.1633603  14.0195489
  61.6860608  13.6922262  14.0760552  46.9605267   6.3644711  27.6604992
  46.2187003   6.5127347  28.2469622  46.6398011   6.6252977  26.7971741
  63.2428881  11.9926616  15.3295505  63.7680205  12.3313889  14.6044825
  63.1551233  11.0573631  15.1458640  54.9048930  15.9060690  27.4585382
  55.2136056  15.6609836  28.3308082  55.7024412  16.1107328  26.9704252
  54.9269542  18.0598599  19.6890759  54.4874532  17.5674978  20.3823615
  55.6777659  17.5171567  19.4482834  47.4061881  14.2510140  19.6915387
  48.2319901  13.9513912  19.3114030  47.0555933  13.4817763  20.1405175
  52.3743414  13.6036608  21.7613060  51.7523423  12.9407313  21.4615288
  53.0448281  13.6297740  21.0786708  52.4467941   2.0818396  31.3545566
  52.4956097   2.9580519  30.9723336  52.9890455   1.5395789  30.7817209
  62.9322787  12.6259520  30.6346703  62.1418331  12.6083658  30.0951203
  62.6956142  13.1647813  31.3895740  63.0520662   9.4751986  27.9479432
  63.1018667   9.3101993  28.8894955  62.9434585   8.6079245  27.5577313
  60.3424424   5.4582914  29.2638739  61.2434287   5.3189379  28.9722736
  60.4172399   5.6237369  30.2036916  54.6767230   2.8349769  28.1091925
  53.8070539   3.1283335  27.8374513  54.9126710   3.4190214  28.8299188
  64.5538859  11.8948927  28.1921453  64.2623667  12.2578908  29.0284914
  63.9410990  11.1815936  28.0134785  65.7534541   9.4601807  20.7124024
  66.5881433   9.8991611  20.8761584  65.8893670   8.9840460  19.8932269
  62.8026047   7.0181542  26.6601511  63.2780169   7.2109188  25.8520363
  61.8791612   7.0740728  26.4144895  57.3806264  -0.9470614  25.6257345
  57.8988207  -0.2109587  25.3003834  57.0261396  -0.6406621  26.4604104
  61.5027716   3.8947302  24.8929817  62.4545139   3.9945400  24.9142041
  61.3331166   3.1025571  25.4027901  59.5242096   0.9802885  25.0789218
  58.9292028   1.2607898  24.3835706  59.2391792   1.4696786  25.8505959
  63.9815794   7.1153422  24.0072117  63.9492114   6.1769423  24.1931800
  64.5916417   7.1937459  23.2737941  64.1310282   3.9064465  24.0530400
  63.6149331   3.1222922  23.8660329  65.0150231   3.5783182  24.2176919
  69.7992344   8.1769429  23.1478153  70.5295732   7.9154717  23.7085857
  69.1899289   7.4398151  23.1880221  67.8807641   6.3177291  23.7452605
  67.1540804   6.1833256  23.1369096  67.4654928   6.6254120  24.5509323
  55.7037817  10.0367221  31.5099978  56.6240827  10.2145820  31.7040024
  55.6687400   9.0923266  31.3579677  48.6999890   7.9468256  24.1522759
  48.9185900   8.8785363  24.1710793  49.1125664   7.5876230  24.9377563
  53.5727755   3.5201461  33.5425508  53.4724482   4.4695818  33.4737599
  53.3549297   3.1919700  32.6701578  53.4359025   6.9498600  32.3590569
  52.9526107   7.7498960  32.5654458  53.5219964   6.9606545  31.4058013
  49.3632363  10.8403135  24.3959003  50.3175616  10.8087077  24.3288935
  49.1644886  10.3793759  25.2109229  49.9531745   9.4104251  26.9629801
  50.7724634   9.9048330  26.9864638  50.2268552   8.4936219  26.9347368
  65.4985436   2.5389143  21.0986036  66.0929927   2.2984879  20.3879344
  65.5712019   1.8196274  21.7259572  47.7182591  16.3822754  21.4129201
  47.5837059  15.6223155  20.8467199  47.3014654  17.1063654  20.9457990
  67.8056508   5.8455344  19.8729457  67.2456066   5.9148534  20.6461019
  67.2000012   5.6696329  19.1528954  50.8751717  17.2792071  21.6247644
  50.7584101  18.2237504  21.5226334  50.0544164  16.9765633  22.0133443
  45.2066659   3.7442385  27.6621998  45.8525523   3.2341339  28.1509223
  44.9983810   4.4811066  28.2365423  57.7320051  10.8123232  33.1614138
  58.6011211  10.9863885  32.8000773  57.2526803  11.6317649  33.0389868
  51.9006231  17.9320333  24.8403572  52.8033478  17.9643944  25.1570067
  51.6743602  17.0020784  24.8549908  53.6559833  16.6851320  21.5013651
  52.7055464  16.6853181  21.3878023  53.9592320  15.9384054  20.9849685
  49.5464150   0.8910002  31.7597012  50.4095612   0.5346807  31.9700337
  48.9729561   0.5523897  32.4472416  69.3912527  22.5211858  22.5659413
  70.0290937  22.4018606  21.8622753  69.2733370  23.4692702  22.6247365
  62.0589049  24.3274763  18.4917829  61.4953914  24.2364700  17.7234117
  61.9441444  23.5074667  18.9720321  66.6822016  23.6274138  28.4607143
  66.6710657  23.2326936  27.5887647  66.8442656  22.8940211  29.0540915
  59.6053481  25.8225954  21.3302049  60.3974773  25.4816779  20.9148349
  59.8450131  25.9320929  22.2504203  67.6388608  27.9945730  13.8032294
  66.9876587  28.5799811  13.4166307  68.4332970  28.5251925  13.8627331
  61.5644235  25.0834868  14.2019428  62.3375111  24.5363855  14.0632304
  61.9169634  25.9479117  14.4133889  63.4029277  26.4111250  27.4086327
  63.1119143  27.3156881  27.2932994  64.0386262  26.4527778  28.1230397
  64.3285484  23.7888098  23.9987687  64.9249056  23.5644121  23.2844650
  64.3860456  23.0472844  24.6013135  63.9010513  21.2427534  11.8337878
  64.1536033  20.7209055  11.0721341  62.9635072  21.0793679  11.9364562
  68.9453795  20.2463312  19.6412621  69.7316885  19.8282735  19.2903038
  69.2092500  21.1509404  19.8094270  69.1163873  25.6836162  14.3401278
  68.4809706  25.7570789  15.0522183  68.7861279  26.2729761  13.6620357
  74.3462223  20.1838545  20.5445600  75.0787394  19.6137762  20.7783429
  73.5901578  19.7960146  20.9852105  63.6206801  23.1455640  14.0362253
  63.5043059  22.4700543  14.7043337  63.7309061  22.6588014  13.2194406
  65.9638342  22.6065787  17.7408942  65.5996550  22.0796408  18.4521864
  66.8205458  22.2164256  17.5675428  71.8687643  13.8960119  25.0040208
  71.5370968  14.7655530  24.7801423  71.2733256  13.5796403  25.6834239
  65.6043829  17.6355687  12.7370291  65.7718232  18.5035923  13.1040762
  65.4140998  17.7982968  11.8131580  68.3619162  26.0972665  24.4036121
  68.0619886  26.9997704  24.2951928  68.0170222  25.8304849  25.2557274
  61.8131644  22.5486462  20.4372825  60.8882140  22.4162676  20.6450517
  62.0616057  23.3280682  20.9342768  71.7616306  18.6155206  22.0833558
  70.8533184  18.5470614  21.7892319  71.7103902  19.0927151  22.9115384
  65.5833050  20.0913344  13.7216957  65.4632675  20.5370395  14.5602438
  64.8885639  20.4398662  13.1630496  59.1740455  22.1919736  21.2716615
  59.3032836  22.4454215  22.1856026  58.4937906  22.7847444  20.9521270
  63.3439942  32.8616986  17.3707089  63.2663972  33.8124811  17.4495569
  62.7401586  32.5162858  18.0282015  65.8357172  20.0344851  30.0268456
  65.0590506  20.5938771  30.0171320  66.4747735  20.5201634  30.5483326
  73.6277953  16.8171644  23.8611432  72.9852333  17.1104177  23.2151227
  73.1232881  16.7024564  24.6664629  71.2818116  20.5634817  14.5497292
  72.1935972  20.7962204  14.3744989  70.7727763  21.1471861  13.9872370
  64.0903544  22.8430305  29.5886423  64.8318229  23.3815349  29.3121246
  63.3840530  23.4696593  29.7457974  69.5658884  24.9859445  28.1858584
  69.9742240  24.5441856  27.4413216  68.8436145  24.4112073  28.4392777
  65.9189954  19.9232052  25.5592141  66.7651149  20.3471465  25.7026790
  65.8588592  19.2665676  26.2530704  69.8887699  25.5460636  21.9410873
  69.2596561  25.7106350  21.2386941  69.5013361  25.9602245  22.7121837
  73.7676931  26.4815073  19.2955237  73.0827969  26.8613975  18.7452270
  73.8520780  27.0910400  20.0287184  69.0689399  17.5836420  27.2173315
  68.8250331  18.3378481  26.6807590  69.3449330  17.9621768  28.0520562
  71.0227862  24.1275033  25.8950580  71.2344757  24.7706792  25.2184961
  70.9757610  23.2937349  25.4272510  68.6254091  16.7392853  22.7987152
  67.7638570  17.0374107  23.0903890  68.6516526  16.9563252  21.8668185
  65.4415660  25.2835044  19.2060958  65.9054006  25.5622747  18.4165581
  65.1772459  24.3818488  19.0234049  62.3339742  24.8306525  22.1440721
  62.9041099  25.2593794  21.5058206  62.9247853  24.5489110  22.8424907
  64.3784547  21.4058196  16.0150523  65.0808590  21.8579240  16.4824450
  64.0465175  20.7642015  16.6430416  62.8264908  19.9969953  30.3901733
  62.1963569  20.6786234  30.6237129  62.7200996  19.8853034  29.4454871
  58.1209880  19.6641749  21.3167657  57.3308934  19.9199277  20.8407767
  58.6121128  20.4790087  21.4219697  72.1373690  27.0046988  24.0672938
  72.9591134  26.6027175  23.7855619  72.1336093  26.9015222  25.0189053
  60.0724626  20.0286328  18.2751133  59.2755789  20.1405022  18.7934629
  59.8450218  20.3672980  17.4092024  65.9030293  26.5531031  26.2233648
  65.9674726  27.0151438  27.0591820  65.1941217  25.9228396  26.3515958
  56.4047583  19.9172239  23.7482648  56.6555622  20.8019249  24.0140224
  56.9407132  19.7376841  22.9757739  80.2279683  23.3485736  20.4157909
  79.4743391  22.7793134  20.2601913  80.3627224  23.3148401  21.3628544
  65.6178311  28.2199139  16.0912628  65.4823986  29.0650674  16.5197476
  66.1588124  28.4218416  15.3278562  62.1045651  14.2990719  32.7526984
  61.7112596  13.7456917  33.4274628  62.9211791  14.6101297  33.1433501
  59.0707709  25.7374577  16.6640554  59.5832229  26.5317827  16.8146118
  59.7230421  25.0400867  16.5974155  60.8802593  28.8540333  18.7463307
  61.0569222  29.7758298  18.5584291  61.6759427  28.5398752  19.1757686
  65.0213612  15.7148598  30.3447240  65.7623325  16.3155751  30.2651703
  65.2531535  14.9726235  29.7865283  60.1654950  20.9004965  28.6225470
  60.0508465  19.9990222  28.9232569  59.3099468  21.1468662  28.2710286
  67.2446788  28.8422705  30.2212971  66.8010642  28.0559084  29.9033875
  67.9064001  29.0301856  29.5556861  62.0033909  30.3718507  24.7473649
  62.5541334  30.2435570  23.9750643  61.1645385  30.6713396  24.3968542
  69.3428026  29.1225505  28.2494372  69.3246501  29.9434386  27.7574641
  70.2647946  28.9979580  28.4744513  65.8001080  26.6369635  29.0917880
  66.3329417  25.8757923  28.8617188  65.2715161  26.3443286  29.8342035
  68.9670775  11.7429701  24.6211522  68.6235044  12.6331342  24.5450632
  69.3349737  11.5531358  23.7581107  57.0356625  24.0663231  17.4400124
  57.8731847  24.4760239  17.2233832  57.2134893  23.1262673  17.4100318
  68.9321057  21.7338312  13.1283957  68.4167681  22.5042916  13.3672344
  68.6598366  21.0603448  13.7517018  66.5168168  16.5788012  18.1869195
  65.6609765  16.1894863  18.0074834  66.9295120  16.6579973  17.3268981
  68.0467315  14.1134356  22.5860755  67.5432111  14.0764491  21.7728560
  68.3397922  15.0227098  22.6457412  64.2910201  14.1973085  21.5926937
  65.1563198  14.0015894  21.2332826  64.3587710  13.9683437  22.5196294
  68.7207361  19.6065404  14.9543738  68.4157496  19.9211553  15.8053881
  69.6737803  19.6846824  14.9971071  67.1653792  25.7655627  16.6036692
  66.6375154  25.0308387  16.2909930  66.6641295  26.5430303  16.3576660
  72.1446638  23.9604648  21.7203738  71.4870313  24.6503909  21.8083867
  72.9487038  24.3501080  22.0637725  61.8972520  16.4275293  18.9643304
  62.4716272  16.2050475  18.2316497  62.4843503  16.4963988  19.7171905
  70.9552097  22.3149020  19.7707680  71.4683979  22.9479012  20.2729390
  71.6053321  21.7150216  19.4051040  62.2242107  18.4579754  12.9839189
  61.3879419  18.7954441  13.3048464  62.0846877  18.3228734  12.0466326
  64.1995188  13.3016542  17.6918373  63.5459600  12.9865559  17.0674988
  64.1575662  12.6792283  18.4178196  65.3106393  23.5835837   9.6071665
  64.4033454  23.3525091   9.8062814  65.8077425  22.7873457   9.7945647
  68.2174472  32.2933345  12.5268351  67.5436170  32.5965041  13.1353309
  68.6040293  33.0962425  12.1773808  68.2167976  21.1889892  17.1468701
  68.9639795  21.7011289  16.8375823  68.4859565  20.8673944  18.0073095
  66.4894626  23.6848432  14.1295655  65.5805845  23.4007465  14.2268125
  66.5189710  24.1047511  13.2698962  71.7213893  27.2955022  17.8986823
  71.2676221  26.4545932  17.9552013  71.0907860  27.9316420  18.2361603
  70.6646813  18.2247008  19.1287490  69.9269570  17.7124394  19.4597733
  70.9173587  17.7847389  18.3170767  70.1646833  29.1331518  18.8336641
  70.4569807  29.6936576  18.1149007  70.6745453  29.4260079  19.5889800
  70.7658440  11.0023260  19.7229260  71.0717317  10.1420623  19.4355175
  71.4911045  11.5940880  19.5228253  57.0582796  21.4053946  18.1110857
  56.8607196  20.8123307  17.3861924  56.5029460  21.1006157  18.8286796
  65.0379520  21.2977053  20.2305451  65.0928130  20.3450889  20.1547927
  64.2270722  21.4536492  20.7146749  66.1870714  25.2257176  11.4683734
  65.7490144  24.5093035  11.0089371  66.9281155  25.4533291  10.9068825
  62.9771880  19.9154113  17.9895830  62.1639746  20.2148283  18.3961022
  63.4730874  19.5209801  18.7070312  65.1280458  29.9111870  19.9230094
  65.0856637  30.1372716  18.9938626  66.0443157  29.6775244  20.0715895
  68.5746092  20.3795937  26.8210723  68.9295479  20.6067410  27.6805189
  69.2218223  20.7114314  26.1987979  74.3043829  23.5014373  17.5260052
  74.1661727  23.6915969  16.5981242  73.9480047  24.2633756  17.9828104
  62.4685955  17.4872468  23.6057064  63.1085334  17.3461227  22.9080028
  61.6363485  17.2006982  23.2295666  74.3313208  25.5690900  22.5371324
  74.7649715  25.4766189  23.3854378  75.0444789  25.5448400  21.8991340
  63.2446259  26.7874899  19.7192057  64.0386857  26.2925219  19.5174632
  62.5337951  26.2592762  19.3559762  68.0641103  29.1692994  24.0704425
  68.1178125  29.7383930  24.8382140  67.1955885  29.3394879  23.7058462
  59.5529022  20.9317980  15.7951810  58.6226610  20.8702436  16.0121772
  59.6486494  20.4093933  14.9988451  59.4714571  17.4572793  18.3830051
  59.7321389  18.3718126  18.2739212  60.2931744  16.9897236  18.5326664
  60.9439497  18.8710550  25.5528876  61.6162550  18.6627912  24.9041525
  60.1169283  18.6732636  25.1134108  75.1928758  25.6114601  25.0704209
  75.3864648  26.5160411  25.3163484  75.0929376  25.1522020  25.9042794
  66.8465069  15.4972491  27.5694537  66.1992984  16.1962441  27.4759013
  67.6166084  15.9308635  27.9370785  70.2543867  25.7621343  30.6445090
  70.1029373  25.5331895  29.7275174  70.2448546  26.7191945  30.6576435
  67.0229203  23.3353256  25.6291356  67.9521263  23.4864416  25.4560324
  66.6020233  23.4237277  24.7740003  65.8217535  27.3603921  23.3989894
  65.6828620  26.9922705  24.2715832  65.0332131  27.8751560  23.2273852
  66.4165687  32.4613017  14.7415431  66.5917442  31.9901060  15.5561053
  65.7298475  33.0878783  14.9696691  67.3722750  26.7385523  20.7878732
  67.0372582  26.6986293  21.6836382  66.8726696  26.0730239  20.3149142
  61.3466994  22.1453153  26.3131313  61.2086792  21.4133392  26.9142852
  62.2571917  22.0562053  26.0315501  70.3081941  24.0841558  11.0615791
  69.6911112  23.3588386  10.9648844  69.8398430  24.8450918  10.7182866
  63.9749294  21.8573113  25.8014993  64.6848913  21.2166305  25.7601611
  63.9318603  22.1086007  26.7241173  71.9636073  28.7940466  28.7221572
  71.9048619  28.1099686  28.0552155  72.3655592  29.5359456  28.2702198
  62.6878228  18.8438330  27.6210632  62.1515585  18.3929069  28.2732228
  62.0994937  18.9784239  26.8781096  60.9826772  35.6102380  21.5155291
  61.2223370  36.2420904  22.1934309  60.1395968  35.2590420  21.8020650
  71.9653480  26.7580050  26.9535551  71.0780259  26.4205972  27.0761950
  72.5352031  26.0263081  27.1904317  53.6182628  23.0904142  20.2778603
  54.3053667  22.7765872  19.6899618  53.4630756  23.9945506  20.0045854
  58.4217350  17.9794338  24.7063627  58.3375538  17.3720008  23.9714037
  57.6000056  18.4703356  24.7073123  65.4954634  31.4181502  23.9196795
  65.4224805  32.2236474  24.4316099  65.0532027  31.6173468  23.0944816
  65.2844413  30.6553272  17.4299616  64.5011935  31.1974952  17.5237841
  65.9837159  31.1727252  17.8293857  68.5941064  16.4647902  20.0733822
  69.0909763  15.7117864  19.7534892  67.8228045  16.5012218  19.5077031
  76.4470821  22.1688267  21.7152113  76.4360697  23.0512983  21.3446046
  75.5788200  21.8159818  21.5206650  67.9553317  31.3168336  26.0754953
  68.6681290  31.9515801  26.0030855  67.4643346  31.4132202  25.2594955
  69.6770844  25.2219589  17.6472245  68.7427123  25.3421051  17.4776949
  69.8547513  24.3192056  17.3832255  65.1776032  18.6065285  19.8005506
  64.8073820  18.0536325  20.4886412  65.6735125  18.0023418  19.2480506
  73.0643396  21.0636908  18.1822279  73.5303848  21.8964900  18.1082582
  73.5150896  20.5981890  18.8867538  63.0065231  29.0662780  26.8960524
  63.7074690  29.6999263  27.0489918  62.5360346  29.4077511  26.1356163
  71.0360058  13.4317495  22.2213180  70.1223138  13.6621722  22.3895387
  71.4653160  13.5155939  23.0727213  70.8066517  21.6207387  24.7213075
  70.1537967  21.8683295  24.0665527  71.1846897  20.8071525  24.3875552
  67.7673691  31.6567080  18.8241245  67.9496085  30.8388736  19.2868997
  68.5906677  31.8734773  18.3866135  68.1015856  30.5835265  16.0856293
  68.6303623  30.0727720  15.4726455  68.3644076  30.2677796  16.9501826
  66.8554090  22.3627198  31.2079112  66.1794727  22.2621328  31.8781487
  67.6781724  22.2066412  31.6715109  58.6032949  28.5999135  23.8291627
  59.1886386  27.8542823  23.9619531  58.4057787  28.9103091  24.7128291
  61.4571604  31.6350382  18.8454069  60.7881979  32.1196510  18.3618109
  61.3184474  31.8819603  19.7597448  53.1950604  21.1704735  22.5496070
  53.2334703  20.6368326  23.3433188  52.6890896  20.6439940  21.9307047
  65.5976873  33.6694126  25.4436728  66.1495181  33.8325747  26.2085813
  65.9383066  34.2598563  24.7716752  60.5741366  16.0169275  26.0458612
  60.6382692  16.8784106  25.6336010  60.5108486  15.4043277  25.3130971
  60.0493638  18.0892408  29.6931647  60.6765677  17.7069485  30.3069171
  59.1921557  17.8706610  30.0587339  70.4487747  28.4955383  31.2985382
  70.9927651  29.1085341  30.8040337  69.8674592  29.0534962  31.8152395
  56.8259181  19.8968837  15.6250001  57.1212622  18.9879516  15.5717055
  55.9247217  19.8756577  15.3031004  68.7345260  31.6176101  22.4300410
  68.6096399  30.8165841  21.9211355  69.3924351  32.1122295  21.9414380
  60.3553428  17.9724834  21.6077550  59.6340014  18.5860801  21.4685023
  61.1446684  18.5082599  21.5294196  70.7980168  29.4185121  24.0579960
  69.8510504  29.2990472  23.9858287  71.1462942  28.5307619  24.1406221
  63.1579742  15.3079260  27.8818202  63.6814144  15.5541557  28.6444511
  62.9392075  16.1399295  27.4621339  58.5547023  17.5782935  15.7489327
  58.2259729  16.6980314  15.5664432  58.9086394  17.5230603  16.6365716
  67.8026602  29.2137837  20.2584312  67.6551564  28.2854545  20.4391882
  68.6280095  29.2357928  19.7741387  61.6688846  17.8655905  16.1164804
  62.0084918  18.3941826  15.3943413  62.1160966  18.2036311  16.8923371
  71.4060724  30.0366396  21.3449185  72.3307271  29.8309258  21.2073636
  71.2376027  29.7882797  22.2538526  64.3632287  16.2492955  25.5667872
  64.0229107  15.4500768  25.9688552  63.6571293  16.5494666  24.9944705
  65.0148759  13.3342268  24.0195195  65.8374828  12.8602746  23.8974086
  65.2586822  14.1132751  24.5193882  63.6556993  16.3630526  14.3158097
  64.3765356  16.7411779  13.8121814  63.0322297  17.0819403  14.4193075
  67.7988116  17.0675675  15.2516429  68.0151730  17.9500313  14.9505257
  67.3182183  16.6761889  14.5222071  62.5387337  20.0261388  21.8287174
  62.3931918  20.3401691  22.7211455  62.0612541  20.6446289  21.2758073
  64.3983720  17.0163936  21.8768063  64.3845289  16.1205030  21.5400361
  65.1156148  17.0234600  22.5106350  66.2509851  17.4501277  23.9221191
  65.9927629  18.3718347  23.9205521  65.7194891  17.0531711  24.6121655
  71.1956040  30.5552064  16.7011276  71.3692917  29.9898486  15.9485129
  71.6884931  31.3552959  16.5190766  57.0133000  22.5666733  24.7674835
  56.4686468  23.3426541  24.8995109  57.8912349  22.9137537  24.6093957
  63.8020616  15.8978317  17.1455634  63.9236527  14.9694963  17.3446521
  63.5122659  15.9117003  16.2333949  66.6711807  13.5833227  20.2822353
  66.6933503  13.6472560  19.3274333  67.0879866  12.7437736  20.4762860
  77.0495431  23.3188487  18.3201576  77.4926577  22.5695812  17.9220699
  76.1721941  23.3098623  17.9375308  72.1831212  29.8718828  13.8008175
  72.8782117  30.4925521  14.0195489  72.5254362  29.0214179  14.0760552
  57.7999021  21.6936629  27.6604992  57.0580757  21.8419264  28.2469622
  57.4791766  21.9544895  26.7971741  74.0822635  27.3218534  15.3295505
  74.6073959  27.6605806  14.6044825  73.9944988  26.3865549  15.1458640
  65.7442684  31.2352607  27.4585382  66.0529811  30.9901754  28.3308082
  66.5418166  31.4399246  26.9704252  65.7663296  33.3890517  19.6890759
  65.3268286  32.8966896  20.3823615  66.5171413  32.8463485  19.4482834
  58.2455635  29.5802058  19.6915387  59.0713655  29.2805830  19.3114030
  57.8949687  28.8109680  20.1405175  63.2137168  28.9328526  21.7613060
  62.5917178  28.2699231  21.4615288  63.8842035  28.9589658  21.0786708
  56.4464240  27.4988384  20.6504320  55.6096148  27.0710559  20.4688321
  56.4187886  27.6920828  21.5875111  63.2861696  17.4110314  31.3545566
  63.3349851  18.2872437  30.9723336  63.8284210  16.8687707  30.7817209
  73.7716541  27.9551437  30.6346703  72.9812085  27.9375576  30.0951203
  73.5349896  28.4939731  31.3895740  73.8914416  24.8043904  27.9479432
  73.9412421  24.6393911  28.8894955  73.7828340  23.9371163  27.5577313
  62.7750675  27.4832449  15.2371521  62.9238796  28.1667914  14.5838193
  63.5817119  27.4637539  15.7520976  71.1818179  20.7874832  29.2638739
  72.0828042  20.6481297  28.9722736  71.2566153  20.9529286  30.2036916
  65.5160984  18.1641686  28.1091925  64.6464294  18.4575252  27.8374513
  65.7520465  18.7482131  28.8299188  75.3932613  27.2240845  28.1921453
  75.1017422  27.5870826  29.0284914  74.7804745  26.5107853  28.0134785
  76.5928296  24.7893725  20.7124024  77.4275187  25.2283529  20.8761584
  76.7287424  24.3132378  19.8932269  73.6419802  22.3473460  26.6601511
  74.1173923  22.5401106  25.8520363  72.7185367  22.4032646  26.4144895
  60.5303308  23.5097627  16.2432590  60.2849350  22.6059957  16.4412800
  60.6999223  23.5114777  15.3012068  68.2200018  14.3821303  25.6257345
  68.7381962  15.1182330  25.3003834  67.8655151  14.6885297  26.4604104
  59.7998956  19.2425985  13.7418751  59.1068201  19.3170340  13.0858787
  59.5550708  18.4786328  14.2640268  68.4712612  10.8021586  21.1458242
  68.7514366  10.1344775  21.7718668  69.2563219  10.9950681  20.6332906
  66.2746081  29.9780580  12.7083268  65.7020048  30.5970767  12.2553740
  66.8478874  30.5279941  13.2423190  72.3421471  19.2239220  24.8929817
  73.2938893  19.3237318  24.9142041  72.1724921  18.4317488  25.4027901
  70.3635850  16.3094803  25.0789218  69.7685782  16.5899816  24.3835706
  70.0785547  16.7988704  25.8505959  69.4943340  30.2617730  13.8391850
  70.4274014  30.1963292  14.0424726  69.4066553  31.0973997  13.3806383
  72.1231357  29.5783600  10.7995798  72.0444989  29.2443464  11.6931556
  72.9441024  30.0705368  10.7987270  74.8209548  22.4445340  24.0072117
  74.7885868  21.5061340  24.1931800  75.4310172  22.5229376  23.2737941
  66.6592879  21.3141393  10.0499321  67.6051984  21.1847601  10.1187739
  66.2807124  20.5756054  10.5268749  74.9704037  19.2356383  24.0530400
  74.4543085  18.4514840  23.8660329  75.8543985  18.9075100  24.2176919
  72.6314764  12.9797399  20.0126212  72.4339585  12.6712487  20.8969544
  73.2414469  13.7059037  20.1424142  80.6386098  23.5061346  23.1478153
  81.3689487  23.2446635  23.7085857  80.0293044  22.7690068  23.1880221
  78.7201395  21.6469209  23.7452605  77.9934559  21.5125174  23.1369096
  78.3048682  21.9546038  24.5509323  66.5431572  25.3659139  31.5099978
  67.4634581  25.5437738  31.7040024  66.5081155  24.4215184  31.3579677
  55.7613737  20.5597732  20.4353252  55.4416521  19.7063041  20.1427626
  55.2147165  20.7746310  21.1911220  59.5393644  23.2760173  24.1522759
  59.7579654  24.2077281  24.1710793  59.9519418  22.9168148  24.9377563
  66.4597862  13.7828259  16.1398447  65.6498590  13.4375344  16.5153693
  67.1482279  13.4735802  16.7286059  68.3888410  12.8606305  17.7622744
  68.9419449  13.2801759  18.4212767  68.6258497  11.9342054  17.8045700
  64.4121510  18.8493379  33.5425508  64.3118236  19.7987736  33.4737599
  64.1943052  18.5211618  32.6701578  55.6301997  24.1800644  22.4046374
  54.9365468  23.7654597  21.8916328  56.3774988  24.2221180  21.8079793
  71.7667217  14.9706831  17.2701408  71.1865886  15.6291635  16.8879460
  71.5003150  14.1484175  16.8588826  70.2170784  14.3711888  19.4722728
  70.7170562  14.4828423  18.6637047  70.8606392  14.0672941  20.1123537
  64.2752780  22.2790518  32.3590569  63.7919861  23.0790878  32.5654458
  64.3613719  22.2898463  31.4058013  57.5438739  24.1118898  20.2812389
  57.5209427  24.2106585  19.3294272  57.8539376  24.9584048  20.6029555
  60.2026117  26.1695053  24.3959003  61.1569371  26.1378995  24.3288935
  60.0038641  25.7085676  25.2109229  60.7925499  24.7396169  26.9629801
  61.6118388  25.2340247  26.9864638  61.0662307  23.8228137  26.9347368
  70.5492095  17.1306921  16.3257756  69.6617950  17.4156572  16.1077951
  70.9646085  16.9700684  15.4785033  73.9006632  17.1553442  20.0412096
  74.6767022  17.6449894  20.3136712  73.1754766  17.5811496  20.4983965
  76.3379190  17.8681061  21.0986036  76.9323681  17.6276797  20.3879344
  76.4105774  17.1488192  21.7259572  58.5576346  31.7114672  21.4129201
  58.4230814  30.9515073  20.8467199  58.1408408  32.4355572  20.9457990
  69.6935309  26.8951596  10.4205776  70.3971159  27.1001598  11.0363432
  68.9697958  27.4628358  10.6854860  70.5233119  22.6461457  16.5408046
  70.4668321  23.1030008  15.7015679  71.0761462  21.8852141  16.3630889
  74.3337925  18.4351189  17.3658166  74.0774859  18.0347824  18.1966374
  73.7090793  19.1494983  17.2408305  78.6450263  21.1747262  19.8729457
  78.0849821  21.2440451  20.6461019  78.0393766  20.9988247  19.1528954
  61.7145472  32.6083989  21.6247644  61.5977856  33.5529422  21.5226334
  60.8937918  32.3057551  22.0133443  71.6022006  27.3334125  12.4704236
  72.4367610  26.9015323  12.2881711  71.4406349  27.1616139  13.3981131
  71.2567899  23.8366238  13.8360576  71.2016702  23.6710510  12.8949020
  70.6313954  24.5442271  13.9922765  56.0460414  19.0734303  27.6621998
  56.6919277  18.5633257  28.1509223  55.8377565  19.8102984  28.2365423
  68.5713806  26.1415150  33.1614138  69.4404965  26.3155802  32.8000773
  68.0920557  26.9609567  33.0389868  64.5664024  13.3374347  13.4145894
  64.5542694  14.2816187  13.5714165  65.4587446  13.1544493  13.1205355
  62.7399986  33.2612251  24.8403572  63.6427233  33.2935861  25.1570067
  62.5137356  32.3312702  24.8549908  64.4953588  32.0143238  21.5013651
  63.5449219  32.0145099  21.3878023  64.7986074  31.2675972  20.9849685
  68.3816143   9.9317124  17.6691831  67.6148539   9.3775610  17.8148513
  68.7926848  10.0038993  18.5305982  60.3857905  16.2201920  31.7597012
  61.2489366  15.8638724  31.9700337  59.8123315  15.8815814  32.4472416
  80.2306281  37.8503776  22.5659413  80.8684691  37.7310523  21.8622753
  80.1127124  38.7984620  22.6247365  77.0395988  37.8031204  22.5020938
  76.7014499  37.6872269  21.6141473  77.9085756  37.4022369  22.4821944
  72.8982803  39.6566680  18.4917829  72.3347669  39.5656617  17.7234117
  72.7835198  38.8366585  18.9720321  70.4447235  41.1517872  21.3302049
  71.2368527  40.8108697  20.9148349  70.6843886  41.2612847  22.2504203
  78.4782362  43.3237648  13.8032294  77.8270342  43.9091729  13.4166307
  79.2726725  43.8543843  13.8627331  72.4037989  40.4126785  14.2019428
  73.1768865  39.8655772  14.0632304  72.7563388  41.2771035  14.4133889
  75.1679239  39.1180016  23.9987687  75.7642811  38.8936039  23.2844650
  75.2254210  38.3764762  24.6013135  74.7404267  36.5719451  11.8337878
  74.9929788  36.0500973  11.0721341  73.8028826  36.4085597  11.9364562
  79.7847550  35.5755230  19.6412621  80.5710639  35.1574653  19.2903038
  80.0486254  36.4801322  19.8094270  79.9557627  41.0128080  14.3401278
  79.3203460  41.0862707  15.0522183  79.6255034  41.6021679  13.6620357
  85.1855977  35.5130463  20.5445600  85.9181149  34.9429680  20.7783429
  84.4295333  35.1252063  20.9852105  74.4600556  38.4747557  14.0362253
  74.3436814  37.7992461  14.7043337  74.5702816  37.9879931  13.2194406
  76.8032097  37.9357704  17.7408942  76.4390304  37.4088325  18.4521864
  77.6599213  37.5456174  17.5675428  82.7081397  29.2252037  25.0040208
  82.3764722  30.0947448  24.7801423  82.1127011  28.9088321  25.6834239
  79.2012917  41.4264583  24.4036121  78.9013640  42.3289622  24.2951928
  78.8563976  41.1596766  25.2557274  72.6525398  37.8778380  20.4372825
  71.7275895  37.7454594  20.6450517  72.9009812  38.6572599  20.9342768
  82.6010061  33.9447123  22.0833558  81.6926938  33.8762532  21.7892319
  82.5497657  34.4219068  22.9115384  76.4226805  35.4205262  13.7216957
  76.3026430  35.8662312  14.5602438  75.7279393  35.7690579  13.1630496
  70.0134209  37.5211653  21.2716615  70.1426591  37.7746132  22.1856026
  69.3331661  38.1139361  20.9521270  74.1833697  48.1908903  17.3707089
  74.1057726  49.1416729  17.4495569  73.5795340  47.8454776  18.0282015
  84.4671707  32.1463562  23.8611432  83.8246087  32.4396095  23.2151227
  83.9626636  32.0316482  24.6664629  74.9297299  38.1722222  29.5886423
  75.6711983  38.7107266  29.3121246  74.2234284  38.7988511  29.7457974
  76.7583708  35.2523969  25.5592141  77.6044904  35.6763383  25.7026790
  76.6982346  34.5957594  26.2530704  80.7281453  40.8752553  21.9410873
  80.0990316  41.0398267  21.2386941  80.3407115  41.2894163  22.7121837
  84.6070685  41.8106991  19.2955237  83.9221723  42.1905893  18.7452270
  84.6914534  42.4202318  20.0287184  79.9083154  32.9128338  27.2173315
  79.6644086  33.6670398  26.6807590  80.1843084  33.2913685  28.0520562
  81.8621617  39.4566950  25.8950580  82.0738512  40.0998710  25.2184961
  81.8151365  38.6229267  25.4272510  79.4647846  32.0684771  22.7987152
  78.6032325  32.3666024  23.0903890  79.4910280  32.2855170  21.8668185
  76.2809415  40.6126961  19.2060958  76.7447761  40.8914664  18.4165581
  76.0166213  39.7110406  19.0234049  73.1733496  40.1598443  22.1440721
  73.7434853  40.5885711  21.5058206  73.7641608  39.8781028  22.8424907
  75.2178301  36.7350114  16.0150523  75.9202344  37.1871157  16.4824450
  74.8858930  36.0933933  16.6430416  73.6658663  35.3261870  30.3901733
  73.0357323  36.0078151  30.6237129  73.5594750  35.2144952  29.4454871
  68.9603635  34.9933666  21.3167657  68.1702689  35.2491195  20.8407767
  69.4514882  35.8082004  21.4219697  82.9767445  42.3338906  24.0672938
  83.7984888  41.9319093  23.7855619  82.9729847  42.2307140  25.0189053
  70.9118380  35.3578246  18.2751133  70.1149544  35.4696940  18.7934629
  70.6843973  35.6964898  17.4092024  67.2441338  35.2464157  23.7482648
  67.4949376  36.1311167  24.0140224  67.7800886  35.0668758  22.9757739
  91.0673438  38.6777654  20.4157909  90.3137146  38.1085052  20.2601913
  91.2020979  38.6440319  21.3628544  76.4572066  43.5491056  16.0912628
  76.3217740  44.3942592  16.5197476  76.9981878  43.7510334  15.3278562
  72.9439405  29.6282636  32.7526984  72.5506351  29.0748835  33.4274628
  73.7605546  29.9393215  33.1433501  69.9101463  41.0666494  16.6640554
  70.4225984  41.8609745  16.8146118  70.5624176  40.3692785  16.5974155
  71.7196348  44.1832251  18.7463307  71.8962976  45.1050215  18.5584291
  72.5153181  43.8690670  19.1757686  71.0048704  36.2296883  28.6225470
  70.8902219  35.3282140  28.9232569  70.1493222  36.4760579  28.2710286
  79.8064529  27.0721618  24.6211522  79.4628799  27.9623260  24.5450632
  80.1743492  26.8823276  23.7581107  67.8750380  39.3955149  17.4400124
  68.7125602  39.8052157  17.2233832  68.0528648  38.4554591  17.4100318
  79.7714812  37.0630229  13.1283957  79.2561435  37.8334834  13.3672344
  79.4992120  36.3895366  13.7517018  77.3561923  31.9079930  18.1869195
  76.5003519  31.5186781  18.0074834  77.7688875  31.9871891  17.3268981
  78.8861070  29.4426273  22.5860755  78.3825865  29.4056409  21.7728560
  79.1791676  30.3519016  22.6457412  75.1303955  29.5265003  21.5926937
  75.9956952  29.3307812  21.2332826  75.1981464  29.2975355  22.5196294
  84.7449086  39.8162584  15.0637130  83.9678529  39.4773744  14.6192293
  85.4240567  39.8215207  14.3892096  79.5601115  34.9357321  14.9543738
  79.2551251  35.2503471  15.8053881  80.5131557  35.0138741  14.9971071
  78.0047547  41.0947545  16.6036692  77.4768909  40.3600304  16.2909930
  77.5035050  41.8722221  16.3576660  82.9840393  39.2896565  21.7203738
  82.3264067  39.9795827  21.8083867  83.7880792  39.6792997  22.0637725
  72.7366275  31.7567211  18.9643304  73.3110026  31.5342393  18.2316497
  73.3237257  31.8255906  19.7171905  81.7945852  37.6440938  19.7707680
  82.3077734  38.2770930  20.2729390  82.4447076  37.0442133  19.4051040
  73.0635862  33.7871672  12.9839189  72.2273174  34.1246359  13.3048464
  72.9240631  33.6520652  12.0466326  76.1500147  38.9127755   9.6071665
  75.2427209  38.6817009   9.8062814  76.6471179  38.1165374   9.7945647
  79.0568226  47.6225262  12.5268351  78.3829925  47.9256959  13.1353309
  79.4434048  48.4254343  12.1773808  78.2726683  35.1190394  22.0166021
  77.3549244  35.3405341  21.8587709  78.6886826  35.1936704  21.1577728
  77.3288381  39.0140350  14.1295655  76.4199600  38.7299383  14.2268125
  77.3583464  39.4339428  13.2698962  82.5607648  42.6246939  17.8986823
  82.1069975  41.7837849  17.9552013  81.9301615  43.2608338  18.2361603
  81.5040568  33.5538925  19.1287490  80.7663324  33.0416312  19.4597733
  81.7567341  33.1139307  18.3170767  81.0040587  44.4623436  18.8336641
  81.2963562  45.0228493  18.1149007  81.5139208  44.7551997  19.5889800
  81.6052195  26.3315177  19.7229260  81.9111072  25.4712541  19.4355175
  82.3304800  26.9232798  19.5228253  67.8976551  36.7345864  18.1110857
  67.7000951  36.1415225  17.3861924  67.3423215  36.4298074  18.8286796
  75.8773275  36.6268971  20.2305451  75.9321884  35.6742807  20.1547927
  75.0664477  36.7828410  20.7146749  77.0264468  40.5549094  11.4683734
  76.5883898  39.8384953  11.0089371  77.7674909  40.7825208  10.9068825
  73.8165635  35.2446030  17.9895830  73.0033500  35.5440201  18.3961022
  74.3124629  34.8501719  18.7070312  75.9674212  45.2403787  19.9230094
  75.9250391  45.4664634  18.9938626  76.8836911  45.0067162  20.0715895
  79.4139846  35.7087855  26.8210723  79.7689234  35.9359328  27.6805189
  80.0611977  36.0406232  26.1987979  85.1437583  38.8306291  17.5260052
  85.0055482  39.0207887  16.5981242  84.7873802  39.5925673  17.9828104
  73.3079709  32.8164386  23.6057064  73.9479089  32.6753145  22.9080028
  72.4757240  32.5298899  23.2295666  85.1706963  40.8982818  22.5371324
  85.6043469  40.8058107  23.3854378  85.8838543  40.8740318  21.8991340
  74.0840013  42.1166816  19.7192057  74.8780612  41.6217136  19.5174632
  73.3731706  41.5884679  19.3559762  70.3922777  36.2609898  15.7951810
  69.4620365  36.1994353  16.0121772  70.4880249  35.7385851  14.9988451
  70.3108326  32.7864711  18.3830051  70.5715143  33.7010044  18.2739212
  71.1325498  32.3189153  18.5326664  71.7833251  34.2002468  25.5528876
  72.4556304  33.9919830  24.9041525  70.9563038  34.0024554  25.1134108
  86.0322512  40.9406518  25.0704209  86.2258402  41.8452329  25.3163484
  85.9323130  40.4813937  25.9042794  77.8622957  38.6645174  25.6291356
  78.7915017  38.8156333  25.4560324  77.4413987  38.7529195  24.7740003
  76.6611289  42.6895838  23.3989894  76.5222375  42.3214623  24.2715832
  75.8725885  43.2043478  23.2273852  77.2559441  47.7904935  14.7415431
  77.4311197  47.3192978  15.5561053  76.5692229  48.4170701  14.9696691
  78.2116504  42.0677441  20.7878732  77.8766337  42.0278211  21.6836382
  77.7120450  41.4022157  20.3149142  72.1860748  37.4745071  26.3131313
  72.0480546  36.7425310  26.9142852  73.0965672  37.3853971  26.0315501
  81.1475696  39.4133475  11.0615791  80.5304867  38.6880303  10.9648844
  80.6792184  40.1742836  10.7182866  74.8143049  37.1865030  25.8014993
  75.5242667  36.5458222  25.7601611  74.7712357  37.4377925  26.7241173
  82.8029828  44.1232384  28.7221572  82.7442374  43.4391604  28.0552155
  83.2049346  44.8651374  28.2702198  73.5271983  34.1730248  27.6210632
  72.9909340  33.7220987  28.2732228  72.9388691  34.3076157  26.8781096
  72.9374242  33.6318900  10.1837096  72.0603708  33.5107700   9.8199342
  73.4131995  32.8404978   9.9315984  82.8047235  42.0871968  26.9535551
  81.9174014  41.7497889  27.0761950  83.3745786  41.3554999  27.1904317
  64.4576382  38.4196059  20.2778603  65.1447422  38.1057789  19.6899618
  64.3024511  39.3237424  20.0045854  69.2611104  33.3086256  24.7063627
  69.1769293  32.7011925  23.9714037  68.4393811  33.7995274  24.7073123
  76.1238168  45.9845190  17.4299616  75.3405690  46.5266870  17.5237841
  76.8230913  46.5019170  17.8293857  79.4334818  31.7939819  20.0733822
  79.9303518  31.0409782  19.7534892  78.6621800  31.8304136  19.5077031
  87.2864575  37.4980185  21.7152113  87.2754452  38.3804900  21.3446046
  86.4181955  37.1451736  21.5206650  80.5164599  40.5511507  17.6472245
  79.5820877  40.6712969  17.4776949  80.6941267  39.6483973  17.3832255
  81.9713381  42.7372647  15.1808431  82.2473225  42.6229242  16.0902305
  81.1017880  42.3390132  15.1420604  81.8753813  28.7609413  22.2213180
  80.9616893  28.9913640  22.3895387  82.3046914  28.8447857  23.0727213
  81.6460271  36.9499305  24.7213075  80.9931722  37.1975212  24.0665527
  82.0240651  36.1363443  24.3875552  78.6067445  46.9858998  18.8241245
  78.7889840  46.1680654  19.2868997  79.4300431  47.2026690  18.3866135
  78.9409611  45.9127183  16.0856293  79.4697377  45.4019638  15.4726455
  79.2037830  45.5969713  16.9501826  69.4426703  43.9291052  23.8291627
  70.0280140  43.1834740  23.9619531  69.2451542  44.2395009  24.7128291
  72.2965359  46.9642300  18.8454069  71.6275734  47.4488427  18.3618109
  72.1578228  47.2111520  19.7597448  64.0344358  36.4996653  22.5496070
  64.0728458  35.9660243  23.3433188  63.5284651  35.9731858  21.9307047
  71.4135120  31.3461193  26.0458612  71.4776447  32.2076024  25.6336010
  71.3502241  30.7335195  25.3130971  70.8887393  33.4184326  29.6931647
  71.5159432  33.0361403  30.3069171  70.0315312  33.1998528  30.0587339
  67.6652936  35.2260755  15.6250001  67.9606377  34.3171433  15.5717055
  66.7640972  35.2048494  15.3031004  79.5739015  46.9468019  22.4300410
  79.4490154  46.1457759  21.9211355  80.2318106  47.4414212  21.9414380
  71.1947183  33.3016751  21.6077550  70.4733768  33.9152719  21.4685023
  71.9840439  33.8374516  21.5294196  81.6373923  44.7477039  24.0579960
  80.6904258  44.6282390  23.9858287  81.9856696  43.8599537  24.1406221
  73.9973496  30.6371178  27.8818202  74.5207898  30.8833474  28.6444511
  73.7785830  31.4691213  27.4621339  69.3940777  32.9074852  15.7489327
  69.0653483  32.0272231  15.5664432  69.7480148  32.8522521  16.6365716
  78.6420356  44.5429755  20.2584312  78.4945319  43.6146463  20.4391882
  79.4673850  44.5649846  19.7741387  82.2454478  45.3658314  21.3449185
  83.1701026  45.1601175  21.2073636  82.0769781  45.1174715  22.2538526
  75.2026041  31.5784873  25.5667872  74.8622862  30.7792686  25.9688552
  74.4965048  31.8786584  24.9944705  75.8542513  28.6634185  24.0195195
  76.6768582  28.1894664  23.8974086  76.0980577  29.4424669  24.5193882
  74.4950748  31.6922444  14.3158097  75.2159110  32.0703697  13.8121814
  73.8716052  32.4111321  14.4193075  73.3781092  35.3553306  21.8287174
  73.2325673  35.6693609  22.7211455  72.9006296  35.9738206  21.2758073
  75.2377475  32.3455854  21.8768063  75.2239044  31.4496947  21.5400361
  75.9549903  32.3526518  22.5106350  77.0903605  32.7793194  23.9221191
  76.8321383  33.7010265  23.9205521  76.5588646  32.3823629  24.6121655
  82.0349794  45.8843981  16.7011276  82.2086672  45.3190404  15.9485129
  82.5278685  46.6844876  16.5190766  67.8526754  37.8958650  24.7674835
  67.3080222  38.6718458  24.8995109  68.7306104  38.2429455  24.6093957
  74.6414371  31.2270234  17.1455634  74.7630282  30.2986880  17.3446521
  74.3516413  31.2408920  16.2333949  77.5105561  28.9125145  20.2822353
  77.5327258  28.9764478  19.3274333  77.9273620  28.0729653  20.4762860
  87.8889185  38.6480404  18.3201576  88.3320331  37.8987729  17.9220699
  87.0115696  38.6390541  17.9375308  83.0224967  45.2010746  13.8008175
  83.7175871  45.8217438  14.0195489  83.3648117  44.3506097  14.0760552
  68.6392776  37.0228547  27.6604992  67.8974512  37.1711182  28.2469622
  68.3185520  37.2836812  26.7971741  84.9216390  42.6510451  15.3295505
  85.4467714  42.9897724  14.6044825  84.8338742  41.7157467  15.1458640
  76.6057051  48.7182435  19.6890759  76.1662041  48.2258813  20.3823615
  77.3565168  48.1755402  19.4482834  69.0849390  44.9093975  19.6915387
  69.9107409  44.6097747  19.3114030  68.7343442  44.1401598  20.1405175
  74.0530923  44.2620444  21.7613060  73.4310932  43.5991149  21.4615288
  74.7235790  44.2881576  21.0786708  67.2857995  42.8280302  20.6504320
  66.4489903  42.4002476  20.4688321  67.2581640  43.0212745  21.5875111
  84.7308171  40.1335821  27.9479432  84.7806176  39.9685829  28.8894955
  84.6222094  39.2663080  27.5577313  73.6144430  42.8124367  15.2371521
  73.7632550  43.4959831  14.5838193  74.4210873  42.7929457  15.7520976
  87.4322050  40.1185643  20.7124024  88.2668941  40.5575447  20.8761584
  87.5681179  39.6424296  19.8932269  84.4813556  37.6765377  26.6601511
  84.9567678  37.8693024  25.8520363  83.5579121  37.7324563  26.4144895
  71.3697063  38.8389545  16.2432590  71.1243105  37.9351875  16.4412800
  71.5392977  38.8406695  15.3012068  79.0593773  29.7113221  25.6257345
  79.5775716  30.4474248  25.3003834  78.7048905  30.0177214  26.4604104
  70.6392710  34.5717902  13.7418751  69.9461955  34.6462257  13.0858787
  70.3944462  33.8078246  14.2640268  79.3106367  26.1313504  21.1458242
  79.5908120  25.4636693  21.7718668  80.0956974  26.3242599  20.6332906
  77.1139835  45.3072497  12.7083268  76.5413802  45.9262685  12.2553740
  77.6872629  45.8571859  13.2423190  83.1815225  34.5531138  24.8929817
  84.1332648  34.6529235  24.9142041  83.0118675  33.7609406  25.4027901
  81.2029605  31.6386721  25.0789218  80.6079537  31.9191733  24.3835706
  80.9179301  32.1280622  25.8505959  80.3337095  45.5909648  13.8391850
  81.2667768  45.5255209  14.0424726  80.2460308  46.4265914  13.3806383
  82.9625112  44.9075518  10.7995798  82.8838743  44.5735382  11.6931556
  83.7834778  45.3997286  10.7987270  85.6603303  37.7737257  24.0072117
  85.6279623  36.8353258  24.1931800  86.2703926  37.8521294  23.2737941
  77.4986634  36.6433310  10.0499321  78.4445738  36.5139518  10.1187739
  77.1200879  35.9047972  10.5268749  85.8097791  34.5648301  24.0530400
  85.2936840  33.7806757  23.8660329  86.6937740  34.2367017  24.2176919
  83.4708518  28.3089316  20.0126212  83.2733339  28.0004404  20.8969544
  84.0808224  29.0350955  20.1424142  91.4779853  38.8353264  23.1478153
  92.2083241  38.5738552  23.7085857  90.8686798  38.0981986  23.1880221
  89.5595150  36.9761127  23.7452605  88.8328313  36.8417092  23.1369096
  89.1442437  37.2837955  24.5509323  75.6829551  34.5683287   9.9854206
  74.7761006  34.2716399  10.0616919  75.9605532  34.2713105   9.1188492
  66.6007491  35.8889650  20.4353252  66.2810276  35.0354958  20.1427626
  66.0540919  36.1038228  21.1911220  70.3787399  38.6052091  24.1522759
  70.5973409  39.5369199  24.1710793  70.7913173  38.2460065  24.9377563
  77.2991617  29.1120176  16.1398447  76.4892345  28.7667261  16.5153693
  77.9876033  28.8027720  16.7286059  79.2282165  28.1898223  17.7622744
  79.7813203  28.6093677  18.4212767  79.4652251  27.2633971  17.8045700
  74.4528335  31.4270222  10.1266185  75.3147499  31.7525120  10.3862002
  74.6378680  30.6401718   9.6139251  66.4695751  39.5092561  22.4046374
  65.7759223  39.0946514  21.8916328  67.2168742  39.5513098  21.8079793
  82.6060972  30.2998748  17.2701408  82.0259641  30.9583552  16.8879460
  82.3396905  29.4776093  16.8588826  81.0564538  29.7003806  19.4722728
  81.5564317  29.8120340  18.6637047  81.7000146  29.3964859  20.1123537
  68.3832494  39.4410815  20.2812389  68.3603182  39.5398503  19.3294272
  68.6933130  40.2875966  20.6029555  81.3885850  32.4598839  16.3257756
  80.5011705  32.7448489  16.1077951  81.8039839  32.2992602  15.4785033
  84.7400386  32.4845360  20.0412096  85.5160776  32.9741812  20.3136712
  84.0148520  32.9103414  20.4983965  87.1772945  33.1972979  21.0986036
  87.7717436  32.9568715  20.3879344  87.2499528  32.4780109  21.7259572
  69.3970100  47.0406590  21.4129201  69.2624568  46.2806991  20.8467199
  68.9802163  47.7647490  20.9457990  80.5329063  42.2243513  10.4205776
  81.2364914  42.4293516  11.0363432  79.8091712  42.7920275  10.6854860
  81.3626874  37.9753375  16.5408046  81.3062075  38.4321926  15.7015679
  81.9155216  37.2144059  16.3630889  89.4844017  36.5039180  19.8729457
  88.9243575  36.5732369  20.6461019  88.8787521  36.3280164  19.1528954
  82.4415761  42.6626043  12.4704236  83.2761365  42.2307241  12.2881711
  82.2800104  42.4908056  13.3981131  82.0961653  39.1658156  13.8360576
  82.0410457  39.0002427  12.8949020  81.4707708  39.8734189  13.9922765
  66.8854168  34.4026220  27.6621998  67.5313032  33.8925174  28.1509223
  66.6771319  35.1394902  28.2365423  75.4057778  28.6666265  13.4145894
  75.3936448  29.6108105  13.5714165  76.2981200  28.4836410  13.1205355
  75.3347342  47.3435155  21.5013651  74.3842973  47.3437017  21.3878023
  75.6379829  46.5967890  20.9849685  71.2251659  31.5493837  31.7597012
  72.0883121  31.1930642  31.9700337  70.6517070  31.2107732  32.4472416
  91.0700036  53.1795694  22.5659413  91.7078446  53.0602441  21.8622753
  90.9520879  54.1276538  22.6247365  87.8789742  53.1323122  22.5020938
  87.5408254  53.0164186  21.6141473  88.7479510  52.7314287  22.4821944
  83.7376558  54.9858598  18.4917829  83.1741423  54.8948535  17.7234117
  83.6228953  54.1658503  18.9720321  88.3609525  54.2857973  28.4607143
  88.3498166  53.8910772  27.5887647  88.5230165  53.5524046  29.0540915
  81.2840990  56.4809790  21.3302049  82.0762282  56.1400614  20.9148349
  81.5237640  56.5904765  22.2504203  89.3176117  58.6529566  13.8032294
  88.6664096  59.2383646  13.4166307  90.1120479  59.1835761  13.8627331
  83.2431744  55.7418703  14.2019428  84.0162620  55.1947690  14.0632304
  83.5957143  56.6062952  14.4133889  85.0816786  57.0695085  27.4086327
  84.7906652  57.9740716  27.2932994  85.7173771  57.1111613  28.1230397
  86.0072993  54.4471934  23.9987687  86.6036565  54.2227956  23.2844650
  86.0647965  53.7056679  24.6013135  85.5798022  51.9011369  11.8337878
  85.8323542  51.3792890  11.0721341  84.6422581  51.7377515  11.9364562
  90.6241304  50.9047147  19.6412621  91.4104394  50.4866571  19.2903038
  90.8880009  51.8093240  19.8094270  90.7951382  56.3419998  14.3401278
  90.1597215  56.4154624  15.0522183  90.4648788  56.9313597  13.6620357
  96.0249732  50.8422381  20.5445600  96.7574903  50.2721597  20.7783429
  95.2689087  50.4543981  20.9852105  85.2994310  53.8039475  14.0362253
  85.1830568  53.1284378  14.7043337  85.4096570  53.3171849  13.2194406
  87.6425851  53.2649622  17.7408942  87.2784058  52.7380243  18.4521864
  88.4992967  52.8748091  17.5675428  93.5475152  44.5543955  25.0040208
  93.2158477  45.4239366  24.7801423  92.9520765  44.2380239  25.6834239
  87.2831338  48.2939522  12.7370291  87.4505741  49.1619758  13.1040762
  87.0928507  48.4566804  11.8131580  90.0406671  56.7556501  24.4036121
  89.7407395  57.6581540  24.2951928  89.6957731  56.4888684  25.2557274
  83.4919153  53.2070298  20.4372825  82.5669649  53.0746512  20.6450517
  83.7403566  53.9864517  20.9342768  93.4403815  49.2739041  22.0833558
  92.5320693  49.2054449  21.7892319  93.3891411  49.7510986  22.9115384
  87.2620559  50.7497179  13.7216957  87.1420184  51.1954230  14.5602438
  86.5673147  51.0982497  13.1630496  80.8527964  52.8503571  21.2716615
  80.9820345  53.1038050  22.1856026  80.1725415  53.4431279  20.9521270
  85.0227451  63.5200821  17.3707089  84.9451481  64.4708646  17.4495569
  84.4189095  63.1746694  18.0282015  87.5144681  50.6928687  30.0268456
  86.7378015  51.2522607  30.0171320  88.1535244  51.1785470  30.5483326
  95.3065462  47.4755479  23.8611432  94.6639842  47.7688013  23.2151227
  94.8020390  47.3608400  24.6664629  92.9605625  51.2218653  14.5497292
  93.8723481  51.4546039  14.3744989  92.4515272  51.8055697  13.9872370
  85.7691053  53.5014140  29.5886423  86.5105738  54.0399184  29.3121246
  85.0628039  54.1280429  29.7457974  91.2446393  55.6443280  28.1858584
  91.6529749  55.2025691  27.4413216  90.5223654  55.0695908  28.4392777
  87.5977463  50.5815887  25.5592141  88.4438658  51.0055301  25.7026790
  87.5376101  49.9249511  26.2530704  91.5675208  56.2044471  21.9410873
  90.9384070  56.3690185  21.2386941  91.1800870  56.6186081  22.7121837
  95.4464439  57.1398909  19.2955237  94.7615478  57.5197810  18.7452270
  95.5308289  57.7494236  20.0287184  90.7476908  48.2420256  27.2173315
  90.5037840  48.9962316  26.6807590  91.0236839  48.6205603  28.0520562
  92.7015371  54.7858868  25.8950580  92.9132266  55.4290628  25.2184961
  92.6545119  53.9521184  25.4272510  90.3041600  47.3976689  22.7987152
  89.4426079  47.6957942  23.0903890  90.3304035  47.6147087  21.8668185
  87.1203169  55.9418879  19.2060958  87.5841515  56.2206582  18.4165581
  86.8559968  55.0402324  19.0234049  84.0127251  55.4890361  22.1440721
  84.5828608  55.9177629  21.5058206  84.6035362  55.2072945  22.8424907
  86.0572056  52.0642031  16.0150523  86.7596099  52.5163075  16.4824450
  85.7252684  51.4225850  16.6430416  84.5052417  50.6553788  30.3901733
  83.8751078  51.3370069  30.6237129  84.3988505  50.5436870  29.4454871
  79.7997389  50.3225584  21.3167657  79.0096443  50.5783113  20.8407767
  80.2908637  51.1373922  21.4219697  93.8161199  57.6630823  24.0672938
  94.6378643  57.2611011  23.7855619  93.8123602  57.5599057  25.0189053
  81.7512135  50.6870163  18.2751133  80.9543298  50.7988858  18.7934629
  81.5237727  51.0256816  17.4092024  87.5817802  57.2114867  26.2233648
  87.6462235  57.6735274  27.0591820  86.8728726  56.5812232  26.3515958
 101.9067192  54.0069572  20.4157909 101.1530900  53.4376970  20.2601913
 102.0414733  53.9732236  21.3628544  87.2965820  58.8782974  16.0912628
  87.1611495  59.7234510  16.5197476  87.8375633  59.0802252  15.3278562
  83.7833160  44.9574554  32.7526984  83.3900105  44.4040752  33.4274628
  84.5999300  45.2685132  33.1433501  80.7495218  56.3958412  16.6640554
  81.2619738  57.1901662  16.8146118  81.4017930  55.6984703  16.5974155
  82.5590102  59.5124168  18.7463307  82.7356731  60.4342133  18.5584291
  83.3546936  59.1982588  19.1757686  88.9234297  59.5006541  30.2212971
  88.4798151  58.7142919  29.9033875  89.5851510  59.6885691  29.5556861
  83.6821418  61.0302342  24.7473649  84.2328843  60.9019406  23.9750643
  82.8432894  61.3297231  24.3968542  91.0215535  59.7809341  28.2494372
  91.0034010  60.6018222  27.7574641  91.9435455  59.6563416  28.4744513
  87.4788589  57.2953470  29.0917880  88.0116926  56.5341758  28.8617188
  86.9502670  57.0027122  29.8342035  90.6458284  42.4013536  24.6211522
  90.3022553  43.2915178  24.5450632  91.0137246  42.2115194  23.7581107
  78.7144134  54.7247066  17.4400124  79.5519356  55.1344075  17.2233832
  78.8922402  53.7846509  17.4100318  90.6108566  52.3922147  13.1283957
  90.0955190  53.1626752  13.3672344  90.3385875  51.7187283  13.7517018
  88.1955677  47.2371848  18.1869195  87.3397274  46.8478698  18.0074834
  88.6082629  47.3163809  17.3268981  89.7254824  44.7718191  22.5860755
  89.2219620  44.7348326  21.7728560  90.0185431  45.6810934  22.6457412
  85.9697710  44.8556921  21.5926937  86.8350707  44.6599730  21.2332826
  86.0375219  44.6267273  22.5196294  95.5842841  55.1454502  15.0637130
  94.8072283  54.8065661  14.6192293  96.2634322  55.1507125  14.3892096
  90.3994870  50.2649239  14.9543738  90.0945005  50.5795388  15.8053881
  91.3525312  50.3430659  14.9971071  88.8441301  56.4239462  16.6036692
  88.3162663  55.6892222  16.2909930  88.3428804  57.2014139  16.3576660
  93.8234147  54.6188483  21.7203738  93.1657822  55.3087744  21.8083867
  94.6274547  55.0084915  22.0637725  83.5760029  47.0859129  18.9643304
  84.1503781  46.8634310  18.2316497  84.1631011  47.1547823  19.7171905
  92.6339606  52.9732856  19.7707680  93.1471488  53.6062847  20.2729390
  93.2840830  52.3734051  19.4051040  83.9029616  49.1163590  12.9839189
  83.0666928  49.4538276  13.3048464  83.7634386  48.9812570  12.0466326
  85.8782697  43.9600378  17.6918373  85.2247109  43.6449395  17.0674988
  85.8363171  43.3376118  18.4178196  86.9893902  54.2419673   9.6071665
  86.0820963  54.0108926   9.8062814  87.4864934  53.4457292   9.7945647
  89.8961981  62.9517180  12.5268351  89.2223679  63.2548877  13.1353309
  90.2827802  63.7546260  12.1773808  89.1120437  50.4482311  22.0166021
  88.1942998  50.6697258  21.8587709  89.5280581  50.5228622  21.1577728
  89.8955485  51.8473727  17.1468701  90.6427304  52.3595124  16.8375823
  90.1647074  51.5257780  18.0073095  88.1682135  54.3432268  14.1295655
  87.2593354  54.0591300  14.2268125  88.1977219  54.7631346  13.2698962
  93.4001402  57.9538857  17.8986823  92.9463730  57.1129767  17.9552013
  92.7695369  58.5900255  18.2361603  92.3434322  48.8830843  19.1287490
  91.6057079  48.3708229  19.4597733  92.5961096  48.4431225  18.3170767
  91.8434342  59.7915354  18.8336641  92.1357316  60.3520411  18.1149007
  92.3532962  60.0843915  19.5889800  92.4445949  41.6607095  19.7229260
  92.7504826  40.8004459  19.4355175  93.1698554  42.2524715  19.5228253
  78.7370305  52.0637782  18.1110857  78.5394705  51.4707142  17.3861924
  78.1816969  51.7589992  18.8286796  86.7167029  51.9560888  20.2305451
  86.7715639  51.0034725  20.1547927  85.9058231  52.1120327  20.7146749
  87.8658223  55.8841011  11.4683734  87.4277653  55.1676870  11.0089371
  88.6068664  56.1117126  10.9068825  84.6559389  50.5737948  17.9895830
  83.8427255  50.8732119  18.3961022  85.1518383  50.1793637  18.7070312
  86.8067967  60.5695705  19.9230094  86.7644146  60.7956551  18.9938626
  87.7230666  60.3359079  20.0715895  90.2533601  51.0379772  26.8210723
  90.6082988  51.2651246  27.6805189  90.9005732  51.3698149  26.1987979
  95.9831338  54.1598208  17.5260052  95.8449236  54.3499804  16.5981242
  95.6267556  54.9217591  17.9828104  84.1473464  48.1456303  23.6057064
  84.7872843  48.0045063  22.9080028  83.3150994  47.8590817  23.2295666
  96.0100717  56.2274735  22.5371324  96.4437224  56.1350024  23.3854378
  96.7232298  56.2032236  21.8991340  84.9233768  57.4458734  19.7192057
  85.7174366  56.9509054  19.5174632  84.2125460  56.9176597  19.3559762
  89.7428612  59.8276829  24.0704425  89.7965634  60.3967766  24.8382140
  88.8743394  59.9978714  23.7058462  81.2316531  51.5901816  15.7951810
  80.3014119  51.5286271  16.0121772  81.3274003  51.0677768  14.9988451
  81.1502080  48.1156628  18.3830051  81.4108898  49.0301962  18.2739212
  81.9719253  47.6481071  18.5326664  82.6227006  49.5294386  25.5528876
  83.2950059  49.3211748  24.9041525  81.7956792  49.3316472  25.1134108
  96.8716267  56.2698436  25.0704209  97.0652157  57.1744246  25.3163484
  96.7716885  55.8105855  25.9042794  88.5252578  46.1556327  27.5694537
  87.8780493  46.8546276  27.4759013  89.2953593  46.5892470  27.9370785
  91.9331375  56.4205179  30.6445090  91.7816882  56.1915730  29.7275174
  91.9236055  57.3775780  30.6576435  88.7016712  53.9937091  25.6291356
  89.6308772  54.1448251  25.4560324  88.2807742  54.0821112  24.7740003
  87.5005044  58.0187756  23.3989894  87.3616129  57.6506540  24.2715832
  86.7119640  58.5335395  23.2273852  88.0953196  63.1196852  14.7415431
  88.2704951  62.6484896  15.5561053  87.4085984  63.7462619  14.9696691
  89.0510259  57.3969359  20.7878732  88.7160091  57.3570129  21.6836382
  88.5514205  56.7314075  20.3149142  83.0254503  52.8036989  26.3131313
  82.8874301  52.0717227  26.9142852  83.9359426  52.7145889  26.0315501
  91.9869450  54.7425393  11.0615791  91.3698621  54.0172221  10.9648844
  91.5185939  55.5034753  10.7182866  85.6536803  52.5156948  25.8014993
  86.3636422  51.8750140  25.7601611  85.6106112  52.7669843  26.7241173
  93.6423582  59.4524301  28.7221572  93.5836128  58.7683521  28.0552155
  94.0443101  60.1943291  28.2702198  84.3665737  49.5022166  27.6210632
  83.8303094  49.0512904  28.2732228  83.7782446  49.6368075  26.8781096
  82.6614281  66.2686215  21.5155291  82.9010879  66.9004739  22.1934309
  81.8183477  65.9174255  21.8020650  83.7767996  48.9610817  10.1837096
  82.8997463  48.8399618   9.8199342  84.2525749  48.1696896   9.9315984
  93.6440989  57.4163885  26.9535551  92.7567768  57.0789807  27.0761950
  94.2139540  56.6846916  27.1904317  75.2970137  53.7487977  20.2778603
  75.9841176  53.4349707  19.6899618  75.1418265  54.6529342  20.0045854
  87.1742143  62.0765338  23.9196795  87.1012314  62.8820309  24.4316099
  86.7319536  62.2757303  23.0944816  86.9631922  61.3137108  17.4299616
  86.1799444  61.8558788  17.5237841  87.6624668  61.8311087  17.8293857
  90.2728573  47.1231737  20.0733822  90.7697272  46.3701699  19.7534892
  89.5015554  47.1596054  19.5077031  98.1258330  52.8272103  21.7152113
  98.1148206  53.7096818  21.3446046  97.2575709  52.4743653  21.5206650
  89.6340826  61.9752172  26.0754953  90.3468799  62.6099636  26.0030855
  89.1430855  62.0716038  25.2594955  91.3558353  55.8803424  17.6472245
  90.4214632  56.0004887  17.4776949  91.5335022  54.9775891  17.3832255
  86.8563541  49.2649120  19.8005506  86.4861329  48.7120160  20.4886412
  87.3522634  48.6607254  19.2480506  94.7430905  51.7220744  18.1822279
  95.2091357  52.5548735  18.1082582  95.1938405  51.2565725  18.8867538
  84.6852740  59.7246615  26.8960524  85.3862199  60.3583098  27.0489918
  84.2147855  60.0661347  26.1356163  92.8107136  58.0664565  15.1808431
  93.0866980  57.9521159  16.0902305  91.9411634  57.6682050  15.1420604
  92.7147567  44.0901331  22.2213180  91.8010647  44.3205557  22.3895387
  93.1440669  44.1739775  23.0727213  92.4854026  52.2791223  24.7213075
  91.8325476  52.5267130  24.0665527  92.8634406  51.4655361  24.3875552
  89.4461200  62.3150916  18.8241245  89.6283594  61.4972572  19.2868997
  90.2694186  62.5318608  18.3866135  89.7803365  61.2419101  16.0856293
  90.3091132  60.7311555  15.4726455  90.0431585  60.9261631  16.9501826
  88.5341599  53.0211034  31.2079112  87.8582236  52.9205163  31.8781487
  89.3569233  52.8650247  31.6715109  80.2820458  59.2582970  23.8291627
  80.8673895  58.5126658  23.9619531  80.0845296  59.5686927  24.7128291
  83.1359113  62.2934217  18.8454069  82.4669488  62.7780345  18.3618109
  82.9971983  62.5403438  19.7597448  74.8738113  51.8288570  22.5496070
  74.9122212  51.2952161  23.3433188  74.3678405  51.3023776  21.9307047
  87.2764382  64.3277961  25.4436728  87.8282690  64.4909583  26.2085813
  87.6170575  64.9182399  24.7716752  82.2528875  46.6753111  26.0458612
  82.3170201  47.5367942  25.6336010  82.1895995  46.0627112  25.3130971
  92.1275256  59.1539219  31.2985382  92.6715160  59.7669177  30.8040337
  91.5462101  59.7118797  31.8152395  78.5046690  50.5552672  15.6250001
  78.8000131  49.6463351  15.5717055  77.6034726  50.5340412  15.3031004
  90.4132769  62.2759937  22.4300410  90.2883908  61.4749676  21.9211355
  91.0711860  62.7706130  21.9414380  82.0340937  48.6308669  21.6077550
  81.3127523  49.2444637  21.4685023  82.8234193  49.1666434  21.5294196
  92.4767677  60.0768957  24.0579960  91.5298013  59.9574308  23.9858287
  92.8250450  59.1891455  24.1406221  84.8367251  45.9663096  27.8818202
  85.3601653  46.2125392  28.6444511  84.6179584  46.7983130  27.4621339
  80.2334532  48.2366770  15.7489327  79.9047238  47.3564149  15.5664432
  80.5873903  48.1814439  16.6365716  89.4814111  59.8721673  20.2584312
  89.3339073  58.9438380  20.4391882  90.3067604  59.8941764  19.7741387
  83.3476355  48.5239740  16.1164804  83.6872427  49.0525661  15.3943413
  83.7948475  48.8620146  16.8923371  93.0848233  60.6950232  21.3449185
  94.0094780  60.4893093  21.2073636  92.9163536  60.4466633  22.2538526
  86.0419796  46.9076791  25.5667872  85.7016616  46.1084604  25.9688552
  85.3358802  47.2078501  24.9944705  86.6936268  43.9926103  24.0195195
  87.5162337  43.5186581  23.8974086  86.9374331  44.7716587  24.5193882
  85.3344502  47.0214362  14.3158097  86.0552865  47.3995614  13.8121814
  84.7109806  47.7403238  14.4193075  89.4775625  47.7259510  15.2516429
  89.6939239  48.6084148  14.9505257  88.9969692  47.3345724  14.5222071
  84.2174846  50.6845224  21.8287174  84.0719427  50.9985527  22.7211455
  83.7400050  51.3030124  21.2758073  86.0771229  47.6747772  21.8768063
  86.0632798  46.7788865  21.5400361  86.7943657  47.6818435  22.5106350
  87.9297360  48.1085112  23.9221191  87.6715138  49.0302183  23.9205521
  87.3982400  47.7115546  24.6121655  92.8743549  61.2135899  16.7011276
  93.0480426  60.6482322  15.9485129  93.3672440  62.0136794  16.5190766
  85.4808125  46.5562152  17.1455634  85.6024036  45.6278798  17.3446521
  85.1910168  46.5700838  16.2333949  88.3499316  44.2417062  20.2822353
  88.3721012  44.3056396  19.3274333  88.7667375  43.4021571  20.4762860
  98.7282940  53.9772322  18.3201576  99.1714086  53.2279647  17.9220699
  97.8509450  53.9682458  17.9375308  93.8618721  60.5302663  13.8008175
  94.5569626  61.1509356  14.0195489  94.2041871  59.6798015  14.0760552
  95.7610144  57.9802369  15.3295505  96.2861468  58.3189642  14.6044825
  95.6732497  57.0449384  15.1458640  87.4230193  61.8936443  27.4585382
  87.7317319  61.6485589  28.3308082  88.2205675  62.0983081  26.9704252
  87.4450805  64.0474352  19.6890759  87.0055795  63.5550731  20.3823615
  88.1958922  63.5047320  19.4482834  79.9243144  60.2385893  19.6915387
  80.7501164  59.9389665  19.3114030  79.5737196  59.4693516  20.1405175
  84.8924677  59.5912361  21.7613060  84.2704687  58.9283066  21.4615288
  85.5629544  59.6173493  21.0786708  78.1251749  58.1572220  20.6504320
  77.2883657  57.7294394  20.4688321  78.0975395  58.3504663  21.5875111
  84.9649205  48.0694149  31.3545566  85.0137360  48.9456272  30.9723336
  85.5071719  47.5271542  30.7817209  95.4504050  58.6135273  30.6346703
  94.6599594  58.5959411  30.0951203  95.2137405  59.1523566  31.3895740
  95.5701925  55.4627739  27.9479432  95.6199930  55.2977746  28.8894955
  95.4615849  54.5954998  27.5577313  84.4538184  58.1416285  15.2371521
  84.6026305  58.8251749  14.5838193  85.2604628  58.1221375  15.7520976
  92.8605688  51.4458667  29.2638739  93.7615551  51.3065132  28.9722736
  92.9353662  51.6113122  30.2036916  87.1948493  48.8225522  28.1091925
  86.3251803  49.1159088  27.8374513  87.4307974  49.4065967  28.8299188
  97.0720122  57.8824680  28.1921453  96.7804931  58.2454661  29.0284914
  96.4592254  57.1691689  28.0134785  98.2715805  55.4477560  20.7124024
  99.1062696  55.8867364  20.8761584  98.4074933  54.9716213  19.8932269
  95.3207311  53.0057295  26.6601511  95.7961432  53.1984941  25.8520363
  94.3972876  53.0616481  26.4144895  82.2090817  54.1681462  16.2432590
  81.9636859  53.2643792  16.4412800  82.3786732  54.1698613  15.3012068
  89.8987527  45.0405139  25.6257345  90.4169471  45.7766166  25.3003834
  89.5442660  45.3469132  26.4604104  81.4786465  49.9009820  13.7418751
  80.7855710  49.9754175  13.0858787  81.2338217  49.1370164  14.2640268
  90.1500121  41.4605421  21.1458242  90.4301875  40.7928610  21.7718668
  90.9350728  41.6534517  20.6332906  87.9533590  60.6364415  12.7083268
  87.3807557  61.2554602  12.2553740  88.5266383  61.1863777  13.2423190
  94.0208980  49.8823055  24.8929817  94.9726402  49.9821153  24.9142041
  93.8512430  49.0901324  25.4027901  92.0423359  46.9678638  25.0789218
  91.4473291  47.2483651  24.3835706  91.7573056  47.4572539  25.8505959
  91.1730849  60.9201565  13.8391850  92.1061523  60.8547127  14.0424726
  91.0854062  61.7557832  13.3806383  93.8018866  60.2367436  10.7995798
  93.7232498  59.9027299  11.6931556  94.6228533  60.7289203  10.7987270
  96.4997057  53.1029175  24.0072117  96.4673377  52.1645176  24.1931800
  97.1097681  53.1813212  23.2737941  88.3380388  51.9725228  10.0499321
  89.2839493  51.8431436  10.1187739  87.9594633  51.2339890  10.5268749
  96.6491546  49.8940218  24.0530400  96.1330594  49.1098675  23.8660329
  97.5331494  49.5658935  24.2176919  94.3102273  43.6381234  20.0126212
  94.1127094  43.3296322  20.8969544  94.9201978  44.3642873  20.1424142
 102.3173607  54.1645182  23.1478153 103.0476996  53.9030470  23.7085857
 101.7080553  53.4273904  23.1880221 100.3988904  52.3053044  23.7452605
  99.6722068  52.1709009  23.1369096  99.9836191  52.6129873  24.5509323
  88.2219081  56.0242974  31.5099978  89.1422090  56.2021573  31.7040024
  88.1868664  55.0799019  31.3579677  86.5223305  49.8975204   9.9854206
  85.6154761  49.6008317  10.0616919  86.7999286  49.6005022   9.1188492
  77.4401246  51.2181568  20.4353252  77.1204030  50.3646876  20.1427626
  76.8934674  51.4330146  21.1911220  88.1385371  44.4412094  16.1398447
  87.3286099  44.0959179  16.5153693  88.8269788  44.1319638  16.7286059
  90.0675919  43.5190141  17.7622744  90.6206958  43.9385594  18.4212767
  90.3046006  42.5925889  17.8045700  86.0909019  49.5077214  33.5425508
  85.9905745  50.4571571  33.4737599  85.8730561  49.1795453  32.6701578
  85.2922090  46.7562139  10.1266185  86.1541254  47.0817038  10.3862002
  85.4772434  45.9693635   9.6139251  77.3089506  54.8384479  22.4046374
  76.6152977  54.4238432  21.8916328  78.0562497  54.8805016  21.8079793
  93.4454726  45.6290666  17.2701408  92.8653395  46.2875470  16.8879460
  93.1790659  44.8068011  16.8588826  91.8958293  45.0295724  19.4722728
  92.3958071  45.1412258  18.6637047  92.5393901  44.7256776  20.1123537
  79.2226248  54.7702733  20.2812389  79.1996936  54.8690420  19.3294272
  79.5326885  55.6167884  20.6029555  81.8813626  56.8278888  24.3959003
  82.8356880  56.7962830  24.3288935  81.6826150  56.3669512  25.2109229
  92.2279604  47.7890756  16.3257756  91.3405459  48.0740407  16.1077951
  92.6433594  47.6284520  15.4785033  95.5794141  47.8137277  20.0412096
  96.3554531  48.3033730  20.3136712  94.8542275  48.2395331  20.4983965
  98.0166699  48.5264897  21.0986036  98.6111190  48.2860632  20.3879344
  98.0893283  47.8072027  21.7259572  80.2363855  62.3698507  21.4129201
  80.1018323  61.6098908  20.8467199  79.8195917  63.0939407  20.9457990
  91.3722818  57.5535431  10.4205776  92.0758668  57.7585433  11.0363432
  90.6485467  58.1212193  10.6854860  92.2020628  53.3045292  16.5408046
  92.1455830  53.7613844  15.7015679  92.7548971  52.5435977  16.3630889
  96.0125434  49.0935024  17.3658166  95.7562368  48.6931660  18.1966374
  95.3878302  49.8078818  17.2408305 100.3237772  51.8331097  19.8729457
  99.7637330  51.9024287  20.6461019  99.7181275  51.6572082  19.1528954
  83.3932981  63.2667824  21.6247644  83.2765365  64.2113257  21.5226334
  82.5725427  62.9641386  22.0133443  93.2809515  57.9917960  12.4704236
  94.1155119  57.5599159  12.2881711  93.1193858  57.8199974  13.3981131
  92.9355408  54.4950074  13.8360576  92.8804211  54.3294345  12.8949020
  92.3101463  55.2026106  13.9922765  90.2501315  56.7998985  33.1614138
  91.1192474  56.9739638  32.8000773  89.7708066  57.6193402  33.0389868
  86.2451533  43.9958183  13.4145894  86.2330203  44.9400022  13.5714165
  87.1374955  43.8128328  13.1205355  84.4187495  63.9196086  24.8403572
  85.3214742  63.9519697  25.1570067  84.1924865  62.9896537  24.8549908
  86.1741097  62.6727073  21.5013651  85.2236728  62.6728935  21.3878023
  86.4773583  61.9259807  20.9849685  90.0603652  40.5900959  17.6691831
  89.2936048  40.0359446  17.8148513  90.4714357  40.6622828  18.5305982
 101.9093790  68.5087611  22.5659413 102.5472200  68.3894359  21.8622753
 101.7914633  69.4568455  22.6247365  98.7183497  68.4615039  22.5020938
  98.3802008  68.3456104  21.6141473  99.5873265  68.0606204  22.4821944
  94.5770312  70.3150516  18.4917829  94.0135178  70.2240453  17.7234117
  94.4622707  69.4950420  18.9720321  99.2003280  69.6149891  28.4607143
  99.1891920  69.2202689  27.5887647  99.3623919  68.8815964  29.0540915
  92.1234744  71.8101707  21.3302049  92.9156036  71.4692532  20.9148349
  92.3631394  71.9196682  22.2504203 100.1569871  73.9821484  13.8032294
  99.5057851  74.5675564  13.4166307 100.9514234  74.5127678  13.8627331
  94.0825498  71.0710621  14.2019428  94.8556374  70.5239608  14.0632304
  94.4350897  71.9354870  14.4133889  95.9210541  72.3987003  27.4086327
  95.6300407  73.3032634  27.2932994  96.5567525  72.4403531  28.1230397
  96.8466748  69.7763851  23.9987687  97.4430320  69.5519874  23.2844650
  96.9041719  69.0348597  24.6013135  96.4191776  67.2303287  11.8337878
  96.6717297  66.7084808  11.0721341  95.4816335  67.0669432  11.9364562
 101.4635059  66.2339065  19.6412621 102.2498148  65.8158488  19.2903038
 101.7273763  67.1385157  19.8094270 101.6345136  71.6711915  14.3401278
 100.9990969  71.7446542  15.0522183 101.3042543  72.2605514  13.6620357
 106.8643486  66.1714298  20.5445600 107.5968658  65.6013515  20.7783429
 106.1082842  65.7835899  20.9852105  96.1388065  69.1331393  14.0362253
  96.0224323  68.4576296  14.7043337  96.2490325  68.6463767  13.2194406
  98.4819606  68.5941540  17.7408942  98.1177813  68.0672161  18.4521864
  99.3386722  68.2040009  17.5675428 104.3868906  59.8835872  25.0040208
 104.0552231  60.7531283  24.7801423 103.7914520  59.5672156  25.6834239
  98.1225093  63.6231440  12.7370291  98.2899495  64.4911676  13.1040762
  97.9322262  63.7858721  11.8131580 100.8800426  72.0848418  24.4036121
 100.5801149  72.9873457  24.2951928 100.5351485  71.8180602  25.2557274
  94.3312907  68.5362215  20.4372825  93.4063404  68.4038429  20.6450517
  94.5797321  69.3156435  20.9342768 104.2797570  64.6030959  22.0833558
 103.3714447  64.5346367  21.7892319 104.2285165  65.0802904  22.9115384
  98.1014314  66.0789097  13.7216957  97.9813939  66.5246148  14.5602438
  97.4066902  66.4274415  13.1630496  91.6921718  68.1795489  21.2716615
  91.8214100  68.4329968  22.1856026  91.0119170  68.7723197  20.9521270
  95.8621206  78.8492739  17.3707089  95.7845235  79.8000564  17.4495569
  95.2582849  78.5038611  18.0282015  98.3538435  66.0220604  30.0268456
  97.5771770  66.5814524  30.0171320  98.9928999  66.5077387  30.5483326
 106.1459216  62.8047397  23.8611432 105.5033596  63.0979930  23.2151227
 105.6414145  62.6900317  24.6664629 103.7999380  66.5510570  14.5497292
 104.7117236  66.7837957  14.3744989 103.2909027  67.1347614  13.9872370
  96.6084808  68.8306058  29.5886423  97.3499492  69.3691102  29.3121246
  95.9021793  69.4572346  29.7457974 102.0840147  70.9735198  28.1858584
 102.4923503  70.5317609  27.4413216 101.3617409  70.3987826  28.4392777
  98.4371217  65.9107805  25.5592141  99.2832413  66.3347218  25.7026790
  98.3769855  65.2541429  26.2530704 102.4068962  71.5336389  21.9410873
 101.7777825  71.6982103  21.2386941 102.0194624  71.9477998  22.7121837
 106.2858194  72.4690827  19.2955237 105.6009232  72.8489728  18.7452270
 106.3702043  73.0786153  20.0287184 101.5870663  63.5712173  27.2173315
 101.3431595  64.3254234  26.6807590 101.8630593  63.9497521  28.0520562
 103.5409126  70.1150786  25.8950580 103.7526021  70.7582545  25.2184961
 103.4938874  69.2813102  25.4272510 101.1435355  62.7268606  22.7987152
 100.2819834  63.0249860  23.0903890 101.1697789  62.9439005  21.8668185
  97.9596924  71.2710797  19.2060958  98.4235269  71.5498500  18.4165581
  97.6953722  70.3694241  19.0234049  94.8521005  70.8182278  22.1440721
  95.4222362  71.2469547  21.5058206  95.4429117  70.5364863  22.8424907
  96.8965810  67.3933949  16.0150523  97.5989853  67.8454993  16.4824450
  96.5646439  66.7517768  16.6430416  95.3446172  65.9845706  30.3901733
  94.7144832  66.6661987  30.6237129  95.2382259  65.8728787  29.4454871
  90.6391144  65.6517502  21.3167657  89.8490198  65.9075030  20.8407767
  91.1302391  66.4665840  21.4219697 104.6554954  72.9922741  24.0672938
 105.4772397  72.5902928  23.7855619 104.6517356  72.8890975  25.0189053
  92.5905889  66.0162081  18.2751133  91.7937053  66.1280775  18.7934629
  92.3631482  66.3548733  17.4092024  98.4211557  72.5406784  26.2233648
  98.4855989  73.0027192  27.0591820  97.7122481  71.9104149  26.3515958
  88.9228847  65.9047992  23.7482648  89.1736885  66.7895002  24.0140224
  89.4588395  65.7252594  22.9757739 112.7460947  69.3361489  20.4157909
 111.9924655  68.7668888  20.2601913 112.8808488  69.3024154  21.3628544
  98.1359575  74.2074892  16.0912628  98.0005249  75.0526427  16.5197476
  98.6769387  74.4094169  15.3278562  94.6226914  60.2866472  32.7526984
  94.2293860  59.7332670  33.4274628  95.4393055  60.5977050  33.1433501
  91.5888972  71.7250330  16.6640554  92.1013493  72.5193580  16.8146118
  92.2411685  71.0276620  16.5974155  93.3983857  74.8416086  18.7463307
  93.5750485  75.7634051  18.5584291  94.1940690  74.5274505  19.1757686
  97.5394875  61.7024351  30.3447240  98.2804589  62.3031504  30.2651703
  97.7712798  60.9601988  29.7865283  92.6836213  66.8880718  28.6225470
  92.5689728  65.9865975  28.9232569  91.8280731  67.1344415  28.2710286
  99.7628051  74.8298458  30.2212971  99.3191905  74.0434837  29.9033875
 100.4245265  75.0177609  29.5556861  94.5215172  76.3594260  24.7473649
  95.0722597  76.2311323  23.9750643  93.6826648  76.6589149  24.3968542
 101.8609289  75.1101258  28.2494372 101.8427764  75.9310139  27.7574641
 102.7829209  74.9855333  28.4744513  98.3182343  72.6245388  29.0917880
  98.8510680  71.8633676  28.8617188  97.7896424  72.3319039  29.8342035
 101.4852038  57.7305454  24.6211522 101.1416308  58.6207095  24.5450632
 101.8531001  57.5407111  23.7581107  89.5537889  70.0538984  17.4400124
  90.3913111  70.4635992  17.2233832  89.7316156  69.1138426  17.4100318
 101.4502321  67.7214065  13.1283957 100.9348944  68.4918669  13.3672344
 101.1779629  67.0479201  13.7517018  99.0349432  62.5663766  18.1869195
  98.1791028  62.1770616  18.0074834  99.4476384  62.6455726  17.3268981
 100.5648579  60.1010109  22.5860755 100.0613374  60.0640244  21.7728560
 100.8579185  61.0102852  22.6457412  96.8091464  60.1848839  21.5926937
  97.6744461  59.9891647  21.2332826  96.8768973  59.9559190  22.5196294
 106.4236595  70.4746419  15.0637130 105.6466038  70.1357579  14.6192293
 107.1028076  70.4799043  14.3892096 101.2388624  65.5941157  14.9543738
 100.9338760  65.9087306  15.8053881 102.1919066  65.6722577  14.9971071
  99.6835056  71.7531380  16.6036692  99.1556418  71.0184140  16.2909930
  99.1822559  72.5306057  16.3576660 104.6627902  69.9480401  21.7203738
 104.0051576  70.6379662  21.8083867 105.4668301  70.3376833  22.0637725
  94.4153784  62.4151046  18.9643304  94.9897535  62.1926228  18.2316497
  95.0024766  62.4839741  19.7171905 103.4733361  68.3024773  19.7707680
 103.9865243  68.9354765  20.2729390 104.1234585  67.7025969  19.4051040
  94.7423371  64.4455507  12.9839189  93.9060683  64.7830194  13.3048464
  94.6028140  64.3104487  12.0466326  96.7176451  59.2892295  17.6918373
  96.0640864  58.9741313  17.0674988  96.6756925  58.6668036  18.4178196
  97.8287656  69.5711590   9.6071665  96.9214718  69.3400844   9.8062814
  98.3258688  68.7749210   9.7945647  99.9514192  65.7774229  22.0166021
  99.0336753  65.9989176  21.8587709 100.3674335  65.8520539  21.1577728
 100.7349239  67.1765645  17.1468701 101.4821058  67.6887042  16.8375823
 101.0040829  66.8549697  18.0073095  99.0075890  69.6724185  14.1295655
  98.0987109  69.3883218  14.2268125  99.0370973  70.0923264  13.2698962
 104.2395157  73.2830775  17.8986823 103.7857484  72.4421685  17.9552013
 103.6089124  73.9192173  18.2361603 103.1828077  64.2122761  19.1287490
 102.4450833  63.7000147  19.4597733 103.4354850  63.7723142  18.3170767
 102.6828096  75.1207271  18.8336641 102.9751071  75.6812329  18.1149007
 103.1926717  75.4135832  19.5889800 103.2839704  56.9899013  19.7229260
 103.5898581  56.1296376  19.4355175 104.0092309  57.5816633  19.5228253
  89.5764060  67.3929699  18.1110857  89.3788460  66.7999060  17.3861924
  89.0210724  67.0881910  18.8286796  97.5560784  67.2852806  20.2305451
  97.6109393  66.3326642  20.1547927  96.7451986  67.4412245  20.7146749
  98.7051977  71.2132929  11.4683734  98.2671407  70.4968788  11.0089371
  99.4462418  71.4409044  10.9068825  95.4953144  65.9029866  17.9895830
  94.6821009  66.2024036  18.3961022  95.9912138  65.5085554  18.7070312
  97.6461721  75.8987623  19.9230094  97.6037900  76.1248469  18.9938626
  98.5624420  75.6650997  20.0715895 101.0927355  66.3671690  26.8210723
 101.4476743  66.5943163  27.6805189 101.7399486  66.6990067  26.1987979
 106.8225092  69.4890126  17.5260052 106.6842991  69.6791722  16.5981242
 106.4661311  70.2509509  17.9828104  94.9867218  63.4748221  23.6057064
  95.6266598  63.3336980  22.9080028  94.1544749  63.1882735  23.2295666
 106.8494472  71.5566653  22.5371324 107.2830978  71.4641942  23.3854378
 107.5626052  71.5324153  21.8991340  95.7627522  72.7750652  19.7192057
  96.5568121  72.2800972  19.5174632  95.0519215  72.2468515  19.3559762
 100.5822367  75.1568747  24.0704425 100.6359389  75.7259683  24.8382140
  99.7137148  75.3270632  23.7058462  92.0710286  66.9193733  15.7951810
  91.1407874  66.8578189  16.0121772  92.1667758  66.3969686  14.9988451
  91.9895835  63.4448546  18.3830051  92.2502652  64.3593879  18.2739212
  92.8113007  62.9772989  18.5326664  93.4620760  64.8586303  25.5528876
  94.1343813  64.6503665  24.9041525  92.6350547  64.6608389  25.1134108
 107.7110021  71.5990354  25.0704209 107.9045911  72.5036164  25.3163484
 107.6110639  71.1397773  25.9042794  99.3646332  61.4848244  27.5694537
  98.7174247  62.1838194  27.4759013 100.1347347  61.9184388  27.9370785
 102.7725130  71.7497096  30.6445090 102.6210636  71.5207648  29.7275174
 102.7629809  72.7067698  30.6576435  99.5410466  69.3229009  25.6291356
 100.4702526  69.4740169  25.4560324  99.1201496  69.4113030  24.7740003
  98.3398798  73.3479674  23.3989894  98.2009884  72.9798458  24.2715832
  97.5513394  73.8627313  23.2273852  98.9346950  78.4488770  14.7415431
  99.1098706  77.9776813  15.5561053  98.2479738  79.0754536  14.9696691
  99.8904013  72.7261276  20.7878732  99.5553846  72.6862046  21.6836382
  99.3907959  72.0605992  20.3149142  93.8648257  68.1328906  26.3131313
  93.7268055  67.4009145  26.9142852  94.7753181  68.0437806  26.0315501
 102.8263205  70.0717311  11.0615791 102.2092376  69.3464139  10.9648844
 102.3579693  70.8326671  10.7182866  96.4930558  67.8448866  25.8014993
  97.2030176  67.2042058  25.7601611  96.4499866  68.0961760  26.7241173
 104.4817337  74.7816219  28.7221572 104.4229883  74.0975439  28.0552155
 104.8836855  75.5235209  28.2702198  95.2059492  64.8314083  27.6210632
  94.6696849  64.3804822  28.2732228  94.6176200  64.9659992  26.8781096
  93.5008035  81.5978133  21.5155291  93.7404634  82.2296657  22.1934309
  92.6577232  81.2466173  21.8020650  94.6161751  64.2902735  10.1837096
  93.7391217  64.1691536   9.8199342  95.0919504  63.4988813   9.9315984
 104.4834744  72.7455803  26.9535551 103.5961523  72.4081725  27.0761950
 105.0533295  72.0138834  27.1904317  86.1363891  69.0779895  20.2778603
  86.8234931  68.7641625  19.6899618  85.9812020  69.9821259  20.0045854
  90.9398613  63.9670091  24.7063627  90.8556802  63.3595761  23.9714037
  90.1181320  64.4579110  24.7073123  98.0135897  77.4057255  23.9196795
  97.9406069  78.2112227  24.4316099  97.5713290  77.6049221  23.0944816
  97.8025677  76.6429025  17.4299616  97.0193199  77.1850705  17.5237841
  98.5018422  77.1603005  17.8293857 101.1122327  62.4523655  20.0733822
 101.6091027  61.6993617  19.7534892 100.3409309  62.4887971  19.5077031
 108.9652084  68.1564020  21.7152113 108.9541961  69.0388736  21.3446046
 108.0969464  67.8035571  21.5206650 100.4734581  77.3044089  26.0754953
 101.1862553  77.9391554  26.0030855  99.9824609  77.4007955  25.2594955
 102.1952108  71.2095342  17.6472245 101.2608386  71.3296804  17.4776949
 102.3728776  70.3067809  17.3832255  97.6957296  64.5941038  19.8005506
  97.3255083  64.0412078  20.4886412  98.1916388  63.9899171  19.2480506
 105.5824659  67.0512661  18.1822279 106.0485111  67.8840653  18.1082582
 106.0332160  66.5857643  18.8867538  95.5246494  75.0538533  26.8960524
  96.2255954  75.6875016  27.0489918  95.0541609  75.3953264  26.1356163
 103.6500890  73.3956483  15.1808431 103.9260734  73.2813077  16.0902305
 102.7805389  72.9973967  15.1420604 103.5541322  59.4193248  22.2213180
 102.6404402  59.6497475  22.3895387 103.9834423  59.5031692  23.0727213
 103.3247780  67.6083140  24.7213075 102.6719231  67.8559048  24.0665527
 103.7028160  66.7947278  24.3875552 100.2854954  77.6442833  18.8241245
 100.4677349  76.8264489  19.2868997 101.1087940  77.8610526  18.3866135
 100.6197120  76.5711018  16.0856293 101.1484886  76.0603473  15.4726455
 100.8825339  76.2553549  16.9501826  99.3735353  68.3502951  31.2079112
  98.6975990  68.2497081  31.8781487 100.1962987  68.1942165  31.6715109
  91.1214212  74.5874888  23.8291627  91.7067649  73.8418576  23.9619531
  90.9239051  74.8978844  24.7128291  93.9752868  77.6226135  18.8454069
  93.3063243  78.1072263  18.3618109  93.8365737  77.8695356  19.7597448
  85.7131867  67.1580488  22.5496070  85.7515967  66.6244079  23.3433188
  85.2072160  66.6315694  21.9307047  98.1158136  79.6569879  25.4436728
  98.6676444  79.8201500  26.2085813  98.4564330  80.2474317  24.7716752
  93.0922629  62.0045029  26.0458612  93.1563956  62.8659859  25.6336010
  93.0289750  61.3919030  25.3130971  92.5674902  64.0768161  29.6931647
  93.1946941  63.6945238  30.3069171  91.7102821  63.8582363  30.0587339
 102.9669011  74.4831136  31.2985382 103.5108915  75.0961094  30.8040337
 102.3855855  75.0410715  31.8152395  89.3440445  65.8844590  15.6250001
  89.6393886  64.9755269  15.5717055  88.4428480  65.8632330  15.3031004
 101.2526523  77.6051854  22.4300410 101.1277663  76.8041594  21.9211355
 101.9105615  78.0998048  21.9414380  92.8734692  63.9600587  21.6077550
  92.1521277  64.5736554  21.4685023  93.6627947  64.4958352  21.5294196
 103.3161432  75.4060874  24.0579960 102.3691767  75.2866225  23.9858287
 103.6644205  74.5183372  24.1406221  95.6761005  61.2955013  27.8818202
  96.1995407  61.5417310  28.6444511  95.4573339  62.1275048  27.4621339
  91.0728286  63.5658688  15.7489327  90.7440992  62.6856067  15.5664432
  91.4267657  63.5106357  16.6365716 100.3207865  75.2013591  20.2584312
 100.1732828  74.2730298  20.4391882 101.1461359  75.2233681  19.7741387
  94.1870109  63.8531658  16.1164804  94.5266182  64.3817579  15.3943413
  94.6342230  64.1912064  16.8923371 103.9241987  76.0242149  21.3449185
 104.8488534  75.8185011  21.2073636 103.7557290  75.7758550  22.2538526
  96.8813550  62.2368708  25.5667872  96.5410371  61.4376521  25.9688552
  96.1752557  62.5370419  24.9944705  97.5330022  59.3218021  24.0195195
  98.3556091  58.8478499  23.8974086  97.7768086  60.1008505  24.5193882
  96.1738257  62.3506279  14.3158097  96.8946619  62.7287532  13.8121814
  95.5503561  63.0695156  14.4193075 100.3169379  63.0551428  15.2516429
 100.5332994  63.9376066  14.9505257  99.8363447  62.6637642  14.5222071
  95.0568601  66.0137141  21.8287174  94.9113182  66.3277444  22.7211455
  94.5793804  66.6322042  21.2758073  96.9164984  63.0039689  21.8768063
  96.9026553  62.1080783  21.5400361  97.6337412  63.0110353  22.5106350
  98.7691114  63.4377030  23.9221191  98.5108892  64.3594100  23.9205521
  98.2376155  63.0407464  24.6121655 103.7137303  76.5427817  16.7011276
 103.8874181  75.9774239  15.9485129 104.2066194  77.3428712  16.5190766
  89.5314263  68.5542486  24.7674835  88.9867731  69.3302294  24.8995109
  90.4093613  68.9013290  24.6093957  96.3201880  61.8854070  17.1455634
  96.4417791  60.9570716  17.3446521  96.0303922  61.8992756  16.2333949
  99.1893070  59.5708980  20.2822353  99.2114767  59.6348313  19.3274333
  99.6061129  58.7313489  20.4762860 109.5676694  69.3064240  18.3201576
 110.0107840  68.5571565  17.9220699 108.6903205  69.2974376  17.9375308
 104.7012476  75.8594581  13.8008175 105.3963380  76.4801274  14.0195489
 105.0435626  75.0089932  14.0760552  90.3180285  67.6812382  27.6604992
  89.5762021  67.8295017  28.2469622  89.9973029  67.9420648  26.7971741
 106.6003899  73.3094287  15.3295505 107.1255223  73.6481559  14.6044825
 106.5126251  72.3741302  15.1458640  98.2623948  77.2228360  27.4585382
  98.5711074  76.9777507  28.3308082  99.0599430  77.4274999  26.9704252
  98.2844560  79.3766270  19.6890759  97.8449550  78.8842649  20.3823615
  99.0352677  78.8339238  19.4482834  90.7636899  75.5677811  19.6915387
  91.5894918  75.2681583  19.3114030  90.4130951  74.7985433  20.1405175
  95.7318432  74.9204279  21.7613060  95.1098441  74.2574984  21.4615288
  96.4023299  74.9465411  21.0786708  88.9645504  73.4864137  20.6504320
  88.1277412  73.0586312  20.4688321  88.9369149  73.6796581  21.5875111
  95.8042959  63.3986067  31.3545566  95.8531115  64.2748190  30.9723336
  96.3465473  62.8563460  30.7817209 106.2897805  73.9427190  30.6346703
 105.4993349  73.9251329  30.0951203 106.0531159  74.4815484  31.3895740
 106.4095680  70.7919657  27.9479432 106.4593685  70.6269664  28.8894955
 106.3009603  69.9246916  27.5577313  95.2931939  73.4708202  15.2371521
  95.4420059  74.1543667  14.5838193  96.0998382  73.4513292  15.7520976
 103.6999442  66.7750585  29.2638739 104.6009305  66.6357050  28.9722736
 103.7747417  66.9405040  30.2036916  98.0342248  64.1517439  28.1091925
  97.1645557  64.4451005  27.8374513  98.2701728  64.7357884  28.8299188
 107.9113877  73.2116598  28.1921453 107.6198685  73.5746579  29.0284914
 107.2986008  72.4983606  28.0134785 109.1109559  70.7769478  20.7124024
 109.9456450  71.2159282  20.8761584 109.2468688  70.3008131  19.8932269
 106.1601065  68.3349213  26.6601511 106.6355187  68.5276859  25.8520363
 105.2366630  68.3908399  26.4144895  93.0484572  69.4973380  16.2432590
  92.8030614  68.5935710  16.4412800  93.2180486  69.4990530  15.3012068
 100.7381282  60.3697056  25.6257345 101.2563225  61.1058083  25.3003834
 100.3836414  60.6761050  26.4604104  92.3180219  65.2301738  13.7418751
  91.6249464  65.3046093  13.0858787  92.0731971  64.4662081  14.2640268
 100.9893876  56.7897339  21.1458242 101.2695629  56.1220528  21.7718668
 101.7744483  56.9826435  20.6332906  98.7927344  75.9656333  12.7083268
  98.2201311  76.5846520  12.2553740  99.3660138  76.5155694  13.2423190
 104.8602734  65.2114973  24.8929817 105.8120157  65.3113071  24.9142041
 104.6906184  64.4193241  25.4027901 102.8817113  62.2970556  25.0789218
 102.2867046  62.5775569  24.3835706 102.5966810  62.7864457  25.8505959
 102.0124604  76.2493483  13.8391850 102.9455277  76.1839045  14.0424726
 101.9247817  77.0849750  13.3806383 107.3390812  68.4321093  24.0072117
 107.3067132  67.4937093  24.1931800 107.9491435  68.5105129  23.2737941
  99.1774143  67.3017146  10.0499321 100.1233247  67.1723354  10.1187739
  98.7988388  66.5631807  10.5268749 107.4885300  65.2232136  24.0530400
 106.9724349  64.4390593  23.8660329 108.3725249  64.8950853  24.2176919
 105.1496027  58.9673152  20.0126212 104.9520848  58.6588240  20.8969544
 105.7595733  59.6934790  20.1424142 113.1567362  69.4937099  23.1478153
 113.8870750  69.2322388  23.7085857 112.5474307  68.7565821  23.1880221
 111.2382659  67.6344962  23.7452605 110.5115822  67.5000927  23.1369096
 110.8229946  67.9421791  24.5509323  99.0612835  71.3534892  31.5099978
  99.9815845  71.5313491  31.7040024  99.0262418  70.4090937  31.3579677
  97.3617060  65.2267122   9.9854206  96.4548515  64.9300235  10.0616919
  97.6393041  64.9296940   9.1188492  88.2795000  66.5473485  20.4353252
  87.9597785  65.6938794  20.1427626  87.7328428  66.7622063  21.1911220
  92.0574908  69.2635926  24.1522759  92.2760918  70.1953034  24.1710793
  92.4700682  68.9043901  24.9377563  98.9779126  59.7704012  16.1398447
  98.1679854  59.4251097  16.5153693  99.6663542  59.4611555  16.7286059
 100.9069674  58.8482058  17.7622744 101.4600712  59.2677512  18.4212767
 101.1439760  57.9217807  17.8045700  96.9302773  64.8369132  33.5425508
  96.8299500  65.7863489  33.4737599  96.7124315  64.5087371  32.6701578
  96.1315844  62.0854057  10.1266185  96.9935008  62.4108955  10.3862002
  96.3166189  61.2985553   9.6139251  88.1483260  70.1676397  22.4046374
  87.4546732  69.7530350  21.8916328  88.8956251  70.2096933  21.8079793
 104.2848481  60.9582584  17.2701408 103.7047150  61.6167388  16.8879460
 104.0184414  60.1359928  16.8588826 102.7352047  60.3587641  19.4722728
 103.2351826  60.4704176  18.6637047 103.3787655  60.0548694  20.1123537
  96.7934043  68.2666271  32.3590569  96.3101125  69.0666631  32.5654458
  96.8794982  68.2774216  31.4058013  90.0620003  70.0994651  20.2812389
  90.0390691  70.1982338  19.3294272  90.3720639  70.9459801  20.6029555
  92.7207381  72.1570806  24.3959003  93.6750634  72.1254748  24.3288935
  92.5219904  71.6961429  25.2109229  93.3106763  70.7271922  26.9629801
  94.1299652  71.2216000  26.9864638  93.5843570  69.8103890  26.9347368
 103.0673359  63.1182674  16.3257756 102.1799214  63.4032325  16.1077951
 103.4827348  62.9576437  15.4785033 106.4187895  63.1429195  20.0412096
 107.1948285  63.6325647  20.3136712 105.6936029  63.5687249  20.4983965
 108.8560454  63.8556814  21.0986036 109.4504945  63.6152550  20.3879344
 108.9287037  63.1363945  21.7259572  91.0757609  77.6990425  21.4129201
  90.9412077  76.9390826  20.8467199  90.6589672  78.4231325  20.9457990
 103.0414383  68.6337210  16.5408046 102.9849584  69.0905761  15.7015679
 103.5942725  67.8727895  16.3630889 106.8519189  64.4226942  17.3658166
 106.5956123  64.0223577  18.1966374 106.2272057  65.1370736  17.2408305
 111.1631526  67.1623015  19.8729457 110.6031084  67.2316204  20.6461019
 110.5575030  66.9864000  19.1528954  94.2326735  78.5959742  21.6247644
  94.1159119  79.5405175  21.5226334  93.4119182  78.2933304  22.0133443
 104.1203270  73.3209878  12.4704236 104.9548874  72.8891076  12.2881711
 103.9587613  73.1491892  13.3981131 103.7749162  69.8241991  13.8360576
 103.7197966  69.6586263  12.8949020 103.1495217  70.5318024  13.9922765
  88.5641677  65.0610056  27.6621998  89.2100541  64.5509010  28.1509223
  88.3558828  65.7978737  28.2365423 101.0895069  72.1290903  33.1614138
 101.9586229  72.3031555  32.8000773 100.6101821  72.9485320  33.0389868
  97.0845287  59.3250100  13.4145894  97.0723957  60.2691940  13.5714165
  97.9768709  59.1420246  13.1205355  95.2581249  79.2488004  24.8403572
  96.1608496  79.2811614  25.1570067  95.0318619  78.3188455  24.8549908
  97.0134851  78.0018991  21.5013651  96.0630482  78.0020852  21.3878023
  97.3167338  77.2551725  20.9849685 100.8997407  55.9192877  17.6691831
 100.1329803  55.3651364  17.8148513 101.3108112  55.9914746  18.5305982
  92.9039168  62.2077673  31.7597012  93.7670630  61.8514477  31.9700337
  92.3304579  61.8691567  32.4472416 112.7487545  83.8379529  22.5659413
 113.3865955  83.7186276  21.8622753 112.6308388  84.7860373  22.6247365
 109.5577251  83.7906957  22.5020938 109.2195763  83.6748022  21.6141473
 110.4267019  83.3898122  22.4821944 110.0397034  84.9441809  28.4607143
 110.0285675  84.5494607  27.5887647 110.2017674  84.2107881  29.0540915
 102.9628499  87.1393625  21.3302049 103.7549791  86.7984450  20.9148349
 103.2025149  87.2488600  22.2504203 106.7604295  87.7278921  27.4086327
 106.4694161  88.6324551  27.2932994 107.3961280  87.7695448  28.1230397
 107.6860502  85.1055769  23.9987687 108.2824074  84.8811792  23.2844650
 107.7435474  84.3640515  24.6013135 115.2262661  75.2127790  25.0040208
 114.8945986  76.0823201  24.7801423 114.6308274  74.8964074  25.6834239
 111.7194180  87.4140336  24.4036121 111.4194903  88.3165375  24.2951928
 111.3745240  87.1472519  25.2557274 105.1706662  83.8654133  20.4372825
 104.2457158  83.7330347  20.6450517 105.4191075  84.6448352  20.9342768
 115.1191324  79.9322876  22.0833558 114.2108202  79.8638285  21.7892319
 115.0678920  80.4094821  22.9115384 102.5315473  83.5087407  21.2716615
 102.6607854  83.7621885  22.1856026 101.8512924  84.1015115  20.9521270
 109.1932190  81.3512522  30.0268456 108.4165524  81.9106442  30.0171320
 109.8322753  81.8369305  30.5483326 116.9852971  78.1339315  23.8611432
 116.3427351  78.4271848  23.2151227 116.4807899  78.0192235  24.6664629
 107.4478562  84.1597975  29.5886423 108.1893247  84.6983019  29.3121246
 106.7415548  84.7864264  29.7457974 112.9233902  86.3027116  28.1858584
 113.3317258  85.8609526  27.4413216 112.2011163  85.7279743  28.4392777
 109.2764972  81.2399722  25.5592141 110.1226167  81.6639136  25.7026790
 109.2163610  80.5833347  26.2530704 112.4264417  78.9004091  27.2173315
 112.1825349  79.6546151  26.6807590 112.7024348  79.2789438  28.0520562
 114.3802880  85.4442703  25.8950580 114.5919775  86.0874463  25.2184961
 114.3332628  84.6105020  25.4272510 111.9829109  78.0560524  22.7987152
 111.1213588  78.3541777  23.0903890 112.0091544  78.2730923  21.8668185
 105.6914760  86.1474196  22.1440721 106.2616117  86.5761464  21.5058206
 106.2822871  85.8656781  22.8424907 106.1839926  81.3137623  30.3901733
 105.5538587  81.9953904  30.6237129 106.0776014  81.2020705  29.4454871
 101.4784898  80.9809419  21.3167657 100.6883952  81.2366948  20.8407767
 101.9696146  81.7957757  21.4219697 103.4299644  81.3453999  18.2751133
 102.6330807  81.4572693  18.7934629 103.2025236  81.6840651  17.4092024
 109.2605311  87.8698702  26.2233648 109.3249744  88.3319109  27.0591820
 108.5516235  87.2396067  26.3515958  99.7622601  81.2339910  23.7482648
 100.0130640  82.1186920  24.0140224 100.2982150  81.0544511  22.9757739
 105.4620669  75.6158389  32.7526984 105.0687614  75.0624588  33.4274628
 106.2786809  75.9268968  33.1433501 108.3788630  77.0316268  30.3447240
 109.1198343  77.6323422  30.2651703 108.6106553  76.2893906  29.7865283
 103.5229968  82.2172636  28.6225470 103.4083483  81.3157893  28.9232569
 102.6674486  82.4636332  28.2710286 110.6021805  90.1590376  30.2212971
 110.1585660  89.3726755  29.9033875 111.2639019  90.3469526  29.5556861
 105.3608927  91.6886178  24.7473649 105.9116352  91.5603241  23.9750643
 104.5220403  91.9881067  24.3968542 112.7003044  90.4393176  28.2494372
 112.6821519  91.2602057  27.7574641 113.6222964  90.3147251  28.4744513
 109.1576098  87.9537305  29.0917880 109.6904435  87.1925594  28.8617188
 108.6290179  87.6610957  29.8342035 112.3245793  73.0597371  24.6211522
 111.9810062  73.9499013  24.5450632 112.6924755  72.8699029  23.7581107
 109.8743186  77.8955683  18.1869195 109.0184783  77.5062534  18.0074834
 110.2870138  77.9747644  17.3268981 111.4042333  75.4302026  22.5860755
 110.9007129  75.3932162  21.7728560 111.6972940  76.3394769  22.6457412
 107.6485219  75.5140756  21.5926937 108.5138216  75.3183565  21.2332826
 107.7162728  75.2851108  22.5196294 105.2547538  77.7442964  18.9643304
 105.8291290  77.5218146  18.2316497 105.8418520  77.8131659  19.7171905
 107.5570206  74.6184213  17.6918373 106.9034618  74.3033230  17.0674988
 107.5150680  73.9959953  18.4178196 110.7907946  81.1066147  22.0166021
 109.8730507  81.3281094  21.8587709 111.2068090  81.1812457  21.1577728
 114.1233458  72.3190931  19.7229260 114.4292335  71.4588294  19.4355175
 114.8486063  72.9108551  19.5228253 100.4157814  82.7221617  18.1110857
 100.2182214  82.1290978  17.3861924  99.8604478  82.4173827  18.8286796
 108.3954538  82.6144724  20.2305451 108.4503148  81.6618560  20.1547927
 107.5845740  82.7704163  20.7146749 106.3346898  81.2321783  17.9895830
 105.5214764  81.5315954  18.3961022 106.8305892  80.8377472  18.7070312
 111.9321110  81.6963608  26.8210723 112.2870497  81.9235081  27.6805189
 112.5793241  82.0281985  26.1987979 105.8260973  78.8040139  23.6057064
 106.4660352  78.6628898  22.9080028 104.9938503  78.5174652  23.2295666
 102.8289589  78.7740464  18.3830051 103.0896406  79.6885797  18.2739212
 103.6506762  78.3064906  18.5326664 104.3014515  80.1878221  25.5528876
 104.9737568  79.9795583  24.9041525 103.4744301  79.9900307  25.1134108
 110.2040087  76.8140162  27.5694537 109.5568002  77.5130112  27.4759013
 110.9741102  77.2476306  27.9370785 113.6118884  87.0789014  30.6445090
 113.4604391  86.8499566  29.7275174 113.6023564  88.0359616  30.6576435
 110.3804221  84.6520927  25.6291356 111.3096281  84.8032086  25.4560324
 109.9595251  84.7404948  24.7740003 109.1792553  88.6771591  23.3989894
 109.0403638  88.3090376  24.2715832 108.3907149  89.1919231  23.2273852
 104.7042012  83.4620824  26.3131313 104.5661810  82.7301063  26.9142852
 105.6146935  83.3729724  26.0315501 107.3324312  83.1740783  25.8014993
 108.0423931  82.5333975  25.7601611 107.2893621  83.4253678  26.7241173
 115.3211091  90.1108137  28.7221572 115.2623637  89.4267357  28.0552155
 115.7230609  90.8527127  28.2702198 106.0453246  80.1606001  27.6210632
 105.5090603  79.7096740  28.2732228 105.4569955  80.2951910  26.8781096
 115.3228498  88.0747721  26.9535551 114.4355277  87.7373642  27.0761950
 115.8927049  87.3430752  27.1904317  96.9757646  84.4071812  20.2778603
  97.6628685  84.0933542  19.6899618  96.8205774  85.3113177  20.0045854
 101.7792368  79.2962009  24.7063627 101.6950556  78.6887678  23.9714037
 100.9575074  79.7871027  24.7073123 111.9516082  77.7815572  20.0733822
 112.4484781  77.0285535  19.7534892 111.1803063  77.8179889  19.5077031
 108.5351050  79.9232955  19.8005506 108.1648838  79.3703996  20.4886412
 109.0310143  79.3191089  19.2480506 106.3640249  90.3830450  26.8960524
 107.0649708  91.0166933  27.0489918 105.8935364  90.7245182  26.1356163
 114.3935076  74.7485166  22.2213180 113.4798156  74.9789393  22.3895387
 114.8228178  74.8323610  23.0727213 114.1641535  82.9375058  24.7213075
 113.5112985  83.1850965  24.0665527 114.5421915  82.1239196  24.3875552
 110.2129108  83.6794869  31.2079112 109.5369745  83.5788998  31.8781487
 111.0356742  83.5234083  31.6715109 101.9607967  89.9166805  23.8291627
 102.5461404  89.1710493  23.9619531 101.7632805  90.2270762  24.7128291
  96.5525622  82.4872406  22.5496070  96.5909721  81.9535996  23.3433188
  96.0465914  81.9607611  21.9307047 103.9316384  77.3336946  26.0458612
 103.9957710  78.1951777  25.6336010 103.8683504  76.7210948  25.3130971
 103.4068656  79.4060079  29.6931647 104.0340695  79.0237156  30.3069171
 102.5496575  79.1874281  30.0587339 113.8062765  89.8123054  31.2985382
 114.3502669  90.4253012  30.8040337 113.2249610  90.3702632  31.8152395
 100.1834199  81.2136508  15.6250001 100.4787640  80.3047186  15.5717055
  99.2822235  81.1924247  15.3031004 103.7128446  79.2892504  21.6077550
 102.9915032  79.9028472  21.4685023 104.5021702  79.8250269  21.5294196
 106.5154760  76.6246931  27.8818202 107.0389162  76.8709227  28.6444511
 106.2967093  77.4566966  27.4621339 101.9122041  78.8950605  15.7489327
 101.5834747  78.0147984  15.5664432 102.2661411  78.8398274  16.6365716
 107.7207305  77.5660626  25.5667872 107.3804125  76.7668439  25.9688552
 107.0146311  77.8662337  24.9944705 108.3723777  74.6509938  24.0195195
 109.1949846  74.1770417  23.8974086 108.6161840  75.4300422  24.5193882
 105.8962355  81.3429059  21.8287174 105.7506936  81.6569362  22.7211455
 105.4187559  81.9613959  21.2758073 107.7558738  78.3331607  21.8768063
 107.7420307  77.4372700  21.5400361 108.4731166  78.3402271  22.5106350
 109.6084869  78.7668947  23.9221191 109.3502647  79.6886018  23.9205521
 109.0769909  78.3699382  24.6121655 100.3708018  83.8834403  24.7674835
  99.8261486  84.6594211  24.8995109 101.2487367  84.2305208  24.6093957
 107.1595634  77.2145987  17.1455634 107.2811545  76.2862634  17.3446521
 106.8697677  77.2284673  16.2333949 110.0286825  74.9000898  20.2822353
 110.0508521  74.9640231  19.3274333 110.4454884  74.0605406  20.4762860
 101.1574039  83.0104300  27.6604992 100.4155775  83.1586935  28.2469622
 100.8366784  83.2712565  26.7971741 109.1017702  92.5520278  27.4585382
 109.4104828  92.3069425  28.3308082 109.8993184  92.7566916  26.9704252
  99.8039258  88.8156055  20.6504320  98.9671166  88.3878229  20.4688321
  99.7762904  89.0088498  21.5875111 106.6436714  78.7277985  31.3545566
 106.6924869  79.6040108  30.9723336 107.1859228  78.1855378  30.7817209
 117.1291559  89.2719108  30.6346703 116.3387103  89.2543247  30.0951203
 116.8924914  89.8107402  31.3895740 117.2489434  86.1211574  27.9479432
 117.2987439  85.9561582  28.8894955 117.1403358  85.2538833  27.5577313
 114.5393197  82.1042502  29.2638739 115.4403060  81.9648967  28.9722736
 114.6141171  82.2696957  30.2036916 108.8736002  79.4809357  28.1091925
 108.0039312  79.7742923  27.8374513 109.1095483  80.0649802  28.8299188
 118.7507631  88.5408516  28.1921453 118.4592440  88.9038496  29.0284914
 118.1379763  87.8275524  28.0134785 116.9994820  83.6641130  26.6601511
 117.4748941  83.8568777  25.8520363 116.0760385  83.7200316  26.4144895
 111.5775036  75.6988974  25.6257345 112.0956980  76.4350001  25.3003834
 111.2230169  76.0052967  26.4604104 111.8287630  72.1189257  21.1458242
 112.1089384  71.4512446  21.7718668 112.6138237  72.3118352  20.6332906
 115.6996489  80.5406891  24.8929817 116.6513911  80.6404988  24.9142041
 115.5299939  79.7485159  25.4027901 113.7210868  77.6262474  25.0789218
 113.1260800  77.9067486  24.3835706 113.4360565  78.1156375  25.8505959
 118.3279055  80.5524054  24.0530400 117.8118103  79.7682510  23.8660329
 119.2119003  80.2242770  24.2176919 115.9889782  74.2965069  20.0126212
 115.7914603  73.9880157  20.8969544 116.5989487  75.0226708  20.1424142
 109.9006590  86.6826809  31.5099978 110.8209599  86.8605408  31.7040024
 109.8656173  85.7382855  31.3579677  99.1188755  81.8765403  20.4353252
  98.7991539  81.0230711  20.1427626  98.5722183  82.0913981  21.1911220
 102.8968662  84.5927844  24.1522759 103.1154672  85.5244952  24.1710793
 103.3094436  84.2335818  24.9377563 109.8172880  75.0995929  16.1398447
 109.0073608  74.7543014  16.5153693 110.5057297  74.7903473  16.7286059
 111.7463428  74.1773976  17.7622744 112.2994467  74.5969430  18.4212767
 111.9833515  73.2509724  17.8045700 107.7696528  80.1661050  33.5425508
 107.6693254  81.1155407  33.4737599 107.5518070  79.8379289  32.6701578
  98.9877015  85.4968315  22.4046374  98.2940486  85.0822267  21.8916328
  99.7350006  85.5388851  21.8079793 113.5745802  75.6879559  19.4722728
 114.0745580  75.7996094  18.6637047 114.2181410  75.3840612  20.1123537
 107.6327798  83.5958189  32.3590569 107.1494879  84.3958549  32.5654458
 107.7188737  83.6066133  31.4058013 100.9013757  85.4286568  20.2812389
 100.8784445  85.5274256  19.3294272 101.2114394  86.2751719  20.6029555
 103.5601135  87.4862723  24.3959003 104.5144389  87.4546666  24.3288935
 103.3613659  87.0253347  25.2109229 104.1500517  86.0563839  26.9629801
 104.9693406  86.5507918  26.9864638 104.4237325  85.1395808  26.9347368
  99.4035431  80.3901973  27.6621998 100.0494295  79.8800927  28.1509223
  99.1952583  81.1270655  28.2365423 111.9288824  87.4582821  33.1614138
 112.7979983  87.6323473  32.8000773 111.4495575  88.2777238  33.0389868
 106.0975004  94.5779922  24.8403572 107.0002251  94.6103532  25.1570067
 105.8712374  93.6480373  24.8549908 111.7391161  71.2484794  17.6691831
 110.9723557  70.6943281  17.8148513 112.1501866  71.3206663  18.5305982
 103.7432922  77.5369590  31.7597012 104.6064384  77.1806395  31.9700337
 103.1698333  77.1983485  32.4472416 116.3014423  90.9450307  32.7526984
 115.9081369  90.3916506  33.4274628 117.1180564  91.2560885  33.1433501
 119.2182384  92.3608186  30.3447240 119.9592098  92.9615339  30.2651703
 119.4500307  91.6185824  29.7865283 114.2462411  94.7351996  29.6931647
 114.8734450  94.3529074  30.3069171 113.3890330  94.5166198  30.0587339
 117.4830468  94.0569902  31.3545566 117.5318624  94.9332025  30.9723336
 118.0252982  93.5147295  30.7817209 118.6090282  95.4952967  33.5425508
 118.5087009  96.4447324  33.4737599 118.3911824  95.1671206  32.6701578
 110.2429186  95.7193891  27.6621998 110.8888050  95.2092845  28.1509223
 110.0346337  96.4562573  28.2365423 114.5826677  92.8661508  31.7597012
 115.4458139  92.5098313  31.9700337 114.0092088  92.5275403  32.4472416
  71.9636074   5.8002589  15.4466878  71.9048621   5.1161809  14.7797461
  72.3655593   6.5421579  14.9947504  70.4487748   5.5017506  18.0230689
  70.9927652   6.1147464  17.5285643  69.8674593   6.0597084  18.5397702
  73.7716543   4.9613560  17.3592010  72.9812086   4.9437699  16.8196509
  73.5349897   5.5001854  18.1141047  75.3932615   4.2302968  14.9166760
  75.1017423   4.5932948  15.7530221  74.7804746   3.5169976  14.7380092
  68.5713807   3.1477273  19.8859445  69.4404967   3.3217925  19.5246080
  68.0920558   3.9671689  19.7635174  80.2306283  14.8565899   9.2904720
  80.8684693  14.7372646   8.5868060  80.1127126  15.8046743   9.3492672
  77.0395989  14.8093327   9.2266244  76.7014500  14.6934391   8.3386779
  77.9085757  14.4084492   9.2067251  77.5215772  15.9628178  15.1852450
  77.5104413  15.5680977  14.3132954  77.6836411  15.2294251  15.7786221
  70.4447237  18.1579995   8.0547356  71.2368529  17.8170819   7.6393655
  70.6843887  18.2674970   8.9749509  74.2423033  18.7465290  14.1331634
  73.9512899  19.6510921  14.0178300  74.8780017  18.7881818  14.8475704
  75.1679240  16.1242139  10.7232994  75.7642812  15.8998161  10.0089957
  75.2254211  15.3826884  11.3258441  82.7081399   6.2314160  11.7285515
  82.3764723   7.1009571  11.5046730  82.1127012   5.9150444  12.4079545
  79.2012918  18.4326706  11.1281428  78.9013641  19.3351745  11.0197235
  78.8563978  18.1658889  11.9802581  82.6010062  10.9509246   8.8078865
  81.6926939  10.8824654   8.5137626  82.5497658  11.4281191   9.6360690
  74.1833698  25.1971026   4.0952395  74.1057728  26.1478851   4.1740876
  73.5795342  24.8516899   4.7527322  76.6750928  12.3698891  16.7513762
  75.8984262  12.9292812  16.7416627  77.3141491  12.8555674  17.2728632
  74.9297300  15.1784345  16.3131729  75.6711984  15.7169389  16.0366553
  74.2234286  15.8050634  16.4703281  80.4052640  17.3213485  14.9103891
  80.8135996  16.8795896  14.1658523  79.6829901  16.7466113  15.1638084
  76.7583710  12.2586092  12.2837448  77.6044905  12.6825506  12.4272097
  76.6982347  11.6019716  12.9776011  80.7281454  17.8814676   8.6656180
  80.0990317  18.0460390   7.9632247  80.3407116  18.2956285   9.4367144
  84.6070686  18.8169114   6.0200543  83.9221724  19.1968015   5.4697577
  84.6914536  19.4264440   6.7532491  79.9083155   9.9190460  13.9418621
  79.6644087  10.6732521  13.4052897  80.1843086  10.2975808  14.7765868
  81.8621618  16.4629073  12.6195887  82.0738513  17.1060833  11.9430268
  81.8151366  15.6291389  12.1517817  73.1733497  17.1660566   8.8686028
  73.7434854  17.5947834   8.2303512  73.7641609  16.8843150   9.5670214
  73.6658664  12.3323993  17.1147039  73.0357324  13.0140274  17.3482436
  73.5594752  12.2207075  16.1700177  82.9767446  19.3401028  10.7918244
  83.7984890  18.9381215  10.5100926  82.9729849  19.2369262  11.7434360
  76.7424049  18.8885072  12.9478955  76.8068482  19.3505479  13.7837127
  76.0334973  18.2582436  13.0761265  72.9439407   6.6344759  19.4772290
  72.5506352   6.0810957  20.1519935  73.7605547   6.9455337  19.8678808
  71.7196349  21.1894373   5.4708613  71.8962977  22.1112338   5.2829597
  72.5153183  20.8752793   5.9002993  75.8607368   8.0502638  17.0692547
  76.6017081   8.6509791  16.9897009  76.0925290   7.3080276  16.5110589
  71.0048706  13.2359005  15.3470777  70.8902221  12.3344262  15.6477875
  70.1493223  13.4822702  14.9955593  78.0840543  21.1776746  16.9458277
  77.6404397  20.3913124  16.6279182  78.7457757  21.3655896  16.2802168
  72.8427664  22.7072547  11.4718956  73.3935090  22.5789610  10.6995950
  72.0039140  23.0067436  11.1213848  80.1821781  21.4579545  14.9739678
  80.1640257  22.2788426  14.4819948  81.1041701  21.3333621  15.1989820
  76.6394836  18.9723675  15.8163187  77.1723172  18.2111963  15.5862495
  76.1108917  18.6797327  16.5587341  82.9840394  16.2958688   8.4449045
  82.3264069  16.9857949   8.5329174  83.7880793  16.6855120   8.7883031
  78.2726684  12.1252516   8.7411327  77.3549245  12.3467463   8.5833015
  78.6886828  12.1998827   7.8823035  82.5607649  19.6309062   4.6232129
  82.1069976  18.7899972   4.6797320  81.9301616  20.2670460   4.9606910
  81.0040588  21.4685559   5.5581948  81.2963563  22.0290616   4.8394313
  81.5139209  21.7614120   6.3135107  75.9674214  22.2465910   6.6475401
  75.9250392  22.4726756   5.7183933  76.8836913  22.0129284   6.7961202
  79.4139847  12.7149977  13.5456030  79.7689235  12.9421450  14.4050496
  80.0611979  13.0468354  12.9233285  85.1706964  17.9044940   9.2616631
  85.6043471  17.8120229  10.1099685  85.8838545  17.8802441   8.6236647
  78.9034859  21.5047034  10.7949731  78.9571881  22.0737971  11.5627447
  78.0349640  21.6748919  10.4303768  71.7833252  11.2064591  12.2774182
  72.4556306  10.9981953  11.6286831  70.9563039  11.0086677  11.8379415
  86.0322514  17.9468641  11.7949516  86.2258404  18.8514451  12.0408791
  85.9323132  17.4876060  12.6288101  77.6858824   7.8326531  14.2939843
  77.0386739   8.5316481  14.2004320  78.4559840   8.2662675  14.6616092
  81.0937622  18.0975384  17.3690397  80.9423129  17.8685935  16.4520480
  81.0842302  19.0545985  17.3821742  77.8622959  15.6707296  12.3536663
  78.7915019  15.8218456  12.1805630  77.4413989  15.7591317  11.4985310
  76.6611290  19.6957961  10.1235201  76.5222376  19.3276745  10.9961139
  75.8725887  20.2105600   9.9519158  77.2559442  24.7967057   1.4660737
  77.4311198  24.3255100   2.2806360  76.5692230  25.4232823   1.6941998
  78.2116506  19.0739563   7.5124038  77.8766338  19.0340333   8.4081688
  77.7120451  18.4084279   7.0394449  72.1860750  14.4807194  13.0376620
  72.0480547  13.7487432  13.6388159  73.0965673  14.3916094  12.7560807
  74.8143050  14.1927153  12.5260299  75.5242669  13.5520345  12.4846918
  74.7712358  14.4440048  13.4486480  82.8029829  21.1294506  15.4466878
  82.7442375  20.4453726  14.7797461  83.2049347  21.8713496  14.9947504
  73.5271984  11.1792371  14.3455939  72.9909341  10.7283109  14.9977535
  72.9388693  11.3138280  13.6026403  71.8220528  27.9456420   8.2400597
  72.0617126  28.5774944   8.9179616  70.9789724  27.5944460   8.5265957
  82.8047236  19.0934090  13.6780858  81.9174015  18.7560012  13.8007257
  83.3745787  18.3617121  13.9149624  76.3348390  23.7535542  10.6442101
  76.2618561  24.5590514  11.1561406  75.8925783  23.9527508   9.8190123
  76.1238169  22.9907313   4.1544923  75.3405691  23.5328993   4.2483147
  76.8230914  23.5081292   4.5539164  78.7947073  23.6522377  12.8000260
  79.5075045  24.2869841  12.7276161  78.3037102  23.7486243  11.9840262
  73.8458987  21.4016820  13.6205831  74.5468446  22.0353303  13.7735225
  73.3754102  21.7431552  12.8601470  81.6460273  13.9561427  11.4458381
  80.9931723  14.2037335  10.7910834  82.0240652  13.1425566  11.1120858
  78.6067446  23.9921121   5.5486551  78.7889841  23.1742777   6.0114304
  79.4300432  24.2088813   5.1111441  78.9409612  22.9189306   2.8101600
  79.4697378  22.4081760   2.1971762  79.2037832  22.6031836   3.6747133
  77.6947846  14.6981238  17.9324418  77.0188483  14.5975368  18.6026793
  78.5175479  14.5420452  18.3960415  69.4426705  20.9353175  10.5536933
  70.0280142  20.1896863  10.6864838  69.2451543  21.2457132  11.4373597
  72.2965360  23.9704422   5.5699376  71.6275735  24.4550550   5.0863416
  72.1578230  24.2173643   6.4842754  76.4370628  26.0048166  12.1682034
  76.9888937  26.1679787  12.9331119  76.7776822  26.5952604  11.4962059
  70.8887394  10.4246448  16.4176953  71.5159433  10.0423526  17.0314478
  70.0315313  10.2060650  16.7832646  81.2881503  20.8309423  18.0230689
  81.8321407  21.4439382  17.5285643  80.7068348  21.3889002  18.5397702
  79.5739016  23.9530141   9.1545716  79.4490155  23.1519881   8.6456662
  80.2318107  24.4476335   8.6659686  81.6373924  21.7539162  10.7825266
  80.6904260  21.6344513  10.7103593  81.9856697  20.8661660  10.8651528
  73.9973498   7.6433300  14.6063508  74.5207899   7.8895597  15.3689818
  73.7785831   8.4753335  14.1866646  78.6420357  21.5491878   6.9829619
  78.4945320  20.6208585   7.1637189  79.4673851  21.5711968   6.4986694
  82.2454479  22.3720436   8.0694491  83.1701027  22.1663298   7.9318943
  82.0769783  22.1236838   8.9783833  75.2026043   8.5846996  12.2913179
  74.8622863   7.7854809  12.6933859  74.4965049   8.8848706  11.7190012
  77.0903607   9.7855317  10.6466498  76.8321385  10.7072387  10.6450828
  76.5588647   9.3885751  11.3366962  82.0349796  22.8906104   3.4256583
  82.2086673  22.3252526   2.6730435  82.5278687  23.6906999   3.2436073
  67.8526755  14.9020773  11.4920142  67.3080223  15.6780581  11.6240416
  68.7306105  15.2491578  11.3339263  68.6392777  14.0290669  14.3850299
  67.8974513  14.1773305  14.9714929  68.3185521  14.2898935  13.5217048
  76.5836440  23.5706648  14.1830689  76.8923566  23.3255794  15.0553388
  77.3811922  23.7753286  13.6949559  76.6057052  25.7244557   6.4136065
  76.1662042  25.2320936   7.1068922  77.3565169  25.1817525   6.1728140
  69.0849391  21.9156098   6.4160693  69.9107411  21.6159870   6.0359337
  68.7343443  21.1463720   6.8650482  74.0530924  21.2682566   8.4858367
  73.4310933  20.6053271   8.1860595  74.7235791  21.2943698   7.8032015
  74.1255452   9.7464354  18.0790873  74.1743607  10.6226477  17.6968642
  74.6677966   9.2041747  17.5062516  84.6110297  20.2905478  17.3592010
  83.8205841  20.2729616  16.8196509  84.3743652  20.8293771  18.1141047
  84.7308172  17.1397944  14.6724738  84.7806177  16.9747951  15.6140261
  84.6222096  16.2725203  14.2822619  82.0211935  13.1228872  15.9884045
  82.9221797  12.9835337  15.6968043  82.0959909  13.2883327  16.9282223
  76.3554740  10.4995727  14.8337231  75.4858049  10.7929293  14.5619820
  76.5914220  11.0836172  15.5544495  84.4813557  14.6827500  13.3846818
  84.9567679  14.8755146  12.5765669  83.5579123  14.7386686  13.1390202
  79.0593774   6.7175344  12.3502652  79.5775718   7.4536371  12.0249140
  78.7048907   7.0239337  13.1849411  83.1815226  11.5593260  11.6175124
  84.1332649  11.6591358  11.6387348  83.0118677  10.7671529  12.1273208
  81.2029606   8.6448843  11.8034525  80.6079538   8.9253856  11.1081013
  80.9179302   9.1342744  12.5751266  85.6603304  14.7799380  10.7317423
  85.6279624  13.8415381  10.9177107  86.2703928  14.8583417   9.9983248
  77.3825327  17.7013179  18.2345284  78.3028337  17.8791778  18.4285331
  77.3474911  16.7569224  18.0824984  70.3787400  15.6114214  10.8768065
  70.5973410  16.5431321  10.8956099  70.7913174  15.2522188  11.6622869
  75.2515265  11.1847419  20.2670814  75.1511992  12.1341776  20.1982905
  75.0336807  10.8565658  19.3946884  75.1146535  14.6144558  19.0835876
  74.6313617  15.4144918  19.2899765  75.2007474  14.6252503  18.1303320
  71.0419873  18.5049093  11.1204310  71.9963126  18.4733035  11.0534241
  70.8432396  18.0439717  11.9354536  71.6319255  17.0750209  13.6875107
  72.4512144  17.5694288  13.7109945  71.9056063  16.1582177  13.6592675
  69.3970102  24.0468712   8.1374508  69.2624570  23.2869113   7.5712506
  68.9802164  24.7709612   7.6703297  72.5539228  24.9438029   8.3492950
  72.4371612  25.8883462   8.2471641  71.7331674  24.6411591   8.7378750
  66.8854169  11.4088343  14.3867305  67.5313033  10.8987297  14.8754530
  66.6771320  12.1457024  14.9610730  79.4107561  18.4769190  19.8859445
  80.2798721  18.6509843  19.5246080  78.9314313  19.2963607  19.7635174
  73.5793742  25.5966291  11.5648879  74.4820988  25.6289902  11.8815374
  73.3531112  24.6666742  11.5795215  75.3347344  24.3497278   8.2258957
  74.3842975  24.3499139   8.1123330  75.6379830  23.6030012   7.7094992
  71.2251660   8.5555960  18.4842319  72.0883122   8.1992765  18.6945643
  70.6517071   8.2169855  19.1717723  91.0700037  30.1857816   9.2904720
  91.7078447  30.0664564   8.5868060  90.9520880  31.1338660   9.3492672
  87.8789743  30.1385244   9.2266244  87.5408255  30.0226309   8.3386779
  88.7479512  29.7376409   9.2067251  83.7376559  31.9920721   5.2163135
  83.1741424  31.9010658   4.4479423  83.6228954  31.1720625   5.6965628
  88.3609526  31.2920096  15.1852450  88.3498167  30.8972894  14.3132954
  88.5230166  30.5586169  15.7786221  81.2840991  33.4871912   8.0547356
  82.0762283  33.1462737   7.6393655  81.5237641  33.5966887   8.9749509
  89.3176118  35.6591688   0.5277600  88.6664098  36.2445769   0.1411614
  90.1120481  36.1897883   0.5872638  83.2431745  32.7480826   0.9264735
  84.0162621  32.2009813   0.7877610  83.5957144  33.6125075   1.1379196
  85.0816788  34.0757208  14.1331634  84.7906654  34.9802839  14.0178300
  85.7173772  34.1173735  14.8475704  86.0072994  31.4534056  10.7232994
  86.6036567  31.2290079  10.0089957  86.0647966  30.7118802  11.3258441
  85.2994312  30.8101598   0.7607560  85.1830570  30.1346501   1.4288644
  85.4096571  30.3233972  -0.0560287  87.6425853  30.2711745   4.4654249
  87.2784060  29.7442366   5.1767170  88.4992968  29.8810214   4.2920734
  93.5475153  21.5606077  11.7285515  93.2158478  22.4301488  11.5046730
  92.9520767  21.2442361  12.4079545  90.0406673  33.7618623  11.1281428
  89.7407396  34.6643662  11.0197235  89.6957732  33.4950807  11.9802581
  83.4919154  30.2132420   7.1618132  82.5669651  30.0808634   7.3695824
  83.7403567  30.9926639   7.6588074  93.4403816  26.2801164   8.8078865
  92.5320694  26.2116572   8.5137626  93.3891412  26.7573108   9.6360690
  80.8527965  29.8565694   7.9961921  80.9820346  30.1100173   8.9101333
  80.1725417  30.4493402   7.6766576  85.0227452  40.5262944   4.0952395
  84.9451482  41.4770769   4.1740876  84.4189096  40.1808816   4.7527322
  87.5144682  27.6990809  16.7513762  86.7378016  28.2584729  16.7416627
  88.1535245  28.1847592  17.2728632  85.7691055  30.5076263  16.3131729
  86.5105739  31.0461306  16.0366553  85.0628040  31.1342551  16.4703281
  91.2446394  32.6505403  14.9103891  91.6529750  32.2087813  14.1658523
  90.5223656  32.0758030  15.1638084  87.5977464  27.5878010  12.2837448
  88.4438659  28.0117423  12.4272097  87.5376102  26.9311634  12.9776011
  91.5675209  33.2106594   8.6656180  90.9384071  33.3752308   7.9632247
  91.1800871  33.6248203   9.4367144  95.4464441  34.1461031   6.0200543
  94.7615479  34.5259933   5.4697577  95.5308290  34.7556358   6.7532491
  92.7015372  31.7920990  12.6195887  92.9132268  32.4352750  11.9430268
  92.6545121  30.9583307  12.1517817  90.3041601  24.4038811   9.5232459
  89.4426080  24.7020065   9.8149197  90.3304036  24.6209210   8.5913492
  87.1203171  32.9481002   5.9306265  87.5841516  33.2268705   5.1410887
  86.8559969  32.0464446   5.7479355  84.0127252  32.4952483   8.8686028
  84.5828609  32.9239752   8.2303512  84.6035364  32.2135068   9.5670214
  86.0572057  29.0704154   2.7395830  86.7596100  29.5225198   3.2069756
  85.7252685  28.4287973   3.3675723  79.7997391  27.3287707   8.0412963
  79.0096445  27.5845235   7.5653074  80.2908638  28.1436045   8.1465004
  93.8161200  34.6692946  10.7918244  94.6378644  34.2673133  10.5100926
  93.8123603  34.5661180  11.7434360  81.7512136  27.6932286   4.9996440
  80.9543299  27.8050980   5.5179936  81.5237728  28.0318938   4.1337331
  78.0835094  27.5818197  10.4727954  78.3343132  28.4665207  10.7385530
  78.6194642  27.4022799   9.7003046  87.2965821  35.8845097   2.8157935
  87.1611496  36.7296632   3.2442783  87.8375634  36.0864374   2.0523869
  83.7833161  21.9636677  19.4772290  83.3900107  21.4102875  20.1519935
  84.5999301  22.2747255  19.8678808  80.7495219  33.4020535   3.3885860
  81.2619739  34.1963785   3.5391425  81.4017932  32.7046825   3.3219462
  82.5590103  36.5186291   5.4708613  82.7356732  37.4404256   5.2829597
  83.3546937  36.2044710   5.9002993  86.7001122  23.3794556  17.0692547
  87.4410835  23.9801709  16.9897009  86.9319045  22.6372193  16.5110589
  81.8442460  28.5650923  15.3470777  81.7295975  27.6636180  15.6477875
  80.9886978  28.8114620  14.9955593  88.9234298  36.5068663  16.9458277
  88.4798152  35.7205042  16.6279182  89.5851511  36.6947814  16.2802168
  83.6821419  38.0364465  11.4718956  84.2328844  37.9081528  10.6995950
  82.8432895  38.3359354  11.1213848  91.0215536  36.7871463  14.9739678
  91.0034011  37.6080344  14.4819948  91.9435456  36.6625538  15.1989820
  87.4788590  34.3015593  15.8163187  88.0116927  33.5403881  15.5862495
  86.9502671  34.0089244  16.5587341  78.7144136  31.7309189   4.1645431
  79.5519358  32.1406197   3.9479138  78.8922403  30.7908631   4.1345625
  89.7254825  21.7780314   9.3106062  89.2219621  21.7410449   8.4973867
  90.0185432  22.6873056   9.3702718  85.9697711  21.8619043   8.3172244
  86.8350708  21.6661852   7.9578133  86.0375220  21.6329395   9.2441600
  88.8441303  33.4301585   3.3281999  88.3162664  32.6954345   3.0155236
  88.3428805  34.2076261   3.0821967  93.8234149  31.6250606   8.4449045
  93.1657823  32.3149867   8.5329174  94.6274548  32.0147038   8.7883031
  83.5760030  24.0921251   5.6888610  84.1503782  23.8696433   4.9561803
  84.1631013  24.1609946   6.4417212  89.8961982  39.9579303  -0.7486342
  89.2223681  40.2610999  -0.1401384  90.2827804  40.7608383  -1.0980885
  89.1120438  27.4544434   8.7411327  88.1943000  27.6759381   8.5833015
  89.5280582  27.5290744   7.8823035  93.4001404  34.9600980   4.6232129
  92.9463731  34.1191890   4.6797320  92.7695370  35.5962378   4.9606910
  91.8434343  36.7977476   5.5581948  92.1357317  37.3582534   4.8394313
  92.3532964  37.0906037   6.3135107  78.7370307  29.0699904   4.8356164
  78.5394707  28.4769265   4.1107231  78.1816971  28.7652115   5.5532103
  86.7167030  28.9623011   6.9550757  86.7715640  28.0096847   6.8793234
  85.9058232  29.1182450   7.4392056  84.6559390  27.5800071   4.7141136
  83.8427256  27.8794241   5.1206328  85.1518384  27.1855759   5.4315618
  86.8067968  37.5757827   6.6475401  86.7644147  37.8018674   5.7183933
  87.7230667  37.3421202   6.7961202  84.1473465  25.1518426  10.3302371
  84.7872844  25.0107185   9.6325334  83.3150996  24.8652939   9.9540973
  96.0100719  33.2336858   9.2616631  96.4437225  33.1412147  10.1099685
  96.7232299  33.2094358   8.6236647  84.9233769  34.4520856   6.4437364
  85.7174367  33.9571177   6.2419939  84.2125461  33.9238720   6.0805069
  89.7428613  36.8338952  10.7949731  89.7965636  37.4029888  11.5627447
  88.8743395  37.0040837  10.4303768  81.2316532  28.5963938   2.5197116
  80.3014121  28.5348394   2.7367078  81.3274004  28.0739891   1.7233757
  81.1502081  25.1218751   5.1075358  81.4108899  26.0364084   4.9984518
  81.9719254  24.6543194   5.2571971  82.6227007  26.5356508  12.2774182
  83.2950060  26.3273870  11.6286831  81.7956793  26.3378594  11.8379415
  96.8716268  33.2760559  11.7949516  97.0652158  34.1806369  12.0408791
  96.7716886  32.8167978  12.6288101  88.5252579  23.1618449  14.2939843
  87.8780494  23.8608399  14.2004320  89.2953594  23.5954593  14.6616092
  91.9331377  33.4267301  17.3690397  91.7816883  33.1977853  16.4520480
  91.9236056  34.3837903  17.3821742  87.5005045  35.0249878  10.1235201
  87.3616131  34.6568663  10.9961139  86.7119641  35.5397518   9.9519158
  88.0953197  40.1258975   1.4660737  88.2704953  39.6547018   2.2806360
  87.4085985  40.7524741   1.6941998  89.0510260  34.4031481   7.5124038
  88.7160093  34.3632251   8.4081688  88.5514206  33.7376197   7.0394449
  83.0254504  29.8099111  13.0376620  82.8874302  29.0779350  13.6388159
  83.9359428  29.7208011  12.7560807  85.6536805  29.5219071  12.5260299
  86.3636423  28.8812263  12.4846918  85.6106113  29.7731965  13.4486480
  93.6423583  36.4586424  15.4466878  93.5836130  35.7745644  14.7797461
  94.0443102  37.2005414  14.9947504  84.3665739  26.5084288  14.3455939
  83.8303096  26.0575027  14.9977535  83.7782447  26.6430197  13.6026403
  82.6614282  43.2748338   8.2400597  82.9010880  43.9066862   8.9179616
  81.8183479  42.9236378   8.5265957  93.6440991  34.4226008  13.6780858
  92.7567769  34.0851930  13.8007257  94.2139542  33.6909039  13.9149624
  75.2970138  30.7550100   7.0023910  75.9841178  30.4411830   6.4144925
  75.1418266  31.6591464   6.7291161  80.1004860  25.6440296  11.4308933
  80.0163049  25.0365966  10.6959343  79.2787566  26.1349314  11.4318430
  87.1742144  39.0827460  10.6442101  87.1012316  39.8882432  11.1561406
  86.7319537  39.2819426   9.8190123  86.9631924  38.3199230   4.1544923
  86.1799446  38.8620910   4.2483147  87.6624669  38.8373210   4.5539164
  89.6340828  38.9814294  12.8000260  90.3468800  39.6161759  12.7276161
  89.1430856  39.0778160  11.9840262  91.3558354  32.8865547   4.3717552
  90.4214633  33.0067009   4.2022256  91.5335023  31.9838014   4.1077561
  86.8563543  26.2711243   6.5250813  86.4861330  25.7182283   7.2131718
  87.3522635  25.6669376   5.9725813  92.4854027  29.2853345  11.4458381
  91.8325477  29.5329253  10.7910834  92.8634407  28.4717483  11.1120858
  89.4461201  39.3213038   5.5486551  89.6283595  38.5034694   6.0114304
  90.2694187  39.5380731   5.1111441  89.7803366  38.2481223   2.8101600
  90.3091133  37.7373678   2.1971762  90.0431586  37.9323754   3.6747133
  80.2820459  36.2645093  10.5536933  80.8673896  35.5188781  10.6864838
  80.0845298  36.5749049  11.4373597  83.1359114  39.2996340   5.5699376
  82.4669490  39.7842468   5.0863416  82.9971984  39.5465561   6.4842754
  74.8738114  28.8350693   9.2741377  74.9122213  28.3014284  10.0678495
  74.3678407  28.3085898   8.6552354  87.2764383  41.3340084  12.1682034
  87.8282691  41.4971705  12.9331119  87.6170576  41.9244521  11.4962059
  82.2528876  23.6815233  12.7703919  82.3170203  24.5430064  12.3581317
  82.1895996  23.0689235  12.0376277  92.1275257  36.1601341  18.0230689
  92.6715161  36.7731299  17.5285643  91.5462102  36.7180920  18.5397702
  78.5046691  27.5614795   2.3495308  78.8000133  26.6525473   2.2962362
  77.6034727  27.5402535   2.0276310  90.4132770  39.2822059   9.1545716
  90.2883910  38.4811799   8.6456662  91.0711861  39.7768253   8.6659686
  82.0340938  25.6370792   8.3322857  81.3127524  26.2506759   8.1930330
  82.8234194  26.1728556   8.2539503  92.4767679  37.0831079  10.7825266
  91.5298014  36.9636430  10.7103593  92.8250452  36.1953577  10.8651528
  80.2334533  25.2428893   2.4734633  79.9047239  24.3626272   2.2909739
  80.5873904  25.1876561   3.3611022  89.4814112  36.8783795   6.9829619
  89.3339074  35.9500503   7.1637189  90.3067605  36.9003886   6.4986694
  83.3476356  25.5301863   2.8410111  83.6872429  26.0587784   2.1188719
  83.7948477  25.8682269   3.6168677  93.0848234  37.7012354   8.0694491
  94.0094781  37.4955216   7.9318943  92.9163537  37.4528755   8.9783833
  86.0419797  23.9138913  12.2913179  85.7016617  23.1146726  12.6933859
  85.3358803  24.2140624  11.7190012  86.6936269  20.9988226  10.7440502
  87.5162338  20.5248704  10.6219392  86.9374332  21.7778709  11.2439188
  84.2174848  27.6907346   8.5532481  84.0719428  28.0047649   9.4456762
  83.7400051  28.3092247   8.0003379  86.0771231  24.6809894   8.6013370
  86.0632799  23.7850988   8.2645668  86.7943659  24.6880558   9.2351656
  87.9297361  25.1147235  10.6466498  87.6715139  26.0364305  10.6450828
  87.3982402  24.7177669  11.3366962  92.8743550  38.2198022   3.4256583
  93.0480428  37.6544444   2.6730435  93.3672441  39.0198917   3.2436073
  78.6920510  30.2312691  11.4920142  78.1473978  31.0072499  11.6240416
  79.5699860  30.5783495  11.3339263  79.4786532  29.3582587  14.3850299
  78.7368268  29.5065222  14.9714929  79.1579276  29.6190853  13.5217048
  87.4230194  38.8998565  14.1830689  87.7317321  38.6547712  15.0553388
  88.2205676  39.1045204  13.6949559  87.4450806  41.0536475   6.4136065
  87.0055797  40.5612854   7.1068922  88.1958923  40.5109443   6.1728140
  79.9243145  37.2448016   6.4160693  80.7501165  36.9451788   6.0359337
  79.5737197  36.4755638   6.8650482  84.8924679  36.5974484   8.4858367
  84.2704688  35.9345189   8.1860595  85.5629545  36.6235616   7.8032015
  78.1251750  35.1634342   7.3749627  77.2883659  34.7356517   7.1933628
  78.0975396  35.3566785   8.3120418  84.9649206  25.0756272  18.0790873
  85.0137361  25.9518395  17.6968642  85.5071720  24.5333665  17.5062516
  95.4504052  35.6197395  17.3592010  94.6599595  35.6021534  16.8196509
  95.2137406  36.1585689  18.1141047  95.5701927  32.4689862  14.6724738
  95.6199932  32.3039869  15.6140261  95.4615850  31.6017121  14.2822619
  84.4538185  35.1478407   1.9616827  84.6026306  35.8313872   1.3083500
  85.2604629  35.1283497   2.4766283  97.0720124  34.8886803  14.9166760
  96.7804932  35.2516784  15.7530221  96.4592255  34.1753811  14.7380092
  95.3207312  30.0119418  13.3846818  95.7961433  30.2047064  12.5765669
  94.3972877  30.0678604  13.1390202  82.2090818  31.1743585   2.9677896
  81.9636860  30.2705915   3.1658106  82.3786733  31.1760735   2.0257374
  81.4786466  26.9071942   0.4664058  80.7855711  26.9816297  -0.1895906
  81.2338218  26.1432286   0.9885575  87.9533591  37.6426538  -0.5671425
  87.3807558  38.2616725  -1.0200953  88.5266385  38.1925899  -0.0331503
  94.0208981  26.8885178  11.6175124  94.9726404  26.9883275  11.6387348
  93.8512431  26.0963446  12.1273208  92.0423360  23.9740761  11.8034525
  91.4473292  24.2545774  11.1081013  91.7573057  24.4634662  12.5751266
  96.4997059  30.1091297  10.7317423  96.4673379  29.1707298  10.9177107
  97.1097682  30.1875334   9.9983248  88.2219082  33.0305097  18.2345284
  89.1422091  33.2083696  18.4285331  88.1868665  32.0861142  18.0824984
  77.4401247  28.2243690   7.1598559  77.1204031  27.3708998   6.8672933
  76.8934675  28.4392268   7.9156526  81.2181155  30.9406131  10.8768065
  81.4367164  31.8723239  10.8956099  81.6306928  30.5814106  11.6622869
  86.0909020  26.5139337  20.2670814  85.9905747  27.4633694  20.1982905
  85.8730562  26.1857576  19.3946884  77.3089507  31.8446602   9.1291680
  76.6152978  31.4300555   8.6161635  78.0562498  31.8867138   8.5325099
  85.9540290  29.9436476  19.0835876  85.4707372  30.7436836  19.2899765
  86.0401229  29.9544421  18.1303320  79.2226249  31.7764856   7.0057695
  79.1996938  31.8752543   6.0539578  79.5326886  32.6230006   7.3274861
  81.8813627  33.8341011  11.1204310  82.8356881  33.8024953  11.0534241
  81.6826151  33.3731634  11.9354536  82.4713010  32.4042127  13.6875107
  83.2905898  32.8986205  13.7109945  82.7449817  31.4874095  13.6592675
  80.2363856  39.3760630   8.1374508  80.1018324  38.6161031   7.5712506
  79.8195918  40.1001530   7.6703297  83.3932982  40.2729947   8.3492950
  83.2765366  41.2175380   8.2471641  82.5725428  39.9703509   8.7378750
  90.2501316  33.8061108  19.8859445  91.1192476  33.9801760  19.5246080
  89.7708067  34.6255525  19.7635174  84.4187496  40.9258209  11.5648879
  85.3214743  40.9581819  11.8815374  84.1924866  39.9958660  11.5795215
  86.1741098  39.6789196   8.2258957  85.2236729  39.6791057   8.1123330
  86.4773584  38.9321930   7.7094992  82.0645415  23.8847878  18.4842319
  82.9276876  23.5284682  18.6945643  81.4910825  23.5461772  19.1717723
 101.9093792  45.5149734   9.2904720 102.5472202  45.3956481   8.5868060
 101.7914635  46.4630578   9.3492672  98.7183498  45.4677162   9.2266244
  98.3802009  45.3518227   8.3386779  99.5873266  45.0668327   9.2067251
  94.5770314  47.3212638   5.2163135  94.0135179  47.2302575   4.4479423
  94.4622709  46.5012543   5.6965628  99.2003281  46.6212014  15.1852450
  99.1891922  46.2264812  14.3132954  99.3623920  45.8878086  15.7786221
  92.1234746  48.8163830   8.0547356  92.9156038  48.4754655   7.6393655
  92.3631396  48.9258805   8.9749509 100.1569872  50.9883606   0.5277600
  99.5057852  51.5737687   0.1411614 100.9514235  51.5189801   0.5872638
  94.0825500  48.0772743   0.9264735  94.8556376  47.5301730   0.7877610
  94.4350898  48.9416993   1.1379196  95.9210542  49.4049126  14.1331634
  95.6300408  50.3094756  14.0178300  96.5567526  49.4465653  14.8475704
  96.8466749  46.7825974  10.7232994  97.4430321  46.5581996  10.0089957
  96.9041720  46.0410720  11.3258441  96.1388066  46.1393515   0.7607560
  96.0224324  45.4638419   1.4288644  96.2490326  45.6525889  -0.0560287
  98.4819607  45.6003662   4.4654249  98.1177814  45.0734283   5.1767170
  99.3386723  45.2102132   4.2920734 104.3868908  36.8897995  11.7285515
 104.0552232  37.7593406  11.5046730 103.7914521  36.5734279  12.4079545
 100.8800427  49.0910541  11.1281428 100.5801150  49.9935580  11.0197235
 100.5351487  48.8242724  11.9802581  94.3312909  45.5424338   7.1618132
  93.4063405  45.4100552   7.3695824  94.5797322  46.3218557   7.6588074
 104.2797571  41.6093081   8.8078865 103.3714448  41.5408490   8.5137626
 104.2285167  42.0865026   9.6360690  91.6921720  45.1857611   7.9961921
  91.8214101  45.4392090   8.9101333  91.0119171  45.7785319   7.6766576
  95.8621207  55.8554861   4.0952395  95.7845237  56.8062686   4.1740876
  95.2582851  55.5100734   4.7527322  98.3538437  43.0282727  16.7513762
  97.5771771  43.5876647  16.7416627  98.9929000  43.5139510  17.2728632
  96.6084809  45.8368180  16.3131729  97.3499493  46.3753224  16.0366553
  95.9021795  46.4634469  16.4703281 102.0840149  47.9797321  14.9103891
 102.4923505  47.5379731  14.1658523 101.3617410  47.4049948  15.1638084
  98.4371219  42.9169927  12.2837448  99.2832414  43.3409341  12.4272097
  98.3769856  42.2603552  12.9776011 102.4068963  48.5398511   8.6656180
 101.7777826  48.7044225   7.9632247 102.0194625  48.9540121   9.4367144
 106.2858195  49.4752949   6.0200543 105.6009233  49.8551850   5.4697577
 106.3702045  50.0848276   6.7532491 101.5870664  40.5774296  13.9418621
 101.3431596  41.3316356  13.4052897 101.8630595  40.9559643  14.7765868
 103.5409127  47.1212908  12.6195887 103.7526022  47.7644668  11.9430268
 103.4938875  46.2875225  12.1517817 101.1435356  39.7330729   9.5232459
 100.2819835  40.0311982   9.8149197 101.1697790  39.9501128   8.5913492
  97.9596925  48.2772919   5.9306265  98.4235271  48.5560622   5.1410887
  97.6953723  47.3756364   5.7479355  94.8521006  47.8244401   8.8686028
  95.4222363  48.2531669   8.2303512  95.4429118  47.5426986   9.5670214
  96.8965811  44.3996072   2.7395830  97.5989855  44.8517115   3.2069756
  96.5646440  43.7579891   3.3675723  95.3446173  42.9907828  17.1147039
  94.7144833  43.6724109  17.3482436  95.2382261  42.8790910  16.1700177
  90.6391145  42.6579624   8.0412963  89.8490199  42.9137153   7.5653074
  91.1302393  43.4727962   8.1465004 104.6554955  49.9984864  10.7918244
 105.4772399  49.5965051  10.5100926 104.6517358  49.8953098  11.7434360
  92.5905891  43.0224204   4.9996440  91.7937054  43.1342898   5.5179936
  92.3631483  43.3610856   4.1337331  98.4211558  49.5468907  12.9478955
  98.4855991  50.0089314  13.7837127  97.7122482  48.9166272  13.0761265
  88.9228848  42.9110115  10.4727954  89.1736887  43.7957125  10.7385530
  89.4588397  42.7314716   9.7003046  98.1359576  51.2137014   2.8157935
  98.0005251  52.0588550   3.2442783  98.6769388  51.4156292   2.0523869
  94.6226916  37.2928594  19.4772290  94.2293861  36.7394793  20.1519935
  95.4393056  37.6039173  19.8678808  91.5888973  48.7312452   3.3885860
  92.1013494  49.5255703   3.5391425  92.2411686  48.0338743   3.3219462
  93.3983858  51.8478209   5.4708613  93.5750486  52.7696173   5.2829597
  94.1940692  51.5336628   5.9002993  97.5394877  38.7086473  17.0692547
  98.2804590  39.3093626  16.9897009  97.7712799  37.9664111  16.5110589
  92.6836215  43.8942841  15.3470777  92.5689730  42.9928098  15.6477875
  91.8280732  44.1406537  14.9955593  99.7628052  51.8360581  16.9458277
  99.3191906  51.0496959  16.6279182 100.4245266  52.0239731  16.2802168
  94.5215173  53.3656382  11.4718956  95.0722599  53.2373446  10.6995950
  93.6826649  53.6651271  11.1213848 101.8609290  52.1163381  14.9739678
 101.8427766  52.9372262  14.4819948 102.7829210  51.9917456  15.1989820
  98.3182344  49.6307510  15.8163187  98.8510681  48.8695798  15.5862495
  97.7896426  49.3381162  16.5587341  89.5537890  47.0601107   4.1645431
  90.3913112  47.4698115   3.9479138  89.7316158  46.1200549   4.1345625
 100.5648580  37.1072231   9.3106062 100.0613375  37.0702367   8.4973867
 100.8579187  38.0164974   9.3702718  96.8091466  37.1910961   8.3172244
  97.6744462  36.9953770   7.9578133  96.8768975  36.9621313   9.2441600
  99.6835057  48.7593503   3.3281999  99.1556419  48.0246262   3.0155236
  99.1822560  49.5368179   3.0821967 104.6627903  46.9542523   8.4449045
 104.0051578  47.6441785   8.5329174 105.4668302  47.3438955   8.7883031
  94.4153785  39.4213169   5.6888610  94.9897537  39.1988351   4.9561803
  95.0024767  39.4901864   6.4417212  99.9514193  42.7836351   8.7411327
  99.0336754  43.0051298   8.5833015 100.3674336  42.8582662   7.8823035
 104.2395158  50.2892897   4.6232129 103.7857485  49.4483807   4.6797320
 103.6089125  50.9254296   4.9606910 102.6828097  52.1269394   5.5581948
 102.9751072  52.6874451   4.8394313 103.1926718  52.4197955   6.3135107
  89.5764061  44.3991822   4.8356164  89.3788461  43.8061183   4.1107231
  89.0210725  44.0944032   5.5532103  97.5560785  44.2914928   6.9550757
  97.6109395  43.3388765   6.8793234  96.7451987  44.4474368   7.4392056
  95.4953145  42.9091988   4.7141136  94.6821010  43.2086159   5.1206328
  95.9912139  42.5147677   5.4315618  97.6461723  52.9049745   6.6475401
  97.6037901  53.1310591   5.7183933  98.5624422  52.6713120   6.7961202
 101.0927356  43.3733813  13.5456030 101.4476744  43.6005286  14.4050496
 101.7399488  43.7052189  12.9233285  94.9867220  40.4810344  10.3302371
  95.6266599  40.3399103   9.6325334  94.1544750  40.1944857   9.9540973
 106.8494473  48.5628776   9.2616631 107.2830980  48.4704065  10.1099685
 107.5626054  48.5386276   8.6236647  95.7627523  49.7812774   6.4437364
  96.5568122  49.2863094   6.2419939  95.0519216  49.2530637   6.0805069
 100.5822368  52.1630870  10.7949731 100.6359390  52.7321806  11.5627447
  99.7137149  52.3332755  10.4303768  92.0710287  43.9255856   2.5197116
  91.1407875  43.8640311   2.7367078  92.1667759  43.4031809   1.7233757
  91.9895836  40.4510669   5.1075358  92.2502653  41.3656002   4.9984518
  92.8113008  39.9835111   5.2571971  93.4620761  41.8648426  12.2774182
  94.1343815  41.6565788  11.6286831  92.6350548  41.6670512  11.8379415
 107.7110023  48.6052476  11.7949516 107.9045913  49.5098287  12.0408791
 107.6110641  48.1459895  12.6288101  99.3646333  38.4910367  14.2939843
  98.7174248  39.1900316  14.2004320 100.1347349  38.9246511  14.6616092
 102.7725131  48.7559219  17.3690397 102.6210638  48.5269771  16.4520480
 102.7629811  49.7129820  17.3821742  99.5410468  46.3291132  12.3536663
 100.4702528  46.4802291  12.1805630  99.1201498  46.4175153  11.4985310
  98.3398799  50.3541796  10.1235201  98.2009885  49.9860581  10.9961139
  97.5513396  50.8689436   9.9519158  98.9346951  55.4550893   1.4660737
  99.1098707  54.9838936   2.2806360  98.2479739  56.0816659   1.6941998
  99.8904015  49.7323399   7.5124038  99.5553847  49.6924169   8.4081688
  99.3907960  49.0668115   7.0394449  93.8648259  45.1391029  13.0376620
  93.7268056  44.4071268  13.6388159  94.7753182  45.0499929  12.7560807
  96.4930559  44.8510988  12.5260299  97.2030178  44.2104180  12.4846918
  96.4499867  45.1023883  13.4486480 104.4817338  51.7878342  15.4466878
 104.4229884  51.1037562  14.7797461 104.8836856  52.5297332  14.9947504
  95.2059493  41.8376206  14.3455939  94.6696850  41.3866945  14.9977535
  94.6176202  41.9722115  13.6026403  93.5008037  58.6040255   8.2400597
  93.7404635  59.2358780   8.9179616  92.6577233  58.2528295   8.5265957
 104.4834745  49.7517925  13.6780858 103.5961524  49.4143847  13.8007257
 105.0533296  49.0200957  13.9149624  86.1363892  46.0842017   7.0023910
  86.8234932  45.7703747   6.4144925  85.9812021  46.9883382   6.7291161
  90.9398614  40.9732214  11.4308933  90.8556803  40.3657883  10.6959343
  90.1181321  41.4641232  11.4318430  98.0135899  54.4119378  10.6442101
  97.9406070  55.2174349  11.1561406  97.5713292  54.6111344   9.8190123
  97.8025678  53.6491148   4.1544923  97.0193200  54.1912828   4.2483147
  98.5018423  54.1665128   4.5539164 100.4734582  54.3106212  12.8000260
 101.1862554  54.9453677  12.7276161  99.9824611  54.4070078  11.9840262
 102.1952109  48.2157465   4.3717552 101.2608388  48.3358927   4.2022256
 102.3728777  47.3129931   4.1077561  97.6957297  41.6003160   6.5250813
  97.3255085  41.0474201   7.2131718  98.1916389  40.9961294   5.9725813
  95.5246496  52.0600655  13.6205831  96.2255955  52.6937138  13.7735225
  95.0541611  52.4015387  12.8601470 103.3247782  44.6145263  11.4458381
 102.6719232  44.8621170  10.7910834 103.7028161  43.8009401  11.1120858
 100.2854955  54.6504956   5.5486551 100.4677350  53.8326612   6.0114304
 101.1087941  54.8672648   5.1111441 100.6197121  53.5773141   2.8101600
 101.1484887  53.0665596   2.1971762 100.8825341  53.2615671   3.6747133
  99.3735355  45.3565074  17.9324418  98.6975992  45.2559203  18.6026793
 100.1962988  45.2004288  18.3960415  91.1214214  51.5937010  10.5536933
  91.7067650  50.8480698  10.6864838  90.9239052  51.9040967  11.4373597
  93.9752869  54.6288258   5.5699376  93.3063244  55.1134385   5.0863416
  93.8365739  54.8757478   6.4842754  85.7131868  44.1642611   9.2741377
  85.7515968  43.6306201  10.0678495  85.2072161  43.6377816   8.6552354
  98.1158137  56.6632001  12.1682034  98.6676446  56.8263623  12.9331119
  98.4564331  57.2536439  11.4962059  93.0922631  39.0107151  12.7703919
  93.1563957  39.8721982  12.3581317  93.0289751  38.3981153  12.0376277
  92.5674903  41.0830284  16.4176953  93.1946942  40.7007361  17.0314478
  91.7102822  40.8644486  16.7832646 102.9669012  51.4893259  18.0230689
 103.5108916  52.1023217  17.5285643 102.3855857  52.0472837  18.5397702
  89.3440446  42.8906713   2.3495308  89.6393887  41.9817391   2.2962362
  88.4428482  42.8694452   2.0276310 101.2526525  54.6113977   9.1545716
 101.1277664  53.8103717   8.6456662 101.9105616  55.1060170   8.6659686
  92.8734693  40.9662709   8.3322857  92.1521279  41.5798677   8.1930330
  93.6627949  41.5020474   8.2539503 103.3161433  52.4122997  10.7825266
 102.3691769  52.2928348  10.7103593 103.6644206  51.5245495  10.8651528
  95.6761007  38.3017136  14.6063508  96.1995408  38.5479432  15.3689818
  95.4573340  39.1337171  14.1866646  91.0728288  40.5720810   2.4734633
  90.7440994  39.6918189   2.2909739  91.4267658  40.5168479   3.3611022
 100.3207866  52.2075713   6.9829619 100.1732829  51.2792421   7.1637189
 101.1461360  52.2295804   6.4986694  94.1870111  40.8593780   2.8410111
  94.5266183  41.3879701   2.1188719  94.6342231  41.1974186   3.6168677
 103.9241988  53.0304272   8.0694491 104.8488536  52.8247133   7.9318943
 103.7557292  52.7820673   8.9783833  96.8813552  39.2430831  12.2913179
  96.5410372  38.4438644  12.6933859  96.1752558  39.5432542  11.7190012
  97.5330023  36.3280143  10.7440502  98.3556093  35.8540622  10.6219392
  97.7768087  37.1070627  11.2439188  95.0568602  43.0199264   8.5532481
  94.9113183  43.3339567   9.4456762  94.5793806  43.6384164   8.0003379
  96.9164985  40.0101812   8.6013370  96.9026554  39.1142905   8.2645668
  97.6337413  40.0172476   9.2351656  98.7691116  40.4439152  10.6466498
  98.5108894  41.3656223  10.6450828  98.2376156  40.0469587  11.3366962
 103.7137304  53.5489939   3.4256583 103.8874182  52.9836362   2.6730435
 104.2066196  54.3490834   3.2436073  89.5314264  45.5604608  11.4920142
  88.9867732  46.3364416  11.6240416  90.4093614  45.9075413  11.3339263
  90.3180286  44.6874505  14.3850299  89.5762022  44.8357140  14.9714929
  89.9973030  44.9482770  13.5217048  98.2623949  54.2290483  14.1830689
  98.5711075  53.9839630  15.0553388  99.0599431  54.4337121  13.6949559
  98.2844561  56.3828393   6.4136065  97.8449551  55.8904771   7.1068922
  99.0352678  55.8401360   6.1728140  90.7636900  52.5739933   6.4160693
  91.5894920  52.2743705   6.0359337  90.4130952  51.8047556   6.8650482
  95.7318433  51.9266402   8.4858367  95.1098442  51.2637107   8.1860595
  96.4023300  51.9527533   7.8032015  88.9645505  50.4926260   7.3749627
  88.1277413  50.0648434   7.1933628  88.9369150  50.6858703   8.3120418
  95.8042960  40.4048190  18.0790873  95.8531116  41.2810312  17.6968642
  96.3465475  39.8625583  17.5062516 106.2897806  50.9489313  17.3592010
 105.4993350  50.9313452  16.8196509 106.0531161  51.4877607  18.1141047
 106.4095681  47.7981779  14.6724738 106.4593686  47.6331787  15.6140261
 106.3009605  46.9309038  14.2822619  95.2931940  50.4770325   1.9616827
  95.4420060  51.1605789   1.3083500  96.0998383  50.4575415   2.4766283
 103.6999444  43.7812707  15.9884045 104.6009306  43.6419172  15.6968043
 103.7747418  43.9467162  16.9282223  98.0342249  41.1579562  14.8337231
  97.1645558  41.4513128  14.5619820  98.2701729  41.7420007  15.5544495
 107.9113878  50.2178721  14.9166760 107.6198686  50.5808701  15.7530221
 107.2986009  49.5045729  14.7380092 106.1601066  45.3411335  13.3846818
 106.6355188  45.5338982  12.5765669 105.2366632  45.3970521  13.1390202
  93.0484573  46.5035503   2.9677896  92.8030615  45.5997833   3.1658106
  93.2180487  46.5052653   2.0257374 100.7381283  37.3759179  12.3502652
 101.2563227  38.1120206  12.0249140 100.3836416  37.6823172  13.1849411
  92.3180220  42.2363860   0.4664058  91.6249465  42.3108215  -0.1895906
  92.0731972  41.4724204   0.9885575  98.7927345  52.9718455  -0.5671425
  98.2201313  53.5908643  -1.0200953  99.3660139  53.5217817  -0.0331503
 104.8602735  42.2177095  11.6175124 105.8120158  42.3175193  11.6387348
 104.6906186  41.4255364  12.1273208 102.8817115  39.3032679  11.8034525
 102.2867047  39.5837691  11.1081013 102.5966811  39.7926580  12.5751266
 107.3390813  45.4383215  10.7317423 107.3067133  44.4999216  10.9177107
 107.9491437  45.5167252   9.9983248  99.0612836  48.3597014  18.2345284
  99.9815846  48.5375613  18.4285331  99.0262419  47.4153060  18.0824984
  88.2795001  43.5535608   7.1598559  87.9597786  42.7000916   6.8672933
  87.7328430  43.7684186   7.9156526  92.0574909  46.2698049  10.8768065
  92.2760919  47.2015157  10.8956099  92.4700683  45.9106023  11.6622869
  96.9302774  41.8431255  20.2670814  96.8299501  42.7925612  20.1982905
  96.7124316  41.5149494  19.3946884  88.1483261  47.1738519   9.1291680
  87.4546733  46.7592472   8.6161635  88.8956252  47.2159056   8.5325099
  96.7934044  45.2728394  19.0835876  96.3101126  46.0728754  19.2899765
  96.8794983  45.2836338  18.1303320  90.0620004  47.1056773   7.0057695
  90.0390692  47.2044460   6.0539578  90.3720640  47.9521924   7.3274861
  92.7207382  49.1632928  11.1204310  93.6750635  49.1316871  11.0534241
  92.5219905  48.7023552  11.9354536  93.3106764  47.7334044  13.6875107
  94.1299653  48.2278123  13.7109945  93.5843572  46.8166012  13.6592675
  91.0757611  54.7052548   8.1374508  90.9412079  53.9452949   7.5712506
  90.6589673  55.4293448   7.6703297  94.2326737  55.6021865   8.3492950
  94.1159121  56.5467297   8.2471641  93.4119183  55.2995426   8.7378750
  88.5641678  42.0672178  14.3867305  89.2100542  41.5571132  14.8754530
  88.3558829  42.8040860  14.9610730 101.0895070  49.1353026  19.8859445
 101.9586230  49.3093678  19.5246080 100.6101822  49.9547442  19.7635174
  95.2581251  56.2550127  11.5648879  96.1608497  56.2873737  11.8815374
  95.0318621  55.3250578  11.5795215  97.0134853  55.0081113   8.2258957
  96.0630484  55.0082975   8.1123330  97.3167339  54.2613848   7.7094992
  92.9039169  39.2139795  18.4842319  93.7670631  38.8576600  18.6945643
  92.3304580  38.8753690  19.1717723 112.7487546  60.8441652   9.2904720
 113.3865956  60.7248399   8.5868060 112.6308389  61.7922496   9.3492672
 109.5577252  60.7969080   9.2266244 109.2195764  60.6810144   8.3386779
 110.4267021  60.3960245   9.2067251 110.0397035  61.9503931  15.1852450
 110.0285676  61.5556730  14.3132954 110.2017675  61.2170004  15.7786221
 102.9628500  64.1455748   8.0547356 103.7549792  63.8046572   7.6393655
 103.2025150  64.2550723   8.9749509 106.7604297  64.7341043  14.1331634
 106.4694163  65.6386674  14.0178300 107.3961281  64.7757571  14.8475704
 107.6860503  62.1117892  10.7232994 108.2824076  61.8873914  10.0089957
 107.7435475  61.3702637  11.3258441 115.2262662  52.2189913  11.7285515
 114.8945987  53.0885324  11.5046730 114.6308276  51.9026197  12.4079545
 111.7194182  64.4202459  11.1281428 111.4194905  65.3227498  11.0197235
 111.3745241  64.1534642  11.9802581 105.1706663  60.8716256   7.1618132
 104.2457160  60.7392470   7.3695824 105.4191076  61.6510475   7.6588074
 115.1191325  56.9384999   8.8078865 114.2108203  56.8700407   8.5137626
 115.0678921  57.4156944   9.6360690 102.5315474  60.5149529   7.9961921
 102.6607855  60.7684008   8.9101333 101.8512925  61.1077237   7.6766576
 109.1932191  58.3574644  16.7513762 108.4165525  58.9168565  16.7416627
 109.8322754  58.8431427  17.2728632 107.4478564  61.1660098  16.3131729
 108.1893248  61.7045142  16.0366553 106.7415549  61.7926387  16.4703281
 112.9233903  63.3089238  14.9103891 113.3317259  62.8671649  14.1658523
 112.2011165  62.7341866  15.1638084 109.2764973  58.2461845  12.2837448
 110.1226168  58.6701259  12.4272097 109.2163611  57.5895469  12.9776011
 112.4264419  55.9066213  13.9418621 112.1825350  56.6608274  13.4052897
 112.7024349  56.2851561  14.7765868 114.3802881  62.4504826  12.6195887
 114.5919777  63.0936586  11.9430268 114.3332630  61.6167142  12.1517817
 111.9829110  55.0622646   9.5232459 111.1213589  55.3603900   9.8149197
 112.0091545  55.2793045   8.5913492 105.6914761  63.1536319   8.8686028
 106.2616118  63.5823587   8.2303512 106.2822873  62.8718903   9.5670214
 106.1839927  58.3199746  17.1147039 105.5538588  59.0016027  17.3482436
 106.0776015  58.2082828  16.1700177 101.4784900  57.9871542   8.0412963
 100.6883954  58.2429071   7.5653074 101.9696147  58.8019880   8.1465004
 103.4299645  58.3516121   4.9996440 102.6330808  58.4634816   5.5179936
 103.2025237  58.6902774   4.1337331 109.2605313  64.8760825  12.9478955
 109.3249745  65.3381232  13.7837127 108.5516237  64.2458189  13.0761265
  99.7622603  58.2402033  10.4727954 100.0130641  59.1249042  10.7385530
 100.2982151  58.0606634   9.7003046 105.4620670  52.6220512  19.4772290
 105.0687616  52.0686710  20.1519935 106.2786810  52.9331090  19.8678808
 108.3788631  54.0378391  17.0692547 109.1198344  54.6385544  16.9897009
 108.6106554  53.2956029  16.5110589 103.5229969  59.2234758  15.3470777
 103.4083484  58.3220015  15.6477875 102.6674487  59.4698455  14.9955593
 110.6021807  67.1652499  16.9458277 110.1585661  66.3788877  16.6279182
 111.2639020  67.3531649  16.2802168 105.3608928  68.6948300  11.4718956
 105.9116353  68.5665363  10.6995950 104.5220404  68.9943189  11.1213848
 112.7003045  67.4455298  14.9739678 112.6821520  68.2664180  14.4819948
 113.6222965  67.3209374  15.1989820 109.1576099  64.9599428  15.8163187
 109.6904436  64.1987716  15.5862495 108.6290180  64.6673080  16.5587341
 111.4042334  52.4364149   9.3106062 110.9007130  52.3994284   8.4973867
 111.6972941  53.3456892   9.3702718 107.6485220  52.5202879   8.3172244
 108.5138217  52.3245687   7.9578133 107.7162729  52.2913231   9.2441600
 105.2547539  54.7505087   5.6888610 105.8291291  54.5280268   4.9561803
 105.8418522  54.8193781   6.4417212 110.7907947  58.1128269   8.7411327
 109.8730509  58.3343216   8.5833015 111.2068091  58.1874580   7.8823035
 100.4157816  59.7283740   4.8356164 100.2182216  59.1353100   4.1107231
  99.8604480  59.4235950   5.5532103 108.3954539  59.6206846   6.9550757
 108.4503149  58.6680683   6.8793234 107.5845741  59.7766285   7.4392056
 106.3346899  58.2383906   4.7141136 105.5214765  58.5378076   5.1206328
 106.8305893  57.8439595   5.4315618 111.9321111  58.7025730  13.5456030
 112.2870499  58.9297204  14.4050496 112.5793242  59.0344107  12.9233285
 105.8260974  55.8102261  10.3302371 106.4660353  55.6691021   9.6325334
 104.9938505  55.5236775   9.9540973 102.8289590  55.7802586   5.1075358
 103.0896408  56.6947920   4.9984518 103.6506763  55.3127029   5.2571971
 104.3014516  57.1940344  12.2774182 104.9737569  56.9857706  11.6286831
 103.4744302  56.9962430  11.8379415 110.2040088  53.8202285  14.2939843
 109.5568003  54.5192234  14.2004320 110.9741103  54.2538428  14.6616092
 113.6118886  64.0851137  17.3690397 113.4604392  63.8561688  16.4520480
 113.6023565  65.0421738  17.3821742 110.3804222  61.6583049  12.3536663
 111.3096282  61.8094209  12.1805630 109.9595252  61.7467070  11.4985310
 109.1792554  65.6833714  10.1235201 109.0403640  65.3152498  10.9961139
 108.3907150  66.1981353   9.9519158 104.7042013  60.4682947  13.0376620
 104.5661811  59.7363185  13.6388159 105.6146936  60.3791847  12.7560807
 107.3324314  60.1802906  12.5260299 108.0423932  59.5396098  12.4846918
 107.2893622  60.4315801  13.4486480 115.3211092  67.1170259  15.4466878
 115.2623639  66.4329479  14.7797461 115.7230611  67.8589249  14.9947504
 106.0453248  57.1668124  14.3455939 105.5090605  56.7158862  14.9977535
 105.4569956  57.3014033  13.6026403 115.3228500  65.0809843  13.6780858
 114.4355278  64.7435765  13.8007257 115.8927051  64.3492874  13.9149624
  96.9757647  61.4133935   7.0023910  97.6628687  61.0995665   6.4144925
  96.8205775  62.3175300   6.7291161 101.7792369  56.3024131  11.4308933
 101.6950558  55.6949801  10.6959343 100.9575075  56.7933150  11.4318430
 108.5351052  56.9295078   6.5250813 108.1648839  56.3766118   7.2131718
 109.0310144  56.3253211   5.9725813 106.3640250  67.3892573  13.6205831
 107.0649710  68.0229056  13.7735225 105.8935365  67.7307305  12.8601470
 114.1641536  59.9437180  11.4458381 113.5112986  60.1913088  10.7910834
 114.5421916  59.1301319  11.1120858 110.2129109  60.6856992  17.9324418
 109.5369746  60.5851121  18.6026793 111.0356743  60.5296205  18.3960415
 101.9607968  66.9228928  10.5536933 102.5461405  66.1772616  10.6864838
 101.7632807  67.2332885  11.4373597  96.5525623  59.4934528   9.2741377
  96.5909722  58.9598119  10.0678495  96.0465916  58.9669734   8.6552354
 103.9316385  54.3399069  12.7703919 103.9957712  55.2013900  12.3581317
 103.8683505  53.7273070  12.0376277 103.4068658  56.4122201  16.4176953
 104.0340697  56.0299279  17.0314478 102.5496577  56.1936403  16.7832646
 113.8062766  66.8185176  18.0230689 114.3502670  67.4315135  17.5285643
 113.2249611  67.3764755  18.5397702 100.1834200  58.2198630   2.3495308
 100.4787642  57.3109309   2.2962362  99.2822236  58.1986370   2.0276310
 103.7128447  56.2954627   8.3322857 102.9915033  56.9090595   8.1930330
 104.5021703  56.8312392   8.2539503 106.5154761  53.6309053  14.6063508
 107.0389163  53.8771350  15.3689818 106.2967094  54.4629088  14.1866646
 101.9122042  55.9012728   2.4734633 101.5834748  55.0210107   2.2909739
 102.2661413  55.8460397   3.3611022 107.7207306  54.5722749  12.2913179
 107.3804126  53.7730562  12.6933859 107.0146312  54.8724459  11.7190012
 108.3723778  51.6572061  10.7440502 109.1949847  51.1832539  10.6219392
 108.6161841  52.4362545  11.2439188 105.8962357  58.3491182   8.5532481
 105.7506937  58.6631485   9.4456762 105.4187560  58.9676082   8.0003379
 107.7558739  55.3393730   8.6013370 107.7420308  54.4434823   8.2645668
 108.4731168  55.3464393   9.2351656 109.6084870  55.7731070  10.6466498
 109.3502648  56.6948141  10.6450828 109.0769911  55.3761504  11.3366962
 100.3708019  60.8896526  11.4920142  99.8261487  61.6656334  11.6240416
 101.2487369  61.2367331  11.3339263 101.1574041  60.0166422  14.3850299
 100.4155777  60.1649058  14.9714929 100.8366785  60.2774688  13.5217048
 109.1017703  69.5582401  14.1830689 109.4104830  69.3131547  15.0553388
 109.8993185  69.7629039  13.6949559  99.8039259  65.8218178   7.3749627
  98.9671168  65.3940352   7.1933628  99.7762905  66.0150621   8.3120418
 106.6436715  55.7340107  18.0790873 106.6924870  56.6102230  17.6968642
 107.1859229  55.1917500  17.5062516 117.1291561  66.2781231  17.3592010
 116.3387104  66.2605369  16.8196509 116.8924915  66.8169524  18.1141047
 117.2489436  63.1273697  14.6724738 117.2987441  62.9623704  15.6140261
 117.1403359  62.2600956  14.2822619 114.5393198  59.1104625  15.9884045
 115.4403061  58.9711090  15.6968043 114.6141173  59.2759080  16.9282223
 108.8736003  56.4871480  14.8337231 108.0039313  56.7805046  14.5619820
 109.1095484  57.0711925  15.5544495 118.7507633  65.5470638  14.9166760
 118.4592441  65.9100619  15.7530221 118.1379764  64.8337647  14.7380092
 116.9994821  60.6703253  13.3846818 117.4748942  60.8630899  12.5765669
 116.0760386  60.7262439  13.1390202 111.5775037  52.7051097  12.3502652
 112.0956981  53.4412124  12.0249140 111.2230170  53.0115090  13.1849411
 115.6996490  57.5469013  11.6175124 116.6513913  57.6467111  11.6387348
 115.5299940  56.7547282  12.1273208 113.7210869  54.6324596  11.8034525
 113.1260801  54.9129609  11.1081013 113.4360566  55.1218497  12.5751266
 109.9006591  63.6888932  18.2345284 110.8209600  63.8667531  18.4285331
 109.8656174  62.7444977  18.0824984  99.1188756  58.8827526   7.1598559
  98.7991540  58.0292834   6.8672933  98.5722184  59.0976104   7.9156526
 102.8968664  61.5989967  10.8768065 103.1154673  62.5307074  10.8956099
 103.3094437  61.2397941  11.6622869 107.7696529  57.1723172  20.2670814
 107.6693256  58.1217529  20.1982905 107.5518071  56.8441411  19.3946884
  98.9877016  62.5030437   9.1291680  98.2940487  62.0884390   8.6161635
  99.7350007  62.5450974   8.5325099 107.6327799  60.6020311  19.0835876
 107.1494881  61.4020671  19.2899765 107.7188738  60.6128256  18.1303320
 100.9013758  62.4348691   7.0057695 100.8784447  62.5336378   6.0539578
 101.2114395  63.2813842   7.3274861 103.5601136  64.4924846  11.1204310
 104.5144390  64.4608788  11.0534241 103.3613660  64.0315470  11.9354536
 104.1500518  63.0625962  13.6875107 104.9693407  63.5570041  13.7109945
 104.4237326  62.1457930  13.6592675  99.4035433  57.3964096  14.3867305
 100.0494296  56.8863050  14.8754530  99.1952584  58.1332777  14.9610730
 111.9288825  64.4644943  19.8859445 112.7979985  64.6385596  19.5246080
 111.4495576  65.2839360  19.7635174 106.0975005  71.5842044  11.5648879
 107.0002252  71.6165655  11.8815374 105.8712375  70.6542495  11.5795215
 103.7432924  54.5431713  18.4842319 104.6064385  54.1868518  18.6945643
 103.1698334  54.2045608  19.1717723 116.3014424  67.9512430  19.4772290
 115.9081370  67.3978628  20.1519935 117.1180565  68.2623008  19.8678808
 119.2182385  69.3670309  17.0692547 119.9592099  69.9677462  16.9897009
 119.4500308  68.6247946  16.5110589 114.2462412  71.7414119  16.4176953
 114.8734451  71.3591196  17.0314478 113.3890331  71.5228321  16.7832646
 117.4830469  71.0632025  18.0790873 117.5318625  71.9394148  17.6968642
 118.0252984  70.5209418  17.5062516 118.6090283  72.5015090  20.2670814
 118.5087010  73.4509447  20.1982905 118.3911825  72.1733329  19.3946884
 110.2429187  72.7256014  14.3867305 110.8888051  72.2154967  14.8754530
 110.0346338  73.4624695  14.9610730 114.5826678  69.8723631  18.4842319
 115.4458140  69.5160435  18.6945643 114.0092089  69.5337525  19.1717723
   4.3523395  77.0007453  86.7931373   3.5987104  76.4314851  86.6375377
   4.4870937  76.9670117  87.7402007   0.7172008  78.4415441  87.0897487
   1.5518899  78.8805245  87.2535048   0.8531137  77.9654094  86.2705733
   4.7629810  77.1583063  89.5251617   5.4933199  76.8968351  90.0859320
   4.1536756  76.4211785  89.5653685   2.8445108  75.2990925  90.1226068
   2.1178271  75.1646890  89.5142560   2.4292394  75.6067754  90.9282786
   0.4622903  71.5202777  87.4759500   1.0567393  71.2798513  86.7652808
   0.5349486  70.8009908  88.1033036   2.7693975  74.8268978  86.2502921
   2.2093533  74.8962168  87.0234483   2.1637479  74.6509963  85.5302417
   4.3549994  91.5025492  88.9432877   4.9928404  91.3832240  88.2396217
   4.2370837  92.4506336  89.0020829   1.1639700  91.4552920  88.8794402
   0.8258212  91.3393985  87.9914936   2.0329468  91.0544085  88.8595408
   2.6026074  96.9759364  80.1805757   1.9514054  97.5613445  79.7939771
   3.3970437  97.5065559  80.2400795   3.9091262  89.2276946  86.0186085
   4.6954351  88.8096369  85.6676502   4.1729967  90.1323038  86.1867733
   4.0801340  94.6649796  80.7174742   3.4447173  94.7384423  81.4295646
   3.7498746  95.2543395  80.0393821   9.3099689  89.1652179  86.9219063
  10.0424861  88.5951396  87.1556893   8.5539045  88.7773780  87.3625569
   0.9275809  91.5879421  84.1182406   0.5634016  91.0610042  84.8295327
   1.7842925  91.1977890  83.9448891   6.8325110  82.8773753  91.3813672
   6.5008434  83.7469164  91.1574887   6.2370723  82.5610037  92.0607702
   3.3256629  95.0786299  90.7809585   3.0257352  95.9811338  90.6725392
   2.9807689  94.8118483  91.6330738   6.7253773  87.5968840  88.4607022
   5.8170650  87.5284248  88.1665783   6.6741369  88.0740785  89.2888848
   8.5915419  85.7985278  90.2384896   7.9489800  86.0917811  89.5924691
   8.0870348  85.6838198  91.0438093   6.2455583  89.5448451  80.9270755
   7.1573439  89.7775838  80.7518453   5.7365230  90.1285495  80.3645834
   0.8827421  88.9045686  91.9365605   1.7288616  89.3285099  92.0800254
   0.8226058  88.2479310  92.6304168   4.8525165  94.5274270  88.3184337
   4.2234028  94.6919984  87.6160405   4.4650827  94.9415879  89.0895301
   8.7314397  95.4628707  85.6728700   8.0465435  95.8427609  85.1225734
   8.8158247  96.0724034  86.4060648   4.0326866  86.5650054  93.5946778
   3.7887798  87.3192115  93.0581054   4.3086797  86.9435402  94.4294025
   5.9865329  93.1088667  92.2724044   6.1982224  93.7520426  91.5958425
   5.9395077  92.2750983  91.8045974   3.5891558  85.7206487  89.1760616
   2.7276037  86.0187741  89.4677354   3.6153992  85.9376886  88.2441649
   7.1011157  95.9860622  90.4446401   7.9228601  95.5840809  90.1629083
   7.0973560  95.8828856  91.3962517  15.1917150  92.3299370  86.7931373
  14.4380858  91.7606768  86.6375377  15.3264691  92.2962035  87.7402007
   0.5815778  97.2012773  82.4686092   0.4461453  98.0464308  82.8970940
   1.1225590  97.4032050  81.7052026   3.9308241  80.7243335  90.9984986
   3.5872511  81.6144976  90.9224096   4.2987204  80.5344992  90.1354571
   3.8958524  90.7151946  79.5057421   3.3805148  91.4856550  79.7445808
   3.6235833  90.0417082  80.1290482   1.4805635  85.5601646  84.5642659
   0.6247232  85.1708497  84.3848298   1.8932587  85.6393607  83.7042445
   3.0104782  83.0947990  88.9634219   2.5069577  83.0578125  88.1502024
   3.3035389  84.0040732  89.0230876   8.8692798  93.4684300  81.4410594
   8.0922241  93.1295460  80.9965756   9.5484279  93.4736924  80.7665559
   3.6844827  88.5879038  81.3317202   3.3794963  88.9025187  82.1827345
   4.6375270  88.6660458  81.3744535   2.1291259  94.7469261  82.9810156
   1.6012621  94.0122021  82.6683393   1.6278762  95.5243937  82.7350124
   7.1084105  92.9418282  88.0977202   6.4507780  93.6317543  88.1857331
   7.9124504  93.3314714  88.4411189   5.9189564  91.2962654  86.1481144
   6.4321446  91.9292646  86.6502854   6.5690788  90.6963850  85.7824504
   3.1811938 101.2746979  78.9041815   2.5073637 101.5778675  79.5126773
   3.5677760 102.0776059  78.5547272   2.3970395  88.7712110  88.3939484
   1.4792956  88.9927057  88.2361173   2.8130539  88.8458420  87.5351192
   3.1805443  90.1703526  83.5242165   3.9277262  90.6824923  83.2149287
   3.4497032  89.8487578  84.3846558   1.4532093  92.6662066  80.5069119
   0.5443312  92.3821099  80.6041589   1.4827177  93.0861145  79.6472426
   6.6851360  96.2768656  84.2760287   6.2313687  95.4359566  84.3325477
   6.0545327  96.9130054  84.6135067   5.6284280  87.2060642  85.5060954
   4.8907037  86.6938028  85.8371197   5.8811053  86.7661023  84.6944231
   5.1284300  98.1145152  85.2110105   5.4207274  98.6750210  84.4922470
   5.6382920  98.4073713  85.9663264   5.7295907  79.9836894  86.1002723
   6.0354784  79.1234257  85.8128638   6.4548512  80.5754514  85.9001717
   1.1508181  94.2070810  77.8457198   0.7127611  93.4906669  77.3862835
   1.8918622  94.4346925  77.2842289   3.5383558  89.3609571  93.1984187
   3.8932946  89.5881044  94.0578653   4.1855690  89.6927948  92.5761442
   9.2681295  92.4828007  83.9033516   9.1299194  92.6729603  82.9754705
   8.9117514  93.2447390  84.3601567   9.2950675  94.5504534  88.9144788
   9.7287182  94.4579823  89.7627842  10.0082256  94.5262034  88.2764804
  10.1566225  94.5928235  91.4477673  10.3502115  95.4974045  91.6936948
  10.0566843  94.1335654  92.2816258   1.8102535  84.4786125  93.9468000
   1.1630450  85.1776075  93.8532477   2.5803551  84.9122269  94.3144249
   1.9866670  92.3166890  92.0064820   2.9158730  92.4678050  91.8333787
   1.5657700  92.4050911  91.1513467   1.3803153 101.4426651  81.1188894
   1.5554909 100.9714694  81.9334517   0.6935941 102.0692417  81.3470155
   2.3360217  95.7199157  87.1652196   2.0010049  95.6799927  88.0609845
   1.8364162  95.0543873  86.6922606   5.2719408  93.0655192  77.4389255
   4.6548579  92.3402020  77.3422308   4.8035897  93.8264552  77.0956329
   6.9290947  95.7393684  93.3309015   6.0417726  95.4019606  93.4535414
   7.4989498  95.0076715  93.5677781   3.5578530  85.4461536  86.4507285
   4.0547230  84.6931498  86.1308356   2.7865512  85.4825852  85.8850495
  11.4108288  91.1501901  88.0925577  11.3998164  92.0326617  87.7219510
  10.5425667  90.7973452  87.8980114   4.6408311  94.2033223  84.0245709
   3.7064590  94.3234685  83.8550413   4.8184979  93.3005690  83.7605719
   8.0280862  90.0450542  84.5595743   8.4941315  90.8778534  84.4856046
   8.4788363  89.5795524  85.2641001   6.0957093  96.3894363  81.5581895
   6.3716937  96.2750958  82.4675769   5.2261592  95.9911848  81.5194068
   5.9997525  82.4131129  88.5986644   5.0860605  82.6435356  88.7668851
   6.4290627  82.4969573  89.4500677   5.7703984  90.6021021  91.0986538
   5.1175434  90.8496929  90.4438991   6.1484364  89.7885159  90.7649016
   2.7311157 100.6380714  85.2014709   2.9133552  99.8202370  85.6642461
   3.5544144 100.8548407  84.7639599   3.0653323  99.5648899  82.4629757
   3.5941089  99.0541354  81.8499919   3.3281543  99.2491430  83.3275290
   3.6982727 100.5989735  88.8073874   3.5733866  99.7979475  88.2984819
   4.3561818 101.0935929  88.3187843   5.7617635  98.3998755  90.4353424
   4.8147971  98.2804106  90.3631750   6.1100408  97.5121253  90.5179685
   2.7664068  98.1951471  86.6357776   2.6189031  97.2668179  86.8165346
   3.5917562  98.2171562  86.1514851   6.3698190  99.0180030  87.7222649
   7.2944738  98.8122892  87.5847100   6.2013494  98.7696431  88.6311990
   2.7625583  86.0489309  81.6289893   2.9789197  86.9313947  81.3278721
   2.2819650  85.6575523  80.8995535   1.2147318  86.4314911  90.2994655
   0.9565096  87.3531981  90.2978985   0.6832358  86.0345345  90.9895119
   6.1593507  99.5365698  83.0784740   6.3330384  98.9712120  82.3258592
   6.6522398 100.3366593  82.8964230   1.6349273  82.5646861  86.6595817
   1.6570970  82.6286194  85.7047797   2.0517332  81.7251370  86.8536323
  12.0132898  92.3002121  84.6975040  12.4564044  91.5509446  84.2994163
  11.1359408  92.2912257  84.3148772   7.1468679  98.8532462  80.1781638
   7.8419584  99.4739155  80.3968953   7.4891829  98.0027813  80.4534016
   9.0460102  96.3032168  81.7068969   9.5711426  96.6419440  80.9818289
   8.9582455  95.3679183  81.5232104   8.8551883  93.7857538  94.3252896
   8.9049888  93.6207545  95.2668418   8.7465807  92.9184797  93.9350776
   6.1455646  89.7688466  95.6412202   7.0465508  89.6294930  95.3496200
   6.2203620  89.9342920  96.5810380  10.3570080  96.2054479  94.5694917
  10.0654888  96.5684460  95.4058378   9.7442211  95.4921487  94.3908249
  11.5565762  93.7707359  87.0897487  12.3912654  94.2097163  87.2535048
  11.6924891  93.2946012  86.2705733   8.6057268  91.3287094  93.0374975
   9.0811390  91.5214740  92.2293826   7.6822834  91.3846280  92.7918359
   3.1837485  83.3634937  92.0030809   3.7019429  84.0995964  91.6777298
   2.8292618  83.6698931  92.8377568   3.4350079  79.7835220  87.5231706
   3.7151833  79.1158409  88.1492132   4.2200686  79.9764315  87.0106369
   1.2383547  98.9594214  79.0856732   0.6657515  99.5784401  78.6327204
   1.8116341  99.5093575  79.6196654   7.3058937  88.2052854  91.2703281
   8.2576360  88.3050952  91.2915505   7.1362388  87.4131122  91.7801365
   5.3273317  85.2908437  91.4562682   4.7323249  85.5713450  90.7609170
   5.0423013  85.7802338  92.2279423   4.4580807  99.2431364  80.2165314
   5.3911480  99.1776926  80.4198190   4.3704020 100.0787631  79.7579847
   7.0868824  98.5597234  77.1769262   7.0082455  98.2257098  78.0705020
   7.9078491  99.0519002  77.1760734   9.7847015  91.4258974  90.3845580
   9.7523335  90.4874974  90.5705264  10.3947639  91.5043010  89.6511405
   1.6230346  90.2955027  76.4272784   2.5689451  90.1661235  76.4961202
   1.2444591  89.5569688  76.9042213   9.9341504  88.2170017  90.4303864
   9.4180552  87.4328474  90.2433792  10.8181452  87.8888734  90.5950383
   7.5952231  81.9611033  86.3899676   7.3977052  81.6526121  87.2743008
   8.2051936  82.6872671  86.5197606  15.6023565  92.4874980  89.5251617
  16.3326953  92.2260269  90.0859320  14.9930510  91.7503702  89.5653685
  13.6838862  90.6282843  90.1226068  12.9572026  90.4938808  89.5142560
  13.2686149  90.9359672  90.9282786   1.4235329  82.7641893  82.5171911
   0.6136057  82.4188978  82.8927157   2.1119746  82.4549436  83.1059522
   3.3525877  81.8419939  84.1396208   3.9056916  82.2615393  84.7986231
   3.5895963  80.9155688  84.1819164   6.7304684  83.9520465  83.6474872
   6.1503353  84.6105269  83.2652924   6.4640617  83.1297809  83.2362289
   5.1808251  83.3525522  85.8496192   5.6808029  83.4642057  85.0410511
   5.8243859  83.0486575  86.4897001   5.5129562  86.1120555  82.7031220
   4.6255417  86.3970206  82.4851415   5.9283551  85.9514318  81.8558497
   8.8644098  86.1367076  86.4185559   9.6404488  86.6263528  86.6910176
   8.1392233  86.5625130  86.8757429  11.3016657  86.8494695  87.4759500
  11.8961148  86.6090431  86.7652808  11.3743241  86.1301826  88.1033036
   4.6572776  95.8765230  76.7979240   5.3608626  96.0815232  77.4136896
   3.9335424  96.4441992  77.0628324   5.4870586  91.6275091  82.9181510
   5.4305787  92.0843642  82.0789143   6.0398928  90.8665775  82.7404353
   9.2975392  87.4164823  83.7431630   9.0412326  87.0161458  84.5739837
   8.6728260  88.1308617  83.6181769  13.6087730  90.1560896  86.2502921
  13.0487288  90.2254085  87.0234483  13.0031233  89.9801881  85.5302417
   6.5659473  96.3147759  78.8477700   7.4005077  95.8828957  78.6655175
   6.4043816  96.1429773  79.7754595   6.2205365  92.8179872  80.2134039
   6.1654169  92.6524144  79.2722484   5.5951421  93.5255905  80.3696229
   3.3453610  78.9130758  84.0465295   2.5786006  78.3589244  84.1921977
   3.7564315  78.9852627  84.9079446  15.1943748 106.8317410  88.9432877
  15.8322158 106.7124157  88.2396217  15.0764591 107.7798254  89.0020829
  12.0033454 106.7844838  88.8794402  11.6651966 106.6685903  87.9914936
  12.8723223 106.3836003  88.8595408   9.7041734 105.5533085  78.2111342
   9.9567255 105.0314607  77.4494805   8.7666293 105.3899231  78.3138025
  14.7485017 104.5568864  86.0186085  15.5348106 104.1388287  85.6676502
  15.0123721 105.4614956  86.1867733  20.1493444 104.4944097  86.9219063
  20.8818616 103.9243314  87.1556893  19.3932800 104.1065697  87.3625569
  11.7669564 106.9171338  84.1182406  11.4027771 106.3901959  84.8295327
  12.6236679 106.5269808  83.9448891  17.6718864  98.2065671  91.3813672
  17.3402189  99.0761082  91.1574887  17.0764478  97.8901955  92.0607702
  11.4075051 101.9461238  79.1143754  11.5749453 102.8141475  79.4814225
  11.2172220 102.1088520  78.1905044  17.5647527 102.9260757  88.4607022
  16.6564405 102.8576166  88.1665783  17.5135123 103.4032702  89.2888848
  11.3864271 104.4018896  80.0990421  11.2663897 104.8475946  80.9375901
  10.6916860 104.7504213  79.5403959  19.4309174 101.1277196  90.2384896
  18.7883554 101.4209729  89.5924691  18.9264102 101.0130116  91.0438093
  17.0849338 104.8740369  80.9270755  17.9967194 105.1067756  80.7518453
  16.5758985 105.4577413  80.3645834  11.7221175 104.2337603  91.9365605
  12.5682370 104.6577017  92.0800254  11.6619813 103.5771228  92.6304168
  14.8720621 101.8941972  93.5946778  14.6281552 102.6484032  93.0581054
  15.1480551 102.2727319  94.4294025  16.8259083 108.4380584  92.2724044
  17.0375979 109.0812344  91.5958425  16.7788832 107.6042901  91.8045974
  14.4285312 101.0498405  89.1760616  13.5669791 101.3479658  89.4677354
  14.4547747 101.2668804  88.2441649  10.1815768 105.7163748  82.3923987
  10.8839811 106.1684791  82.8597913   9.8496396 105.0747567  83.0203880
   3.9241102 103.9747300  87.6941121   3.1340156 104.2304829  87.2181231
   4.4152349 104.7895638  87.7993161   5.8755847 104.3391880  84.6524597
   5.0787010 104.4510574  85.1708093   5.6481439 104.6778532  83.7865488
  26.0310904 107.6591288  86.7931373  25.2774613 107.0898686  86.6375377
  26.1658446 107.6253953  87.7402007  14.7701996  96.0535252  90.9984986
  14.4266265  96.9436894  90.9224096  15.1380959  95.8636910  90.1354571
  14.7352279 106.0443863  79.5057421  14.2198902 106.8148468  79.7445808
  14.4629587 105.3709000  80.1290482  12.3199390 100.8893564  84.5642659
  11.4640986 100.5000415  84.3848298  12.7326342 100.9685525  83.7042445
  13.8498536  98.4239907  88.9634219  13.3463332  98.3870043  88.1502024
  14.1429143  99.3332650  89.0230876  10.0941422  98.5078637  87.9700401
  10.9594419  98.3121446  87.6106290  10.1618931  98.2788989  88.8969757
  19.7086553 108.7976218  81.4410594  18.9315996 108.4587378  80.9965756
  20.3878034 108.8028841  80.7665559  14.5238582 103.9170955  81.3317202
  14.2188717 104.2317105  82.1827345  15.4769024 103.9952375  81.3744535
  17.9477860 108.2710199  88.0977202  17.2901534 108.9609461  88.1857331
  18.7518259 108.6606631  88.4411189   7.7003741 100.7380845  85.3416767
   8.2747493 100.5156027  84.6089960   8.2874724 100.8069540  86.0945369
  16.7583319 106.6254572  86.1481144  17.2715200 107.2584564  86.6502854
  17.4084542 106.0255767  85.7824504   8.0273328 102.7685306  79.3612653
   7.1910641 103.1059993  79.6821927   7.8878098 102.6334286  78.4239790
  10.0026409  97.6122094  84.0691837   9.3490821  97.2971111  83.4448452
   9.9606883  96.9897834  84.7951660  13.2364149 104.1004028  88.3939484
  12.3186711 104.3218975  88.2361173  13.6524293 104.1750338  87.5351192
  14.0199197 105.4995443  83.5242165  14.7671016 106.0116840  83.2149287
  14.2890787 105.1779496  84.3846558  16.4678034 102.5352559  85.5060954
  15.7300791 102.0229946  85.8371197  16.7204808 102.0952941  84.6944231
  16.5689662  95.3128811  86.1002723  16.8748538  94.4526175  85.8128638
  17.2942266  95.9046432  85.9001717  10.8410741 105.6082605  86.6078914
  10.8959351 104.6556441  86.5321391  10.0301943 105.7642044  87.0920213
   8.7803101 104.2259664  84.3669293   7.9670967 104.5253835  84.7734485
   9.2762095 103.8315353  85.0843775  14.3777313 104.6901489  93.1984187
  14.7326701 104.9172962  94.0578653  15.0249444 105.0219866  92.5761442
  20.1075050 107.8119925  83.9033516  19.9692949 108.0021521  82.9754705
  19.7511269 108.5739307  84.3601567   8.2717176 101.7978020  89.9830528
   8.9116555 101.6566779  89.2853492   7.4394707 101.5112533  89.6069130
  20.1344430 109.8796452  88.9144788  20.5680936 109.7871741  89.7627842
  20.8476010 109.8553952  88.2764804   5.3560243 105.2423532  82.1725273
   4.4257832 105.1807987  82.3895235   5.4517715 104.7199485  81.3761915
   5.2745792 101.7678345  84.7603515   5.5352610 102.6823678  84.6512675
   6.0962965 101.3002787  84.9100128  20.9959979 109.9220152  91.4477673
  21.1895869 110.8265963  91.6936948  20.8960597 109.4627571  92.2816258
  12.6496290  99.8078043  93.9468000  12.0024205 100.5067993  93.8532477
  13.4197305 100.2414187  94.3144249  12.8260424 107.6458808  92.0064820
  13.7552484 107.7969967  91.8333787  12.4051454 107.7342829  91.1513467
  16.1113163 108.3947109  77.4389255  15.4942333 107.6693937  77.3422308
  15.6429651 109.1556470  77.0956329   7.9011709 102.6132534  76.5610559
   7.0241175 102.4921334  76.1972806   8.3769462 101.8218612  76.3089448
  14.3972285 100.7753453  86.4507285  14.8940984 100.0223416  86.1308356
  13.6259266 100.8117770  85.8850495  22.2502042 106.4793819  88.0925577
  22.2391918 107.3618534  87.7219510  21.3819422 106.1265370  87.8980114
  10.9807254 102.9170836  86.1778970  10.6105041 102.3641877  86.8659876
  11.4766346 102.3128970  85.6253970  18.8674617 105.3742460  84.5595743
  19.3335069 106.2070451  84.4856046  19.3182117 104.9087441  85.2641001
  16.8391280  97.7423047  88.5986644  15.9254359  97.9727274  88.7668851
  17.2684381  97.8261491  89.4500677  16.6097738 105.9312939  91.0986538
  15.9569188 106.1788846  90.4438991  16.9878118 105.1177077  90.7649016
   6.3772587 100.3274827  92.4232076   6.4413914 101.1889658  92.0109474
   6.3139707  99.7148829  91.6904435   2.6290403 104.2074389  82.0023465
   2.9243844 103.2985067  81.9490519   1.7278438 104.1862128  81.6804467
   6.1584650 102.2830385  87.9851014   5.4371235 102.8966353  87.8458487
   6.9477905 102.8188150  87.9067660   8.9610963  99.6184812  94.2591665
   9.4845365  99.8647108  95.0217975   8.7423296 100.4504847  93.8394803
   4.3578244 101.8888486  82.1262790   4.0290950 101.0085865  81.9437896
   4.7117615 101.8336155  83.0139180   7.4720067 102.1761456  82.4938268
   7.8116140 102.7047377  81.7716876   7.9192188 102.5141862  83.2696834
  10.1663508 100.5598507  91.9441336   9.8260328  99.7606320  92.3462016
   9.4602514 100.8600218  91.3718169  10.8179980  97.6447819  90.3968659
  11.6406049  97.1708298  90.2747549  11.0618043  98.4238303  90.8967345
   9.4588214 100.6736078  80.6931561  10.1796577 101.0517331  80.1895278
   8.8353519 101.3924955  80.7966539  13.6019337 101.3781227  81.6289893
  13.8182952 102.2605865  81.3278721  13.1213404 100.9867440  80.8995535
   8.3418559 104.3366940  88.2060638   8.1963139 104.6507243  89.0984919
   7.8643762 104.9551840  87.6531536  10.2014942 101.3269488  88.2541527
  10.1876510 100.4310581  87.9173825  10.9187370 101.3340152  88.8879813
  12.0541072 101.7606828  90.2994655  11.7958850 102.6823899  90.2978985
  11.5226113 101.3637263  90.9895119   9.6051837 100.2083868  83.5229097
   9.7267749  99.2800514  83.7219985   9.3153880 100.2222554  82.6107413
  12.4743028  97.8938779  86.6595817  12.4964725  97.9578112  85.7047797
  12.8911087  97.0543287  86.8536323  22.8526652 107.6294038  84.6975040
  23.2957798 106.8801363  84.2994163  21.9753162 107.6204175  84.3148772
  19.6945638 109.1149455  94.3252896  19.7443643 108.9499463  95.2668418
  19.5859561 108.2476714  93.9350776  16.9849400 105.0980383  95.6412202
  17.8859263 104.9586848  95.3496200  17.0597375 105.2634838  96.5810380
  11.3192205 102.4747238  94.4865389  10.4495515 102.7680804  94.2147977
  11.5551686 103.0587683  95.2072652  22.3959517 109.0999277  87.0897487
  23.2306408 109.5389081  87.2535048  22.5318646 108.6237930  86.2705733
  19.4451023 106.6579011  93.0374975  19.9205144 106.8506658  92.2293826
  18.5216588 106.7138197  92.7918359  14.0231239  98.6926855  92.0030809
  14.5413183  99.4287882  91.6777298  13.6686372  98.9990848  92.8377568
   5.6030177 103.5531536  80.1192215   4.9099422 103.6275891  79.4632251
   5.3581929 102.7891880  80.6413732  14.2743833  95.1127138  87.5231706
  14.5545587  94.4450327  88.1492132  15.0594440  95.3056233  87.0106369
  18.1452692 103.5344772  91.2703281  19.0970115 103.6342869  91.2915505
  17.9756142 102.7423040  91.7801365  16.1667071 100.6200355  91.4562682
  15.5717003 100.9005367  90.7609170  15.8816768 101.1094256  92.2279423
  20.6240770 106.7550891  90.3845580  20.5917090 105.8166892  90.5705264
  21.2341393 106.8334928  89.6511405  12.4624100 105.6246944  76.4272784
  13.4083205 105.4953152  76.4961202  12.0838345 104.8861606  76.9042213
  20.7735258 103.5461935  90.4303864  20.2574307 102.7620391  90.2433792
  21.6575207 103.2180651  90.5950383  18.4345985  97.2902950  86.3899676
  18.2370806  96.9818038  87.2743008  19.0445691  98.0164589  86.5197606
  26.4417319 107.8166898  89.5251617  27.1720708 107.5552186  90.0859320
  25.8324265 107.0795620  89.5653685  24.5232617 105.9574761  90.1226068
  23.7965780 105.8230726  89.5142560  24.1079903 106.2651589  90.9282786
  10.6467018 103.5496921  76.3627670   9.7398473 103.2530033  76.4390383
  10.9242999 103.2526739  75.4961956  12.2629083  98.0933810  82.5171911
  11.4529812  97.7480895  82.8927157  12.9513500  97.7841354  83.1059522
  14.1919632  97.1711857  84.1396208  14.7450670  97.5907311  84.7986231
  14.4289718  96.2447605  84.1819164   9.4165802 100.4083856  76.5039649
  10.2784966 100.7338754  76.7635466   9.6016146  99.6215352  75.9912715
  17.5698439  99.2812382  83.6474872  16.9897108  99.9397186  83.2652924
  17.3034371  98.4589727  83.2362289  16.0202005  98.6817440  85.8496192
  16.5201783  98.7933974  85.0410511  16.6637613  98.3778493  86.4897001
  16.3523317 101.4412473  82.7031220  15.4649172 101.7262123  82.4851415
  16.7677306 101.2806236  81.8558497  19.7037853 101.4658994  86.4185559
  20.4798243 101.9555446  86.6910176  18.9785987 101.8917048  86.8757429
  22.1410411 102.1786613  87.4759500  22.7354902 101.9382349  86.7652808
  22.2136995 101.4593743  88.1033036  16.3264340 106.9567009  82.9181510
  16.2699542 107.4135560  82.0789143  16.8792683 106.1957693  82.7404353
  20.1369146 102.7456740  83.7431630  19.8806081 102.3453376  84.5739837
  19.5122014 103.4600534  83.6181769  24.4481484 105.4852814  86.2502921
  23.8881042 105.5546003  87.0234483  23.8424988 105.3093798  85.5302417
  17.0599120 108.1471790  80.2134039  17.0047924 107.9816061  79.2722484
  16.4345175 108.8547823  80.3696229  10.3695245  97.6479899  79.7919358
  10.3573915  98.5921739  79.9487629  11.2618667  97.4650044  79.4978819
  14.1847365  94.2422675  84.0465295  13.4179761  93.6881162  84.1921977
  14.5958070  94.3144544  84.9079446  25.6095750 111.3827170  90.9984986
  25.2660020 112.2728812  90.9224096  25.9774713 111.1928828  90.1354571
  27.4083416 110.6420729  86.1002723  27.7142293 109.7818093  85.8128638
  28.1336021 111.2338349  85.9001717  25.1137588 110.4419055  87.5231706
  25.3939342 109.7742244  88.1492132  25.8988195 110.6348151  87.0106369
  29.2739739 112.6194868  86.3899676  29.0764561 112.3109956  87.2743008
  29.8839445 113.3456507  86.5197606  25.0241119 109.5714593  84.0465295
  24.2573515 109.0173080  84.1921977  25.4351824 109.6436462  84.9079446
   4.3523397  54.0069575  73.5176679   3.5987105  53.4376973  73.3620684
   4.4870938  53.9732240  74.4647314   0.7172009  55.4477564  73.8142794
   1.5518901  55.8867368  73.9780354   0.8531138  54.9716217  72.9951040
   4.7629812  54.1645185  76.2496924   5.4933200  53.9030473  76.8104627
   4.1536757  53.4273907  76.2898992   2.8445109  52.3053048  76.8471375
   2.1178272  52.1709013  76.2387867   2.4292396  52.6129876  77.6528093
   0.4622904  48.5264900  74.2004807   1.0567395  48.2860636  73.4898115
   0.5349487  47.8072031  74.8278343   2.7693977  51.8331101  72.9748228
   2.2093534  51.9024290  73.7479790   2.1637480  51.6572086  72.2547724
   4.3549995  68.5087615  75.6678183   4.9928405  68.3894362  74.9641524
   4.2370838  69.4568459  75.7266136   1.1639701  68.4615043  75.6039708
   0.8258213  68.3456108  74.7160243   2.0329469  68.0606208  75.5840714
   1.6459484  69.6149895  81.5625914   1.6348125  69.2202693  80.6906417
   1.8080124  68.8815967  82.1559685   2.6026076  73.9821487  66.9051064
   1.9514055  74.5675567  66.5185078   3.3970438  74.5127682  66.9646102
   3.9091263  66.2339069  72.7431392   4.6954353  65.8158492  72.3921809
   4.1729968  67.1385161  72.9113040   4.0801341  71.6711919  67.4420048
   3.4447174  71.7446546  68.1540953   3.7498747  72.2605518  66.7639128
   9.3099691  66.1714302  73.6464370  10.0424863  65.6013519  73.8802200
   8.5539046  65.7835902  74.0870876   0.9275810  68.5941543  70.8427712
   0.5634018  68.0672164  71.5540634   1.7842926  68.2040012  70.6694198
   6.8325111  59.8835876  78.1058979   6.5008436  60.7531287  77.8820194
   6.2370724  59.5672160  78.7853009   3.3256630  72.0848422  77.5054891
   3.0257354  72.9873461  77.3970699   2.9807690  71.8180605  78.3576044
   6.7253774  64.6030962  75.1852329   5.8170652  64.5346371  74.8911090
   6.6741370  65.0802907  76.0134154   8.5915421  62.8047401  76.9630203
   7.9489801  63.0979934  76.3169997   8.0870349  62.6900321  77.7683399
   6.2455584  66.5510574  67.6516062   7.1573440  66.7837961  67.4763759
   5.7365231  67.1347618  67.0891140   4.5296352  70.9735202  81.2877354
   4.9379708  70.5317612  80.5431987   3.8073613  70.3987829  81.5411547
   0.8827422  65.9107808  78.6610911   1.7288617  66.3347222  78.8045560
   0.8226060  65.2541433  79.3549475   4.8525167  71.5336392  75.0429643
   4.2234029  71.6982106  74.3405711   4.4650829  71.9478002  75.8140607
   8.7314399  72.4690830  72.3974007   8.0465437  72.8489731  71.8471040
   8.8158248  73.0786157  73.1305955   4.0326867  63.5712177  80.3192085
   3.7887799  64.3254237  79.7826361   4.3086798  63.9497524  81.1539332
   5.9865330  70.1150789  78.9969351   6.1982225  70.7582549  78.3203732
   5.9395078  69.2813106  78.5291281   3.5891559  62.7268610  75.9005923
   2.7276038  63.0249863  76.1922660   3.6153994  62.9439009  74.9686955
   7.1011158  72.9922745  77.1691708   7.9228602  72.5902932  76.8874390
   7.0973561  72.8890979  78.1207824  15.1917151  69.3361493  73.5176679
  14.4380860  68.7668891  73.3620684  15.3264692  69.3024158  74.4647314
   0.5815779  74.2074895  69.1931399   0.4461454  75.0526431  69.6216247
   1.1225592  74.4094173  68.4297333   2.2084256  74.8298462  83.3231741
   1.7648110  74.0434840  83.0052645   2.8701469  75.0177612  82.6575632
   4.3065494  75.1101262  81.3513142   4.2883969  75.9310143  80.8593411
   5.2285414  74.9855337  81.5763283   3.9308243  57.7305457  77.7230292
   3.5872512  58.6207099  77.6469403   4.2987205  57.5407115  76.8599877
   3.8958525  67.7214068  66.2302727   3.3805149  68.4918673  66.4691115
   3.6235834  67.0479204  66.8535789   1.4805637  62.5663769  71.2887966
   0.6247233  62.1770619  71.1093604   1.8932588  62.6455730  70.4287751
   3.0104783  60.1010112  75.6879526   2.5069579  60.0640248  74.8747331
   3.3035390  61.0102855  75.7476182   8.8692800  70.4746423  68.1655901
   8.0922242  70.1357582  67.7211063   9.5484281  70.4799046  67.4910866
   3.6844829  65.5941160  68.0562509   3.3794964  65.9087310  68.9072652
   4.6375271  65.6722580  68.0989842   2.1291260  71.7531384  69.7055463
   1.6012622  71.0184143  69.3928700   1.6278763  72.5306060  69.4595431
   7.1084107  69.9480404  74.8222509   6.4507781  70.6379666  74.9102637
   7.9124506  70.3376836  75.1656495   5.9189565  68.3024777  72.8726451
   6.4321447  68.9354769  73.3748160   6.5690789  67.7025972  72.5069811
   3.1811940  78.2809101  65.6287122   2.5073638  78.5840798  66.2372080
   3.5677762  79.0838182  65.2792579   2.3970396  65.7774232  75.1184791
   1.4792958  65.9989179  74.9606479   2.8130540  65.8520543  74.2596498
   3.1805444  67.1765648  70.2487471   3.9277263  67.6887045  69.9394593
   3.4497033  66.8549701  71.1091865   1.4532094  69.6724189  67.2314426
   0.5443313  69.3883222  67.3286895   1.4827178  70.0923267  66.3717733
   6.6851362  73.2830778  71.0005593   6.2313689  72.4421688  71.0570784
   6.0545328  73.9192177  71.3380373   5.6284281  64.2122764  72.2306261
   4.8907038  63.7000151  72.5616503   5.8811055  63.7723146  71.4189538
   5.1284301  75.1207275  71.9355411   5.4207275  75.6812332  71.2167777
   5.6382921  75.4135836  72.6908570   5.7295908  56.9899016  72.8248030
   6.0354785  56.1296380  72.5373945   6.4548513  57.5816637  72.6247024
   1.1508182  71.2132933  64.5702504   0.7127612  70.4968791  64.1108142
   1.8918623  71.4409047  64.0087596   3.5383560  66.3671694  79.9229494
   3.8932947  66.5943167  80.7823960   4.1855691  66.6990070  79.3006749
   9.2681297  69.4890130  70.6278823   9.1299195  69.6791726  69.7000012
   8.9117516  70.2509512  71.0846874   9.2950676  71.5566657  75.6390094
   9.7287183  71.4641946  76.4873148  10.0082257  71.5324157  75.0010110
   3.0278571  75.1568751  77.1723195   3.0815593  75.7259687  77.9400911
   2.1593353  75.3270636  76.8077232  10.1566226  71.5990357  78.1722980
  10.3502116  72.5036168  78.4182255  10.0566844  71.1397776  79.0061565
   1.8102537  61.4848248  80.6713307   1.1630452  62.1838197  80.5777783
   2.5803552  61.9184392  81.0389555   5.2181335  71.7497100  83.7463860
   5.0666841  71.5207652  82.8293944   5.2086014  72.7067701  83.7595205
   1.9866671  69.3229013  78.7310127   2.9158731  69.4740172  78.5579094
   1.5657701  69.4113033  77.8758773   1.3803155  78.4488774  67.8434201
   1.5554910  77.9776817  68.6579824   0.6935943  79.0754540  68.0715462
   2.3360218  72.7261280  73.8897502   2.0010050  72.6862050  74.7855152
   1.8364164  72.0605996  73.4167912   5.2719410  70.0717314  64.1634562
   4.6548580  69.3464142  64.0667614   4.8035898  70.8326674  63.8201636
   6.9273541  74.7816223  81.8240342   6.8686087  74.0975443  81.1570925
   7.3293060  75.5235213  81.3720968   6.9290948  72.7455806  80.0554322
   6.0417727  72.4081728  80.1780721   7.4989500  72.0138838  80.2923087
   3.5578532  62.4523658  73.1752592   4.0547231  61.6993621  72.8553662
   2.7865513  62.4887975  72.6095801  11.4108289  68.1564024  74.8170883
  11.3998165  69.0388739  74.4464817  10.5425668  67.8035575  74.6225421
   2.9190785  77.3044093  79.1773724   3.6318758  77.9391558  79.1049625
   2.4280814  77.4007959  78.3613726   4.6408312  71.2095346  70.7491015
   3.7064591  71.3296808  70.5795720   4.8184981  70.3067812  70.4851025
   8.0280864  67.0512665  71.2841050   8.4941316  67.8840656  71.2101352
   8.4788364  66.5857646  71.9886308   6.0957095  73.3956486  68.2827202
   6.3716939  73.2813081  69.1921076   5.2261593  72.9973971  68.2439375
   5.9997526  59.4193252  75.3231951   5.0860606  59.6497479  75.4914158
   6.4290628  59.5031696  76.1745983   5.7703985  67.6083144  77.8231845
   5.1175435  67.8559051  77.1684298   6.1484365  66.7947282  77.4894322
   2.7311159  77.6442837  71.9260015   2.9133553  76.8264493  72.3887768
   3.5544145  77.8610529  71.4884905   3.0653324  76.5711022  69.1875064
   3.5941091  76.0603477  68.5745226   3.3281544  76.2553552  70.0520597
   1.8191558  68.3502955  84.3097882   1.1432195  68.2497084  84.9800257
   2.6419192  68.1942169  84.7733879   0.5614341  79.6569882  78.5455498
   1.1132649  79.8201504  79.3104583   0.9020534  80.2474320  77.8735523
   5.4125215  74.4831140  84.4004152   5.9565119  75.0961098  83.9059107
   4.8312060  75.0410718  84.9171165   3.6982728  77.6051858  75.5319180
   3.5733867  76.8041598  75.0230126   4.3561819  78.0998051  75.0433150
   5.7617636  75.4060878  77.1598730   4.8147972  75.2866229  77.0877057
   6.1100410  74.5183376  77.2424992   2.7664070  75.2013594  73.3603082
   2.6189032  74.2730301  73.5410652   3.5917563  75.2233685  72.8760158
   6.3698192  76.0242153  74.4467955   7.2944739  75.8185014  74.3092406
   6.2013495  75.7758554  75.3557297   2.7625584  63.0551432  68.3535200
   2.9789198  63.9376070  68.0524028   2.2819651  62.6637645  67.6240842
   1.2147319  63.4377033  77.0239961   0.9565097  64.3594104  77.0224292
   0.6832359  63.0407468  77.7140425   6.1593508  76.5427820  69.8030047
   6.3330385  75.9774243  69.0503899   6.6522399  77.3428715  69.6209537
   1.6349275  59.5708984  73.3841124   1.6570971  59.6348317  72.4293103
   2.0517334  58.7313492  73.5781630  12.0132899  69.3064243  71.4220346
  12.4564045  68.5571568  71.0239470  11.1359409  69.2974380  71.0394078
   7.1468680  75.8594585  66.9026945   7.8419585  76.4801277  67.1214260
   7.4891830  75.0089936  67.1779323   9.0460103  73.3094290  68.4314276
   9.5711427  73.6481563  67.7063596   8.9582456  72.3741306  68.2477410
   0.7080152  77.2228364  80.5604152   1.0167279  76.9777511  81.4326852
   1.5055634  77.4275002  80.0723023   8.7354009  73.9427194  83.7365474
   7.9449553  73.9251333  83.1969973   8.4987364  74.4815488  84.4914510
   8.8551885  70.7919660  81.0498202   8.9049889  70.6269668  81.9913725
   8.7465808  69.9246919  80.6596083   6.1455647  66.7750588  82.3657509
   7.0465510  66.6357053  82.0741507   6.2203621  66.9405043  83.3055686
  10.3570081  73.2116602  81.2940224  10.0654890  73.5746582  82.1303685
   9.7442213  72.4983610  81.1153556  11.5565764  70.7769482  73.8142794
  12.3912655  71.2159286  73.9780354  11.6924892  70.3008135  72.9951040
   8.6057270  68.3349216  79.7620282   9.0811391  68.5276863  78.9539133
   7.6822835  68.3908402  79.5163665   3.1837486  60.3697060  78.7276116
   3.7019430  61.1058087  78.4022604   2.8292619  60.6761053  79.5622875
   3.4350080  56.7897342  74.2477012   3.7151834  56.1220532  74.8737439
   4.2200687  56.9826438  73.7351676   1.2383549  75.9656336  65.8102039
   0.6657516  76.5846523  65.3572510   1.8116342  76.5155698  66.3441960
   7.3058939  65.2114976  77.9948587   8.2576361  65.3113074  78.0160811
   7.1362389  64.4193245  78.5046672   5.3273318  62.2970560  78.1807988
   4.7323250  62.5775572  77.4854477   5.0423015  62.7864461  78.9524729
   4.4580809  76.2493486  66.9410621   5.3911482  76.1839048  67.1443496
   4.3704021  77.0849753  66.4825153   7.0868825  75.5659357  63.9014568
   7.0082457  75.2319220  64.7950326   7.9078492  76.0581125  63.9006041
   9.7847016  68.4321096  77.1090887   9.7523336  67.4937097  77.2950571
  10.3947640  68.5105133  76.3756712   1.6230347  67.3017149  63.1518091
   2.5689452  67.1723357  63.2206509   1.2444592  66.5631811  63.6287519
   9.9341505  65.2232140  77.1549170   9.4180553  64.4390596  76.9679099
  10.8181453  64.8950856  77.3195690   7.5952232  58.9673155  73.1144983
   7.3977053  58.6588243  73.9988315   8.2051937  59.6934794  73.2442913
  15.6023566  69.4937103  76.2496924  16.3326955  69.2322391  76.8104627
  14.9930512  68.7565825  76.2898992  13.6838863  67.6344966  76.8471375
  12.9572027  67.5000930  76.2387867  13.2686150  67.9421794  77.6528093
   1.5069040  71.3534895  84.6118748   2.4272049  71.5313494  84.8058795
   1.4718623  70.4090941  84.4598447   1.4235330  59.7704015  69.2417218
   0.6136058  59.4251100  69.6172464   2.1119747  59.4611559  69.8304829
   3.3525878  58.8482062  70.8641514   3.9056917  59.2677515  71.5231537
   3.5895965  57.9217810  70.9064470   6.7304685  60.9582587  70.3720178
   6.1503355  61.6167391  69.9898231   6.4640618  60.1359932  69.9607596
   5.1808252  60.3587645  72.5741499   5.6808030  60.4704179  71.7655818
   5.8243860  60.0548698  73.2142307   5.5129563  63.1182678  69.4276527
   4.6255419  63.4032328  69.2096721   5.9283553  62.9576441  68.5803804
   8.8644100  63.1429199  73.1430866   9.6404490  63.6325651  73.4155483
   8.1392234  63.5687253  73.6002735  11.3016658  63.8556818  74.2004807
  11.8961149  63.6152554  73.4898115  11.3743242  63.1363948  74.8278343
   4.6572777  72.8827352  63.5224547   5.3608627  73.0877355  64.1382202
   3.9335426  73.4504114  63.7873630   5.4870587  68.6337213  69.6426817
   5.4305789  69.0905765  68.8034449   6.0398930  67.8727898  69.4649660
   9.2975393  64.4226945  70.4676936   9.0412327  64.0223581  71.2985144
   8.6728261  65.1370739  70.3427076  13.6087731  67.1623019  72.9748228
  13.0487289  67.2316208  73.7479790  13.0031234  66.9864003  72.2547724
   6.5659474  73.3209881  65.5723007   7.4005078  72.8891080  65.3900482
   6.4043817  73.1491895  66.4999901   6.2205367  69.8241995  66.9379346
   6.1654170  69.6586266  65.9967790   5.5951422  70.5318028  67.0941536
   3.5351274  72.1290907  86.2632909   4.4042433  72.3031559  85.9019544
   3.0558025  72.9485323  86.1408638   3.3453611  55.9192880  70.7710601
   2.5786007  55.3651367  70.9167284   3.7564316  55.9914749  71.6324753
  15.1943749  83.8379533  75.6678183  15.8322159  83.7186280  74.9641524
  15.0764592  84.7860376  75.7266136  12.0033456  83.7906961  75.6039708
  11.6651967  83.6748025  74.7160243  12.8723224  83.3898126  75.5840714
   7.8620271  85.6442437  71.5936599   7.2985137  85.5532374  70.8252887
   7.7472666  84.8242342  72.0739092  12.4853239  84.9441812  81.5625914
  12.4741879  84.5494611  80.6906417  12.6473878  84.2107885  82.1559685
   5.4084703  87.1393629  74.4320820   6.2005995  86.7984453  74.0167119
   5.6481354  87.2488604  75.3522973  13.4419830  89.3113405  66.9051064
  12.7907810  89.8967485  66.5185078  14.2364193  89.8419600  66.9646102
   7.3675457  86.4002542  67.3038198   8.1406333  85.8531529  67.1651074
   7.7200856  87.2646791  67.5152660   9.2060500  87.7278924  80.5105098
   8.9150366  88.6324555  80.3951764   9.8417484  87.7695452  81.2249167
  10.1316707  85.1055773  77.1006457  10.7280279  84.8811795  76.3863420
  10.1891678  84.3640518  77.7031905   9.7041735  82.5595208  64.9356648
   9.9567256  82.0376729  64.1740111   8.7666294  82.3961353  65.0383332
  14.7485018  81.5630986  72.7431392  15.5348107  81.1450410  72.3921809
  15.0123722  82.4677079  72.9113040  14.9195095  87.0003837  67.4420048
  14.2840928  87.0738463  68.1540953  14.5892502  87.5897436  66.7639128
  20.1493445  81.5006220  73.6464370  20.8818617  80.9305436  73.8802200
  19.3932801  81.1127820  74.0870876   9.4238024  84.4623314  67.1381023
   9.3074282  83.7868217  67.8062108   9.5340284  83.9755688  66.3213176
  11.7669565  83.9233461  70.8427712  11.4027772  83.3964082  71.5540634
  12.6236681  83.5331930  70.6694198  17.6718865  75.2127794  78.1058979
  17.3402190  76.0823205  77.8820194  17.0764479  74.8964078  78.7853009
  11.4075052  78.9523361  65.8389061  11.5749454  79.8203597  66.2059532
  11.2172221  79.1150642  64.9150350  14.1650385  87.4140340  77.5054891
  13.8651108  88.3165378  77.3970699  13.8201444  87.1472523  78.3576044
   7.6162866  83.8654137  73.5391596   6.6913363  83.7330351  73.7469288
   7.8647280  84.6448356  74.0361538  17.5647529  79.9322880  75.1852329
  16.6564406  79.8638288  74.8911090  17.5135125  80.4094825  76.0134154
  11.3864273  81.4081018  66.8235728  11.2663898  81.8538069  67.6621208
  10.6916861  81.7566336  66.2649266   4.9771677  83.5087410  74.3735385
   5.1064059  83.7621889  75.2874797   4.2969129  84.1015118  74.0540040
   9.1471165  94.1784660  70.4725859   9.0695194  95.1292485  70.5514340
   8.5432808  93.8330533  71.1300785  11.6388395  81.3512525  83.1287226
  10.8621729  81.9106446  83.1190091  12.2778958  81.8369308  83.6502096
  19.4309175  78.1339318  76.9630203  18.7883555  78.4271851  76.3169997
  18.9264104  78.0192239  77.7683399  17.0849339  81.8802491  67.6516062
  17.9967195  82.1129878  67.4763759  16.5758986  82.4639536  67.0891140
   9.8934767  84.1597979  82.6905193  10.6349451  84.6983023  82.4140017
   9.1871752  84.7864268  82.8476745  15.3690106  86.3027119  81.2877354
  15.7773463  85.8609530  80.5431987  14.6467368  85.7279747  81.5411547
  11.7221177  81.2399726  78.6610911  12.5682372  81.6639140  78.8045560
  11.6619814  80.5833350  79.3549475  15.6918921  86.8628310  75.0429643
  15.0627784  87.0274024  74.3405711  15.3044583  87.2769919  75.8140607
  19.5708153  87.7982748  72.3974007  18.8859191  88.1781649  71.8471040
  19.6552002  88.4078074  73.1305955  14.8720622  78.9004094  80.3192085
  14.6281554  79.6546155  79.7826361  15.1480552  79.2789442  81.1539332
  16.8259085  85.4442707  78.9969351  17.0375980  86.0874467  78.3203732
  16.7788833  84.6105023  78.5291281  14.4285314  78.0560527  75.9005923
  13.5669793  78.3541781  76.1922660  14.4547748  78.2730926  74.9686955
  11.2446883  86.6002718  72.3079728  11.7085229  86.8790421  71.5184351
  10.9803681  85.6986163  72.1252819   8.1370964  86.1474200  75.2459492
   8.7072321  86.5761468  74.6076976   8.7279076  85.8656784  75.9443677
  10.1815769  82.7225870  69.1169294  10.8839812  83.1746914  69.5843220
   9.8496398  82.0809689  69.7449187   8.6296131  81.3137627  83.4920503
   7.9994791  81.9953908  83.7255900   8.5232218  81.2020709  82.5473641
   3.9241103  80.9809423  74.4186427   3.1340157  81.2366952  73.9426538
   4.4152350  81.7957761  74.5238468  17.9404913  88.3214662  77.1691708
  18.7622356  87.9194849  76.8874390  17.9367315  88.2182896  78.1207824
   5.8755848  81.3454002  71.3769904   5.0787012  81.4572697  71.8953400
   5.6481441  81.6840654  70.5110794  11.7061516  87.8698705  79.3252418
  11.7705949  88.3319113  80.1610590  10.9972440  87.2396070  79.4534728
   2.2078806  81.2339913  76.8501418   2.4586844  82.1186923  77.1158994
   2.7438354  81.0544515  76.0776510  26.0310906  84.6653411  73.5176679
  25.2774614  84.0960809  73.3620684  26.1658447  84.6316075  74.4647314
  11.4209534  89.5366813  69.1931399  11.2855208  90.3818349  69.6216247
  11.9619346  89.7386091  68.4297333   7.9076873  75.6158393  85.8545754
   7.5143819  75.0624591  86.5293398   8.7243014  75.9268971  86.2452272
   4.8738931  87.0542251  69.7659324   5.3863452  87.8485501  69.9164889
   5.5261644  86.3568541  69.6992925   6.6833816  90.1708007  71.8482077
   6.8600444  91.0925972  71.6603061   7.4790649  89.8566427  72.2776457
  10.8244834  77.0316272  83.4466011  11.5654548  77.6323425  83.3670473
  11.0562757  76.2893910  82.8884053   5.9686172  82.2172639  81.7244240
   5.8539687  81.3157896  82.0251339   5.1130690  82.4636336  81.3729057
  13.0478010  90.1590379  83.3231741  12.6041864  89.3726758  83.0052645
  13.7095224  90.3469530  82.6575632   7.8065131  91.6886181  77.8492419
   8.3572556  91.5603244  77.0769413   6.9676607  91.9881070  77.4987312
  15.1459248  90.4393179  81.3513142  15.1277723  91.2602060  80.8593411
  16.0679168  90.3147255  81.5763283  11.6032302  87.9537309  82.1936651
  12.1360639  87.1925597  81.9635958  11.0746383  87.6610961  82.9360805
  14.7701997  73.0597375  77.7230292  14.4266267  73.9499017  77.6469403
  15.1380960  72.8699033  76.8599877   2.8387848  85.3830905  70.5418894
   3.6763070  85.7927914  70.3252602   3.0166116  84.4430347  70.5119088
  14.7352280  83.0505986  66.2302727  14.2198903  83.8210591  66.4691115
  14.4629588  82.3771122  66.8535789  12.3199391  77.8955687  71.2887966
  11.4640987  77.5062537  71.1093604  12.7326343  77.9747648  70.4287751
  13.8498538  75.4302030  75.6879526  13.3463333  75.3932165  74.8747331
  14.1429144  76.3394773  75.7476182  10.0941424  75.5140760  74.6945707
  10.9594420  75.3183568  74.3351597  10.1618932  75.2851112  75.6215064
  19.7086554  85.8038341  68.1655901  18.9315997  85.4649500  67.7211063
  20.3878035  85.8090964  67.4910866  14.5238583  80.9233078  68.0562509
  14.2188719  81.2379227  68.9072652  15.4769025  81.0014498  68.0989842
  12.9685015  87.0823301  69.7055463  12.4406377  86.3476061  69.3928700
  12.4672518  87.8597978  69.4595431  17.9477861  85.2772322  74.8222509
  17.2901535  85.9671583  74.9102637  18.7518260  85.6668754  75.1656495
   7.7003743  77.7442968  72.0662074   8.2747494  77.5218149  71.3335267
   8.2874725  77.8131662  72.8190675  16.7583320  83.6316695  72.8726451
  17.2715202  84.2646686  73.3748160  17.4084544  83.0317890  72.5069811
   8.0273330  79.7747429  66.0857959   7.1910642  80.1122115  66.4067234
   7.8878099  79.6396408  65.1485096  10.0026410  74.6184217  70.7937143
   9.3490823  74.3033234  70.1693758   9.9606884  73.9959957  71.5196966
  11.1137615  84.9003512  62.7090436  10.2064677  84.6692765  62.9081585
  11.6108647  84.1041131  62.8964417  14.0205694  93.6101019  65.6287122
  13.3467393  93.9132716  66.2372080  14.4071516  94.4130099  65.2792579
  13.2364151  81.1066150  75.1184791  12.3186712  81.3281097  74.9606479
  13.6524294  81.1812461  74.2596498  14.0199198  82.5057566  70.2487471
  14.7671017  83.0178963  69.9394593  14.2890788  82.1841619  71.1091865
  12.2925849  85.0016107  67.2314426  11.3837068  84.7175139  67.3286895
  12.3220932  85.4215185  66.3717733  17.5245116  88.6122696  71.0005593
  17.0707443  87.7713606  71.0570784  16.8939083  89.2484094  71.3380373
  16.4678036  79.5414682  72.2306261  15.7300792  79.0292068  72.5616503
  16.7204809  79.1015064  71.4189538  15.9678055  90.4499193  71.9355411
  16.2601030  91.0104250  71.2167777  16.4776676  90.7427754  72.6908570
  16.5689663  72.3190934  72.8248030  16.8748540  71.4588297  72.5373945
  17.2942268  72.9108554  72.6247024   2.8614019  82.7221621  71.2129628
   2.6638419  82.1290981  70.4880694   2.3060683  82.4173831  71.9305567
  10.8410743  82.6144727  73.3324221  10.8959352  81.6618564  73.2566698
  10.0301945  82.7704166  73.8165519  11.9901936  86.5424850  64.5702504
  11.5521366  85.8260709  64.1108142  12.7312377  86.7700965  64.0087596
   8.7803103  81.2321787  71.0914600   7.9670968  81.5315957  71.4979792
   9.2762097  80.8377476  71.8089082  10.9311680  91.2279544  73.0248865
  10.8887859  91.4540390  72.0957397  11.8474379  90.9942918  73.1734666
  14.3777314  81.6963611  79.9229494  14.7326702  81.9235084  80.7823960
  15.0249445  82.0281988  79.3006749  20.1075051  84.8182047  70.6278823
  19.9692950  85.0083643  69.7000012  19.7511270  85.5801430  71.0846874
   8.2717177  78.8040142  76.7075835   8.9116557  78.6628901  76.0098798
   7.4394708  78.5174656  76.3314437  20.1344431  86.8858574  75.6390094
  20.5680937  86.7933863  76.4873148  20.8476011  86.8616075  75.0010110
   9.0477481  88.1042573  72.8210827   9.8418080  87.6092893  72.6193402
   8.3369174  87.5760436  72.4578533  13.8672326  90.4860668  77.1723195
  13.9209348  91.0551605  77.9400911  12.9987107  90.6562553  76.8077232
   5.3560245  82.2485655  68.8970580   4.4257833  82.1870110  69.1140542
   5.4517717  81.7261607  68.1007221   5.2745794  78.7740467  71.4848822
   5.5352611  79.6885801  71.3757982   6.0962966  78.3064910  71.6345434
   6.7470719  80.1878225  78.6547646   7.4193772  79.9795587  78.0060295
   5.9200506  79.9900311  78.2152878  20.9959980  86.9282275  78.1722980
  21.1895870  87.8328085  78.4182255  20.8960599  86.4689694  79.0061565
  12.6496291  76.8140165  80.6713307  12.0024206  77.5130115  80.5777783
  13.4197306  77.2476309  81.0389555  16.0575089  87.0789018  83.7463860
  15.9060595  86.8499569  82.8293944  16.0479768  88.0359619  83.7595205
  12.8260425  84.6520930  78.7310127  13.7552485  84.8032090  78.5579094
  12.4051455  84.7404951  77.8758773  11.6248757  88.6771595  76.5008664
  11.4859843  88.3090379  77.3734602  10.8363353  89.1919234  76.3292622
  12.2196909  93.7780691  67.8434201  12.3948665  93.3068734  68.6579824
  11.5329697  94.4046457  68.0715462  13.1753972  88.0553197  73.8897502
  12.8403805  88.0153967  74.7855152  12.6757918  87.3897913  73.4167912
   7.1498216  83.4620828  79.4150083   7.0118014  82.7301066  80.0161622
   8.0603140  83.3729728  79.1334271  16.1113164  85.4009232  64.1634562
  15.4942335  84.6756060  64.0667614  15.6429652  86.1618592  63.8201636
   9.7780517  83.1740787  78.9033763  10.4880136  82.5333979  78.8620381
   9.7349825  83.4253682  79.8259944  17.7667296  90.1108140  81.8240342
  17.7079842  89.4267360  81.1570925  18.1686814  90.8527130  81.3720968
   8.4909451  80.1606005  80.7229402   7.9546808  79.7096743  81.3750999
   7.9026159  80.2951914  79.9799867   6.7857994  96.9270054  74.6174061
   7.0254593  97.5588578  75.2953080   5.9427191  96.5758094  74.9039420
   7.9011710  79.6194656  63.2855866   7.0241176  79.4983457  62.9218113
   8.3769463  78.8280734  63.0334755  17.7684703  88.0747724  80.0554322
  16.8811482  87.7373646  80.1780721  18.3383254  87.3430755  80.2923087
   4.2248572  79.2962012  77.8082397   4.1406761  78.6887682  77.0732807
   3.4031279  79.7871031  77.8091893  11.2985856  92.7349176  77.0215565
  11.2256028  93.5404148  77.5334870  10.8563249  92.9341142  76.1963586
  11.0875636  91.9720947  70.5318387  10.3043158  92.5142627  70.6256611
  11.7868381  92.4894926  70.9312628  14.3972286  77.7815576  73.1752592
  14.8940986  77.0285538  72.8553662  13.6259268  77.8179893  72.6095801
  22.2502043  83.4855941  74.8170883  22.2391920  84.3680657  74.4464817
  21.3819423  83.1327492  74.6225421  13.7584540  92.6336011  79.1773724
  14.4712512  93.2683475  79.1049625  13.2674568  92.7299876  78.3613726
  15.4802067  86.5387263  70.7491015  14.5458345  86.6588726  70.5795720
  15.6578735  85.6359730  70.4851025  10.9807255  79.9232959  72.9024277
  10.6105042  79.3703999  73.5905182  11.4766347  79.3191092  72.3499277
  18.8674618  82.3804582  71.2841050  19.3335070  83.2132574  71.2101352
  19.3182119  81.9149564  71.9886308   8.8096453  90.3830454  79.9979295
   9.5105913  91.0166937  80.1508689   8.3391568  90.7245186  79.2374934
  16.9350849  88.7248404  68.2827202  17.2110693  88.6104998  69.1921076
  16.0655348  88.3265889  68.2439375  16.8391281  74.7485169  75.3231951
  15.9254361  74.9789396  75.4914158  17.2684382  74.8323614  76.1745983
  16.6097739  82.9375061  77.8231845  15.9569190  83.1850969  77.1684298
  16.9878119  82.1239200  77.4894322  13.5704913  92.9734755  71.9260015
  13.7527308  92.1556411  72.3887768  14.3937899  93.1902447  71.4884905
  13.9047079  91.9002940  69.1875064  14.4334845  91.3895394  68.5745226
  14.1675298  91.5845470  70.0520597  12.6585312  83.6794872  84.3097882
  11.9825949  83.5789002  84.9800257  13.4812946  83.5234086  84.7733879
   4.4064171  89.9166809  76.9310397   4.9917608  89.1710497  77.0638301
   4.2089010  90.2270766  77.8147061   7.2602827  92.9518056  71.9472840
   6.5913202  93.4364184  71.4636880   7.1215696  93.1987277  72.8616218
  11.4008095  94.9861800  78.5455498  11.9526403  95.1493421  79.3104583
  11.7414289  95.5766238  77.8735523   6.3772588  77.3336950  79.1477383
   6.4413915  78.1951781  78.7354780   6.3139709  76.7210951  78.4149741
   5.8524861  79.4060082  82.7950417   6.4796900  79.0237160  83.4087941
   4.9952780  79.1874284  83.1606109  16.2518970  89.8123057  84.4004152
  16.7958874  90.4253016  83.9059107  15.6705814  90.3702636  84.9171165
   2.6290404  81.2136511  68.7268772   2.9243845  80.3047190  68.6735825
   1.7278440  81.1924251  68.4049774  14.5376483  92.9343775  75.5319180
  14.4127622  92.1333515  75.0230126  15.1955574  93.4289969  75.0433150
   6.1584651  79.2892508  74.7096320   5.4371237  79.9028476  74.5703794
   6.9477907  79.8250273  74.6312966  16.6011391  90.7352796  77.1598730
  15.6541726  90.6158147  77.0877057  16.9494164  89.8475294  77.2424992
   8.9610964  76.6246934  80.9836972   9.4845366  76.8709231  81.7463281
   8.7423298  77.4566969  80.5640109   4.3578245  78.8950609  68.8508097
   4.0290952  78.0147988  68.6683203   4.7117616  78.8398278  69.7384486
  13.6057824  90.5305512  73.3603082  13.4582787  89.6022219  73.5410652
  14.4311318  90.5525602  72.8760158   7.4720069  79.1823579  69.2183575
   7.8116141  79.7109500  68.4962183   7.9192189  79.5203985  69.9942141
  17.2091946  91.3534070  74.4467955  18.1338494  91.1476932  74.3092406
  17.0407249  91.1050472  75.3557297  10.1663509  77.5660630  78.6686643
   9.8260330  76.7668443  79.0707323   9.4602516  77.8662340  78.0963476
  10.8179981  74.6509942  77.1213966  11.6406050  74.1770420  76.9992856
  11.0618045  75.4300426  77.6212652   9.4588216  77.6798200  67.4176867
  10.1796578  78.0579453  66.9140584   8.8353520  78.3987077  67.5211845
  13.6019339  78.3843349  68.3535200  13.8182953  79.2667987  68.0524028
  13.1213406  77.9929563  67.6240842   8.3418560  81.3429063  74.9305944
   8.1963141  81.6569366  75.8230226   7.8643764  81.9613963  74.3776843
  10.2014943  78.3331611  74.9786834  10.1876512  77.4372704  74.6419132
  10.9187371  78.3402274  75.6125120  12.0541074  78.7668951  77.0239961
  11.7958851  79.6886021  77.0224292  11.5226114  78.3699385  77.7140425
  16.9987262  91.8719738  69.8030047  17.1724140  91.3066160  69.0503899
  17.4916154  92.6720633  69.6209537   2.8164222  83.8834407  77.8693605
   2.2717690  84.6594215  78.0013880   3.6943572  84.2305211  77.7112727
   9.6051839  77.2145991  70.2474404   9.7267750  76.2862637  70.4465291
   9.3153881  77.2284677  69.3352719  12.4743029  74.9000901  73.3841124
  12.4964726  74.9640234  72.4293103  12.8911088  74.0605410  73.5781630
  22.8526653  84.6356161  71.4220346  23.2957799  83.8863486  71.0239470
  21.9753164  84.6266297  71.0394078  17.9862435  91.1886502  66.9026945
  18.6813339  91.8093195  67.1214260  18.3285585  90.3381854  67.1779323
   3.6030244  83.0104303  80.7623762   2.8611980  83.1586939  81.3488393
   3.2822988  83.2712569  79.8990512  19.8853858  88.6386208  68.4314276
  20.4105182  88.9773481  67.7063596  19.7976210  87.7033223  68.2477410
  11.5473907  92.5520282  80.5604152  11.8561033  92.3069428  81.4326852
  12.3449389  92.7566920  80.0723023  11.5694519  94.7058191  72.7909529
  11.1299509  94.2134570  73.4842386  12.3202636  94.1631159  72.5501604
   4.0486858  90.8969732  72.7934157   4.8744878  90.5973504  72.4132800
   3.6980910  90.1277354  73.2423946   9.0168391  90.2496200  74.8631831
   8.3948400  89.5866905  74.5634058   9.6873258  90.2757332  74.1805478
   2.2495463  88.8156058  73.7523091   1.4127371  88.3878233  73.5707092
   2.2219108  89.0088502  74.6893882   9.0892918  78.7277988  84.4564337
   9.1381074  79.6040111  84.0742106   9.6315432  78.1855381  83.8835980
  19.5747764  89.2719112  83.7365474  18.7843308  89.2543250  83.1969973
  19.3381119  89.8107405  84.4914510  19.6945639  86.1211578  81.0498202
  19.7443644  85.9561585  81.9913725  19.5859562  85.2538837  80.6596083
   8.5781898  88.8000124  68.3390291   8.7270018  89.4835588  67.6856964
   9.3848341  88.7805214  68.8539747  16.9849401  82.1042506  82.3657509
  17.8859264  81.9648971  82.0741507  17.0597376  82.2696961  83.3055686
  11.3192207  79.4809361  81.2110695  10.4495516  79.7742927  80.9393284
  11.5551687  80.0649806  81.9317959  21.1963836  88.5408519  81.2940224
  20.9048644  88.9038500  82.1303685  20.5835967  87.8275528  81.1153556
  22.3959518  86.1061399  73.8142794  23.2306410  86.5451203  73.9780354
  22.5318647  85.6300052  72.9951040  19.4451024  83.6641134  79.7620282
  19.9205146  83.8568780  78.9539133  18.5216589  83.7200320  79.5163665
   6.3334531  84.8265301  69.3451360   6.0880573  83.9227631  69.5431570
   6.5030445  84.8282452  68.4030838  14.0231241  75.6988978  78.7276116
  14.5413184  76.4350005  78.4022604  13.6686373  76.0052971  79.5622875
   5.6030178  80.5593659  66.8437521   4.9099423  80.6338014  66.1877557
   5.3581930  79.7954002  67.3659038  14.2743835  72.1189260  74.2477012
  14.5545588  71.4512449  74.8737439  15.0594442  72.3118356  73.7351676
  12.0777303  91.2948254  65.8102039  11.5051270  91.9138441  65.3572510
  12.6510097  91.8447616  66.3441960  18.1452693  80.5406894  77.9948587
  19.0970116  80.6404992  78.0160811  17.9756143  79.7485163  78.5046672
  16.1667073  77.6262477  78.1807988  15.5717005  77.9067490  77.4854477
  15.8816769  78.1156378  78.9524729  15.2974563  91.5785404  66.9410621
  16.2305236  91.5130966  67.1443496  15.2097776  92.4141671  66.4825153
  17.9262580  90.8951275  63.9014568  17.8476211  90.5611138  64.7950326
  18.7472246  91.3873042  63.9006041  20.6240771  83.7613014  77.1090887
  20.5917091  82.8229015  77.2950571  21.2341395  83.8397051  76.3756712
  12.4624102  82.6309067  63.1518091  13.4083206  82.5015275  63.2206509
  12.0838347  81.8923729  63.6287519  20.7735259  80.5524057  77.1549170
  20.2574308  79.7682514  76.9679099  21.6575208  80.2242774  77.3195690
  18.4345986  74.2965073  73.1144983  18.2370807  73.9880161  73.9988315
  19.0445692  75.0226712  73.2442913  26.4417321  84.8229021  76.2496924
  27.1720709  84.5614309  76.8104627  25.8324266  84.0857743  76.2898992
  24.5232618  82.9636883  76.8471375  23.7965781  82.8292848  76.2387867
  24.1079905  83.2713712  77.6528093  12.3462794  86.6826813  84.6118748
  13.2665804  86.8605412  84.8058795  12.3112377  85.7382858  84.4598447
  10.6467019  80.5559043  63.0872976   9.7398474  80.2592156  63.1635690
  10.9243000  80.2588861  62.2207262   1.5644959  81.8765407  73.5372023
   1.2447744  81.0230715  73.2446397   1.0178387  82.0913985  74.2929990
   5.3424867  84.5927848  77.2541529   5.5610877  85.5244955  77.2729563
   5.7550641  84.2335822  78.0396333  12.2629085  75.0995933  69.2417218
  11.4529813  74.7543018  69.6172464  12.9513502  74.7903477  69.8304829
  14.1919633  74.1773980  70.8641514  14.7450671  74.5969433  71.5231537
  14.4289719  73.2509728  70.9064470  10.2152732  80.1661053  86.6444278
  10.1149459  81.1155410  86.5756369   9.9974274  79.8379292  85.7720348
   9.4165803  77.4145978  63.2284955  10.2784967  77.7400877  63.4880773
   9.6016148  76.6277474  62.7158021   1.4333219  85.4968318  75.5065144
   0.7396691  85.0822271  74.9935099   2.1806210  85.5388855  74.9098563
  17.5698440  76.2874505  70.3720178  16.9897109  76.9459309  69.9898231
  17.3034373  75.4651849  69.9607596  16.0202006  75.6879563  72.5741499
  16.5201785  75.7996097  71.7655818  16.6637614  75.3840615  73.2142307
  10.0784002  83.5958192  85.4609340   9.5951084  84.3958552  85.6673229
  10.1644941  83.6066137  84.5076784   3.3469962  85.4286572  73.3831159
   3.3240650  85.5274259  72.4313042   3.6570598  86.2751723  73.7048325
   6.0057340  87.4862727  77.4977774   6.9600593  87.4546669  77.4307705
   5.8069863  87.0253351  78.3127999   6.5956722  86.0563843  80.0648571
   7.4149611  86.5507922  80.0883408   6.8693529  85.1395811  80.0366139
  16.3523318  78.4474595  69.4276527  15.4649173  78.7324246  69.2096721
  16.7677307  78.2868359  68.5803804  19.7037854  78.4721116  73.1430866
  20.4798244  78.9617569  73.4155483  18.9785988  78.8979170  73.6002735
  22.1410413  79.1848735  74.2004807  22.7354904  78.9444471  73.4898115
  22.2136996  78.4655866  74.8278343   4.3607568  93.0282346  74.5147971
   4.2262036  92.2682747  73.9485969   3.9439631  93.7523246  74.0476760
  15.4966531  88.2119270  63.5224547  16.2002382  88.4169272  64.1382202
  14.7729180  88.7796032  63.7873630  16.3264342  83.9629131  69.6426817
  16.2699543  84.4197683  68.8034449  16.8792684  83.2019816  69.4649660
  20.1369148  79.7518863  70.4676936  19.8806082  79.3515499  71.2985144
  19.5122016  80.4662657  70.3427076  24.4481485  82.4914936  72.9748228
  23.8881043  82.5608126  73.7479790  23.8424989  82.3155921  72.2547724
   7.5176694  93.9251663  74.7266414   7.4009078  94.8697096  74.6245104
   6.6969141  93.6225225  75.1152213  17.4053229  88.6501799  65.5723007
  18.2398833  88.2182998  65.3900482  17.2437572  88.4783813  66.4999901
  17.0599121  85.1533912  66.9379346  17.0047925  84.9878184  65.9967790
  16.4345176  85.8609945  67.0941536   1.8491636  80.3901977  80.7640768
   2.4950500  79.8800931  81.2527993   1.6408787  81.1270658  81.3384194
  14.3745028  87.4582824  86.2632909  15.2436188  87.6323477  85.9019544
  13.8951780  88.2777241  86.1408638  10.3695247  74.6542021  66.5164664
  10.3573916  75.5983861  66.6732935  11.2618668  74.4712167  66.2224126
   8.5431208  94.5779925  77.9422342   9.4458455  94.6103536  78.2588837
   8.3168579  93.6480376  77.9568678  10.2984810  93.3310912  74.6032421
   9.3480441  93.3312773  74.4896793  10.6017297  92.5843646  74.0868456
  14.1847366  71.2484798  70.7710601  13.4179762  70.6943285  70.9167284
  14.5958071  71.3206667  71.6324753   6.1889127  77.5369594  84.8615782
   7.0520589  77.1806399  85.0719107   5.6154538  77.1983489  85.5491187
  26.0337504  99.1671450  75.6678183  26.6715914  99.0478198  74.9641524
  25.9158347 100.1152294  75.7266136  22.8427210  99.1198878  75.6039708
  22.5045722  99.0039943  74.7160243  23.7116978  98.7190043  75.5840714
  18.7014026 100.9734355  71.5936599  18.1378891 100.8824292  70.8252887
  18.5866421 100.1534259  72.0739092  23.3246993 100.2733730  81.5625914
  23.3135634  99.8786528  80.6906417  23.4867633  99.5399803  82.1559685
  16.2478458 102.4685546  74.4320820  17.0399750 102.1276371  74.0167119
  16.4875108 102.5780521  75.3522973  24.2813585 104.6405322  66.9051064
  23.6301564 105.2259403  66.5185078  25.0757947 105.1711517  66.9646102
  18.2069212 101.7294460  67.3038198  18.9800088 101.1823447  67.1651074
  18.5594611 102.5938709  67.5152660  20.0454254 103.0570842  80.5105098
  19.7544120 103.9616473  80.3951764  20.6811239 103.0987369  81.2249167
  20.9710461 100.4347690  77.1006457  21.5674033 100.2103713  76.3863420
  21.0285433  99.6932436  77.7031905  20.5435490  97.8887126  64.9356648
  20.7961010  97.3668647  64.1740111  19.6060049  97.7253271  65.0383332
  25.5878772  96.8922904  72.7431392  26.3741862  96.4742327  72.3921809
  25.8517477  97.7968996  72.9113040  25.7588850 102.3295754  67.4420048
  25.1234683 102.4030381  68.1540953  25.4286256 102.9189353  66.7639128
  30.9887200  96.8298137  73.6464370  31.7212372  96.2597354  73.8802200
  30.2326555  96.4419738  74.0870876  20.2631778  99.7915232  67.1381023
  20.1468036  99.1160135  67.8062108  20.3734038  99.3047606  66.3213176
  22.6063319  99.2525379  70.8427712  22.2421527  98.7256000  71.5540634
  23.4630435  98.8623848  70.6694198  28.5112620  90.5419711  78.1058979
  28.1795945  91.4115122  77.8820194  27.9158233  90.2255995  78.7853009
  22.2468806  94.2815278  65.8389061  22.4143209  95.1495515  66.2059532
  22.0565975  94.4442560  64.9150350  25.0044139 102.7432257  77.5054891
  24.7044863 103.6457296  77.3970699  24.6595199 102.4764441  78.3576044
  18.4556621  99.1946054  73.5391596  17.5307117  99.0622268  73.7469288
  18.7041034  99.9740273  74.0361538  28.4041283  95.2614798  75.1852329
  27.4958161  95.1930206  74.8911090  28.3528879  95.7386742  76.0134154
  22.2258027  96.7372936  66.8235728  22.1057652  97.1829987  67.6621208
  21.5310616  97.0858254  66.2649266  15.8165432  98.8379328  74.3735385
  15.9457813  99.0913807  75.2874797  15.1362883  99.4307036  74.0540040
  19.9864919 109.5076578  70.4725859  19.9088949 110.4584403  70.5514340
  19.3826563 109.1622450  71.1300785  22.4782149  96.6804443  83.1287226
  21.7015483  97.2398363  83.1190091  23.1172712  97.1661226  83.6502096
  30.2702930  93.4631236  76.9630203  29.6277310  93.7563769  76.3169997
  29.7657858  93.3484156  77.7683399  27.9243093  97.2094409  67.6516062
  28.8360949  97.4421796  67.4763759  27.4152740  97.7931453  67.0891140
  20.7328521  99.4889896  82.6905193  21.4743206 100.0274940  82.4140017
  20.0265507 100.1156185  82.8476745  26.2083861 101.6319037  81.2877354
  26.6167217 101.1901447  80.5431987  25.4861122 101.0571664  81.5411547
  22.5614931  96.5691644  78.6610911  23.4076126  96.9931057  78.8045560
  22.5013569  95.9125268  79.3549475  26.5312676 102.1920228  75.0429643
  25.9021538 102.3565942  74.3405711  26.1438338 102.6061837  75.8140607
  30.4101908 103.1274665  72.3974007  29.7252946 103.5073567  71.8471040
  30.4945757 103.7369992  73.1305955  25.7114376  94.2296012  80.3192085
  25.4675308  94.9838073  79.7826361  25.9874307  94.6081360  81.1539332
  27.6652839 100.7734624  78.9969351  27.8769734 101.4166384  78.3203732
  27.6182587  99.9396941  78.5291281  25.2679068  93.3852445  75.9005923
  24.4063547  93.6833699  76.1922660  25.2941503  93.6022844  74.9686955
  22.0840637 101.9294636  72.3079728  22.5478983 102.2082339  71.5184351
  21.8197436 101.0278080  72.1252819  18.9764719 101.4766117  75.2459492
  19.5466076 101.9053386  74.6076976  19.5672830 101.1948702  75.9443677
  21.0209524  98.0517788  69.1169294  21.7233567  98.5038832  69.5843220
  20.6890152  97.4101607  69.7449187  19.4689885  96.6429545  83.4920503
  18.8388546  97.3245826  83.7255900  19.3625973  96.5312626  82.5473641
  14.7634857  96.3101341  74.4186427  13.9733911  96.5658869  73.9426538
  15.2546105  97.1249679  74.5238468  28.7798667 103.6506580  77.1691708
  29.6016111 103.2486767  76.8874390  28.7761070 103.5474814  78.1207824
  16.7149603  96.6745920  71.3769904  15.9180766  96.7864614  71.8953400
  16.4875195  97.0132572  70.5110794  22.5455271 103.1990623  79.3252418
  22.6099703 103.6611030  80.1610590  21.8366194 102.5687988  79.4534728
  13.0472560  96.5631831  76.8501418  13.2980599  97.4478841  77.1158994
  13.5832109  96.3836433  76.0776510  36.8704660  99.9945328  73.5176679
  36.1168368  99.4252726  73.3620684  37.0052201  99.9607993  74.4647314
  22.2603288 104.8658731  69.1931399  22.1248963 105.7110266  69.6216247
  22.8013101 105.0678008  68.4297333  18.7470628  90.9450311  85.8545754
  18.3537573  90.3916509  86.5293398  19.5636768  91.2560889  86.2452272
  15.7132686 102.3834169  69.7659324  16.2257206 103.1777419  69.9164889
  16.3655398 101.6860459  69.6992925  17.5227570 105.4999925  71.8482077
  17.6994199 106.4217890  71.6603061  18.3184404 105.1858344  72.2776457
  21.6638589  92.3608190  83.4466011  22.4048302  92.9615343  83.3670473
  21.8956512  91.6185827  82.8884053  16.8079927  97.5464557  81.7244240
  16.6933442  96.6449814  82.0251339  15.9524445  97.7928254  81.3729057
  23.8871765 105.4882297  83.3231741  23.4435619 104.7018676  83.0052645
  24.5488978 105.6761448  82.6575632  18.6458886 107.0178099  77.8492419
  19.1966311 106.8895162  77.0769413  17.8070362 107.3172988  77.4987312
  25.9853003 105.7685097  81.3513142  25.9671478 106.5893978  80.8593411
  26.9072923 105.6439172  81.5763283  22.4426057 103.2829227  82.1936651
  22.9754394 102.5217515  81.9635958  21.9140138 102.9902878  82.9360805
  25.6095752  88.3889293  77.7230292  25.2660021  89.2790934  77.6469403
  25.9774714  88.1990950  76.8599877  13.6781602 100.7122823  70.5418894
  14.5156824 101.1219831  70.3252602  13.8559870  99.7722265  70.5119088
  25.5746034  98.3797904  66.2302727  25.0592658  99.1502508  66.4691115
  25.3023343  97.7063040  66.8535789  23.1593145  93.2247604  71.2887966
  22.3034742  92.8354455  71.1093604  23.5720097  93.3039565  70.4287751
  24.6892292  90.7593948  75.6879526  24.1857088  90.7224083  74.8747331
  24.9822899  91.6686690  75.7476182  20.9335178  90.8432677  74.6945707
  21.7988175  90.6475486  74.3351597  21.0012687  90.6143029  75.6215064
  30.5480309 101.1330258  68.1655901  29.7709751 100.7941418  67.7211063
  31.2271790 101.1382881  67.4910866  25.3632338  96.2524996  68.0562509
  25.0582473  96.5671145  68.9072652  26.3162780  96.3306416  68.0989842
  23.8078769 102.4115219  69.7055463  23.2800131 101.6767979  69.3928700
  23.3066272 103.1889895  69.4595431  28.7871615 100.6064240  74.8222509
  28.1295290 101.2963501  74.9102637  29.5912015 100.9960671  75.1656495
  18.5397497  93.0734885  72.0662074  19.1141249  92.8510067  71.3335267
  19.1268480  93.1423580  72.8190675  27.5977074  98.9608612  72.8726451
  28.1108956  99.5938604  73.3748160  28.2478298  98.3609808  72.5069811
  18.8667084  95.1039346  66.0857959  18.0304396  95.4414033  66.4067234
  18.7271854  94.9688326  65.1485096  20.8420165  89.9476134  70.7937143
  20.1884577  89.6325151  70.1693758  20.8000639  89.3251875  71.5196966
  21.9531370 100.2295429  62.7090436  21.0458431  99.9984683  62.9081585
  22.4502402  99.4333049  62.8964417  24.8599449 108.9392937  65.6287122
  24.1861147 109.2424633  66.2372080  25.2465270 109.7422017  65.2792579
  24.0757905  96.4358068  75.1184791  23.1580467  96.6573015  74.9606479
  24.4918049  96.5104378  74.2596498  24.8592953  97.8349483  70.2487471
  25.6064772  98.3470881  69.9394593  25.1284542  97.5133536  71.1091865
  23.1319603 100.3308024  67.2314426  22.2230822 100.0467057  67.3286895
  23.1614687 100.7507103  66.3717733  28.3638871 103.9414614  71.0005593
  27.9101198 103.1005524  71.0570784  27.7332837 104.5776012  71.3380373
  27.3071790  94.8706600  72.2306261  26.5694547  94.3583986  72.5616503
  27.5598564  94.4306981  71.4189538  26.8071810 105.7791110  71.9355411
  27.0994784 106.3396167  71.2167777  27.3170430 106.0719671  72.6908570
  27.4083417  87.6482852  72.8248030  27.7142294  86.7880215  72.5373945
  28.1336022  88.2400472  72.6247024  13.7007773  98.0513538  71.2129628
  13.5032173  97.4582899  70.4880694  13.1454437  97.7465749  71.9305567
  21.6804497  97.9436645  73.3324221  21.7353107  96.9910481  73.2566698
  20.8695699  98.0996084  73.8165519  22.8295691 101.8716768  64.5702504
  22.3915121 101.1552627  64.1108142  23.5706132 102.0992883  64.0087596
  19.6196857  96.5613705  71.0914600  18.8064723  96.8607875  71.4979792
  20.1155851  96.1669393  71.8089082  21.7705435 106.5571461  73.0248865
  21.7281614 106.7832308  72.0957397  22.6868134 106.3234836  73.1734666
  25.2171069  97.0255529  79.9229494  25.5720456  97.2527002  80.7823960
  25.8643200  97.3573906  79.3006749  30.9468806 100.1473965  70.6278823
  30.8086704 100.3375561  69.7000012  30.5905024 100.9093348  71.0846874
  19.1110932  94.1332060  76.7075835  19.7510311  93.9920819  76.0098798
  18.2788462  93.8466573  76.3314437  30.9738185 102.2150492  75.6390094
  31.4074692 102.1225781  76.4873148  31.6869766 102.1907992  75.0010110
  19.8871236 103.4334490  72.8210827  20.6811834 102.9384811  72.6193402
  19.1762928 102.9052354  72.4578533  24.7066080 105.8152586  77.1723195
  24.7603102 106.3843522  77.9400911  23.8380862 105.9854471  76.8077232
  16.1953999  97.5777572  68.8970580  15.2651587  97.5162028  69.1140542
  16.2911471  97.0553525  68.1007221  16.1139548  94.1032385  71.4848822
  16.3746366  95.0177718  71.3757982  16.9356721  93.6356828  71.6345434
  17.5864474  95.5170142  78.6547646  18.2587527  95.3087504  78.0060295
  16.7594260  95.3192228  78.2152878  31.8353735 102.2574193  78.1722980
  32.0289625 103.1620003  78.4182255  31.7354353 101.7981612  79.0061565
  23.4890046  92.1432083  80.6713307  22.8417961  92.8422033  80.5777783
  24.2591061  92.5768227  81.0389555  26.8968844 102.4080935  83.7463860
  26.7454350 102.1791487  82.8293944  26.8873523 103.3651537  83.7595205
  23.6654180  99.9812848  78.7310127  24.5946240 100.1324008  78.5579094
  23.2445210 100.0696869  77.8758773  22.4642512 104.0063512  76.5008664
  22.3253597 103.6382297  77.3734602  21.6757108 104.5211152  76.3292622
  23.0590664 109.1072609  67.8434201  23.2342419 108.6360652  68.6579824
  22.3723452 109.7338375  68.0715462  24.0147727 103.3845115  73.8897502
  23.6797559 103.3445885  74.7855152  23.5151673 102.7189831  73.4167912
  17.9891971  98.7912745  79.4150083  17.8511769  98.0592984  80.0161622
  18.8996894  98.7021645  79.1334271  26.9506919 100.7301150  64.1634562
  26.3336089 100.0047978  64.0667614  26.4823407 101.4910510  63.8201636
  20.6174271  98.5032705  78.9033763  21.3273890  97.8625897  78.8620381
  20.5743580  98.7545599  79.8259944  28.6061050 105.4400058  81.8240342
  28.5473596 104.7559278  81.1570925  29.0080569 106.1819048  81.3720968
  19.3303205  95.4897922  80.7229402  18.7940562  95.0388661  81.3750999
  18.7419914  95.6243831  79.9799867  18.7405464  94.9486574  63.2855866
  17.8634931  94.8275375  62.9218113  19.2163217  94.1572652  63.0334755
  28.6078457 103.4039642  80.0554322  27.7205236 103.0665564  80.1780721
  29.1777008 102.6722673  80.2923087  10.2607605  99.7363734  73.3797373
  10.9478644  99.4225464  72.7918389  10.1055733 100.6405098  73.1064625
  15.0642327  94.6253930  77.8082397  14.9800515  94.0179600  77.0732807
  14.2425033  95.1162948  77.8091893  22.1379611 108.0641094  77.0215565
  22.0649782 108.8696066  77.5334870  21.6957004 108.2633060  76.1963586
  21.9269390 107.3012864  70.5318387  21.1436912 107.8434544  70.6256611
  22.6262136 107.8186844  70.9312628  25.2366041  93.1107494  73.1752592
  25.7334740  92.3577456  72.8553662  24.4653022  93.1471810  72.6095801
  33.0895798  98.8147859  74.8170883  33.0785674  99.6972575  74.4464817
  32.2213177  98.4619410  74.6225421  24.5978294 107.9627928  79.1773724
  25.3106267 108.5975393  79.1049625  24.1068323 108.0591794  78.3613726
  26.3195821 101.8679181  70.7491015  25.3852100 101.9880643  70.5795720
  26.4972490 100.9651648  70.4851025  21.8201009  95.2524877  72.9024277
  21.4498797  94.6995917  73.5905182  22.3160102  94.6483010  72.3499277
  29.7068373  97.7096500  71.2841050  30.1728825  98.5424492  71.2101352
  30.1575873  97.2441482  71.9886308  19.6490208 105.7122372  79.9979295
  20.3499667 106.3458855  80.1508689  19.1785323 106.0537103  79.2374934
  27.7744604 104.0540321  68.2827202  28.0504448 103.9396916  69.1921076
  26.9049102 103.6557806  68.2439375  27.6785035  90.0777087  75.3231951
  26.7648115  90.3081314  75.4914158  28.1078137  90.1615531  76.1745983
  27.4491494  98.2666979  77.8231845  26.7962944  98.5142887  77.1684298
  27.8271874  97.4531117  77.4894322  24.4098668 108.3026672  71.9260015
  24.5921062 107.4848328  72.3887768  25.2331654 108.5194365  71.4884905
  24.7440833 107.2294857  69.1875064  25.2728600 106.7187312  68.5745226
  25.0069053 106.9137388  70.0520597  23.4979067  99.0086790  84.3097882
  22.8219704  98.9080919  84.9800257  24.3206701  98.8526004  84.7733879
  15.2457926 105.2458727  76.9310397  15.8311363 104.5002415  77.0638301
  15.0482764 105.5562683  77.8147061  18.0996581 108.2809974  71.9472840
  17.4306956 108.7656102  71.4636880  17.9609451 108.5279195  72.8616218
   9.8375581  97.8164327  75.6514840   9.8759680  97.2827918  76.4451958
   9.3315873  97.2899532  75.0325818  22.2401850 110.3153718  78.5455498
  22.7920158 110.4785339  79.3104583  22.5808043 110.9058155  77.8735523
  17.2166343  92.6628867  79.1477383  17.2807669  93.5243698  78.7354780
  17.1533463  92.0502869  78.4149741  16.6918616  94.7352000  82.7950417
  17.3190654  94.3529077  83.4087941  15.8346534  94.5166202  83.1606109
  27.0912724 105.1414975  84.4004152  27.6352628 105.7544933  83.9059107
  26.5099569 105.6994554  84.9171165  13.4684158  96.5428429  68.7268772
  13.7637599  95.6339107  68.6735825  12.5672194  96.5216169  68.4049774
  25.3770237 108.2635693  75.5319180  25.2521376 107.4625433  75.0230126
  26.0349328 108.7581886  75.0433150  16.9978405  94.6184426  74.7096320
  16.2764991  95.2320393  74.5703794  17.7871661  95.1542190  74.6312966
  27.4405145 106.0644713  77.1598730  26.4935481 105.9450064  77.0877057
  27.7887919 105.1767211  77.2424992  19.8004719  91.9538852  80.9836972
  20.3239121  92.2001149  81.7463281  19.5817052  92.7858887  80.5640109
  15.1972000  94.2242527  68.8508097  14.8684706  93.3439906  68.6683203
  15.5511371  94.1690195  69.7384486  24.4451579 105.8597429  73.3603082
  24.2976541 104.9314137  73.5410652  25.2705072 105.8817520  72.8760158
  18.3113823  94.5115497  69.2183575  18.6509896  95.0401418  68.4962183
  18.7585943  94.8495903  69.9942141  28.0485701 106.6825988  74.4467955
  28.9732248 106.4768850  74.3092406  27.8801004 106.4342389  75.3557297
  21.0057264  92.8952547  78.6686643  20.6654084  92.0960360  79.0707323
  20.2996270  93.1954258  78.0963476  21.6573736  89.9801860  77.1213966
  22.4799805  89.5062338  76.9992856  21.9011799  90.7592343  77.6212652
  20.2981970  93.0090118  67.4176867  21.0190333  93.3871371  66.9140584
  19.6747274  93.7278995  67.5211845  24.4413093  93.7135267  68.3535200
  24.6576707  94.5959905  68.0524028  23.9607160  93.3221480  67.6240842
  19.1812314  96.6720980  74.9305944  19.0356895  96.9861283  75.8230226
  18.7037518  97.2905881  74.3776843  21.0408697  93.6623528  74.9786834
  21.0270266  92.7664622  74.6419132  21.7581125  93.6694192  75.6125120
  22.8934828  94.0960868  77.0239961  22.6352606  95.0177939  77.0224292
  22.3619868  93.6991303  77.7140425  27.8381017 107.2011656  69.8030047
  28.0117894 106.6358078  69.0503899  28.3309908 108.0012550  69.6209537
  13.6557977  99.2126325  77.8693605  13.1111445  99.9886133  78.0013880
  14.5337326  99.5597129  77.7112727  20.4445593  92.5437909  70.2474404
  20.5661504  91.6154555  70.4465291  20.1547636  92.5576595  69.3352719
  23.3136784  90.2292819  73.3841124  23.3358480  90.2932152  72.4293103
  23.7304843  89.3897328  73.5781630  33.6920408  99.9648079  71.4220346
  34.1351554  99.2155404  71.0239470  32.8146918  99.9558215  71.0394078
  28.8256189 106.5178420  66.9026945  29.5207094 107.1385113  67.1214260
  29.1679339 105.6673771  67.1779323  14.4423998  98.3396221  80.7623762
  13.7005734  98.4878856  81.3488393  14.1216743  98.6004487  79.8990512
  30.7247612 103.9678126  68.4314276  31.2498936 104.3065398  67.7063596
  30.6369965 103.0325141  68.2477410  22.3867661 107.8812199  80.5604152
  22.6954788 107.6361346  81.4326852  23.1843143 108.0858838  80.0723023
  22.4088273 110.0350109  72.7909529  21.9693263 109.5426488  73.4842386
  23.1596390 109.4923076  72.5501604  14.8880612 106.2261650  72.7934157
  15.7138632 105.9265422  72.4132800  14.5374664 105.4569272  73.2423946
  19.8562145 105.5788118  74.8631831  19.2342155 104.9158823  74.5634058
  20.5267012 105.6049250  74.1805478  13.0889217 104.1447976  73.7523091
  12.2521125 103.7170151  73.5707092  13.0612863 104.3380419  74.6893882
  19.9286673  94.0569906  84.4564337  19.9774828  94.9332029  84.0742106
  20.4709187  93.5147299  83.8835980  30.4141518 104.6011029  83.7365474
  29.6237062 104.5835168  83.1969973  30.1774873 105.1399323  84.4914510
  30.5339393 101.4503496  81.0498202  30.5837398 101.2853503  81.9913725
  30.4253317 100.5830755  80.6596083  19.4175652 104.1292041  68.3390291
  19.5663773 104.8127506  67.6856964  20.2242096 104.1097131  68.8539747
  27.8243156  97.4334424  82.3657509  28.7253019  97.2940888  82.0741507
  27.8991130  97.5988878  83.3055686  22.1585961  94.8101278  81.2110695
  21.2889271  95.1034844  80.9393284  22.3945442  95.3941723  81.9317959
  32.0357590 103.8700437  81.2940224  31.7442399 104.2330418  82.1303685
  31.4229722 103.1567445  81.1153556  33.2353273 101.4353317  73.8142794
  34.0700164 101.8743121  73.9780354  33.3712401 100.9591970  72.9951040
  30.2844779  98.9933052  79.7620282  30.7598900  99.1860698  78.9539133
  29.3610344  99.0492238  79.5163665  17.1728285 100.1557219  69.3451360
  16.9274327  99.2519549  69.5431570  17.3424200 100.1574369  68.4030838
  24.8624995  91.0280895  78.7276116  25.3806939  91.7641922  78.4022604
  24.5080128  91.3344889  79.5622875  16.4423933  95.8885576  66.8437521
  15.7493178  95.9629931  66.1877557  16.1975685  95.1245920  67.3659038
  25.1137589  87.4481178  74.2477012  25.3939343  86.7804367  74.8737439
  25.8988196  87.6410273  73.7351676  22.9171058 106.6240172  65.8102039
  22.3445025 107.2430359  65.3572510  23.4903851 107.1739533  66.3441960
  28.9846448  95.8698812  77.9948587  29.9363870  95.9696909  78.0160811
  28.8149898  95.0777080  78.5046672  27.0060827  92.9554395  78.1807988
  26.4110759  93.2359408  77.4854477  26.7210524  93.4448296  78.9524729
  26.1368317 106.9077322  66.9410621  27.0698991 106.8422884  67.1443496
  26.0491530 107.7433589  66.4825153  28.7656334 106.2243192  63.9014568
  28.6869966 105.8903056  64.7950326  29.5866001 106.7164960  63.9006041
  31.4634525  99.0904931  77.1090887  31.4310845  98.1520932  77.2950571
  32.0735149  99.1688968  76.3756712  23.3017856  97.9600984  63.1518091
  24.2476961  97.8307193  63.2206509  22.9232101  97.2215646  63.6287519
  31.6129014  95.8815975  77.1549170  31.0968062  95.0974432  76.9679099
  32.4968962  95.5534692  77.3195690  29.2739741  89.6256990  73.1144983
  29.0764562  89.3172079  73.9988315  29.8839446  90.3518629  73.2442913
  37.2811075 100.1520938  76.2496924  38.0114464  99.8906226  76.8104627
  36.6718021  99.4149660  76.2898992  35.3626372  98.2928801  76.8471375
  34.6359536  98.1584766  76.2387867  34.9473659  98.6005630  77.6528093
  23.1856549 102.0118731  84.6118748  24.1059558 102.1897330  84.8058795
  23.1506132 101.0674776  84.4598447  21.4860773  95.8850961  63.0872976
  20.5792229  95.5884074  63.1635690  21.7636754  95.5880779  62.2207262
  12.4038714  97.2057324  73.5372023  12.0841498  96.3522632  73.2446397
  11.8572142  97.4205902  74.2929990  16.1818621  99.9219765  77.2541529
  16.4004631 100.8536873  77.2729563  16.5944395  99.5627740  78.0396333
  23.1022839  90.4287851  69.2417218  22.2923567  90.0834936  69.6172464
  23.7907256  90.1195394  69.8304829  25.0313387  89.5065897  70.8641514
  25.5844426  89.9261351  71.5231537  25.2683474  88.5801645  70.9064470
  21.0546487  95.4952971  86.6444278  20.9543213  96.4447328  86.5756369
  20.8368029  95.1671210  85.7720348  20.2559558  92.7437896  63.2284955
  21.1178722  93.0692794  63.4880773  20.4409902  91.9569392  62.7158021
  12.2726974 100.8260236  75.5065144  11.5790445 100.4114189  74.9935099
  13.0199965 100.8680772  74.9098563  28.4092194  91.6166423  70.3720178
  27.8290864  92.2751227  69.9898231  28.1428127  90.7943767  69.9607596
  26.8595761  91.0171480  72.5741499  27.3595539  91.1288015  71.7655818
  27.5031369  90.7132533  73.2142307  20.9177757  98.9250110  85.4609340
  20.4344838  99.7250470  85.6673229  21.0038696  98.9358055  84.5076784
  14.1863716 100.7578490  73.3831159  14.1634404 100.8566177  72.4313042
  14.4964353 101.6043640  73.7048325  16.8451094 102.8154645  77.4977774
  17.7994348 102.7838587  77.4307705  16.6463618 102.3545268  78.3127999
  17.4350476 101.3855761  80.0648571  18.2543365 101.8799839  80.0883408
  17.7087284 100.4687729  80.0366139  27.1917072  93.7766513  69.4276527
  26.3042928  94.0616164  69.2096721  27.6071062  93.6160276  68.5803804
  30.5431609  93.8013034  73.1430866  31.3191999  94.2909486  73.4155483
  29.8179743  94.2271088  73.6002735  32.9804167  94.5140653  74.2004807
  33.5748658  94.2736389  73.4898115  33.0530751  93.7947784  74.8278343
  26.3360286 103.5411188  63.5224547  27.0396136 103.7461190  64.1382202
  25.6122935 104.1087949  63.7873630  27.1658096  99.2921049  69.6426817
  27.1093298  99.7489600  68.8034449  27.7186439  98.5311733  69.4649660
  30.9762902  95.0810781  70.4676936  30.7199836  94.6807416  71.2985144
  30.3515770  95.7954575  70.3427076  35.2875240  97.8206854  72.9748228
  34.7274798  97.8900043  73.7479790  34.6818743  97.6447839  72.2547724
  28.2446983 103.9793717  65.5723007  29.0792587 103.5474915  65.3900482
  28.0831326 103.8075730  66.4999901  27.8992876 100.4825830  66.9379346
  27.8441679 100.3170102  65.9967790  27.2738931 101.1901863  67.0941536
  12.6885391  95.7193894  80.7640768  13.3344254  95.2092848  81.2527993
  12.4802542  96.4562576  81.3384194  25.2138783 102.7874742  86.2632909
  26.0829942 102.9615394  85.9019544  24.7345534 103.6069159  86.1408638
  21.2089001  89.9833939  66.5164664  21.1967671  90.9275779  66.6732935
  22.1012423  89.8004085  66.2224126  19.3824963 109.9071843  77.9422342
  20.2852210 109.9395453  78.2588837  19.1562333 108.9772294  77.9568678
  21.1378565 108.6602830  74.6032421  20.1874196 108.6604691  74.4896793
  21.4411051 107.9135564  74.0868456  25.0241120  86.5776716  70.7710601
  24.2573516  86.0235202  70.9167284  25.4351825  86.6498584  71.6324753
  17.0282882  92.8661512  84.8615782  17.8914343  92.5098316  85.0719107
  16.4548292  92.5275406  85.5491187  36.8731258 114.4963368  75.6678183
  37.5109668 114.3770115  74.9641524  36.7552101 115.4444212  75.7266136
  33.6820965 114.4490796  75.6039708  33.3439476 114.3331861  74.7160243
  34.5510733 114.0481961  75.5840714  34.1640748 115.6025648  81.5625914
  34.1529388 115.2078446  80.6906417  34.3261387 114.8691720  82.1559685
  31.3829244 113.2179043  64.9356648  31.6354765 112.6960565  64.1740111
  30.4453803 113.0545189  65.0383332  36.4272527 112.2214822  72.7431392
  37.2135616 111.8034245  72.3921809  36.6911231 113.1260914  72.9113040
  41.8280954 112.1590055  73.6464370  42.5606126 111.5889272  73.8802200
  41.0720310 111.7711655  74.0870876  33.4457074 114.5817296  70.8427712
  33.0815281 114.0547917  71.5540634  34.3024190 114.1915765  70.6694198
  39.3506374 105.8711629  78.1058979  39.0189699 106.7407040  77.8820194
  38.7551988 105.5547913  78.7853009  33.0862561 109.6107196  65.8389061
  33.2536963 110.4787433  66.2059532  32.8959730 109.7734478  64.9150350
  39.2435038 110.5906715  75.1852329  38.3351915 110.5222124  74.8911090
  39.1922634 111.0678660  76.0134154  33.0651782 112.0664854  66.8235728
  32.9451407 112.5121904  67.6621208  32.3704370 112.4150171  66.2649266
  33.3175904 112.0096361  83.1287226  32.5409238 112.5690281  83.1190091
  33.9566467 112.4953144  83.6502096  41.1096684 108.7923154  76.9630203
  40.4671064 109.0855687  76.3169997  40.6051613 108.6776074  77.7683399
  38.7636848 112.5386327  67.6516062  39.6754704 112.7713714  67.4763759
  38.2546495 113.1223371  67.0891140  33.4008686 111.8983561  78.6610911
  34.2469881 112.3222975  78.8045560  33.3407323 111.2417186  79.3549475
  36.5508131 109.5587930  80.3192085  36.3069063 110.3129990  79.7826361
  36.8268061 109.9373277  81.1539332  38.5046594 116.1026542  78.9969351
  38.7163489 116.7458302  78.3203732  38.4576342 115.2688859  78.5291281
  36.1072823 108.7144363  75.9005923  35.2457302 109.0125616  76.1922660
  36.1335257 108.9314762  74.9686955  31.8603278 113.3809706  69.1169294
  32.5627321 113.8330749  69.5843220  31.5283907 112.7393525  69.7449187
  30.3083640 111.9721462  83.4920503  29.6782300 112.6537743  83.7255900
  30.2019727 111.8604544  82.5473641  25.6028612 111.6393258  74.4186427
  24.8127666 111.8950787  73.9426538  26.0939859 112.4541596  74.5238468
  27.5543357 112.0037838  71.3769904  26.7574521 112.1156532  71.8953400
  27.3268950 112.3424490  70.5110794  47.7098415 115.3237246  73.5176679
  46.9562123 114.7544644  73.3620684  47.8445956 115.2899911  74.4647314
  29.5864382 106.2742228  85.8545754  29.1931328 105.7208427  86.5293398
  30.4030523 106.5852807  86.2452272  32.5032343 107.6900107  83.4466011
  33.2442057 108.2907260  83.3670473  32.7350266 106.9477745  82.8884053
  36.4489506 103.7181210  77.7230292  36.1053776 104.6082852  77.6469403
  36.8168469 103.5282868  76.8599877  36.4139789 113.7089821  66.2302727
  35.8986412 114.4794426  66.4691115  36.1417097 113.0354957  66.8535789
  33.9986900 108.5539522  71.2887966  33.1428496 108.1646373  71.1093604
  34.4113852 108.6331483  70.4287751  35.5286047 106.0885865  75.6879526
  35.0250842 106.0516001  74.8747331  35.8216653 106.9978608  75.7476182
  31.7728932 106.1724595  74.6945707  32.6381929 105.9767404  74.3351597
  31.8406441 105.9434947  75.6215064  41.3874063 116.4622176  68.1655901
  40.6103506 116.1233335  67.7211063  42.0665544 116.4674799  67.4910866
  36.2026092 111.5816913  68.0562509  35.8976228 111.8963063  68.9072652
  37.1556534 111.6598333  68.0989842  39.6265370 115.9356157  74.8222509
  38.9689044 116.6255419  74.9102637  40.4305769 116.3252589  75.1656495
  29.3791252 108.4026803  72.0662074  29.9535003 108.1801985  71.3335267
  29.9662234 108.4715498  72.8190675  38.4370829 114.2900530  72.8726451
  38.9502711 114.9230522  73.3748160  39.0872053 113.6901725  72.5069811
  29.7060839 110.4331264  66.0857959  28.8698151 110.7705951  66.4067234
  29.5665608 110.2980244  65.1485096  31.6813919 105.2768052  70.7937143
  31.0278332 104.9617069  70.1693758  31.6394393 104.6543792  71.5196966
  34.9151660 111.7649985  75.1184791  33.9974221 111.9864932  74.9606479
  35.3311803 111.8396296  74.2596498  35.6986707 113.1641401  70.2487471
  36.4458526 113.6762798  69.9394593  35.9678297 112.8425454  71.1091865
  38.1465545 110.1998517  72.2306261  37.4088301 109.6875904  72.5616503
  38.3992318 109.7598899  71.4189538  38.2477172 102.9774769  72.8248030
  38.5536049 102.1172133  72.5373945  38.9729777 103.5692390  72.6247024
  32.5198252 113.2728562  73.3324221  32.5746861 112.3202399  73.2566698
  31.7089454 113.4288002  73.8165519  30.4590612 111.8905622  71.0914600
  29.6458477 112.1899793  71.4979792  30.9549606 111.4961311  71.8089082
  36.0564823 112.3547447  79.9229494  36.4114211 112.5818920  80.7823960
  36.7036954 112.6865823  79.3006749  41.7862560 115.4765883  70.6278823
  41.6480459 115.6667479  69.7000012  41.4298779 116.2385265  71.0846874
  29.9504686 109.4623978  76.7075835  30.5904066 109.3212737  76.0098798
  29.1182217 109.1758491  76.3314437  41.8131940 117.5442410  75.6390094
  42.2468446 117.4517699  76.4873148  42.5263520 117.5199910  75.0010110
  27.0347754 112.9069490  68.8970580  26.1045342 112.8453945  69.1140542
  27.1305226 112.3845443  68.1007221  26.9533303 109.4324303  71.4848822
  27.2140120 110.3469636  71.3757982  27.7750475 108.9648745  71.6345434
  28.4258228 110.8462060  78.6547646  29.0981281 110.6379422  78.0060295
  27.5988015 110.6484146  78.2152878  42.6747489 117.5866110  78.1722980
  42.8683379 118.4911921  78.4182255  42.5748107 117.1273529  79.0061565
  34.3283800 107.4724001  80.6713307  33.6811715 108.1713950  80.5777783
  35.0984815 107.9060145  81.0389555  34.5047934 115.3104766  78.7310127
  35.4339994 115.4615925  78.5579094  34.0838964 115.3988787  77.8758773
  37.7900673 116.0593067  64.1634562  37.1729844 115.3339895  64.0667614
  37.3217161 116.8202427  63.8201636  31.4568026 113.8324622  78.9033763
  32.1667644 113.1917814  78.8620381  31.4137334 114.0837517  79.8259944
  30.1696960 110.8189840  80.7229402  29.6334317 110.3680579  81.3750999
  29.5813668 110.9535749  79.9799867  29.5799219 110.2778491  63.2855866
  28.7028685 110.1567292  62.9218113  30.0556972 109.4864570  63.0334755
  25.9036081 109.9545848  77.8082397  25.8194270 109.3471517  77.0732807
  25.0818788 110.4454866  77.8091893  36.0759795 108.4399411  73.1752592
  36.5728495 107.6869374  72.8553662  35.3046777 108.4763728  72.6095801
  43.9289552 114.1439777  74.8170883  43.9179429 115.0264492  74.4464817
  43.0606932 113.7911328  74.6225421  32.6594764 110.5816794  72.9024277
  32.2892551 110.0287835  73.5905182  33.1553856 109.9774928  72.3499277
  40.5462127 113.0388418  71.2841050  41.0122579 113.8716409  71.2101352
  40.9969628 112.5733399  71.9886308  38.5178790 105.4069005  75.3231951
  37.6041870 105.6373232  75.4914158  38.9471891 105.4907449  76.1745983
  38.2885248 113.5958897  77.8231845  37.6356699 113.8434804  77.1684298
  38.6665628 112.7823035  77.4894322  34.3372821 114.3378708  84.3097882
  33.6613458 114.2372837  84.9800257  35.1600455 114.1817922  84.7733879
  28.0560097 107.9920785  79.1477383  28.1201424 108.8535616  78.7354780
  27.9927218 107.3794787  78.4149741  27.5312370 110.0643918  82.7950417
  28.1584409 109.6820995  83.4087941  26.6740289 109.8458120  83.1606109
  24.3077913 111.8720347  68.7268772  24.6031354 110.9631025  68.6735825
  23.4065949 111.8508086  68.4049774  27.8372160 109.9476343  74.7096320
  27.1158746 110.5612311  74.5703794  28.6265416 110.4834108  74.6312966
  30.6398473 107.2830770  80.9836972  31.1632875 107.5293066  81.7463281
  30.4210807 108.1150805  80.5640109  26.0365754 109.5534444  68.8508097
  25.7078460 108.6731823  68.6683203  26.3905125 109.4982113  69.7384486
  29.1507577 109.8407414  69.2183575  29.4903650 110.3693335  68.4962183
  29.5979698 110.1787820  69.9942141  31.8451018 108.2244465  78.6686643
  31.5047839 107.4252278  79.0707323  31.1390025 108.5246176  78.0963476
  32.4967490 105.3093777  77.1213966  33.3193559 104.8354256  76.9992856
  32.7405554 106.0884261  77.6212652  31.1375725 108.3382036  67.4176867
  31.8584087 108.7163289  66.9140584  30.5141029 109.0570913  67.5211845
  35.2806848 109.0427185  68.3535200  35.4970462 109.9251823  68.0524028
  34.8000915 108.6513398  67.6240842  30.0206069 112.0012898  74.9305944
  29.8750650 112.3153201  75.8230226  29.5431273 112.6197798  74.3776843
  31.8802452 108.9915446  74.9786834  31.8664021 108.0956539  74.6419132
  32.5974880 108.9986110  75.6125120  33.7328582 109.4252786  77.0239961
  33.4746360 110.3469857  77.0224292  33.2013623 109.0283221  77.7140425
  31.2839348 107.8729826  70.2474404  31.4055259 106.9446472  70.4465291
  30.9941390 107.8868512  69.3352719  34.1530538 105.5584737  73.3841124
  34.1752235 105.6224070  72.4293103  34.5698597 104.7189245  73.5781630
  44.5314162 115.2939996  71.4220346  44.9745308 114.5447321  71.0239470
  43.6540673 115.2850133  71.0394078  30.7680427 109.3861824  84.4564337
  30.8168583 110.2623946  84.0742106  31.3102941 108.8439217  83.8835980
  41.3733148 116.7795413  81.0498202  41.4231153 116.6145421  81.9913725
  41.2647071 115.9122672  80.6596083  38.6636910 112.7626341  82.3657509
  39.5646773 112.6232806  82.0741507  38.7384885 112.9280796  83.3055686
  32.9979716 110.1393196  81.2110695  32.1283025 110.4326762  80.9393284
  33.2339196 110.7233641  81.9317959  44.0747027 116.7645235  73.8142794
  44.9093919 117.2035039  73.9780354  44.2106156 116.2883888  72.9951040
  41.1238533 114.3224969  79.7620282  41.5992655 114.5152616  78.9539133
  40.2004098 114.3784155  79.5163665  35.7018750 106.3572813  78.7276116
  36.2200693 107.0933840  78.4022604  35.3473882 106.6636806  79.5622875
  27.2817687 111.2177494  66.8437521  26.5886932 111.2921849  66.1877557
  27.0369439 110.4537838  67.3659038  35.9531344 102.7773095  74.2477012
  36.2333097 102.1096285  74.8737439  36.7381951 102.9702191  73.7351676
  39.8240202 111.1990729  77.9948587  40.7757625 111.2988827  78.0160811
  39.6543652 110.4068998  78.5046672  37.8454582 108.2846313  78.1807988
  37.2504514 108.5651325  77.4854477  37.5604278 108.7740214  78.9524729
  42.3028280 114.4196849  77.1090887  42.2704600 113.4812850  77.2950571
  42.9128903 114.4980886  76.3756712  34.1411611 113.2892902  63.1518091
  35.0870715 113.1599110  63.2206509  33.7625856 112.5507564  63.6287519
  42.4522768 111.2107893  77.1549170  41.9361817 110.4266349  76.9679099
  43.3362717 110.8826609  77.3195690  40.1133495 104.9548908  73.1144983
  39.9158316 104.6463996  73.9988315  40.7233201 105.6810547  73.2442913
  48.1204830 115.4812856  76.2496924  48.8508218 115.2198144  76.8104627
  47.5111775 114.7441578  76.2898992  46.2020127 113.6220719  76.8471375
  45.4753290 113.4876684  76.2387867  45.7867414 113.9297547  77.6528093
  32.3254528 111.2142879  63.0872976  31.4185983 110.9175991  63.1635690
  32.6030509 110.9172697  62.2207262  33.9416594 105.7579768  69.2417218
  33.1317322 105.4126853  69.6172464  34.6301011 105.4487312  69.8304829
  35.8707142 104.8357815  70.8641514  36.4238180 105.2553268  71.5231537
  36.1077228 103.9093563  70.9064470  31.8940241 110.8244889  86.6444278
  31.7936968 111.7739246  86.5756369  31.6761783 110.4963128  85.7720348
  31.0953312 108.0729814  63.2284955  31.9572476 108.3984712  63.4880773
  31.2803657 107.2861310  62.7158021  39.2485949 106.9458340  70.3720178
  38.6684618 107.6043144  69.9898231  38.9821882 106.1235685  69.9607596
  37.6989515 106.3463398  72.5741499  38.1989294 106.4579932  71.7655818
  38.3425123 106.0424451  73.2142307  38.0310827 109.1058431  69.4276527
  37.1436682 109.3908081  69.2096721  38.4464816 108.9452194  68.5803804
  41.3825363 109.1304952  73.1430866  42.1585753 109.6201404  73.4155483
  40.6573497 109.5563006  73.6002735  43.8197922 109.8432571  74.2004807
  44.4142413 109.6028307  73.4898115  43.8924505 109.1239701  74.8278343
  38.0051851 114.6212967  69.6426817  37.9487052 115.0781518  68.8034449
  38.5580193 113.8603651  69.4649660  41.8156657 110.4102698  70.4676936
  41.5593591 110.0099334  71.2985144  41.1909525 111.1246492  70.3427076
  46.1268994 113.1498772  72.9748228  45.5668552 113.2191961  73.7479790
  45.5212498 112.9739756  72.2547724  38.7386630 115.8117748  66.9379346
  38.6835434 115.6462019  65.9967790  38.1132685 116.5193781  67.0941536
  23.5279145 111.0485812  80.7640768  24.1738009 110.5384766  81.2527993
  23.3196296 111.7854494  81.3384194  32.0482755 105.3125857  66.5164664
  32.0361425 106.2567697  66.6732935  32.9406177 105.1296002  66.2224126
  35.8634875 101.9068633  70.7710601  35.0967271 101.3527120  70.9167284
  36.2745580 101.9790502  71.6324753  27.8676636 108.1953429  84.8615782
  28.7308098 107.8390234  85.0719107  27.2942047 107.8567324  85.5491187
  47.2883261 119.0473128  77.7230292  46.9447530 119.9374770  77.6469403
  47.6562223 118.8574786  76.8599877  49.0870926 118.3066687  72.8248030
  49.3929803 117.4464051  72.5373945  49.8123531 118.8984307  72.6247024
  46.7925098 118.1065013  74.2477012  47.0726852 117.4388202  74.8737439
  47.5775705 118.2994109  73.7351676  50.9527250 120.2840826  73.1144983
  50.7552071 119.9755914  73.9988315  51.5626955 121.0102465  73.2442913
  46.7028629 117.2360551  70.7710601  45.9361025 116.6819038  70.9167284
  47.1139334 117.3082420  71.6324753   4.3523398  31.0131698  60.2421986
   3.5987106  30.4439096  60.0865991   4.4870939  30.9794362  61.1892621
   0.7172010  32.4539686  60.5388101   1.5518902  32.8929490  60.7025661
   0.8531139  31.9778340  59.7196346   4.7629813  31.1707308  62.9742230
   5.4933201  30.9092596  63.5349934   4.1536758  30.4336030  63.0144298
   2.8445110  29.3115170  63.5716682   2.1178274  29.1771135  62.9633173
   2.4292397  29.6191999  64.3773400   0.4622905  25.5327023  60.9250113
   1.0567396  25.2922759  60.2143421   0.5349489  24.8134153  61.5523649
   2.7693978  28.8393224  59.6993534   2.2093536  28.9086413  60.4725096
   2.1637481  28.6634208  58.9793031   4.3549996  45.5149737  62.3923490
   4.9928406  45.3956485  61.6886830   4.2370839  46.4630581  62.4511442
   1.1639703  45.4677166  62.3285015   0.8258214  45.3518230  61.4405550
   2.0329471  45.0668331  62.3086021   1.6459486  46.6212017  68.2871220
   1.6348126  46.2264816  67.4151724   1.8080125  45.8878090  68.8804992
   2.6026077  50.9883610  53.6296371   1.9514057  51.5737690  53.2430384
   3.3970440  51.5189805  53.6891408   3.9091265  43.2401191  59.4676698
   4.6954354  42.8220614  59.1167115   4.1729969  44.1447283  59.6358347
   4.0801342  48.6774042  54.1665355   3.4447175  48.7508668  54.8786260
   3.7498748  49.2667640  53.4884434   9.3099692  43.1776425  60.3709677
  10.0424864  42.6075641  60.6047506   8.5539048  42.7898025  60.8116182
   0.9275812  45.6003666  57.5673019   0.5634019  45.0734287  58.2785941
   1.7842927  45.2102135  57.3939505   6.8325112  36.8897999  64.8304285
   6.5008437  37.7593410  64.6065500   6.2370726  36.5734283  65.5098316
   3.3256632  49.0910545  64.2300198   3.0257355  49.9935583  64.1216005
   2.9807691  48.8242728  65.0821351   6.7253776  41.6093085  61.9097635
   5.8170653  41.5408493  61.6156396   6.6741371  42.0865030  62.7379461
   8.5915422  39.8109523  63.6875509   7.9489802  40.1042056  63.0415304
   8.0870350  39.6962444  64.4928706   6.2455586  43.5572696  54.3761369
   7.1573442  43.7900083  54.2009066   5.7365233  44.1409741  53.8136447
   4.5296353  47.9797324  68.0122661   4.9379709  47.5379735  67.2677293
   3.8073615  47.4049952  68.2656854   0.8827423  42.9169931  65.3856218
   1.7288618  43.3409345  65.5290867   0.8226061  42.2603555  66.0794781
   4.8525168  48.5398515  61.7674950   4.2234030  48.7044229  61.0651018
   4.4650830  48.9540124  62.5385914   8.7314400  49.4752953  59.1219314
   8.0465438  49.8551854  58.5716347   8.8158249  50.0848279  59.8551261
   4.0326869  40.5774299  67.0437392   3.7887800  41.3316360  66.5071667
   4.3086799  40.9559647  67.8784639   5.9865331  47.1212912  65.7214657
   6.1982227  47.7644672  65.0449038   5.9395080  46.2875228  65.2536587
   3.5891560  39.7330732  62.6251229   2.7276039  40.0311986  62.9167967
   3.6153995  39.9501131  61.6932262   7.1011159  49.9984867  63.8937015
   7.9228603  49.5965054  63.6119696   7.0973562  49.8953101  64.8453130
  15.1917152  46.3423616  60.2421986  14.4380861  45.7731014  60.0865991
  15.3264694  46.3086280  61.1892621   0.5815780  51.2137018  55.9176705
   0.4461455  52.0588554  56.3461553   1.1225593  51.4156296  55.1542639
   2.2084257  51.8360584  70.0477048   1.7648111  51.0496963  69.7297952
   2.8701470  52.0239735  69.3820938   4.3065495  52.1163384  68.0758449
   4.2883970  52.9372265  67.5838718   5.2285415  51.9917460  68.3008590
   3.9308244  34.7367580  64.4475599   3.5872513  35.6269221  64.3714709
   4.2987207  34.5469237  63.5845184   3.8958527  44.7276191  52.9548034
   3.3805150  45.4980796  53.1936421   3.6235835  44.0541327  53.5781095
   1.4805638  39.5725892  58.0133272   0.6247234  39.1832742  57.8338911
   1.8932590  39.6517852  57.1533058   3.0104784  37.1072235  62.4124832
   2.5069580  37.0702370  61.5992637   3.3035391  38.0164978  62.4721489
   8.8692801  47.4808546  54.8901207   8.0922244  47.1419705  54.4456370
   9.5484282  47.4861169  54.2156173   3.6844830  42.6003283  54.7807815
   3.3794965  42.9149432  55.6317958   4.6375272  42.6784703  54.8235148
   2.1291262  48.7593506  56.4300769   1.6012623  48.0246266  56.1174007
   1.6278764  49.5368183  56.1840738   7.1084108  46.9542527  61.5467815
   6.4507782  47.6441788  61.6347944   7.9124507  47.3438959  61.8901802
   5.9189567  45.3086899  59.5971757   6.4321448  45.9416891  60.0993467
   6.5690790  44.7088095  59.2315117   3.1811941  55.2871224  52.3532428
   2.5073640  55.5902921  52.9617386   3.5677763  56.0900304  52.0037885
   2.3970397  42.7836355  61.8430098   1.4792959  43.0051302  61.6851786
   2.8130541  42.8582666  60.9841805   3.1805445  44.1827771  56.9732778
   3.9277264  44.6949168  56.6639900   3.4497035  43.8611823  57.8337172
   1.4532095  46.6786311  53.9559732   0.5443315  46.3945344  54.0532202
   1.4827179  47.0985390  53.0963039   6.6851363  50.2892901  57.7250900
   6.2313690  49.4483811  57.7816090   6.0545329  50.9254299  58.0625680
   5.6284282  41.2184887  58.9551567   4.8907039  40.7062273  59.2861810
   5.8811056  40.7785269  58.1434844   5.1284302  52.1269398  58.6600718
   5.4207276  52.6874455  57.9413084   5.6382923  52.4197959  59.4153877
   5.7295910  33.9961139  59.5493337   6.0354786  33.1358502  59.2619252
   6.4548514  34.5878759  59.3492330   1.1508183  48.2195055  51.2947811
   0.7127613  47.5030914  50.8353448   1.8918624  48.4471170  50.7332902
   3.5383561  43.3733816  66.6474800   3.8932949  43.6005289  67.5069266
   4.1855692  43.7052193  66.0252056   9.2681298  46.4952252  57.3524129
   9.1299197  46.6853848  56.4245319   8.9117517  47.2571635  57.8092181
   9.2950678  48.5628779  62.3635401   9.7287184  48.4704068  63.2118455
  10.0082258  48.5386280  61.7255417   3.0278572  52.1630873  63.8968502
   3.0815595  52.7321810  64.6646217   2.1593354  52.3332758  63.5322539
  10.1566227  48.6052480  64.8968286  10.3502117  49.5098290  65.1427561
  10.0566845  48.1459899  65.7306871   1.8102538  38.4910370  67.3958614
   1.1630453  39.1900320  67.3023090   2.5803553  38.9246514  67.7634862
   5.2181336  48.7559223  70.4709167   5.0666842  48.5269774  69.5539251
   5.2086015  49.7129824  70.4840512   1.9866672  46.3291135  65.4555433
   2.9158732  46.4802295  65.2824401   1.5657702  46.4175156  64.6004080
   1.3803156  55.4550896  54.5679508   1.5554912  54.9838939  55.3825130
   0.6935944  56.0816662  54.7960768   2.3360219  49.7323402  60.6142809
   2.0010052  49.6924172  61.5100459   1.8364165  49.0668118  60.1413219
   5.2719411  47.0779437  50.8879868   4.6548581  46.3526265  50.7912921
   4.8035899  47.8388797  50.5446943   6.9273542  51.7878345  68.5485649
   6.8686089  51.1037565  67.8816232   7.3293061  52.5297335  68.0966275
   6.9290950  49.7517929  66.7799628   6.0417728  49.4143851  66.9026027
   7.4989501  49.0200960  67.0168394   3.5578533  39.4585781  59.8997899
   4.0547232  38.7055743  59.5798969   2.7865514  39.4950098  59.3341108
  11.4108290  45.1626146  61.5416190  11.3998166  46.0450862  61.1710123
  10.5425670  44.8097697  61.3470727   2.9190787  54.3106215  65.9019030
   3.6318759  54.9453680  65.8294932   2.4280815  54.4070081  65.0859032
   4.6408314  48.2157468  57.4736322   3.7064592  48.3358931  57.3041026
   4.8184982  47.3129935  57.2096332   8.0280865  44.0574787  58.0086356
   8.4941317  44.8902779  57.9346659   8.4788365  43.5919769  58.7131615
   6.0957096  50.4018609  55.0072508   6.3716940  50.2875203  55.9166382
   5.2261595  50.0036094  54.9684681   5.9997528  36.4255374  62.0477257
   5.0860607  36.6559601  62.2159464   6.4290629  36.5093818  62.8991290
   5.7703986  44.6145266  64.5477152   5.1175436  44.8621174  63.8929604
   6.1484366  43.8009405  64.2139629   2.7311160  54.6504960  58.6505322
   2.9133555  53.8326615  59.1133074   3.5544146  54.8672652  58.2130212
   3.0653326  53.5773145  55.9120370   3.5941092  53.0665599  55.2990532
   3.3281545  53.2615675  56.7765903   1.8191559  45.3565077  71.0343189
   1.1432196  45.2559207  71.7045564   2.6419193  45.2004291  71.4979186
   0.5614342  56.6632005  65.2700805   1.1132650  56.8263626  66.0349890
   0.9020535  57.2536443  64.5980829   5.4125216  51.4893262  71.1249459
   5.9565120  52.1023221  70.6304414   4.8312061  52.0472841  71.6416472
   3.6982729  54.6113980  62.2564487   3.5733869  53.8103720  61.7475432
   4.3561820  55.1060174  61.7678457   5.7617638  52.4123000  63.8844037
   4.8147973  52.2928352  63.8122364   6.1100411  51.5245499  63.9670298
   2.7664071  52.2075717  60.0848389   2.6189033  51.2792424  60.2655959
   3.5917564  52.2295807  59.6005464   6.3698193  53.0304275  61.1713262
   7.2944740  52.8247137  61.0337713   6.2013496  52.7820677  62.0802603
   2.7625585  40.0613554  55.0780506   2.9789200  40.9438192  54.7769334
   2.2819652  39.6699768  54.3486148   1.2147320  40.4439156  63.7485268
   0.9565098  41.3656226  63.7469598   0.6832361  40.0469590  64.4385732
   6.1593509  53.5489943  56.5275353   6.3330387  52.9836365  55.7749206
   6.6522400  54.3490838  56.3454843   1.6349276  36.5771106  60.1086430
   1.6570973  36.6410439  59.1538410   2.0517335  35.7375615  60.3026937
  12.0132900  46.3126366  58.1465653  12.4564046  45.5633691  57.7484776
  11.1359410  46.3036502  57.7639385   7.1468682  52.8656707  53.6272252
   7.8419586  53.4863400  53.8459566   7.4891832  52.0152058  53.9024629
   9.0460105  50.3156413  55.1559582   9.5711429  50.6543686  54.4308902
   8.9582457  49.3803428  54.9722717   0.7080153  54.2290486  67.2849459
   1.0167280  53.9839633  68.1572159   1.5055635  54.4337125  66.7968329
   8.7354011  50.9489316  70.4610780   7.9449554  50.9313455  69.9215280
   8.4987365  51.4877610  71.2159817   8.8551886  47.7981783  67.7743509
   8.9049891  47.6331790  68.7159032   8.7465809  46.9309042  67.3841390
   6.1455648  43.7812711  69.0902816   7.0465511  43.6419176  68.7986813
   6.2203623  43.9467166  70.0300993  10.3570083  50.2178724  68.0185530
  10.0654891  50.5808705  68.8548991   9.7442214  49.5045733  67.8398862
  11.5565765  47.7831604  60.5388101  12.3912656  48.2221408  60.7025661
  11.6924894  47.3070257  59.7196346   8.6057271  45.3411339  66.4865588
   9.0811392  45.5338985  65.6784440   7.6822836  45.3970525  66.2408972
   3.1837487  37.3759183  65.4521422   3.7019431  38.1120209  65.1267911
   2.8292620  37.6823176  66.2868181   3.4350081  33.7959465  60.9722319
   3.7151835  33.1282654  61.5982745   4.2200688  33.9888561  60.4596983
   1.2383550  52.9718459  52.5347345   0.6657517  53.5908646  52.0817817
   1.8116344  53.5217821  53.0687267   7.3058940  42.2177099  64.7193894
   8.2576363  42.3175197  64.7406118   7.1362390  41.4255368  65.2291978
   5.3273319  39.3032682  64.9053295   4.7323251  39.5837695  64.2099784
   5.0423016  39.7926583  65.6770036   4.4580810  53.2555609  53.6655927
   5.3911483  53.1901171  53.8688803   4.3704023  54.0911876  53.2070460
   7.0868826  52.5721479  50.6259875   7.0082458  52.2381343  51.5195633
   7.9078493  53.0643247  50.6251347   9.7847018  45.4383219  63.8336194
   9.7523338  44.4999219  64.0195877  10.3947641  45.5167255  63.1002018
   1.6230348  44.3079272  49.8763398   2.5689453  44.1785480  49.9451816
   1.2444593  43.5693934  50.3532826   9.9341506  42.2294262  63.8794477
   9.4180555  41.4452719  63.6924406  10.8181455  41.9012979  64.0440996
   7.5952233  35.9735278  59.8390289   7.3977054  35.6650366  60.7233621
   8.2051939  36.6996917  59.9688219  15.6023567  46.4999226  62.9742230
  16.3326956  46.2384514  63.5349934  14.9930513  45.7627948  63.0144298
  13.6838865  44.6407088  63.5716682  12.9572028  44.5063053  62.9633173
  13.2686151  44.9483917  64.3773400   1.5069041  48.3597018  71.3364055
   2.4272050  48.5375617  71.5304101   1.4718624  47.4153063  71.1843754
   1.4235331  36.7766138  55.9662524   0.6136060  36.4313223  56.3417770
   2.1119748  36.4673682  56.5550136   3.3525880  35.8544185  57.5886821
   3.9056918  36.2739638  58.2476844   3.5895966  34.9279933  57.6309777
   6.7304687  37.9644710  57.0965485   6.1503356  38.6229514  56.7143537
   6.4640619  37.1422054  56.6852903   5.1808253  37.3649767  59.2986805
   5.6808031  37.4766302  58.4901124   5.8243861  37.0610820  59.9387614
   5.5129565  40.1244800  56.1521833   4.6255420  40.4094451  55.9342028
   5.9283554  39.9638564  55.3049110   8.8644101  40.1491321  59.8676173
   9.6404491  40.6387774  60.1400789   8.1392235  40.5749375  60.3248042
  11.3016660  40.8618940  60.9250113  11.8961150  40.6214676  60.2143421
  11.3743243  40.1426071  61.5523649   4.6572778  49.8889475  50.2469853
   5.3608628  50.0939477  50.8627509   3.9335427  50.4566237  50.5118937
   5.4870588  45.6399336  56.3672123   5.4305790  46.0967888  55.5279756
   6.0398931  44.8790021  56.1894966   9.2975394  41.4289068  57.1922243
   9.0412329  41.0285704  58.0230451   8.6728262  42.1432862  57.0672382
  13.6087732  44.1685141  59.6993534  13.0487290  44.2378331  60.4725096
  13.0031236  43.9926126  58.9793031   6.5659476  50.3272004  52.2968313
   7.4005080  49.8953203  52.1145788   6.4043819  50.1554018  53.2245208
   6.2205368  46.8304117  53.6624653   6.1654172  46.6648389  52.7213097
   5.5951423  47.5380150  53.8186842   3.5351275  49.1353029  72.9878215
   4.4042435  49.3093681  72.6264850   3.0558026  49.9547446  72.8653945
   3.3453613  32.9255003  57.4955908   2.5786009  32.3713490  57.6412590
   3.7564318  32.9976872  58.3570059  15.1943751  60.8441655  62.3923490
  15.8322161  60.7248402  61.6886830  15.0764594  61.7922499  62.4511442
  12.0033457  60.7969083  62.3285015  11.6651969  60.6810148  61.4405550
  12.8723225  60.3960248  62.3086021   7.8620273  62.6504560  58.3181906
   7.2985138  62.5594497  57.5498194   7.7472668  61.8304464  58.7984398
  12.4853240  61.9503935  68.2871220  12.4741881  61.5556733  67.4151724
  12.6473879  61.2170008  68.8804992   5.4084705  64.1455751  61.1566126
   6.2005997  63.8046576  60.7412426   5.6481355  64.2550726  62.0768280
  13.4419831  66.3175527  53.6296371  12.7907811  66.9029608  53.2430384
  14.2364194  66.8481722  53.6891408   7.3675459  63.4064665  54.0283505
   8.1406335  62.8593652  53.8896381   7.7200857  64.2708914  54.2397966
   9.2060501  64.7341047  67.2350404   8.9150367  65.6386678  67.1197071
   9.8417485  64.7757574  67.9494474  10.1316708  62.1117895  63.8251764
  10.7280280  61.8873918  63.1108727  10.1891680  61.3702641  64.4277212
   9.7041736  59.5657331  51.6601955   9.9567257  59.0438852  50.8985418
   8.7666295  59.4023476  51.7628639  14.7485019  58.5693109  59.4676698
  15.5348108  58.1512532  59.1167115  15.0123724  59.4739201  59.6358347
  14.9195097  64.0065959  54.1665355  14.2840930  64.0800586  54.8786260
  14.5892503  64.5959558  53.4884434  20.1493446  58.5068342  60.3709677
  20.8818618  57.9367559  60.6047506  19.3932802  58.1189943  60.8116182
   9.4238025  61.4685437  53.8626330   9.3074283  60.7930340  54.5307414
   9.5340285  60.9817811  53.0458483  11.7669566  60.9295584  57.5673019
  11.4027773  60.4026205  58.2785941  12.6236682  60.5394053  57.3939505
  17.6718867  52.2189916  64.8304285  17.3402191  53.0885327  64.6065500
  17.0764480  51.9026200  65.5098316  11.4075053  55.9585483  52.5634368
  11.5749455  56.8265720  52.9304839  11.2172222  56.1212765  51.6395657
  14.1650386  64.4202462  64.2300198  13.8651109  65.3227501  64.1216005
  13.8201446  64.1534645  65.0821351   7.6162868  60.8716259  60.2636902
   6.6913364  60.7392473  60.4714594   7.8647281  61.6510478  60.7606845
  17.5647530  56.9385002  61.9097635  16.6564407  56.8700411  61.6156396
  17.5135126  57.4156947  62.7379461  11.3864274  58.4143141  53.5481034
  11.2663899  58.8600192  54.3866515  10.6916862  58.7628459  52.9894573
   4.9771679  60.5149533  61.0980692   5.1064060  60.7684012  62.0120103
   4.2969130  61.1077241  60.7785347   9.1471166  71.1846783  57.1971166
   9.0695196  72.1354608  57.2759646   8.5432810  70.8392655  57.8546092
  11.6388396  58.3574648  69.8532533  10.8621730  58.9168568  69.8435397
  12.2778959  58.8431431  70.3747403  19.4309176  55.1401441  63.6875509
  18.7883557  55.4333974  63.0415304  18.9264105  55.0254361  64.4928706
  17.0849340  58.8864614  54.3761369  17.9967196  59.1192001  54.2009066
  16.5758987  59.4701658  53.8136447   9.8934768  61.1660101  69.4150500
  10.6349452  61.7045145  69.1385323   9.1871754  61.7926390  69.5722051
  15.3690108  63.3089242  68.0122661  15.7773464  62.8671652  67.2677293
  14.6467369  62.7341869  68.2656854  11.7221178  58.2461849  65.3856218
  12.5682373  58.6701262  65.5290867  11.6619815  57.5895473  66.0794781
  15.6918922  63.8690433  61.7674950  15.0627785  64.0336147  61.0651018
  15.3044584  64.2832042  62.5385914  19.5708154  64.8044870  59.1219314
  18.8859192  65.1843772  58.5716347  19.6552004  65.4140197  59.8551261
  14.8720623  55.9066217  67.0437392  14.6281555  56.6608278  66.5071667
  15.1480554  56.2851565  67.8784639  16.8259086  62.4504829  65.7214657
  17.0375981  63.0936589  65.0449038  16.7788834  61.6167146  65.2536587
  14.4285315  55.0622650  62.6251229  13.5669794  55.3603904  62.9167967
  14.4547749  55.2793049  61.6932262  11.2446884  63.6064841  59.0325035
  11.7085230  63.8852544  58.2429658  10.9803682  62.7048285  58.8498126
   8.1370965  63.1536322  61.9704798   8.7072322  63.5823591  61.3322283
   8.7279077  62.8718907  62.6688984  10.1815770  59.7287993  55.8414600
  10.8839814  60.1809037  56.3088527   9.8496399  59.0871812  56.4694493
   8.6296132  58.3199750  70.2165810   7.9994792  59.0016030  70.4501206
   8.5232220  58.2082831  69.2718948   3.9241104  57.9871546  61.1431734
   3.1340158  58.2429074  60.6671844   4.4152352  58.8019883  61.2483774
  17.9404914  65.3276785  63.8937015  18.7622358  64.9256972  63.6119696
  17.9367317  65.2245019  64.8453130   5.8755850  58.3516125  58.1015210
   5.0787013  58.4634819  58.6198706   5.6481442  58.6902777  57.2356101
  11.7061517  64.8760828  66.0497725  11.7705950  65.3381235  66.8855897
  10.9972441  64.2458193  66.1780035   2.2078807  58.2402036  63.5746725
   2.4586846  59.1249046  63.8404301   2.7438356  58.0606638  62.8021816
  26.0310907  61.6715533  60.2421986  25.2774615  61.1022931  60.0865991
  26.1658448  61.6378198  61.1892621  11.4209535  66.5428936  55.9176705
  11.2855210  67.3880471  56.3461553  11.9619347  66.7448213  55.1542639
   7.9076875  52.6220515  72.5791061   7.5143820  52.0686714  73.2538705
   8.7243015  52.9331094  72.9697578   4.8738932  64.0604374  56.4904631
   5.3863453  64.8547624  56.6410195   5.5261645  63.3630664  56.4238232
   6.6833817  67.1770130  58.5727384   6.8600445  68.0988095  58.3848368
   7.4790651  66.8628549  59.0021763  10.8244836  54.0378395  70.1711317
  11.5654549  54.6385548  70.0915780  11.0562758  53.2956032  69.6129360
   5.9686174  59.2234762  68.4489547   5.8539689  58.3220019  68.7496646
   5.1130691  59.4698459  68.0974363  13.0478011  67.1652502  70.0477048
  12.6041865  66.3788881  69.7297952  13.7095225  67.3531653  69.3820938
   7.8065132  68.6948304  64.5737726   8.3572558  68.5665367  63.8014720
   6.9676608  68.9943193  64.2232619  15.1459249  67.4455302  68.0758449
  15.1277725  68.2664183  67.5838718  16.0679169  67.3209377  68.3008590
  11.6032304  64.9599432  68.9181957  12.1360640  64.1987720  68.6881265
  11.0746385  64.6673083  69.6606112  14.7701999  50.0659497  64.4475599
  14.4266268  50.9561139  64.3714709  15.1380961  49.8761155  63.5845184
   2.8387849  62.3893028  57.2664201   3.6763071  62.7990036  57.0497909
   3.0166117  61.4492470  57.2364395  14.7352281  60.0568109  52.9548034
  14.2198905  60.8272713  53.1936421  14.4629590  59.3833245  53.5781095
  12.3199392  54.9017809  58.0133272  11.4640989  54.5124660  57.8338911
  12.7326344  54.9809770  57.1533058  13.8498539  52.4364153  62.4124832
  13.3463334  52.3994288  61.5992637  14.1429146  53.3456895  62.4721489
  10.0941425  52.5202882  61.4191014  10.9594422  52.3245691  61.0596903
  10.1618934  52.2913234  62.3460371  19.7086555  62.8100463  54.8901207
  18.9315998  62.4711623  54.4456370  20.3878036  62.8153086  54.2156173
  14.5238584  57.9295201  54.7807815  14.2188720  58.2441350  55.6317958
  15.4769027  58.0076621  54.8235148  12.9685016  64.0885424  56.4300769
  12.4406378  63.3538184  56.1174007  12.4672519  64.8660100  56.1840738
  17.9477862  62.2834444  61.5467815  17.2901537  62.9733706  61.6347944
  18.7518261  62.6730876  61.8901802   7.7003744  54.7505090  58.7907381
   8.2747496  54.5280272  58.0580574   8.2874726  54.8193785  59.5435982
  16.7583321  60.6378817  59.5971757  17.2715203  61.2708809  60.0993467
  17.4084545  60.0380013  59.2315117   8.0273331  56.7809551  52.8103266
   7.1910643  57.1184238  53.1312541   7.8878101  56.6458531  51.8730403
  10.0026412  51.6246339  57.5182450   9.3490824  51.3095356  56.8939065
   9.9606886  51.0022080  58.2442273  11.1137616  61.9065634  49.4335742
  10.2064678  61.6754888  49.6326891  11.6108648  61.1103254  49.6209724
  14.0205695  70.6163141  52.3532428  13.3467394  70.9194838  52.9617386
  14.4071517  71.4192222  52.0037885  13.2364152  58.1128273  61.8430098
  12.3186713  58.3343220  61.6851786  13.6524296  58.1874583  60.9841805
  14.0199200  59.5119688  56.9732778  14.7671019  60.0241086  56.6639900
  14.2890789  59.1903741  57.8337172  12.2925850  62.0078229  53.9559732
  11.3837069  61.7237262  54.0532202  12.3220934  62.4277308  53.0963039
  17.5245117  65.6184819  57.7250900  17.0707444  64.7775728  57.7816090
  16.8939084  66.2546217  58.0625680  16.4678037  56.5476805  58.9551567
  15.7300794  56.0354191  59.2861810  16.7204810  56.1077186  58.1434844
  15.9678057  67.4561315  58.6600718  16.2601031  68.0166372  57.9413084
  16.4776677  67.7489876  59.4153877  16.5689664  49.3253057  59.5493337
  16.8748541  48.4650420  59.2619252  17.2942269  49.9170677  59.3492330
   2.8614020  59.7283743  57.9374935   2.6638420  59.1353104  57.2126001
   2.3060684  59.4235953  58.6550873  10.8410744  59.6206850  60.0569528
  10.8959354  58.6680686  59.9812004  10.0301946  59.7766289  60.5410826
  11.9901938  63.5486973  51.2947811  11.5521368  62.8322832  50.8353448
  12.7312379  63.7763088  50.7332902   8.7803104  58.2383909  57.8159907
   7.9670969  58.5378080  58.2225099   9.2762098  57.8439598  58.5334389
  10.9311682  68.2341666  59.7494171  10.8887860  68.4602513  58.8202703
  11.8474381  68.0005041  59.8979972  14.3777316  58.7025734  66.6474800
  14.7326703  58.9297207  67.5069266  15.0249447  59.0344111  66.0252056
  20.1075052  61.8244170  57.3524129  19.9692951  62.0145766  56.4245319
  19.7511271  62.5863553  57.8092181   8.2717179  55.8102265  63.4321141
   8.9116558  55.6691024  62.7344105   7.4394709  55.5236778  63.0559743
  20.1344432  63.8920697  62.3635401  20.5680939  63.7995986  63.2118455
  20.8476013  63.8678197  61.7255417   9.0477482  65.1104695  59.5456134
   9.8418081  64.6155016  59.3438709   8.3369175  64.5822559  59.1823839
  13.8672327  67.4922791  63.8968502  13.9209349  68.0613727  64.6646217
  12.9987108  67.6624676  63.5322539   5.3560246  59.2547777  55.6215887
   4.4257834  59.1932233  55.8385849   5.4517718  58.7323730  54.8252528
   5.2745795  55.7802590  58.2094128   5.5352612  56.6947923  58.1003289
   6.0962967  55.3127033  58.3590741   6.7470720  57.1940347  65.3792953
   7.4193774  56.9857709  64.7305602   5.9200507  56.9962433  64.9398185
  20.9959982  63.9344397  64.8968286  21.1895872  64.8390208  65.1427561
  20.8960600  63.4751817  65.7306871  12.6496292  53.8202288  67.3958614
  12.0024207  54.5192238  67.3023090  13.4197308  54.2538432  67.7634862
  16.0575090  64.0851140  70.4709167  15.9060597  63.8561692  69.5539251
  16.0479770  65.0421742  70.4840512  12.8260427  61.6583053  65.4555433
  13.7552487  61.8094213  65.2824401  12.4051457  61.7467074  64.6004080
  11.6248758  65.6833717  63.2253971  11.4859844  65.3152502  64.0979909
  10.8363355  66.1981357  63.0537929  12.2196910  70.7842814  54.5679508
  12.3948666  70.3130857  55.3825130  11.5329698  71.4108580  54.7960768
  13.1753974  65.0615320  60.6142809  12.8403806  65.0216090  61.5100459
  12.6757919  64.3960036  60.1413219   7.1498218  60.4682950  66.1395390
   7.0118016  59.7363189  66.7406929   8.0603141  60.3791850  65.8579578
  16.1113165  62.4071354  50.8879868  15.4942336  61.6818183  50.7912921
  15.6429654  63.1680715  50.5446943   9.7780518  60.1802909  65.6279070
  10.4880137  59.5396102  65.5865688   9.7349826  60.4315804  66.5505250
  17.7667297  67.1170263  68.5485649  17.7079843  66.4329483  67.8816232
  18.1686815  67.8589253  68.0966275   8.4909452  57.1668127  67.4474709
   7.9546809  56.7158866  68.0996305   7.9026161  57.3014036  66.7045173
   6.7857996  73.9332177  61.3419368   7.0254594  74.5650701  62.0198386
   5.9427192  73.5820217  61.6284727   7.9011711  56.6256779  50.0101173
   7.0241178  56.5045580  49.6463419   8.3769464  55.8342857  49.7580061
  17.7684704  65.0809847  66.7799628  16.8811483  64.7435769  66.9026027
  18.3383255  64.3492878  67.0168394   4.2248573  56.3024135  64.5327704
   4.1406762  55.6949805  63.7978114   3.4031280  56.7933153  64.5337200
  11.2985858  69.7411299  63.7460872  11.2256029  70.5466271  64.2580176
  10.8563251  69.9403265  62.9208893  11.0875637  68.9783069  57.2563693
  10.3043159  69.5204749  57.3501918  11.7868382  69.4957049  57.6557934
  14.3972287  54.7877699  59.8997899  14.8940987  54.0347661  59.5798969
  13.6259269  54.8242015  59.3341108  22.2502045  60.4918064  61.5416190
  22.2391921  61.3742780  61.1710123  21.3819424  60.1389615  61.3470727
  13.7584541  69.6398133  65.9019030  14.4712513  70.2745598  65.8294932
  13.2674570  69.7361999  65.0859032  15.4802068  63.5449386  57.4736322
  14.5458347  63.6650848  57.3041026  15.6578736  62.6421853  57.2096332
  10.9807256  56.9295082  59.6269583  10.6105044  56.3766122  60.3150489
  11.4766349  56.3253215  59.0744583  18.8674619  59.3866705  58.0086356
  19.3335072  60.2194697  57.9346659  19.3182120  58.9211687  58.7131615
   8.8096455  67.3892577  66.7224601   9.5105914  68.0229060  66.8753995
   8.3391570  67.7307308  65.9620240  16.9350850  65.7310526  55.0072508
  17.2110694  65.6167121  55.9166382  16.0655349  65.3328011  54.9684681
  16.8391282  51.7547292  62.0477257  15.9254362  51.9851519  62.2159464
  17.2684384  51.8385736  62.8991290  16.6097741  59.9437184  64.5477152
  15.9569191  60.1913091  63.8929604  16.9878121  59.1301322  64.2139629
  13.5704914  69.9796877  58.6505322  13.7527309  69.1618533  59.1133074
  14.3937901  70.1964569  58.2130212  13.9047080  68.9065062  55.9120370
  14.4334846  68.3957517  55.2990532  14.1675300  68.5907593  56.7765903
  12.6585314  60.6856995  71.0343189  11.9825951  60.5851124  71.7045564
  13.4812948  60.5296209  71.4979186   4.4064173  66.9228932  63.6555704
   4.9917610  66.1772620  63.7883608   4.2089011  67.2332888  64.5392368
   7.2602828  69.9580179  58.6718146   6.5913203  70.4426307  58.1882186
   7.1215698  70.2049399  59.5861525  11.4008097  71.9923923  65.2700805
  11.9526405  72.1555544  66.0349890  11.7414290  72.5828360  64.5980829
   6.3772590  54.3399072  65.8722689   6.4413916  55.2013903  65.4600087
   6.3139710  53.7273074  65.1395048   5.8524862  56.4122205  69.5195724
   6.4796901  56.0299282  70.1333248   4.9952781  56.1936407  69.8851416
  16.2518971  66.8185180  71.1249459  16.7958875  67.4315138  70.6304414
  15.6705816  67.3764758  71.6416472   2.6290405  58.2198634  55.4514078
   2.9243846  57.3109312  55.3981132   1.7278441  58.1986373  55.1295081
  14.5376484  69.9405898  62.2564487  14.4127623  69.1395638  61.7475432
  15.1955575  70.4352091  61.7678457   6.1584652  56.2954631  61.4341627
   5.4371238  56.9090598  61.2949100   6.9477908  56.8312395  61.3558273
  16.6011392  67.7414918  63.8844037  15.6541728  67.6220269  63.8122364
  16.9494165  66.8537416  63.9670298   8.9610966  53.6309057  67.7082279
   9.4845367  53.8771354  68.4708588   8.7423299  54.4629092  67.2885416
   4.3578247  55.9012732  55.5753404   4.0290953  55.0210111  55.3928509
   4.7117617  55.8460400  56.4629793  13.6057825  67.5367634  60.0848389
  13.4582788  66.6084342  60.2655959  14.4311319  67.5587725  59.6005464
   7.4720070  56.1885701  55.9428881   7.8116142  56.7171623  55.2207490
   7.9192190  56.5266108  56.7187448  17.2091947  68.3596193  61.1713262
  18.1338495  68.1539054  61.0337713  17.0407251  68.1112594  62.0802603
  10.1663511  54.5722752  65.3931949   9.8260331  53.7730565  65.7952629
   9.4602517  54.8724463  64.8208782  10.8179982  51.6572065  63.8459272
  11.6406052  51.1832543  63.7238163  11.0618046  52.4362548  64.3457959
   9.4588217  54.6860323  54.1422174  10.1796579  55.0641576  53.6385891
   8.8353521  55.4049200  54.2457152  13.6019340  55.3905472  55.0780506
  13.8182954  56.2730110  54.7769334  13.1213407  54.9991685  54.3486148
   8.3418561  58.3491185  61.6551251   8.1963142  58.6631488  62.5475532
   7.8643765  58.9676086  61.1022150  10.2014944  55.3393733  61.7032140
  10.1876513  54.4434827  61.3664438  10.9187372  55.3464397  62.3370427
  12.0541075  55.7731073  63.7485268  11.7958853  56.6948144  63.7469598
  11.5226115  55.3761508  64.4385732  16.9987264  68.8781861  56.5275353
  17.1724141  68.3128283  55.7749206  17.4916155  69.6782755  56.3454843
   2.8164223  60.8896530  64.5938912   2.2717691  61.6656338  64.7259186
   3.6943573  61.2367334  64.4358034   9.6051840  54.2208113  56.9719711
   9.7267751  53.2924760  57.1710598   9.3153882  54.2346799  56.0598026
  12.4743030  51.9063024  60.1086430  12.4964727  51.9702357  59.1538410
  12.8911089  51.0667533  60.3026937  22.8526655  61.6418283  58.1465653
  23.2957801  60.8925609  57.7484776  21.9753165  61.6328420  57.7639385
  17.9862436  68.1948625  53.6272252  18.6813341  68.8155318  53.8459566
  18.3285586  67.3443976  53.9024629   3.6030245  60.0166426  67.4869069
   2.8611981  60.1649061  68.0733699   3.2822989  60.2774691  66.6235818
  19.8853859  65.6448330  55.1559582  20.4105183  65.9835603  54.4308902
  19.7976212  64.7095346  54.9722717  11.5473908  69.5582404  67.2849459
  11.8561034  69.3131551  68.1572159  12.3449390  69.7629043  66.7968329
  11.5694520  71.7120314  59.5154836  11.1299510  71.2196692  60.2087692
  12.3202637  71.1693281  59.2746911   4.0486859  67.9031855  59.5179464
   4.8744879  67.6035626  59.1378107   3.6980911  67.1339477  59.9669252
   9.0168392  67.2558323  61.5877137   8.3948401  66.5929028  61.2879365
   9.6873259  67.2819455  60.9050785   2.2495464  65.8218181  60.4768397
   1.4127372  65.3940355  60.2952398   2.2219109  66.0150624  61.4139188
   9.0892920  55.7340111  71.1809643   9.1381075  56.6102234  70.7987413
   9.6315434  55.1917504  70.6081286  19.5747765  66.2781234  70.4610780
  18.7843309  66.2605373  69.9215280  19.3381120  66.8169528  71.2159817
  19.6945640  63.1273700  67.7743509  19.7443645  62.9623708  68.7159032
  19.5859564  62.2600960  67.3841390   8.5781899  65.8062246  55.0635598
   8.7270019  66.4897711  54.4102270   9.3848342  65.7867336  55.5785053
  16.9849403  59.1104629  69.0902816  17.8859265  58.9711093  68.7986813
  17.0597377  59.2759083  70.0300993  11.3192208  56.4871483  67.9356002
  10.4495517  56.7805049  67.6638590  11.5551688  57.0711928  68.6563265
  21.1963837  65.5470642  68.0185530  20.9048645  65.9100623  68.8548991
  20.5835968  64.8337650  67.8398862  22.3959519  63.1123522  60.5388101
  23.2306411  63.5513326  60.7025661  22.5318648  62.6362175  59.7196346
  19.4451025  60.6703257  66.4865588  19.9205147  60.8630903  65.6784440
  18.5216591  60.7262442  66.2408972   6.3334532  61.8327424  56.0696667
   6.0880574  60.9289754  56.2676877   6.5030446  61.8344574  55.1276145
  14.0231242  52.7051100  65.4521422  14.5413186  53.4412127  65.1267911
  13.6686375  53.0115093  66.2868181   5.6030179  57.5655781  53.5682828
   4.9099424  57.6400136  52.9122864   5.3581931  56.8016125  54.0904345
  14.2743836  49.1251383  60.9722319  14.5545590  48.4574572  61.5982745
  15.0594443  49.3180478  60.4596983  12.0777304  68.3010377  52.5347345
  11.5051272  68.9200564  52.0817817  12.6510098  68.8509738  53.0687267
  18.1452694  57.5469017  64.7193894  19.0970117  57.6467114  64.7406118
  17.9756145  56.7547285  65.2291978  16.1667074  54.6324600  64.9053295
  15.5717006  54.9129613  64.2099784  15.8816770  55.1218501  65.6770036
  15.2974564  68.5847527  53.6655927  16.2305237  68.5193088  53.8688803
  15.2097777  69.4203794  53.2070460  17.9262581  67.9013397  50.6259875
  17.8476212  67.5673261  51.5195633  18.7472248  68.3935165  50.6251347
  20.6240772  60.7675136  63.8336194  20.5917092  59.8291137  64.0195877
  21.2341396  60.8459173  63.1002018  12.4624103  59.6371189  49.8763398
  13.4083208  59.5077397  49.9451816  12.0838348  58.8985851  50.3532826
  20.7735261  57.5586180  63.8794477  20.2574309  56.7744636  63.6924406
  21.6575209  57.2304896  64.0440996  18.4345988  51.3027195  59.8390289
  18.2370809  50.9942284  60.7233621  19.0445693  52.0288834  59.9688219
  26.4417322  61.8291143  62.9742230  27.1720710  61.5676431  63.5349934
  25.8324267  61.0919865  63.0144298  24.5232619  59.9699006  63.5716682
  23.7965783  59.8354971  62.9633173  24.1079906  60.2775834  64.3773400
  12.3462796  63.6888936  71.3364055  13.2665805  63.8667535  71.5304101
  12.3112379  62.7444981  71.1843754  10.6467020  57.5621166  49.8118283
   9.7398476  57.2654278  49.8880996  10.9243001  57.2650984  48.9452569
   1.5644961  58.8827529  60.2617329   1.2447745  58.0292837  59.9691703
   1.0178389  59.0976107  61.0175297   5.3424868  61.5989970  63.9786836
   5.5610878  62.5307078  63.9974870   5.7550642  61.2397945  64.7641640
  12.2629086  52.1058055  55.9662524  11.4529814  51.7605140  56.3417770
  12.9513503  51.7965599  56.5550136  14.1919634  51.1836102  57.5886821
  14.7450673  51.6031556  58.2476844  14.4289720  50.2571850  57.6309777
  10.2152733  57.1723176  73.3689585  10.1149460  58.1217533  73.3001676
   9.9974275  56.8441415  72.4965655   9.4165805  54.4208101  49.9530262
  10.2784969  54.7462999  50.2126079   9.6016149  53.6339597  49.4403328
   1.4333221  62.5030441  62.2310451   0.7396692  62.0884393  61.7180405
   2.1806212  62.5450977  61.6343870  17.5698441  53.2936627  57.0965485
  16.9897110  53.9521431  56.7143537  17.3034374  52.4713972  56.6852903
  16.0202008  52.6941685  59.2986805  16.5201786  52.8058220  58.4901124
  16.6637616  52.3902738  59.9387614  10.0784003  60.6020315  72.1854646
   9.5951085  61.4020675  72.3918535  10.1644942  60.6128260  71.2322090
   3.3469963  62.4348694  60.1076466   3.3240651  62.5336382  59.1558349
   3.6570600  63.2813845  60.4293632   6.0057341  64.4924849  64.2223080
   6.9600594  64.4608792  64.1553012   5.8069864  64.0315473  65.0373306
   6.5956723  63.0625966  66.7893878   7.4149612  63.5570044  66.8128715
   6.8693531  62.1457934  66.7611445  16.3523319  55.4536718  56.1521833
  15.4649174  55.7386368  55.9342028  16.7677308  55.2930481  55.3049110
  19.7037855  55.4783239  59.8676173  20.4798245  55.9679691  60.1400789
  18.9785990  55.9041293  60.3248042  22.1410414  56.1910858  60.9250113
  22.7354905  55.9506594  60.2143421  22.2136998  55.4717989  61.5523649
   4.3607570  70.0344469  61.2393278   4.2262038  69.2744870  60.6731276
   3.9439632  70.7585369  60.7722067  15.4966533  65.2181392  50.2469853
  16.2002383  65.4231395  50.8627509  14.7729181  65.7858154  50.5118937
  16.3264343  60.9691254  56.3672123  16.2699544  61.4259805  55.5279756
  16.8792685  60.2081938  56.1894966  20.1369149  56.7580986  57.1922243
  19.8806083  56.3577621  58.0230451  19.5122017  57.4724780  57.0672382
  24.4481487  59.4977059  59.6993534  23.8881045  59.5670248  60.4725096
  23.8424990  59.3218043  58.9793031   7.5176696  70.9313786  61.4511721
   7.4009080  71.8759218  61.3490411   6.6969142  70.6287348  61.8397520
  17.4053230  65.6563922  52.2968313  18.2398834  65.2245120  52.1145788
  17.2437573  65.4845935  53.2245208  17.0599122  62.1596035  53.6624653
  17.0047926  61.9940306  52.7213097  16.4345178  62.8672068  53.8186842
   1.8491637  57.3964099  67.4886075   2.4950501  56.8863053  67.9773300
   1.6408788  58.1332781  68.0629500  14.3745029  64.4644947  72.9878215
  15.2436189  64.6385599  72.6264850  13.8951781  65.2839364  72.8653945
  10.3695248  51.6604144  53.2409971  10.3573918  52.6045984  53.3978242
  11.2618670  51.4774289  52.9469432   8.5431210  71.5842048  64.6667649
   9.4458456  71.6165658  64.9834144   8.3168580  70.6542499  64.6813985
  10.2984812  70.3373034  61.3277728   9.3480443  70.3374896  61.2142100
  10.6017298  69.5905769  60.8113762  14.1847367  48.2546921  57.4955908
  13.4179763  47.7005407  57.6412590  14.5958072  48.3268789  58.3570059
   6.1889128  54.5431716  71.5861089   7.0520590  54.1868521  71.7964414
   5.6154539  54.2045611  72.2736493  18.7014027  77.9796477  58.3181906
  18.1378892  77.8886414  57.5498194  18.5866422  77.1596382  58.7984398
  16.2478459  79.4747669  61.1566126  17.0399751  79.1338494  60.7412426
  16.4875109  79.5842644  62.0768280  24.2813586  81.6467445  53.6296371
  23.6301566  82.2321525  53.2430384  25.0757949  82.1773640  53.6891408
  18.2069213  78.7356582  54.0283505  18.9800089  78.1885569  53.8896381
  18.5594612  79.6000831  54.2397966  20.0454256  80.0632964  67.2350404
  19.7544122  80.9678595  67.1197071  20.6811240  80.1049492  67.9494474
  20.9710462  77.4409813  63.8251764  21.5674035  77.2165835  63.1108727
  21.0285434  76.6994558  64.4277212  20.5435491  74.8949248  51.6601955
  20.7961012  74.3730770  50.8985418  19.6060050  74.7315394  51.7628639
  25.7588851  79.3357877  54.1665355  25.1234684  79.4092503  54.8786260
  25.4286257  79.9251476  53.4884434  20.2631780  76.7977354  53.8626330
  20.1468038  76.1222258  54.5307414  20.3734040  76.3109728  53.0458483
  22.6063321  76.2587501  57.5673019  22.2421528  75.7318122  58.2785941
  23.4630436  75.8685970  57.3939505  22.2468808  71.2877401  52.5634368
  22.4143210  72.1557637  52.9304839  22.0565977  71.4504683  51.6395657
  25.0044141  79.7494380  64.2300198  24.7044864  80.6519419  64.1216005
  24.6595200  79.4826563  65.0821351  18.4556622  76.2008177  60.2636902
  17.5307119  76.0684391  60.4714594  18.7041035  76.9802396  60.7606845
  22.2258028  73.7435059  53.5481034  22.1057654  74.1892109  54.3866515
  21.5310617  74.0920376  52.9894573  15.8165433  75.8441450  61.0980692
  15.9457814  76.0975929  62.0120103  15.1362885  76.4369158  60.7785347
  19.9864921  86.5138700  57.1971166  19.9088950  87.4646525  57.2759646
  19.3826564  86.1684573  57.8546092  27.9243095  74.2156532  54.3761369
  28.8360951  74.4483918  54.2009066  27.4152742  74.7993576  53.8136447
  20.7328523  76.4952019  69.4150500  21.4743207  77.0337063  69.1385323
  20.0265508  77.1218308  69.5722051  26.5312677  79.1982350  61.7674950
  25.9021539  79.3628064  61.0651018  26.1438339  79.6123960  62.5385914
  30.4101909  80.1336788  59.1219314  29.7252947  80.5135689  58.5716347
  30.4945758  80.7432115  59.8551261  22.0840639  78.9356758  59.0325035
  22.5478984  79.2144461  58.2429658  21.8197437  78.0340203  58.8498126
  18.9764720  78.4828240  61.9704798  19.5466077  78.9115508  61.3322283
  19.5672832  78.2010825  62.6688984  21.0209525  75.0579911  55.8414600
  21.7233568  75.5100954  56.3088527  20.6890153  74.4163730  56.4694493
  19.4689886  73.6491667  70.2165810  18.8388547  74.3307948  70.4501206
  19.3625974  73.5374749  69.2718948  14.7634859  73.3163463  61.1431734
  13.9733913  73.5720992  60.6671844  15.2546106  74.1311801  61.2483774
  28.7798668  80.6568702  63.8937015  29.6016112  80.2548890  63.6119696
  28.7761071  80.5536937  64.8453130  16.7149604  73.6808043  58.1015210
  15.9180767  73.7926737  58.6198706  16.4875196  74.0194695  57.2356101
  22.5455272  80.2052746  66.0497725  22.6099704  80.6673153  66.8855897
  21.8366196  79.5750111  66.1780035  13.0472562  73.5693954  63.5746725
  13.2980600  74.4540964  63.8404301  13.5832110  73.3898555  62.8021816
  22.2603289  81.8720853  55.9176705  22.1248964  82.7172389  56.3461553
  22.8013102  82.0740131  55.1542639  18.7470629  67.9512433  72.5791061
  18.3537575  67.3978632  73.2538705  19.5636769  68.2623012  72.9697578
  15.7132687  79.3896291  56.4904631  16.2257207  80.1839542  56.6410195
  16.3655400  78.6922582  56.4238232  17.5227572  82.5062048  58.5727384
  17.6994200  83.4280012  58.3848368  18.3184405  82.1920467  59.0021763
  21.6638590  69.3670312  70.1711317  22.4048303  69.9677465  70.0915780
  21.8956513  68.6247950  69.6129360  16.8079928  74.5526679  68.4489547
  16.6933443  73.6511937  68.7496646  15.9524446  74.7990376  68.0974363
  23.8871766  82.4944420  70.0477048  23.4435620  81.7080798  69.7297952
  24.5488979  82.6823570  69.3820938  18.6458887  84.0240221  64.5737726
  19.1966312  83.8957285  63.8014720  17.8070363  84.3235110  64.2232619
  25.9853004  82.7747220  68.0758449  25.9671479  83.5956101  67.5838718
  26.9072924  82.6501295  68.3008590  22.4426058  80.2891349  68.9181957
  22.9754395  79.5279637  68.6881265  21.9140139  79.9965001  69.6606112
  13.6781604  77.7184946  57.2664201  14.5156826  78.1281954  57.0497909
  13.8559871  76.7784388  57.2364395  25.5746036  75.3860026  52.9548034
  25.0592659  76.1564631  53.1936421  25.3023344  74.7125162  53.5781095
  23.1593147  70.2309727  58.0133272  22.3034743  69.8416577  57.8338911
  23.5720099  70.3101688  57.1533058  20.9335179  67.8494800  61.4191014
  21.7988176  67.6537609  61.0596903  21.0012688  67.6205152  62.3460371
  30.5480310  78.1392381  54.8901207  29.7709753  77.8003540  54.4456370
  31.2271791  78.1445004  54.2156173  25.3632339  73.2587118  54.7807815
  25.0582474  73.5733268  55.6317958  26.3162781  73.3368538  54.8235148
  23.8078771  79.4177342  56.4300769  23.2800132  78.6830101  56.1174007
  23.3066273  80.1952018  56.1840738  18.5397498  70.0797008  58.7907381
  19.1141250  69.8572189  58.0580574  19.1268481  70.1485702  59.5435982
  18.8667085  72.1101469  52.8103266  18.0304398  72.4476156  53.1312541
  18.7271855  71.9750449  51.8730403  20.8420166  66.9538257  57.5182450
  20.1884578  66.6387274  56.8939065  20.8000640  66.3313997  58.2442273
  21.9531371  77.2357552  49.4335742  21.0458433  77.0046805  49.6326891
  22.4502403  76.4395171  49.6209724  24.8599450  85.9455059  52.3532428
  24.1861149  86.2486756  52.9617386  25.2465272  86.7484139  52.0037885
  23.1319604  77.3370147  53.9559732  22.2230824  77.0529180  54.0532202
  23.1614688  77.7569225  53.0963039  28.3638872  80.9476736  57.7250900
  27.9101199  80.1067646  57.7816090  27.7332838  81.5838135  58.0625680
  26.8071811  82.7853233  58.6600718  27.0994785  83.3458290  57.9413084
  27.3170432  83.0781794  59.4153877  27.4083419  64.6544974  59.5493337
  27.7142295  63.7942338  59.2619252  28.1336023  65.2462595  59.3492330
  13.7007775  75.0575661  57.9374935  13.5032175  74.4645022  57.2126001
  13.1454439  74.7527871  58.6550873  22.8295692  78.8778890  51.2947811
  22.3915122  78.1614749  50.8353448  23.5706133  79.1055005  50.7332902
  19.6196858  73.5675827  57.8159907  18.8064724  73.8669998  58.2225099
  20.1155852  73.1731516  58.5334389  21.7705436  83.5633584  59.7494171
  21.7281615  83.7894430  58.8202703  22.6868135  83.3296959  59.8979972
  30.9468807  77.1536087  57.3524129  30.8086706  77.3437683  56.4245319
  30.5905026  77.9155470  57.8092181  19.1110933  71.1394183  63.4321141
  19.7510312  70.9982942  62.7344105  18.2788464  70.8528696  63.0559743
  19.8871237  80.4396613  59.5456134  20.6811835  79.9446933  59.3438709
  19.1762929  79.9114476  59.1823839  24.7066081  82.8214709  63.8968502
  24.7603104  83.3905645  64.6646217  23.8380863  82.9916594  63.5322539
  16.1954000  74.5839695  55.6215887  15.2651589  74.5224150  55.8385849
  16.2911472  74.0615648  54.8252528  16.1139549  71.1094508  58.2094128
  16.3746367  72.0239841  58.1003289  16.9356722  70.6418950  58.3590741
  17.5864475  72.5232265  65.3792953  18.2587528  72.3149627  64.7305602
  16.7594261  72.3254351  64.9398185  22.4642513  81.0125635  63.2253971
  22.3253599  80.6444419  64.0979909  21.6757109  81.5273274  63.0537929
  23.0590665  86.1134732  54.5679508  23.2342421  85.6422775  55.3825130
  22.3723453  86.7400498  54.7960768  24.0147728  80.3907238  60.6142809
  23.6797561  80.3508008  61.5100459  23.5151674  79.7251954  60.1413219
  17.9891972  75.7974868  66.1395390  17.8511770  75.0655107  66.7406929
  18.8996896  75.7083768  65.8579578  26.9506920  77.7363272  50.8879868
  26.3336090  77.0110100  50.7912921  26.4823408  78.4972632  50.5446943
  28.6061051  82.4462180  68.5485649  28.5473598  81.7621401  67.8816232
  29.0080570  83.1881170  68.0966275  17.6251750  89.2624094  61.3419368
  17.8648348  89.8942618  62.0198386  16.7820947  88.9112134  61.6284727
  18.7405466  71.9548696  50.0101173  17.8634932  71.8337497  49.6463419
  19.2163219  71.1634775  49.7580061  28.6078459  80.4101764  66.7799628
  27.7205237  80.0727686  66.9026027  29.1777010  79.6784796  67.0168394
  10.2607606  76.7425856  60.1042680  10.9478646  76.4287586  59.5163695
  10.1055734  77.6467221  59.8309931  15.0642328  71.6316053  64.5327704
  14.9800517  71.0241722  63.7978114  14.2425034  72.1225071  64.5337200
  22.1379612  85.0703217  63.7460872  22.0649784  85.8758188  64.2580176
  21.6957005  85.2695183  62.9208893  21.9269392  84.3074987  57.2563693
  21.1436914  84.8496667  57.3501918  22.6262137  84.8248966  57.6557934
  24.5978296  84.9690051  65.9019030  25.3106268  85.6037516  65.8294932
  24.1068324  85.0653917  65.0859032  26.3195823  78.8741303  57.4736322
  25.3852101  78.9942766  57.3041026  26.4972491  77.9713770  57.2096332
  19.6490209  82.7184494  66.7224601  20.3499669  83.3520977  66.8753995
  19.1785324  83.0599226  65.9620240  27.7744605  81.0602444  55.0072508
  28.0504449  80.9459039  55.9166382  26.9049104  80.6619929  54.9684681
  24.4098669  85.3088795  58.6505322  24.5921064  84.4910451  59.1133074
  25.2331655  85.5256487  58.2130212  24.7440834  84.2356980  55.9120370
  25.2728601  83.7249435  55.2990532  25.0069054  83.9199510  56.7765903
  15.2457927  82.2520849  63.6555704  15.8311364  81.5064537  63.7883608
  15.0482766  82.5624806  64.5392368  18.0996582  85.2872097  58.6718146
  17.4306958  85.7718224  58.1882186  17.9609452  85.5341317  59.5861525
   9.8375582  74.8226450  62.3760147   9.8759681  74.2890040  63.1697265
   9.3315875  74.2961655  61.7571124  22.2401851  87.3215840  65.2700805
  22.7920159  87.4847462  66.0349890  22.5808044  87.9120278  64.5980829
  17.2166344  69.6690990  65.8722689  17.2807671  70.5305821  65.4600087
  17.1533464  69.0564992  65.1395048  16.6918617  71.7414123  69.5195724
  17.3190656  71.3591200  70.1333248  15.8346536  71.5228324  69.8851416
  27.0912725  82.1477098  71.1249459  27.6352629  82.7607056  70.6304414
  26.5099570  82.7056676  71.6416472  13.4684160  73.5490552  55.4514078
  13.7637601  72.6401230  55.3981132  12.5672195  73.5278291  55.1295081
  25.3770238  85.2697816  62.2564487  25.2521378  84.4687556  61.7475432
  26.0349329  85.7644009  61.7678457  16.9978407  71.6246548  61.4341627
  16.2764992  72.2382516  61.2949100  17.7871662  72.1604313  61.3558273
  27.4405147  83.0706836  63.8844037  26.4935482  82.9512187  63.8122364
  27.7887920  82.1829334  63.9670298  19.8004720  68.9600975  67.7082279
  20.3239122  69.2063271  68.4708588  19.5817053  69.7921010  67.2885416
  15.1972001  71.2304649  55.5753404  14.8684707  70.3502028  55.3928509
  15.5511372  71.1752318  56.4629793  24.4451580  82.8659552  60.0848389
  24.2976542  81.9376259  60.2655959  25.2705073  82.8879643  59.6005464
  18.3113824  71.5177619  55.9428881  18.6509897  72.0463540  55.2207490
  18.7585945  71.8558025  56.7187448  28.0485702  83.6888111  61.1713262
  28.9732249  83.4830972  61.0337713  27.8801005  83.4404512  62.0802603
  21.6573737  66.9863982  63.8459272  22.4799806  66.5124460  63.7238163
  21.9011800  67.7654466  64.3457959  20.2981971  70.0152241  54.1422174
  21.0190334  70.3933493  53.6385891  19.6747276  70.7341118  54.2457152
  24.4413094  70.7197390  55.0780506  24.6576709  71.6022028  54.7769334
  23.9607161  70.3283603  54.3486148  19.1812316  73.6783103  61.6551251
  19.0356896  73.9923406  62.5475532  18.7037519  74.2968003  61.1022150
  21.0408699  70.6685651  61.7032140  21.0270267  69.7726744  61.3664438
  21.7581127  70.6756315  62.3370427  27.8381018  84.2073778  56.5275353
  28.0117896  83.6420201  55.7749206  28.3309909  85.0074673  56.3454843
  13.6557978  76.2188447  64.5938912  13.1111446  76.9948255  64.7259186
  14.5337328  76.5659252  64.4358034  20.4445594  69.5500031  56.9719711
  20.5661506  68.6216677  57.1710598  20.1547637  69.5638717  56.0598026
  23.3136785  67.2354942  60.1086430  23.3358482  67.2994275  59.1538410
  23.7304844  66.3959450  60.3026937  33.6920409  76.9710201  58.1465653
  34.1351555  76.2217526  57.7484776  32.8146919  76.9620338  57.7639385
  28.8256191  83.5240543  53.6272252  29.5207095  84.1447235  53.8459566
  29.1679341  82.6735894  53.9024629  14.4424000  75.3458344  67.4869069
  13.7005736  75.4940979  68.0733699  14.1216744  75.6066609  66.6235818
  30.7247614  80.9740248  55.1559582  31.2498938  81.3127521  54.4308902
  30.6369966  80.0387263  54.9722717  22.3867662  84.8874322  67.2849459
  22.6954789  84.6423469  68.1572159  23.1843144  85.0920960  66.7968329
  22.4088274  87.0412231  59.5154836  21.9693265  86.5488610  60.2087692
  23.1596391  86.4985199  59.2746911  14.8880613  83.2323772  59.5179464
  15.7138633  82.9327544  59.1378107  14.5374665  82.4631395  59.9669252
  19.8562147  82.5850241  61.5877137  19.2342156  81.9220946  61.2879365
  20.5267013  82.6111372  60.9050785  13.0889218  81.1510099  60.4768397
  12.2521127  80.7232273  60.2952398  13.0612864  81.3442542  61.4139188
  19.9286674  71.0632029  71.1809643  19.9774829  71.9394151  70.7987413
  20.4709188  70.5209422  70.6081286  30.4141520  81.6073152  70.4610780
  29.6237063  81.5897291  69.9215280  30.1774874  82.1461445  71.2159817
  19.4175653  81.1354164  55.0635598  19.5663774  81.8189628  54.4102270
  20.2242097  81.1159254  55.5785053  32.0357592  80.8762560  68.0185530
  31.7442400  81.2392540  68.8548991  31.4229723  80.1629568  67.8398862
  33.2353274  78.4415439  60.5388101  34.0700165  78.8805244  60.7025661
  33.3712403  77.9654093  59.7196346  17.1728286  77.1619341  56.0696667
  16.9274328  76.2581671  56.2676877  17.3424201  77.1636492  55.1276145
  16.4423934  72.8947699  53.5682828  15.7493179  72.9692054  52.9122864
  16.1975686  72.1308043  54.0904345  25.1137590  64.4543300  60.9722319
  25.3939344  63.7866489  61.5982745  25.8988197  64.6472396  60.4596983
  22.9171059  83.6302294  52.5347345  22.3445026  84.2492481  52.0817817
  23.4903853  84.1801656  53.0687267  26.1368319  83.9139444  53.6655927
  27.0698992  83.8485006  53.8688803  26.0491532  84.7495711  53.2070460
  28.7656335  83.2305315  50.6259875  28.6869967  82.8965178  51.5195633
  29.5866002  83.7227083  50.6251347  23.3017857  74.9663107  49.8763398
  24.2476962  74.8369315  49.9451816  22.9232102  74.2277769  50.3532826
  29.2739742  66.6319113  59.8390289  29.0764563  66.3234201  60.7233621
  29.8839448  67.3580752  59.9688219  23.1856550  79.0180853  71.3364055
  24.1059559  79.1959452  71.5304101  23.1506133  78.0736899  71.1843754
  21.4860775  72.8913083  49.8118283  20.5792230  72.5946196  49.8880996
  21.7636756  72.5942902  48.9452569  12.4038715  74.2119447  60.2617329
  12.0841499  73.3584755  59.9691703  11.8572143  74.4268025  61.0175297
  16.1818623  76.9281888  63.9786836  16.4004632  77.8598996  63.9974870
  16.5944396  76.5689862  64.7641640  23.1022840  67.4349973  55.9662524
  22.2923569  67.0897058  56.3417770  23.7907257  67.1257517  56.5550136
  25.0313389  66.5128020  57.5886821  25.5844427  66.9323473  58.2476844
  25.2683475  65.5863768  57.6309777  21.0546488  72.5015094  73.3689585
  20.9543215  73.4509451  73.3001676  20.8368030  72.1733333  72.4965655
  20.2559559  69.7500019  49.9530262  21.1178723  70.0754917  50.2126079
  20.4409903  68.9631515  49.4403328  12.2726975  77.8322358  62.2310451
  11.5790446  77.4176311  61.7180405  13.0199966  77.8742895  61.6343870
  26.8595762  68.0233603  59.2986805  27.3595540  68.1350137  58.4901124
  27.5031370  67.7194656  59.9387614  20.9177758  75.9312232  72.1854646
  20.4344840  76.7312593  72.3918535  21.0038697  75.9420177  71.2322090
  14.1863718  77.7640612  60.1076466  14.1634406  77.8628299  59.1558349
  14.4964354  78.6105763  60.4293632  16.8451095  79.8216767  64.2223080
  17.7994349  79.7900709  64.1553012  16.6463619  79.3607391  65.0373306
  17.4350478  78.3917883  66.7893878  18.2543367  78.8861962  66.8128715
  17.7087285  77.4749851  66.7611445  27.1917074  70.7828636  56.1521833
  26.3042929  71.0678286  55.9342028  27.6071063  70.6222399  55.3049110
  15.2001324  85.3636387  61.2393278  15.0655792  84.6036788  60.6731276
  14.7833386  86.0877286  60.7722067  26.3360287  80.5473310  50.2469853
  27.0396137  80.7523313  50.8627509  25.6122936  81.1150072  50.5118937
  27.1658097  76.2983171  56.3672123  27.1093299  76.7551723  55.5279756
  27.7186440  75.5373856  56.1894966  35.2875241  74.8268977  59.6993534
  34.7274799  74.8962166  60.4725096  34.6818745  74.6509961  58.9793031
  18.3570450  86.2605704  61.4511721  18.2402834  87.2051136  61.3490411
  17.5362896  85.9579265  61.8397520  28.2446985  80.9855839  52.2968313
  29.0792589  80.5537038  52.1145788  28.0831328  80.8137853  53.2245208
  27.8992877  77.4887953  53.6624653  27.8441681  77.3232224  52.7213097
  27.2738932  78.1963986  53.8186842  12.6885392  72.7256017  67.4886075
  13.3344255  72.2154971  67.9773300  12.4802543  73.4624699  68.0629500
  25.2138784  79.7936865  72.9878215  26.0829944  79.9677517  72.6264850
  24.7345535  80.6131281  72.8653945  21.2089002  66.9896062  53.2409971
  21.1967672  67.9337902  53.3978242  22.1012424  66.8066207  52.9469432
  19.3824964  86.9133966  64.6667649  20.2852211  86.9457576  64.9834144
  19.1562334  85.9834417  64.6813985  21.1378566  85.6664952  61.3277728
  20.1874197  85.6666814  61.2142100  21.4411052  84.9197687  60.8113762
  25.0241122  63.5838838  57.4955908  24.2573518  63.0297325  57.6412590
  25.4351827  63.6560707  58.3570059  17.0282883  69.8723634  71.5861089
  17.8914344  69.5160439  71.7964414  16.4548293  69.5337529  72.2736493
  36.8731260  91.5025490  62.3923490  37.5109670  91.3832238  61.6886830
  36.7552103  92.4506334  62.4511442  33.6820966  91.4552919  62.3285015
  33.3439478  91.3393983  61.4405550  34.5510734  91.0544084  62.3086021
  29.5407782  93.3088395  58.3181906  28.9772647  93.2178332  57.5498194
  29.4260177  92.4888299  58.7984398  34.1640749  92.6087770  68.2871220
  34.1529390  92.2140569  67.4151724  34.3261388  91.8753843  68.8804992
  27.0872214  94.8039587  61.1566126  27.8793506  94.4630411  60.7412426
  27.3268864  94.9134562  62.0768280  35.1207340  96.9759363  53.6296371
  34.4695320  97.5613443  53.2430384  35.9151703  97.5065558  53.6891408
  29.0462968  94.0648500  54.0283505  29.8193844  93.5177487  53.8896381
  29.3988366  94.9292749  54.2397966  30.8848010  95.3924882  67.2350404
  30.5937876  96.2970513  67.1197071  31.5204994  95.4341410  67.9494474
  31.8104217  92.7701731  63.8251764  32.4067789  92.5457753  63.1108727
  31.8679188  92.0286476  64.4277212  31.3829245  90.2241166  51.6601955
  31.6354766  89.7022687  50.8985418  30.4453804  90.0607311  51.7628639
  36.4272528  89.2276944  59.4676698  37.2135617  88.8096368  59.1167115
  36.6911233  90.1323037  59.6358347  36.5982606  94.6649795  54.1665355
  35.9628439  94.7384421  54.8786260  36.2680012  95.2543393  53.4884434
  41.8280955  89.1652178  60.3709677  42.5606127  88.5951394  60.6047506
  41.0720311  88.7773778  60.8116182  31.1025534  92.1269272  53.8626330
  30.9861792  91.4514175  54.5307414  31.2127794  91.6401646  53.0458483
  33.4457075  91.5879419  57.5673019  33.0815282  91.0610040  58.2785941
  34.3024191  91.1977888  57.3939505  33.0862562  86.6169319  52.5634368
  33.2536964  87.4849555  52.9304839  32.8959731  86.7796600  51.6395657
  35.8437895  95.0786298  64.2300198  35.5438618  95.9811336  64.1216005
  35.4988955  94.8118481  65.0821351  29.2950377  91.5300094  60.2636902
  28.3700873  91.3976309  60.4714594  29.5434790  92.3094314  60.7606845
  39.2435039  87.5968838  61.9097635  38.3351916  87.5284246  61.6156396
  39.1922635  88.0740783  62.7379461  33.0651783  89.0726976  53.5481034
  32.9451408  89.5184027  54.3866515  32.3704371  89.4212294  52.9894573
  26.6559188  91.1733368  61.0980692  26.7851569  91.4267847  62.0120103
  25.9756639  91.7661076  60.7785347  30.8258675 101.8430618  57.1971166
  30.7482705 102.7938443  57.2759646  30.2220319 101.4976490  57.8546092
  33.3175905  89.0158483  69.8532533  32.5409239  89.5752404  69.8435397
  33.9566468  89.5015266  70.3747403  41.1096685  85.7985276  63.6875509
  40.4671066  86.0917809  63.0415304  40.6051614  85.6838197  64.4928706
  38.7636849  89.5448449  54.3761369  39.6754705  89.7775836  54.2009066
  38.2546496  90.1285494  53.8136447  31.5722277  91.8243937  69.4150500
  32.3136961  92.3628981  69.1385323  30.8659263  92.4510226  69.5722051
  37.0477617  93.9673077  68.0122661  37.4560973  93.5255488  67.2677293
  36.3254878  93.3925705  68.2656854  33.4008687  88.9045684  65.3856218
  34.2469882  89.3285098  65.5290867  33.3407324  88.2479308  66.0794781
  37.3706431  94.5274268  61.7674950  36.7415294  94.6919982  61.0651018
  36.9832093  94.9415877  62.5385914  41.2495663  95.4628706  59.1219314
  40.5646701  95.8427607  58.5716347  41.3339513  96.0724032  59.8551261
  36.5508132  86.5650052  67.0437392  36.3069064  87.3192113  66.5071667
  36.8268063  86.9435400  67.8784639  38.5046595  93.1088665  65.7214657
  38.7163490  93.7520425  65.0449038  38.4576343  92.2750981  65.2536587
  36.1072824  85.7206485  62.6251229  35.2457303  86.0187739  62.9167967
  36.1335258  85.9376884  61.6932262  32.9234393  94.2648676  59.0325035
  33.3872739  94.5436379  58.2429658  32.6591191  93.3632121  58.8498126
  29.8158474  93.8120157  61.9704798  30.3859831  94.2407426  61.3322283
  30.4066586  93.5302742  62.6688984  31.8603279  90.3871828  55.8414600
  32.5627323  90.8392872  56.3088527  31.5283908  89.7455647  56.4694493
  30.3083641  88.9783585  70.2165810  29.6782301  89.6599866  70.4501206
  30.2019729  88.8666667  69.2718948  25.6028613  88.6455381  61.1431734
  24.8127667  88.9012910  60.6671844  26.0939861  89.4603719  61.2483774
  39.6192423  95.9860620  63.8937015  40.4409867  95.5840807  63.6119696
  39.6154826  95.8828854  64.8453130  27.5543359  89.0099960  58.1015210
  26.7574522  89.1218654  58.6198706  27.3268951  89.3486612  57.2356101
  33.3849026  95.5344663  66.0497725  33.4493459  95.9965071  66.8855897
  32.6759950  94.9042028  66.1780035  23.8866316  88.8985871  63.5746725
  24.1374355  89.7832881  63.8404301  24.4225865  88.7190473  62.8021816
  47.7098416  92.3299369  60.2421986  46.9562124  91.7606767  60.0865991
  47.8445957  92.2962033  61.1892621  33.0997044  97.2012771  55.9176705
  32.9642719  98.0464307  56.3461553  33.6406856  97.4032049  55.1542639
  29.5864384  83.2804351  72.5791061  29.1931329  82.7270549  73.2538705
  30.4030524  83.5914929  72.9697578  26.5526441  94.7188209  56.4904631
  27.0650962  95.5131459  56.6410195  27.2049154  94.0214499  56.4238232
  28.3621326  97.8353965  58.5727384  28.5387954  98.7571930  58.3848368
  29.1578160  97.5212384  59.0021763  32.5032345  84.6962230  70.1711317
  33.2442058  85.2969383  70.0915780  32.7350267  83.9539868  69.6129360
  27.6473683  89.8818597  68.4489547  27.5327198  88.9803854  68.7496646
  26.7918200  90.1282294  68.0974363  34.7265520  97.8236337  70.0477048
  34.2829374  97.0372716  69.7297952  35.3882734  98.0115488  69.3820938
  29.4852641  99.3532139  64.5737726  30.0360067  99.2249202  63.8014720
  28.6464117  99.6527028  64.2232619  36.8246758  98.1039137  68.0758449
  36.8065234  98.9248018  67.5838718  37.7466678  97.9793213  68.3008590
  33.2819813  95.6183267  68.9181957  33.8148149  94.8571555  68.6881265
  32.7533894  95.3256919  69.6606112  24.5175358  93.0476863  57.2664201
  25.3550580  93.4573872  57.0497909  24.6953626  92.1076305  57.2364395
  36.4139790  90.7151944  52.9548034  35.8986414  91.4856549  53.1936421
  36.1417099  90.0417080  53.5781095  33.9986901  85.5601645  58.0133272
  33.1428498  85.1708495  57.8338911  34.4113853  85.6393606  57.1533058
  35.5286048  83.0947988  62.4124832  35.0250843  83.0578123  61.5992637
  35.8216655  84.0040731  62.4721489  31.7728934  83.1786718  61.4191014
  32.6381931  82.9829526  61.0596903  31.8406443  82.9497069  62.3460371
  41.3874064  93.4684299  54.8901207  40.6103507  93.1295458  54.4456370
  42.0665545  93.4736922  54.2156173  36.2026093  88.5879036  54.7807815
  35.8976229  88.9025185  55.6317958  37.1556535  88.6660456  54.8235148
  34.6472525  94.7469259  56.4300769  34.1193887  94.0122019  56.1174007
  34.1460028  95.5243936  56.1840738  39.6265371  92.9418280  61.5467815
  38.9689046  93.6317541  61.6347944  40.4305770  93.3314712  61.8901802
  29.3791253  85.4088926  58.7907381  29.9535005  85.1864107  58.0580574
  29.9662235  85.4777620  59.5435982  38.4370830  91.2962653  59.5971757
  38.9502712  91.9292644  60.0993467  39.0872054  90.6963848  59.2315117
  29.7060840  87.4393387  52.8103266  28.8698152  87.7768073  53.1312541
  29.5665610  87.3042366  51.8730403  31.6813921  82.2830175  57.5182450
  31.0278333  81.9679192  56.8939065  31.6394395  81.6605915  58.2442273
  32.7925125  92.5649470  49.4335742  31.8852187  92.3338723  49.6326891
  33.2896157  91.7687089  49.6209724  35.6993204 101.2746977  52.3532428
  35.0254903 101.5778674  52.9617386  36.0859026 102.0776057  52.0037885
  34.9151661  88.7712108  61.8430098  33.9974222  88.9927055  61.6851786
  35.3311805  88.8458419  60.9841805  35.6986709  90.1703524  56.9732778
  36.4458528  90.6824921  56.6639900  35.9678298  89.8487576  57.8337172
  33.9713359  92.6662064  53.9559732  33.0624578  92.3821097  54.0532202
  34.0008443  93.0861143  53.0963039  39.2032626  96.2768654  57.7250900
  38.7494953  95.4359564  57.7816090  38.5726593  96.9130052  58.0625680
  38.1465546  87.2060640  58.9551567  37.4088303  86.6938026  59.2861810
  38.3992319  86.7661022  58.1434844  37.6465565  98.1145151  58.6600718
  37.9388540  98.6750208  57.9413084  38.1564186  98.4073712  59.4153877
  38.2477173  79.9836892  59.5493337  38.5536050  79.1234255  59.2619252
  38.9729778  80.5754512  59.3492330  24.5401529  90.3867579  57.9374935
  24.3425929  89.7936939  57.2126001  23.9848193  90.0819789  58.6550873
  32.5198253  90.2790685  60.0569528  32.5746863  89.3264521  59.9812004
  31.7089455  90.4350124  60.5410826  33.6689447  94.2070808  51.2947811
  33.2308877  93.4906667  50.8353448  34.4099888  94.4346923  50.7332902
  30.4590613  88.8967745  57.8159907  29.6458478  89.1961915  58.2225099
  30.9549607  88.5023434  58.5334389  32.6099191  98.8925502  59.7494171
  32.5675369  99.1186348  58.8202703  33.5261890  98.6588876  59.8979972
  36.0564824  89.3609569  66.6474800  36.4114212  89.5881042  67.5069266
  36.7036956  89.6927946  66.0252056  41.7862561  92.4828005  57.3524129
  41.6480460  92.6729601  56.4245319  41.4298780  93.2447388  57.8092181
  29.9504688  86.4686100  63.4321141  30.5904067  86.3274859  62.7344105
  29.1182218  86.1820614  63.0559743  41.8131941  94.5504532  62.3635401
  42.2468448  94.4579821  63.2118455  42.5263522  94.5262033  61.7255417
  30.7264991  95.7688531  59.5456134  31.5205590  95.2738851  59.3438709
  30.0156684  95.2406394  59.1823839  35.5459836  98.1506626  63.8968502
  35.5996858  98.7197563  64.6646217  34.6774617  98.3208511  63.5322539
  27.0347755  89.9131612  55.6215887  26.1045343  89.8516068  55.8385849
  27.1305227  89.3907565  54.8252528  26.9533304  86.4386425  58.2094128
  27.2140121  87.3531759  58.1003289  27.7750476  85.9710868  58.3590741
  28.4258229  87.8524183  65.3792953  29.0981283  87.6441545  64.7305602
  27.5988016  87.6546268  64.9398185  42.6747491  94.5928233  64.8968286
  42.8683381  95.4974043  65.1427561  42.5748109  94.1335652  65.7306871
  34.3283801  84.4786123  67.3958614  33.6811716  85.1776073  67.3023090
  35.0984817  84.9122267  67.7634862  37.7362599  94.7434976  70.4709167
  37.5848106  94.5145527  69.5539251  37.7267279  95.7005577  70.4840512
  34.5047936  92.3166888  65.4555433  35.4339996  92.4678048  65.2824401
  34.0838966  92.4050909  64.6004080  33.3036267  96.3417553  63.2253971
  33.1647353  95.9736337  64.0979909  32.5150864  96.8565192  63.0537929
  33.8984419 101.4426649  54.5679508  34.0736175 100.9714692  55.3825130
  33.2117207 102.0692415  54.7960768  34.8541483  95.7199155  60.6142809
  34.5191315  95.6799925  61.5100459  34.3545428  95.0543871  60.1413219
  28.8285727  91.1266785  66.1395390  28.6905525  90.3947024  66.7406929
  29.7390650  91.0375686  65.8579578  37.7900674  93.0655190  50.8879868
  37.1729845  92.3402018  50.7912921  37.3217163  93.8264550  50.5446943
  31.4568027  90.8386745  65.6279070  32.1667646  90.1979937  65.5865688
  31.4137335  91.0899640  66.5505250  39.4454806  97.7754098  68.5485649
  39.3867352  97.0913318  67.8816232  39.8474324  98.5173088  68.0966275
  30.1696961  87.8251963  67.4474709  29.6334318  87.3742701  68.0996305
  29.5813670  87.9597872  66.7045173  28.4645505 104.5916012  61.3419368
  28.7042103 105.2234536  62.0198386  27.6214701 104.2404052  61.6284727
  29.5799220  87.2840614  50.0101173  28.7028686  87.1629415  49.6463419
  30.0556973  86.4926692  49.7580061  39.4472213  95.7393682  66.7799628
  38.5598992  95.4019604  66.9026027  40.0170764  95.0076713  67.0168394
  21.1001360  92.0717774  60.1042680  21.7872400  91.7579504  59.5163695
  20.9449489  92.9759138  59.8309931  25.9036082  86.9607970  64.5327704
  25.8194271  86.3533640  63.7978114  25.0818789  87.4516989  64.5337200
  32.9773367 100.3995134  63.7460872  32.9043538 101.2050106  64.2580176
  32.5350760 100.5987100  62.9208893  32.7663146  99.6366904  57.2563693
  31.9830668 100.1788585  57.3501918  33.4655891 100.1540884  57.6557934
  36.0759796  85.4461534  59.8997899  36.5728496  84.6931496  59.5798969
  35.3046778  85.4825851  59.3341108  43.9289554  91.1501899  61.5416190
  43.9179430  92.0326615  61.1710123  43.0606933  90.7973450  61.3470727
  35.4372050 100.2981968  65.9019030  36.1500022 100.9329433  65.8294932
  34.9462079 100.3945834  65.0859032  37.1589577  94.2033221  57.4736322
  36.2245856  94.3234684  57.3041026  37.3366245  93.3005688  57.2096332
  32.6594765  87.5878917  59.6269583  32.2892553  87.0349957  60.3150489
  33.1553858  86.9837050  59.0744583  40.5462128  90.0450540  58.0086356
  41.0122581  90.8778532  57.9346659  40.9969629  89.5795522  58.7131615
  30.4883964  98.0476412  66.7224601  31.1893423  98.6812895  66.8753995
  30.0179079  98.3891143  65.9620240  38.6138359  96.3894362  55.0072508
  38.8898203  96.2750956  55.9166382  37.7442858  95.9911847  54.9684681
  38.2885250  90.6021019  64.5477152  37.6356700  90.8496927  63.8929604
  38.6665629  89.7885158  64.2139629  35.2492423 100.6380713  58.6505322
  35.4314818  99.8202368  59.1133074  36.0725409 100.8548405  58.2130212
  35.5834589  99.5648898  55.9120370  36.1122355  99.0541352  55.2990532
  35.8462809  99.2491428  56.7765903  34.3372823  91.3440830  71.0343189
  33.6613460  91.2434960  71.7045564  35.1600457  91.1880044  71.4979186
  26.0851682  97.5812767  63.6555704  26.6705119  96.8356455  63.7883608
  25.8876520  97.8916724  64.5392368  28.9390337 100.6164014  58.6718146
  28.2700712 101.1010142  58.1882186  28.8003207 100.8633235  59.5861525
  20.6769336  90.1518367  62.3760147  20.7153436  89.6181958  63.1697265
  20.1709629  89.6253573  61.7571124  33.0795606 102.6507758  65.2700805
  33.6313914 102.8139379  66.0349890  33.4201799 103.2412196  64.5980829
  28.0560099  84.9982908  65.8722689  28.1201425  85.8597739  65.4600087
  27.9927219  84.3856909  65.1395048  27.5312371  87.0706040  69.5195724
  28.1584410  86.6883118  70.1333248  26.6740290  86.8520242  69.8851416
  37.9306480  97.4769015  71.1249459  38.4746384  98.0898974  70.6304414
  37.3493325  98.0348594  71.6416472  24.3077914  88.8782469  55.4514078
  24.6031355  87.9693148  55.3981132  23.4065950  88.8570209  55.1295081
  36.2163993 100.5989733  62.2564487  36.0915132  99.7979473  61.7475432
  36.8743084 101.0935927  61.7678457  27.8372161  86.9538466  61.4341627
  27.1158747  87.5674434  61.2949100  28.6265417  87.4896231  61.3558273
  38.2798901  98.3998753  63.8844037  37.3329237  98.2804105  63.8122364
  38.6281674  97.5121252  63.9670298  30.6398475  84.2892892  67.7082279
  31.1632876  84.5355189  68.4708588  30.4210808  85.1212927  67.2885416
  26.0365756  86.5596567  55.5753404  25.7078462  85.6793946  55.3928509
  26.3905126  86.5044236  56.4629793  35.2845334  98.1951470  60.0848389
  35.1370297  97.2668177  60.2655959  36.1098828  98.2171560  59.6005464
  29.1507579  86.8469537  55.9428881  29.4903651  87.3755458  55.2207490
  29.5979699  87.1849943  56.7187448  38.8879456  99.0180028  61.1713262
  39.8126004  98.8122890  61.0337713  38.7194760  98.7696430  62.0802603
  31.8451020  85.2306588  65.3931949  31.5047840  84.4314401  65.7952629
  31.1390026  85.5308298  64.8208782  32.4967491  82.3155900  63.8459272
  33.3193561  81.8416378  63.7238163  32.7405555  83.0946384  64.3457959
  31.1375726  85.3444158  54.1422174  31.8584088  85.7225411  53.6385891
  30.5141030  86.0633035  54.2457152  35.2806849  86.0489307  55.0780506
  35.4970463  86.9313945  54.7769334  34.8000916  85.6575521  54.3486148
  30.0206070  89.0075021  61.6551251  29.8750651  89.3215324  62.5475532
  29.5431274  89.6259921  61.1022150  31.8802453  85.9977569  61.7032140
  31.8664022  85.1018662  61.3664438  32.5974881  86.0048232  62.3370427
  33.7328584  86.4314909  63.7485268  33.4746362  87.3531979  63.7469598
  33.2013624  86.0345343  64.4385732  38.6774773  99.5365696  56.5275353
  38.8511650  98.9712118  55.7749206  39.1703664 100.3366591  56.3454843
  24.4951732  91.5480365  64.5938912  23.9505200  92.3240173  64.7259186
  25.3731082  91.8951169  64.4358034  31.2839349  84.8791949  56.9719711
  31.4055260  83.9508595  57.1710598  30.9941391  84.8930635  56.0598026
  34.1530539  82.5646859  60.1086430  34.1752236  82.6286192  59.1538410
  34.5698598  81.7251368  60.3026937  44.5314164  92.3002119  58.1465653
  44.9745310  91.5509444  57.7484776  43.6540674  92.2912255  57.7639385
  39.6649945  98.8532460  53.6272252  40.3600850  99.4739153  53.8459566
  40.0073095  98.0027812  53.9024629  25.2817754  90.6750261  67.4869069
  24.5399490  90.8232897  68.0733699  24.9610498  90.9358527  66.6235818
  41.5641368  96.3032166  55.1559582  42.0892692  96.6419439  54.4308902
  41.4763721  95.3679181  54.9722717  33.2261417 100.2166239  67.2849459
  33.5348543  99.9715386  68.1572159  34.0236899 100.4212878  66.7968329
  33.2482029 102.3704149  59.5154836  32.8087019 101.8780528  60.2087692
  33.9990146 101.8277117  59.2746911  25.7274368  98.5615690  59.5179464
  26.5532388  98.2619462  59.1378107  25.3768420  97.7923312  59.9669252
  30.6955901  97.9142158  61.5877137  30.0735910  97.2512863  61.2879365
  31.3660768  97.9403290  60.9050785  23.9282973  96.4802016  60.4768397
  23.0914881  96.0524191  60.2952398  23.9006618  96.6734460  61.4139188
  30.7680429  86.3923946  71.1809643  30.8168584  87.2686069  70.7987413
  31.3102943  85.8501339  70.6081286  41.2535274  96.9365069  70.4610780
  40.4630818  96.9189208  69.9215280  41.0168629  97.4753363  71.2159817
  41.3733149  93.7857536  67.7743509  41.4231154  93.6207543  68.7159032
  41.2647073  92.9184795  67.3841390  30.2569408  96.4646082  55.0635598
  30.4057528  97.1481546  54.4102270  31.0635851  96.4451172  55.5785053
  38.6636912  89.7688464  69.0902816  39.5646774  89.6294929  68.7986813
  38.7384886  89.9342919  70.0300993  32.9979717  87.1455319  67.9356002
  32.1283026  87.4388885  67.6638590  33.2339197  87.7295764  68.6563265
  42.8751346  96.2054477  68.0185530  42.5836154  96.5684458  68.8548991
  42.2623477  95.4921486  67.8398862  44.0747028  93.7707357  60.5388101
  44.9093920  94.2097161  60.7025661  44.2106157  93.2946010  59.7196346
  41.1238534  91.3287092  66.4865588  41.5992656  91.5214738  65.6784440
  40.2004100  91.3846278  66.2408972  28.0122041  92.4911259  56.0696667
  27.7668083  91.5873589  56.2676877  28.1817955  92.4928410  55.1276145
  27.2817688  88.2239617  53.5682828  26.5886933  88.2983972  52.9122864
  27.0369440  87.4599960  54.0904345  33.7564813  98.9594212  52.5347345
  33.1838781  99.5784399  52.0817817  34.3297607  99.5093574  53.0687267
  39.8240203  88.2052852  64.7193894  40.7757626  88.3050950  64.7406118
  39.6543654  87.4131121  65.2291978  37.8454583  85.2908435  64.9053295
  37.2504515  85.5713448  64.2099784  37.5604279  85.7802336  65.6770036
  36.9762073  99.2431362  53.6655927  37.9092746  99.1776924  53.8688803
  36.8885286 100.0787629  53.2070460  39.6050090  98.5597232  50.6259875
  39.5263721  98.2257096  51.5195633  40.4259757  99.0519000  50.6251347
  42.3028281  91.4258972  63.8336194  42.2704601  90.4874972  64.0195877
  42.9128905  91.5043008  63.1002018  34.1411612  90.2955025  49.8763398
  35.0870717  90.1661233  49.9451816  33.7625857  89.5569687  50.3532826
  42.4522770  88.2170015  63.8794477  41.9361818  87.4328472  63.6924406
  43.3362718  87.8888732  64.0440996  40.1133496  81.9611031  59.8390289
  39.9158318  81.6526119  60.7233621  40.7233202  82.6872670  59.9688219
  48.1204831  92.4874979  62.9742230  48.8508219  92.2260267  63.5349934
  47.5111776  91.7503701  63.0144298  46.2020128  90.6282841  63.5716682
  45.4753292  90.4938806  62.9633173  45.7867415  90.9359670  64.3773400
  34.0250304  94.3472771  71.3364055  34.9453314  94.5251370  71.5304101
  33.9899888  93.4028816  71.1843754  32.3254529  88.2205001  49.8118283
  31.4185984  87.9238114  49.8880996  32.6030510  87.9234819  48.9452569
  23.2432469  89.5411365  60.2617329  22.9235254  88.6876673  59.9691703
  22.6965898  89.7559943  61.0175297  27.0212377  92.2573806  63.9786836
  27.2398387  93.1890913  63.9974870  27.4338151  91.8981780  64.7641640
  33.9416595  82.7641891  55.9662524  33.1317323  82.4188976  56.3417770
  34.6301012  82.4549435  56.5550136  35.8707143  81.8419938  57.5886821
  36.4238182  82.2615391  58.2476844  36.1077229  80.9155686  57.6309777
  31.8940242  87.8307011  73.3689585  31.7936969  88.7801368  73.3001676
  31.6761784  87.5025250  72.4965655  31.0953314  85.0791936  49.9530262
  31.9572478  85.4046835  50.2126079  31.2803658  84.2923432  49.4403328
  23.1120729  93.1614276  62.2310451  22.4184201  92.7468229  61.7180405
  23.8593720  93.2034813  61.6343870  39.2485950  83.9520463  57.0965485
  38.6684619  84.6105267  56.7143537  38.9821883  83.1297807  56.6852903
  37.6989517  83.3525521  59.2986805  38.1989295  83.4642055  58.4901124
  38.3425124  83.0486573  59.9387614  31.7571512  91.2604150  72.1854646
  31.2738594  92.0604510  72.3918535  31.8432451  91.2712095  71.2322090
  25.0257472  93.0932530  60.1076466  25.0028160  93.1920217  59.1558349
  25.3358109  93.9397681  60.4293632  27.6844850  95.1508685  64.2223080
  28.6388103  95.1192627  64.1553012  27.4857373  94.6899309  65.0373306
  28.2744232  93.7209801  66.7893878  29.0937121  94.2153880  66.8128715
  28.5481040  92.8041769  66.7611445  38.0310828  86.1120553  56.1521833
  37.1436683  86.3970204  55.9342028  38.4464817  85.9514317  55.3049110
  41.3825364  86.1367074  59.8676173  42.1585754  86.6263527  60.1400789
  40.6573499  86.5625128  60.3248042  43.8197923  86.8494693  60.9250113
  44.4142414  86.6090429  60.2143421  43.8924507  86.1301824  61.5523649
  26.0395079 100.6928304  61.2393278  25.9049547  99.9328705  60.6731276
  25.6227141 101.4169204  60.7722067  37.1754042  95.8765228  50.2469853
  37.8789892  96.0815230  50.8627509  36.4516690  96.4441990  50.5118937
  38.0051852  91.6275089  56.3672123  37.9487053  92.0843641  55.5279756
  38.5580194  90.8665774  56.1894966  41.8156658  87.4164821  57.1922243
  41.5593592  87.0161457  58.0230451  41.1909526  88.1308615  57.0672382
  46.1268996  90.1560894  59.6993534  45.5668554  90.2254084  60.4725096
  45.5212499  89.9801879  58.9793031  29.1964205 101.5897621  61.4511721
  29.0796589 102.5343054  61.3490411  28.3756651 101.2871183  61.8397520
  39.0840739  96.3147757  52.2968313  39.9186343  95.8828956  52.1145788
  38.9225082  96.1429771  53.2245208  38.7386631  92.8179870  53.6624653
  38.6835435  92.6524142  52.7213097  38.1132687  93.5255903  53.8186842
  23.5279146  88.0547935  67.4886075  24.1738010  87.5446889  67.9773300
  23.3196297  88.7916616  68.0629500  36.0532538  95.1228782  72.9878215
  36.9223698  95.2969435  72.6264850  35.5739290  95.9423199  72.8653945
  32.0482757  82.3187979  53.2409971  32.0361427  83.2629819  53.3978242
  32.9406179  82.1358125  52.9469432  30.2218719 102.2425883  64.6667649
  31.1245965 102.2749493  64.9834144  29.9956089 101.3126334  64.6813985
  31.9772321 100.9956870  61.3277728  31.0267952 100.9958731  61.2142100
  32.2804807 100.2489604  60.8113762  35.8634876  78.9130756  57.4955908
  35.0967272  78.3589243  57.6412590  36.2745581  78.9852625  58.3570059
  27.8676637  85.2015552  71.5861089  28.7308099  84.8452357  71.7964414
  27.2942048  84.8629447  72.2736493  47.7125014 106.8317408  62.3923490
  48.3503424 106.7124156  61.6886830  47.5945857 107.7798252  62.4511442
  44.5214720 106.7844836  62.3285015  44.1833232 106.6685901  61.4405550
  45.3904489 106.3836001  62.3086021  40.3801536 108.6380313  58.3181906
  39.8166401 108.5470250  57.5498194  40.2653931 107.8180217  58.7984398
  45.0034503 107.9379688  68.2871220  44.9923144 107.5432486  67.4151724
  45.1655143 107.2045761  68.8804992  37.9265968 110.1331504  61.1566126
  38.7187260 109.7922329  60.7412426  38.1662618 110.2426479  62.0768280
  45.9601095 112.3051280  53.6296371  45.3089075 112.8905361  53.2430384
  46.7545458 112.8357475  53.6891408  39.8856722 109.3940418  54.0283505
  40.6587598 108.8469405  53.8896381  40.2382121 110.2584667  54.2397966
  41.7241765 110.7216800  67.2350404  41.4331631 111.6262431  67.1197071
  42.3598749 110.7633327  67.9494474  42.6497971 108.0993648  63.8251764
  43.2461544 107.8749671  63.1108727  42.7072943 107.3578394  64.4277212
  42.2223000 105.5533084  51.6601955  42.4748521 105.0314605  50.8985418
  41.2847559 105.3899229  51.7628639  47.2666283 104.5568862  59.4676698
  48.0529372 104.1388285  59.1167115  47.5304987 105.4614954  59.6358347
  47.4376360 109.9941712  54.1665355  46.8022193 110.0676339  54.8786260
  47.1073766 110.5835311  53.4884434  52.6674710 104.4944095  60.3709677
  53.3999882 103.9243312  60.6047506  51.9114066 104.1065696  60.8116182
  41.9419289 107.4561190  53.8626330  41.8255547 106.7806093  54.5307414
  42.0521548 106.9693564  53.0458483  44.2850830 106.9171337  57.5673019
  43.9209037 106.3901958  58.2785941  45.1417945 106.5269806  57.3939505
  50.1900130  98.2065669  64.8304285  49.8583455  99.0761080  64.6065500
  49.5945744  97.8901953  65.5098316  43.9256317 101.9461236  52.5634368
  44.0930719 102.8141473  52.9304839  43.7353486 102.1088518  51.6395657
  46.6831650 110.4078215  64.2300198  46.3832373 111.3103254  64.1216005
  46.3382709 110.1410399  65.0821351  40.1344131 106.8592012  60.2636902
  39.2094628 106.7268226  60.4714594  40.3828544 107.6386231  60.7606845
  50.0828793 102.9260756  61.9097635  49.1745671 102.8576164  61.6156396
  50.0316389 103.4032700  62.7379461  43.9045537 104.4018894  53.5481034
  43.7845163 104.8475945  54.3866515  43.2098126 104.7504212  52.9894573
  37.4952942 106.5025286  61.0980692  37.6245323 106.7559765  62.0120103
  36.8150394 107.0952994  60.7785347  41.6652429 117.1722536  57.1971166
  41.5876459 118.1230361  57.2759646  41.0614073 116.8268408  57.8546092
  44.1569659 104.3450401  69.8532533  43.3802993 104.9044321  69.8435397
  44.7960222 104.8307184  70.3747403  51.9490440 101.1277194  63.6875509
  51.3064820 101.4209727  63.0415304  51.4445368 101.0130114  64.4928706
  49.6030604 104.8740367  54.3761369  50.5148460 105.1067754  54.2009066
  49.0940251 105.4577411  53.8136447  42.4116032 107.1535854  69.4150500
  43.1530716 107.6920898  69.1385323  41.7053017 107.7802143  69.5722051
  47.8871371 109.2964995  68.0122661  48.2954727 108.8547405  67.2677293
  47.1648633 108.7217622  68.2656854  44.2402441 104.2337602  65.3856218
  45.0863636 104.6577015  65.5290867  44.1801079 103.5771226  66.0794781
  48.2100186 109.8566186  61.7674950  47.5809048 110.0211900  61.0651018
  47.8225848 110.2707795  62.5385914  52.0889418 110.7920623  59.1219314
  51.4040456 111.1719525  58.5716347  52.1733267 111.4015950  59.8551261
  47.3901887 101.8941970  67.0437392  47.1462818 102.6484031  66.5071667
  47.6661817 102.2727318  67.8784639  49.3440349 108.4380582  65.7214657
  49.5557245 109.0812342  65.0449038  49.2970098 107.6042899  65.2536587
  46.9466578 101.0498403  62.6251229  46.0851057 101.3479657  62.9167967
  46.9729013 101.2668802  61.6932262  43.7628148 109.5940594  59.0325035
  44.2266493 109.8728297  58.2429658  43.4984946 108.6924038  58.8498126
  40.6552229 109.1412075  61.9704798  41.2253586 109.5699344  61.3322283
  41.2460341 108.8594660  62.6688984  42.6997034 105.7163746  55.8414600
  43.4021077 106.1684790  56.3088527  42.3677662 105.0747565  56.4694493
  41.1477395 104.3075503  70.2165810  40.5176056 104.9891783  70.4501206
  41.0413483 104.1958584  69.2718948  36.4422368 103.9747299  61.1431734
  35.6521422 104.2304827  60.6671844  36.9333615 104.7895637  61.2483774
  50.4586177 111.3152538  63.8937015  51.2803621 110.9132725  63.6119696
  50.4548580 111.2120772  64.8453130  38.3937113 104.3391878  58.1015210
  37.5968276 104.4510572  58.6198706  38.1662705 104.6778530  57.2356101
  44.2242781 110.8636581  66.0497725  44.2887213 111.3256988  66.8855897
  43.5153705 110.2333946  66.1780035  34.7260071 104.2277789  63.5746725
  34.9768109 105.1124799  63.8404301  35.2619619 104.0482391  62.8021816
  58.5492170 107.6591286  60.2421986  57.7955879 107.0898684  60.0865991
  58.6839712 107.6253951  61.1892621  43.9390798 112.5304689  55.9176705
  43.8036473 113.3756224  56.3461553  44.4800611 112.7323966  55.1542639
  40.4258138  98.6096268  72.5791061  40.0325084  98.0562467  73.2538705
  41.2424278  98.9206847  72.9697578  37.3920196 110.0480127  56.4904631
  37.9044716 110.8423377  56.6410195  38.0442909 109.3506417  56.4238232
  39.2015080 113.1645883  58.5727384  39.3781709 114.0863848  58.3848368
  39.9971914 112.8504302  59.0021763  43.3426099 100.0254148  70.1711317
  44.0835812 100.6261301  70.0915780  43.5744022  99.2831785  69.6129360
  38.4867437 105.2110515  68.4489547  38.3720952 104.3095772  68.7496646
  37.6311955 105.4574212  68.0974363  45.5659275 113.1528255  70.0477048
  45.1223129 112.3664634  69.7297952  46.2276488 113.3407406  69.3820938
  40.3246396 114.6824057  64.5737726  40.8753821 114.5541120  63.8014720
  39.4857872 114.9818946  64.2232619  47.6640513 113.4331055  68.0758449
  47.6458988 114.2539936  67.5838718  48.5860433 113.3085130  68.3008590
  44.1213567 110.9475185  68.9181957  44.6541904 110.1863473  68.6881265
  43.5927648 110.6548836  69.6606112  47.2883262  96.0535250  64.4475599
  46.9447531  96.9436892  64.3714709  47.6562225  95.8636908  63.5845184
  35.3569113 108.3768781  57.2664201  36.1944335 108.7865789  57.0497909
  35.5347380 107.4368223  57.2364395  47.2533545 106.0443862  52.9548034
  46.7380168 106.8148466  53.1936421  46.9810853 105.3708998  53.5781095
  44.8380656 100.8893562  58.0133272  43.9822252 100.5000413  57.8338911
  45.2507607 100.9685523  57.1533058  46.3679802  98.4239906  62.4124832
  45.8644598  98.3870041  61.5992637  46.6610409  99.3332648  62.4721489
  42.6122688  98.5078635  61.4191014  43.4775685  98.3121444  61.0596903
  42.6800197  98.2788987  62.3460371  52.2267819 108.7976216  54.8901207
  51.4497262 108.4587376  54.4456370  52.9059300 108.8028839  54.2156173
  47.0419848 103.9170954  54.7807815  46.7369983 104.2317103  55.6317958
  47.9950290 103.9952374  54.8235148  45.4866280 110.0761177  56.4300769
  44.9587641 109.3413937  56.1174007  44.9853782 110.8535853  56.1840738
  50.4659126 108.2710198  61.5467815  49.8082800 108.9609459  61.6347944
  51.2699525 108.6606629  61.8901802  40.2185007 100.7380843  58.7907381
  40.7928759 100.5156025  58.0580574  40.8055990 100.8069538  59.5435982
  49.2764585 106.6254570  59.5971757  49.7896466 107.2584562  60.0993467
  49.9265808 106.0255766  59.2315117  40.5454594 102.7685304  52.8103266
  39.7091907 103.1059991  53.1312541  40.4059364 102.6334284  51.8730403
  42.5207675  97.6122092  57.5182450  41.8672087  97.2971109  56.8939065
  42.4788149  96.9897833  58.2442273  43.6318880 107.8941387  49.4335742
  42.7245942 107.6630641  49.6326891  44.1289912 107.0979007  49.6209724
  46.5386959 116.6038894  52.3532428  45.8648658 116.9070591  52.9617386
  46.9252781 117.4067975  52.0037885  45.7545415 104.1004026  61.8430098
  44.8367977 104.3218973  61.6851786  46.1705559 104.1750336  60.9841805
  46.5380463 105.4995441  56.9732778  47.2852282 106.0116839  56.6639900
  46.8072053 105.1779494  57.8337172  44.8107113 107.9953982  53.9559732
  43.9018333 107.7113015  54.0532202  44.8402197 108.4153061  53.0963039
  50.0426381 111.6060572  57.7250900  49.5888708 110.7651482  57.7816090
  49.4120347 112.2421970  58.0625680  48.9859300 102.5352558  58.9551567
  48.2482057 102.0229944  59.2861810  49.2386074 102.0952939  58.1434844
  48.4859320 113.4437068  58.6600718  48.7782294 114.0042125  57.9413084
  48.9957941 113.7365629  59.4153877  49.0870928  95.3128810  59.5493337
  49.3929804  94.4526173  59.2619252  49.8123532  95.9046430  59.3492330
  35.3795284 105.7159496  57.9374935  35.1819684 105.1228857  57.2126001
  34.8241948 105.4111706  58.6550873  43.3592007 105.6082603  60.0569528
  43.4140617 104.6556439  59.9812004  42.5483209 105.7642042  60.5410826
  44.5083201 109.5362726  51.2947811  44.0702631 108.8198585  50.8353448
  45.2493642 109.7638841  50.7332902  41.2984367 104.2259662  57.8159907
  40.4852233 104.5253833  58.2225099  41.7943361 103.8315351  58.5334389
  43.4492945 114.2217419  59.7494171  43.4069124 114.4478266  58.8202703
  44.3655644 113.9880794  59.8979972  46.8958579 104.6901487  66.6474800
  47.2507967 104.9172960  67.5069266  47.5430710 105.0219864  66.0252056
  52.6256316 107.8119923  57.3524129  52.4874215 108.0021519  56.4245319
  52.2692535 108.5739306  57.8092181  40.7898442 101.7978018  63.4321141
  41.4297821 101.6566777  62.7344105  39.9575973 101.5112531  63.0559743
  52.6525696 109.8796450  62.3635401  53.0862202 109.7871739  63.2118455
  53.3657276 109.8553950  61.7255417  41.5658746 111.0980448  59.5456134
  42.3599344 110.6030769  59.3438709  40.8550438 110.5698312  59.1823839
  46.3853590 113.4798544  63.8968502  46.4390613 114.0489480  64.6646217
  45.5168372 113.6500429  63.5322539  37.8741509 105.2423530  55.6215887
  36.9439098 105.1807986  55.8385849  37.9698981 104.7199483  54.8252528
  37.7927058 101.7678343  58.2094128  38.0533876 102.6823676  58.1003289
  38.6144231 101.3002786  58.3590741  39.2651984 103.1816100  65.3792953
  39.9375037 102.9733462  64.7305602  38.4381770 102.9838186  64.9398185
  53.5141245 109.9220151  64.8968286  53.7077135 110.8265961  65.1427561
  53.4141863 109.4627570  65.7306871  45.1677556  99.8078041  67.3958614
  44.5205471 100.5067991  67.3023090  45.9378571 100.2414185  67.7634862
  48.5756354 110.0726893  70.4709167  48.4241860 109.8437445  69.5539251
  48.5661033 111.0297495  70.4840512  45.3441690 107.6458806  65.4555433
  46.2733750 107.7969966  65.2824401  44.9232720 107.7342827  64.6004080
  44.1430022 111.6709470  63.2253971  44.0041108 111.3028255  64.0979909
  43.3544618 112.1857110  63.0537929  44.7378174 116.7718567  54.5679508
  44.9129930 116.3006610  55.3825130  44.0510962 117.3984333  54.7960768
  45.6935237 111.0491073  60.6142809  45.3585070 111.0091843  61.5100459
  45.1939183 110.3835789  60.1413219  39.6679481 106.4558703  66.1395390
  39.5299279 105.7238942  66.7406929  40.5784405 106.3667603  65.8579578
  48.6294429 108.3947107  50.8879868  48.0123599 107.6693936  50.7912921
  48.1610917 109.1556468  50.5446943  42.2961782 106.1678662  65.6279070
  43.0061400 105.5271855  65.5865688  42.2531090 106.4191557  66.5505250
  50.2848560 113.1046016  68.5485649  50.2261107 112.4205236  67.8816232
  50.6868079 113.8465006  68.0966275  41.0090716 103.1543880  67.4474709
  40.4728073 102.7034619  68.0996305  40.4207424 103.2889789  66.7045173
  40.4192975 102.6132532  50.0101173  39.5422441 102.4921333  49.6463419
  40.8950728 101.8218610  49.7580061  50.2865968 111.0685600  66.7799628
  49.3992746 110.7311522  66.9026027  50.8564519 110.3368631  67.0168394
  31.9395115 107.4009691  60.1042680  32.6266155 107.0871422  59.5163695
  31.7843243 108.3051056  59.8309931  36.7429837 102.2899888  64.5327704
  36.6588026 101.6825558  63.7978114  35.9212543 102.7808906  64.5337200
  43.8167121 115.7287052  63.7460872  43.7437293 116.5342024  64.2580176
  43.3744514 115.9279018  62.9208893  43.6056901 114.9658822  57.2563693
  42.8224423 115.5080502  57.3501918  44.3049646 115.4832802  57.6557934
  46.9153551 100.7753452  59.8997899  47.4122250 100.0223414  59.5798969
  46.1440532 100.8117768  59.3341108  54.7683308 106.4793817  61.5416190
  54.7573184 107.3618533  61.1710123  53.9000688 106.1265368  61.3470727
  46.2765805 115.6273886  65.9019030  46.9893777 116.2621351  65.8294932
  45.7855833 115.7237752  65.0859032  47.9983331 109.5325139  57.4736322
  47.0639610 109.6526601  57.3041026  48.1760000 108.6297606  57.2096332
  43.4988520 102.9170835  59.6269583  43.1286307 102.3641875  60.3150489
  43.9947612 102.3128968  59.0744583  51.3855883 105.3742458  58.0086356
  51.8516335 106.2070450  57.9346659  51.8363383 104.9087440  58.7131615
  41.3277718 113.3768330  66.7224601  42.0287178 114.0104813  66.8753995
  40.8572833 113.7183061  65.9620240  49.4532114 111.7186279  55.0072508
  49.7291958 111.6042874  55.9166382  48.5836613 111.3203764  54.9684681
  49.3572546  97.7423045  62.0477257  48.4435625  97.9727272  62.2159464
  49.7865647  97.8261489  62.8991290  49.1279004 105.9312937  64.5477152
  48.4750454 106.1788844  63.8929604  49.5059384 105.1177075  64.2139629
  46.0886178 115.9672630  58.6505322  46.2708572 115.1494286  59.1133074
  46.9119164 116.1840322  58.2130212  46.4228343 114.8940815  55.9120370
  46.9516110 114.3833270  55.2990532  46.6856563 114.5783346  56.7765903
  45.1766577 106.6732748  71.0343189  44.5007214 106.5726877  71.7045564
  45.9994211 106.5171962  71.4979186  36.9245436 112.9104685  63.6555704
  37.5098873 112.1648373  63.7883608  36.7270275 113.2208641  64.5392368
  39.7784091 115.9455932  58.6718146  39.1094467 116.4302060  58.1882186
  39.6396961 116.1925152  59.5861525  31.5163091 105.4810285  62.3760147
  31.5547190 104.9473876  63.1697265  31.0103384 104.9545490  61.7571124
  43.9189360 117.9799676  65.2700805  44.4707668 118.1431297  66.0349890
  44.2595553 118.5704113  64.5980829  38.8953853 100.3274825  65.8722689
  38.9595180 101.1889656  65.4600087  38.8320973  99.7148827  65.1395048
  38.3706126 102.3997958  69.5195724  38.9978165 102.0175035  70.1333248
  37.5134045 102.1812160  69.8851416  48.7700234 112.8060933  71.1249459
  49.3140138 113.4190891  70.6304414  48.1887079 113.3640511  71.6416472
  35.1471669 104.2074387  55.4514078  35.4425110 103.2985065  55.3981132
  34.2459704 104.1862126  55.1295081  47.0557747 115.9281651  62.2564487
  46.9308887 115.1271391  61.7475432  47.7136838 116.4227844  61.7678457
  38.6765916 102.2830384  61.4341627  37.9552501 102.8966351  61.2949100
  39.4659171 102.8188148  61.3558273  49.1192656 113.7290671  63.8844037
  48.1722991 113.6096022  63.8122364  49.4675429 112.8413169  63.9670298
  41.4792229  99.6184810  67.7082279  42.0026631  99.8647107  68.4708588
  41.2604562 100.4504845  67.2885416  36.8759510 101.8888485  55.5753404
  36.5472216 101.0085864  55.3928509  37.2298881 101.8336153  56.4629793
  46.1239089 113.5243387  60.0848389  45.9764051 112.5960095  60.2655959
  46.9492582 113.5463478  59.6005464  39.9901333 102.1761454  55.9428881
  40.3297406 102.7047376  55.2207490  40.4373454 102.5141861  56.7187448
  49.7273211 114.3471946  61.1713262  50.6519758 114.1414807  61.0337713
  49.5588514 114.0988347  62.0802603  42.6844774 100.5598505  65.3931949
  42.3441594  99.7606318  65.7952629  41.9783780 100.8600216  64.8208782
  43.3361246  97.6447818  63.8459272  44.1587315  97.1708296  63.7238163
  43.5799309  98.4238301  64.3457959  41.9769480 100.6736076  54.1422174
  42.6977843 101.0517329  53.6385891  41.3534785 101.3924953  54.2457152
  46.1200603 101.3781225  55.0780506  46.3364218 102.2605863  54.7769334
  45.6394670 100.9867438  54.3486148  40.8599825 104.3366938  61.6551251
  40.7144405 104.6507241  62.5475532  40.3825028 104.9551839  61.1022150
  42.7196208 101.3269486  61.7032140  42.7057776 100.4310580  61.3664438
  43.4368636 101.3340150  62.3370427  44.5722338 101.7606826  63.7485268
  44.3140116 102.6823897  63.7469598  44.0407379 101.3637261  64.4385732
  49.5168527 114.8657614  56.5275353  49.6905405 114.3004036  55.7749206
  50.0097418 115.6658508  56.3454843  35.3345487 106.8772283  64.5938912
  34.7898955 107.6532091  64.7259186  36.2124837 107.2243087  64.4358034
  42.1233103 100.2083867  56.9719711  42.2449015  99.2800513  57.1710598
  41.8335146 100.2222552  56.0598026  44.9924294  97.8938777  60.1086430
  45.0145991  97.9578110  59.1538410  45.4092353  97.0543286  60.3026937
  55.3707918 107.6294037  58.1465653  55.8139064 106.8801362  57.7484776
  54.4934428 107.6204173  57.7639385  50.5043699 114.1824378  53.6272252
  51.1994604 114.8031071  53.8459566  50.8466850 113.3319729  53.9024629
  36.1211509 106.0042179  67.4869069  35.3793245 106.1524814  68.0733699
  35.8004253 106.2650445  66.6235818  52.4035123 111.6324083  55.1559582
  52.9286447 111.9711356  54.4308902  52.3157475 110.6971099  54.9722717
  44.0655171 115.5458157  67.2849459  44.3742298 115.3007304  68.1572159
  44.8630653 115.7504796  66.7968329  44.0875783 117.6996067  59.5154836
  43.6480774 117.2072445  60.2087692  44.8383900 117.1569034  59.2746911
  36.5668122 113.8907608  59.5179464  37.3926142 113.5911380  59.1378107
  36.2162174 113.1215230  59.9669252  41.5349656 113.2434076  61.5877137
  40.9129665 112.5804781  61.2879365  42.2054522 113.2695208  60.9050785
  34.7676727 111.8093934  60.4768397  33.9308636 111.3816108  60.2952398
  34.7400373 112.0026377  61.4139188  41.6074183 101.7215864  71.1809643
  41.6562338 102.5977987  70.7987413  42.1496697 101.1793257  70.6081286
  52.0929029 112.2656987  70.4610780  51.3024572 112.2481126  69.9215280
  51.8562383 112.8045281  71.2159817  52.2126904 109.1149454  67.7743509
  52.2624909 108.9499461  68.7159032  52.1040827 108.2476713  67.3841390
  41.0963162 111.7937999  55.0635598  41.2451283 112.4773464  54.4102270
  41.9029606 111.7743089  55.5785053  49.5030666 105.0980382  69.0902816
  50.4040529 104.9586846  68.7986813  49.5778641 105.2634836  70.0300993
  43.8373471 102.4747236  67.9356002  42.9676781 102.7680802  67.6638590
  44.0732952 103.0587681  68.6563265  53.7145101 111.5346395  68.0185530
  53.4229909 111.8976376  68.8548991  53.1017232 110.8213403  67.8398862
  54.9140783 109.0999275  60.5388101  55.7487674 109.5389079  60.7025661
  55.0499912 108.6237928  59.7196346  51.9632289 106.6579010  66.4865588
  52.4386410 106.8506656  65.6784440  51.0397854 106.7138195  66.2408972
  38.8515795 107.8203177  56.0696667  38.6061837 106.9165507  56.2676877
  39.0211710 107.8220327  55.1276145  46.5412505  98.6926853  65.4521422
  47.0594449  99.4287880  65.1267911  46.1867638  98.9990847  66.2868181
  38.1211443 103.5531534  53.5682828  37.4280688 103.6275889  52.9122864
  37.8763195 102.7891878  54.0904345  46.7925099  95.1127136  60.9722319
  47.0726853  94.4450325  61.5982745  47.5775706  95.3056231  60.4596983
  44.5958568 114.2886130  52.5347345  44.0232535 114.9076317  52.0817817
  45.1691362 114.8385491  53.0687267  50.6633958 103.5344770  64.7193894
  51.6151381 103.6342867  64.7406118  50.4937408 102.7423038  65.2291978
  48.6848337 100.6200353  64.9053295  48.0898269 100.9005366  64.2099784
  48.3998034 101.1094254  65.6770036  47.8155828 114.5723280  53.6655927
  48.7486501 114.5068841  53.8688803  47.7279041 115.4079547  53.2070460
  50.4443844 113.8889150  50.6259875  50.3657476 113.5549014  51.5195633
  51.2653511 114.3810918  50.6251347  53.1422036 106.7550889  63.8336194
  53.1098356 105.8166890  64.0195877  53.7522659 106.8334926  63.1002018
  44.9805366 105.6246942  49.8763398  45.9264471 105.4953151  49.9451816
  44.6019611 104.8861604  50.3532826  53.2916524 103.5461933  63.8794477
  52.7755573 102.7620389  63.6924406  54.1756473 103.2180649  64.0440996
  50.9527251  97.2902948  59.8390289  50.7552072  96.9818037  60.7233621
  51.5626957  98.0164587  59.9688219  58.9598585 107.8166896  62.9742230
  59.6901974 107.5552184  63.5349934  58.3505531 107.0795618  63.0144298
  57.0413883 105.9574759  63.5716682  56.3147046 105.8230724  62.9633173
  56.6261169 106.2651587  64.3773400  44.8644059 109.6764689  71.3364055
  45.7847068 109.8543288  71.5304101  44.8293642 108.7320734  71.1843754
  43.1648284 103.5496919  49.8118283  42.2579739 103.2530032  49.8880996
  43.4424265 103.2526737  48.9452569  34.0826224 104.8703282  60.2617329
  33.7629008 104.0168590  59.9691703  33.5359652 105.0851860  61.0175297
  37.8606132 107.5865723  63.9786836  38.0792141 108.5182831  63.9974870
  38.2731905 107.2273698  64.7641640  44.7810349  98.0933809  55.9662524
  43.9711078  97.7480893  56.3417770  45.4694766  97.7841352  56.5550136
  46.7100898  97.1711855  57.5886821  47.2631936  97.5907309  58.2476844
  46.9470984  96.2447603  57.6309777  42.7333997 103.1598929  73.3689585
  42.6330724 104.1093286  73.3001676  42.5155539 102.8317168  72.4965655
  41.9347068 100.4083854  49.9530262  42.7966232 100.7338752  50.2126079
  42.1197412  99.6215350  49.4403328  33.9514484 108.4906194  62.2310451
  33.2577955 108.0760146  61.7180405  34.6987475 108.5326730  61.6343870
  50.0879705  99.2812380  57.0965485  49.5078374  99.9397185  56.7143537
  49.8215637  98.4589725  56.6852903  48.5383271  98.6817438  59.2986805
  49.0383049  98.7933973  58.4901124  49.1818879  98.3778491  59.9387614
  42.5965267 106.5896068  72.1854646  42.1132349 107.3896428  72.3918535
  42.6826206 106.6004013  71.2322090  35.8651227 108.4224447  60.1076466
  35.8421915 108.5212135  59.1558349  36.1751863 109.2689598  60.4293632
  38.5238604 110.4800602  64.2223080  39.4781858 110.4484545  64.1553012
  38.3251128 110.0191226  65.0373306  39.1137987 109.0501719  66.7893878
  39.9330876 109.5445797  66.8128715  39.3874794 108.1333687  66.7611445
  48.8704583 101.4412471  56.1521833  47.9830438 101.7262121  55.9342028
  49.2858572 101.2806234  55.3049110  52.2219119 101.4658992  59.8676173
  52.9979509 101.9555444  60.1400789  51.4967253 101.8917046  60.3248042
  54.6591677 102.1786611  60.9250113  55.2536168 101.9382347  60.2143421
  54.7318261 101.4593742  61.5523649  48.0147796 111.2057146  50.2469853
  48.7183646 111.4107148  50.8627509  47.2910445 111.7733907  50.5118937
  48.8445606 106.9567007  56.3672123  48.7880808 107.4135558  55.5279756
  49.3973949 106.1957691  56.1894966  52.6550412 102.7456739  57.1922243
  52.3987347 102.3453374  58.0230451  52.0303280 103.4600533  57.0672382
  56.9662750 105.4852812  59.6993534  56.4062308 105.5546001  60.4725096
  56.3606254 105.3093797  58.9793031  49.9234494 111.6439675  52.2968313
  50.7580098 111.2120873  52.1145788  49.7618837 111.4721688  53.2245208
  49.5780386 108.1471788  53.6624653  49.5229190 107.9816059  52.7213097
  48.9526441 108.8547821  53.8186842  34.3672901 103.3839852  67.4886075
  35.0131764 102.8738806  67.9773300  34.1590052 104.1208534  68.0629500
  46.8926293 110.4520700  72.9878215  47.7617453 110.6261352  72.6264850
  46.4133044 111.2715117  72.8653945  42.8876511  97.6479897  53.2409971
  42.8755181  98.5921737  53.3978242  43.7799933  97.4650042  52.9469432
  41.0612473 117.5717801  64.6667649  41.9639720 117.6041411  64.9834144
  40.8349843 116.6418252  64.6813985  42.8166075 116.3248787  61.3277728
  41.8661706 116.3250649  61.2142100  43.1198561 115.5781522  60.8113762
  46.7028631  94.2422674  57.4955908  45.9361026  93.6881160  57.6412590
  47.1139336  94.3144542  58.3570059  38.7070392 100.5307469  71.5861089
  39.5701853 100.1744274  71.7964414  38.1335802 100.1921364  72.2736493
  58.5518769 122.1609326  62.3923490  59.1897179 122.0416073  61.6886830
  58.4339612 123.1090170  62.4511442  55.3608475 122.1136754  62.3285015
  55.0226986 121.9977819  61.4405550  56.2298243 121.7127919  62.3086021
  55.8428258 123.2671606  68.2871220  55.8316899 122.8724404  67.4151724
  56.0048897 122.5337678  68.8804992  53.0616754 120.8825001  51.6601955
  53.3142275 120.3606523  50.8985418  52.1241313 120.7191147  51.7628639
  58.1060037 119.8860780  59.4676698  58.8923126 119.4680203  59.1167115
  58.3698741 120.7906872  59.6358347  63.5068464 119.8236013  60.3709677
  64.2393636 119.2535230  60.6047506  62.7507820 119.4357613  60.8116182
  55.1244584 122.2463254  57.5673019  54.7602791 121.7193875  58.2785941
  55.9811700 121.8561723  57.3939505  61.0293885 113.5357587  64.8304285
  60.6977209 114.4052998  64.6065500  60.4339498 113.2193871  65.5098316
  54.7650071 117.2753154  52.5634368  54.9324473 118.1433390  52.9304839
  54.5747240 117.4380436  51.6395657  60.9222548 118.2552673  61.9097635
  60.0139425 118.1868082  61.6156396  60.8710144 118.7324618  62.7379461
  54.7439292 119.7310812  53.5481034  54.6238917 120.1767862  54.3866515
  54.0491880 120.0796129  52.9894573  54.9963414 119.6742319  69.8532533
  54.2196748 120.2336239  69.8435397  55.6353977 120.1599102  70.3747403
  62.7884194 116.4569112  63.6875509  62.1458575 116.7501645  63.0415304
  62.2839123 116.3422032  64.4928706  60.4424358 120.2032285  54.3761369
  61.3542214 120.4359672  54.2009066  59.9334005 120.7869329  53.8136447
  55.0796196 119.5629519  65.3856218  55.9257391 119.9868933  65.5290867
  55.0194833 118.9063144  66.0794781  58.2295641 117.2233888  67.0437392
  57.9856573 117.9775948  66.5071667  58.5055572 117.6019235  67.8784639
  60.1834104 123.7672500  65.7214657  60.3950999 124.4104260  65.0449038
  60.1363852 122.9334817  65.2536587  57.7860333 116.3790321  62.6251229
  56.9244812 116.6771574  62.9167967  57.8122767 116.5960720  61.6932262
  53.5390788 121.0455664  55.8414600  54.2414832 121.4976707  56.3088527
  53.2071417 120.4039483  56.4694493  51.9871150 119.6367420  70.2165810
  51.3569810 120.3183701  70.4501206  51.8807238 119.5250502  69.2718948
  47.2816122 119.3039216  61.1431734  46.4915176 119.5596745  60.6671844
  47.7727370 120.1187554  61.2483774  49.2330868 119.6683796  58.1015210
  48.4362031 119.7802490  58.6198706  49.0056460 120.0070448  57.2356101
  69.3885925 122.9883204  60.2421986  68.6349633 122.4190602  60.0865991
  69.5233466 122.9545868  61.1892621  51.2651893 113.9388186  72.5791061
  50.8718838 113.3854385  73.2538705  52.0818033 114.2498765  72.9697578
  54.1819854 115.3546065  70.1711317  54.9229567 115.9553218  70.0915780
  54.4137776 114.6123703  69.6129360  58.1277016 111.3827168  64.4475599
  57.7841286 112.2728810  64.3714709  58.4955979 111.1928826  63.5845184
  58.0927299 121.3735779  52.9548034  57.5773923 122.1440384  53.1936421
  57.8204608 120.7000915  53.5781095  55.6774410 116.2185480  58.0133272
  54.8216007 115.8292330  57.8338911  56.0901362 116.2977441  57.1533058
  57.2073557 113.7531823  62.4124832  56.7038352 113.7161958  61.5992637
  57.5004164 114.6624566  62.4721489  53.4516443 113.8370553  61.4191014
  54.3169440 113.6413362  61.0596903  53.5193952 113.6080905  62.3460371
  63.0661573 124.1268134  54.8901207  62.2891016 123.7879293  54.4456370
  63.7453054 124.1320757  54.2156173  57.8813602 119.2462871  54.7807815
  57.5763738 119.5609021  55.6317958  58.8344044 119.3244291  54.8235148
  61.3052880 123.6002115  61.5467815  60.6476555 124.2901377  61.6347944
  62.1093279 123.9898547  61.8901802  51.0578762 116.0672761  58.7907381
  51.6322514 115.8447942  58.0580574  51.6449744 116.1361455  59.5435982
  60.1158339 121.9546488  59.5971757  60.6290221 122.5876480  60.0993467
  60.7659563 121.3547683  59.2315117  51.3848349 118.0977222  52.8103266
  50.5485661 118.4351909  53.1312541  51.2453119 117.9626202  51.8730403
  53.3601430 112.9414010  57.5182450  52.7065842 112.6263027  56.8939065
  53.3181904 112.3189750  58.2442273  56.5939170 119.4295943  61.8430098
  55.6761731 119.6510890  61.6851786  57.0099314 119.5042254  60.9841805
  57.3774218 120.8287359  56.9732778  58.1246037 121.3408756  56.6639900
  57.6465807 120.5071412  57.8337172  59.8253055 117.8644475  58.9551567
  59.0875812 117.3521862  59.2861810  60.0779828 117.4244857  58.1434844
  59.9264682 110.6420727  59.5493337  60.2323559 109.7818091  59.2619252
  60.6517287 111.2338348  59.3492330  54.1985762 120.9374520  60.0569528
  54.2534372 119.9848357  59.9812004  53.3876964 121.0933960  60.5410826
  52.1378122 119.5551580  57.8159907  51.3245987 119.8545751  58.2225099
  52.6337116 119.1607269  58.5334389  57.7352333 120.0193405  66.6474800
  58.0901721 120.2464878  67.5069266  58.3824465 120.3511781  66.0252056
  63.4650070 123.1411841  57.3524129  63.3267969 123.3313437  56.4245319
  63.1086289 123.9031223  57.8092181  51.6292197 117.1269936  63.4321141
  52.2691576 116.9858695  62.7344105  50.7969727 116.8404449  63.0559743
  63.4919450 125.2088368  62.3635401  63.9255957 125.1163657  63.2118455
  64.2051031 125.1845868  61.7255417  48.7135264 120.5715448  55.6215887
  47.7832852 120.5099903  55.8385849  48.8092736 120.0491401  54.8252528
  48.6320813 117.0970261  58.2094128  48.8927630 118.0115594  58.1003289
  49.4537985 116.6294703  58.3590741  50.1045738 118.5108018  65.3792953
  50.7768792 118.3025380  64.7305602  49.2775525 118.3130104  64.9398185
  64.3535000 125.2512068  64.8968286  64.5470890 126.1557879  65.1427561
  64.2535618 124.7919487  65.7306871  56.0071310 115.1369959  67.3958614
  55.3599225 115.8359908  67.3023090  56.7772326 115.5706103  67.7634862
  56.1835445 122.9750724  65.4555433  57.1127505 123.1261883  65.2824401
  55.7626475 123.0634744  64.6004080  59.4688183 123.7239025  50.8879868
  58.8517354 122.9985853  50.7912921  59.0004672 124.4848385  50.5446943
  53.1355536 121.4970580  65.6279070  53.8455155 120.8563772  65.5865688
  53.0924844 121.7483475  66.5505250  51.8484470 118.4835798  67.4474709
  51.3121827 118.0326536  68.0996305  51.2601179 118.6181707  66.7045173
  51.2586729 117.9424449  50.0101173  50.3816195 117.8213250  49.6463419
  51.7344482 117.1510528  49.7580061  47.5823591 117.6191806  64.5327704
  47.4981780 117.0117475  63.7978114  46.7606298 118.1100824  64.5337200
  57.7547305 116.1045369  59.8997899  58.2516005 115.3515332  59.5798969
  56.9834287 116.1409686  59.3341108  65.6077063 121.8085735  61.5416190
  65.5966939 122.6910450  61.1710123  64.7394442 121.4557286  61.3470727
  54.3382274 118.2462752  59.6269583  53.9680062 117.6933793  60.3150489
  54.8341367 117.6420886  59.0744583  62.2249637 120.7034376  58.0086356
  62.6910090 121.5362367  57.9346659  62.6757138 120.2379357  58.7131615
  60.1966300 113.0714963  62.0477257  59.2829380 113.3019190  62.2159464
  60.6259402 113.1553407  62.8991290  59.9672759 121.2604855  64.5477152
  59.3144209 121.5080762  63.8929604  60.3453138 120.4468993  64.2139629
  56.0160332 122.0024666  71.0343189  55.3400969 121.9018795  71.7045564
  56.8387965 121.8463880  71.4979186  49.7347608 115.6566743  65.8722689
  49.7988934 116.5181574  65.4600087  49.6714728 115.0440745  65.1395048
  49.2099880 117.7289876  69.5195724  49.8371919 117.3466953  70.1333248
  48.3527799 117.5104078  69.8851416  45.9865423 119.5366305  55.4514078
  46.2818864 118.6276983  55.3981132  45.0853459 119.5154044  55.1295081
  49.5159670 117.6122301  61.4341627  48.7946256 118.2258269  61.2949100
  50.3052926 118.1480066  61.3558273  52.3185984 114.9476728  67.7082279
  52.8420385 115.1939024  68.4708588  52.0998317 115.7796763  67.2885416
  47.7153265 117.2180402  55.5753404  47.3865971 116.3377781  55.3928509
  48.0692635 117.1628071  56.4629793  50.8295088 117.5053372  55.9428881
  51.1691160 118.0339293  55.2207490  51.2767208 117.8433778  56.7187448
  53.5238529 115.8890423  65.3931949  53.1835349 115.0898236  65.7952629
  52.8177535 116.1892134  64.8208782  54.1755000 112.9739735  63.8459272
  54.9981070 112.5000213  63.7238163  54.4193064 113.7530219  64.3457959
  52.8163235 116.0027994  54.1422174  53.5371597 116.3809247  53.6385891
  52.1928539 116.7216871  54.2457152  56.9594358 116.7073143  55.0780506
  57.1757972 117.5897781  54.7769334  56.4788425 116.3159356  54.3486148
  51.6993579 119.6658856  61.6551251  51.5538160 119.9799159  62.5475532
  51.2218783 120.2843756  61.1022150  53.5589962 116.6561404  61.7032140
  53.5451531 115.7602497  61.3664438  54.2762390 116.6632068  62.3370427
  55.4116093 117.0898744  63.7485268  55.1533871 118.0115815  63.7469598
  54.8801133 116.6929179  64.4385732  52.9626858 115.5375784  56.9719711
  53.0842769 114.6092430  57.1710598  52.6728900 115.5514470  56.0598026
  55.8318048 113.2230695  60.1086430  55.8539745 113.2870028  59.1538410
  56.2486107 112.3835203  60.3026937  66.2101673 122.9585954  58.1465653
  66.6532819 122.2093279  57.7484776  65.3328183 122.9496091  57.7639385
  52.4467937 117.0507782  71.1809643  52.4956093 117.9269904  70.7987413
  52.9890452 116.5085175  70.6081286  63.0520658 124.4441371  67.7743509
  63.1018663 124.2791379  68.7159032  62.9434582 123.5768630  67.3841390
  60.3424421 120.4272299  69.0902816  61.2434283 120.2878764  68.7986813
  60.4172395 120.5926754  70.0300993  54.6767226 117.8039154  67.9356002
  53.8070535 118.0972720  67.6638590  54.9126706 118.3879599  68.6563265
  65.7534537 124.4291192  60.5388101  66.5881429 124.8680997  60.7025661
  65.8893666 123.9529846  59.7196346  62.8026043 121.9870927  66.4865588
  63.2780165 122.1798574  65.6784440  61.8791609 122.0430113  66.2408972
  57.3806260 114.0218771  65.4521422  57.8988204 114.7579798  65.1267911
  57.0261393 114.3282764  66.2868181  48.9605197 118.8823452  53.5682828
  48.2674442 118.9567807  52.9122864  48.7156949 118.1183796  54.0904345
  57.6318854 110.4419053  60.9722319  57.9120608 109.7742242  61.5982745
  58.4169461 110.6348149  60.4596983  61.5027712 118.8636687  64.7193894
  62.4545135 118.9634785  64.7406118  61.3331163 118.0714956  65.2291978
  59.5242092 115.9492271  64.9053295  58.9292024 116.2297283  64.2099784
  59.2391788 116.4386172  65.6770036  63.9815790 122.0842807  63.8336194
  63.9492110 121.1458808  64.0195877  64.5916414 122.1626844  63.1002018
  55.8199121 120.9538860  49.8763398  56.7658226 120.8245068  49.9451816
  55.4413366 120.2153522  50.3532826  64.1310279 118.8753851  63.8794477
  63.6149327 118.0912307  63.6924406  65.0150227 118.5472567  64.0440996
  61.7921005 112.6194866  59.8390289  61.5945827 112.3109954  60.7233621
  62.4020711 113.3456505  59.9688219  69.7992340 123.1458814  62.9742230
  70.5295728 122.8844102  63.5349934  69.1899285 122.4087536  63.0144298
  67.8807637 121.2866677  63.5716682  67.1540801 121.1522641  62.9633173
  67.4654924 121.5943505  64.3773400  54.0042038 118.8788836  49.8118283
  53.0973493 118.5821949  49.8880996  54.2818019 118.5818655  48.9452569
  55.6204104 113.4225726  55.9662524  54.8104832 113.0772811  56.3417770
  56.3088521 113.1133270  56.5550136  57.5494652 112.5003773  57.5886821
  58.1025691 112.9199226  58.2476844  57.7864738 111.5739521  57.6309777
  53.5727751 118.4890847  73.3689585  53.4724478 119.4385204  73.3001676
  53.3549293 118.1609086  72.4965655  52.7740823 115.7375772  49.9530262
  53.6359987 116.0630670  50.2126079  52.9591167 114.9507268  49.4403328
  60.9273459 114.6104298  57.0965485  60.3472128 115.2689102  56.7143537
  60.6609392 113.7881643  56.6852903  59.3777026 114.0109356  59.2986805
  59.8776804 114.1225890  58.4901124  60.0212633 113.7070409  59.9387614
  59.7098337 116.7704389  56.1521833  58.8224192 117.0554039  55.9342028
  60.1252326 116.6098152  55.3049110  63.0612873 116.7950910  59.8676173
  63.8373263 117.2847362  60.1400789  62.3361008 117.2208964  60.3248042
  65.4985432 117.5078529  60.9250113  66.0929923 117.2674265  60.2143421
  65.5712016 116.7885659  61.5523649  59.6839361 122.2858924  56.3672123
  59.6274562 122.7427476  55.5279756  60.2367703 121.5249609  56.1894966
  63.4944167 118.0748656  57.1922243  63.2381101 117.6745292  58.0230451
  62.8697035 118.7892450  57.0672382  67.8056505 120.8144730  59.6993534
  67.2456063 120.8837919  60.4725096  67.2000008 120.6385714  58.9793031
  60.4174140 123.4763706  53.6624653  60.3622944 123.3107977  52.7213097
  59.7920196 124.1839739  53.8186842  45.2066655 118.7131770  67.4886075
  45.8525519 118.2030724  67.9773300  44.9983806 119.4500452  68.0629500
  53.7270266 112.9771815  53.2409971  53.7148936 113.9213655  53.3978242
  54.6193688 112.7941960  52.9469432  57.5422385 109.5714591  57.4955908
  56.7754781 109.0173078  57.6412590  57.9533090 109.6436460  58.3570059
  49.5464146 115.8599387  71.5861089  50.4095608 115.5036192  71.7964414
  48.9729557 115.5213282  72.2736493  68.9670771 126.7119086  64.4475599
  68.6235040 127.6020728  64.3714709  69.3349734 126.5220743  63.5845184
  70.7658437 125.9712645  59.5493337  71.0717313 125.1110008  59.2619252
  71.4911041 126.5630265  59.3492330  68.4712608 125.7710971  60.9722319
  68.7514362 125.1034160  61.5982745  69.2563215 125.9640067  60.4596983
  72.6314760 127.9486784  59.8390289  72.4339581 127.6401872  60.7233621
  73.2414466 128.6748423  59.9688219  68.3816140 124.9006509  57.4955908
  67.6148535 124.3464996  57.6412590  68.7926845 124.9728378  58.3570059
   4.3549997  22.5211860  49.1168797   4.9928407  22.4018607  48.4132137
   4.2370840  23.4692704  49.1756749   1.1639704  22.4739288  49.0530321
   0.8258215  22.3580353  48.1650856   2.0329472  22.0730453  49.0331328
   1.6459487  23.6274140  55.0116527   1.6348128  23.2326938  54.1397031
   1.8080126  22.8940212  55.6050298   2.6026078  27.9945732  40.3541677
   1.9514058  28.5799813  39.9675691   3.3970441  28.5251927  40.4136715
   3.9091266  20.2463314  46.1922005   4.6954355  19.8282737  45.8412422
   4.1729970  21.1509406  46.3603653   4.0801343  25.6836164  40.8910662
   3.4447176  25.7570791  41.6031566   3.7498750  26.2729763  40.2129741
   9.3099693  20.1838547  47.0954983  10.0424865  19.6137764  47.3292813
   8.5539049  19.7960148  47.5361489   0.9275813  22.6065789  44.2918326
   0.5634020  22.0796410  45.0031247   1.7842929  22.2164258  44.1184811
   3.3256633  26.0972667  50.9545505   3.0257356  26.9997706  50.8461312
   2.9807692  25.8304850  51.8066658   6.7253777  18.6155207  48.6342942
   5.8170654  18.5470616  48.3401703   6.6741373  19.0927152  49.4624767
   8.5915423  16.8171646  50.4120816   7.9489803  17.1104179  49.7660610
   8.0870352  16.7024566  51.2174013   6.2455587  20.5634819  41.1006675
   7.1573443  20.7962206  40.9254373   5.7365234  21.1471863  40.5381754
   4.5296354  24.9859447  54.7367968   4.9379711  24.5441857  53.9922600
   3.8073616  24.4112074  54.9902161   0.8827425  19.9232054  52.1101525
   1.7288620  20.3471467  52.2536174   0.8226062  19.2665678  52.8040088
   4.8525169  25.5460637  48.4920257   4.2234032  25.7106352  47.7896324
   4.4650831  25.9602247  49.2631221   8.7314401  26.4815075  45.8464620
   8.0465439  26.8613977  45.2961654   8.8158250  27.0910402  46.5796568
   4.0326870  17.5836422  53.7682698   3.7887802  18.3378482  53.2316974
   4.3086800  17.9621770  54.6029945   5.9865333  24.1275034  52.4459964
   6.1982228  24.7706794  51.7694345   5.9395081  23.2937351  51.9781894
   3.5891562  16.7392855  49.3496536   2.7276041  17.0374109  49.6413274
   3.6153996  16.9563254  48.4177569   7.1011161  27.0046990  50.6182321
   7.9228604  26.6027177  50.3365003   7.0973563  26.9015224  51.5698437
  15.1917154  23.3485738  46.9667293  14.4380862  22.7793136  46.8111297
  15.3264695  23.3148403  47.9137927   0.5815782  28.2199141  42.6422012
   0.4461456  29.0650676  43.0706860   1.1225594  28.4218418  41.8787946
   2.2084258  28.8422707  56.7722354   1.7648112  28.0559086  56.4543259
   2.8701472  29.0301858  56.1066245   4.3065496  29.1225507  54.8003755
   4.2883971  29.9434388  54.3084025   5.2285416  28.9979582  55.0253897
   3.8958528  21.7338313  39.6793341   3.3805151  22.5042918  39.9181728
   3.6235836  21.0603450  40.3026402   8.8692802  24.4870668  41.6146514
   8.0922245  24.1481828  41.1701676   9.5484283  24.4923291  40.9401479
   3.6844831  19.6065406  41.5053122   3.3794967  19.9211555  42.3563265
   4.6375273  19.6846825  41.5480455   2.1291263  25.7655629  43.1546076
   1.6012625  25.0308388  42.8419313   1.6278766  26.5430305  42.9086044
   7.1084109  23.9604649  48.2713122   6.4507783  24.6503911  48.3593251
   7.9124508  24.3501081  48.6147108   5.9189568  22.3149022  46.3217064
   6.4321450  22.9479014  46.8238774   6.5690792  21.7150218  45.9560424
   3.1811942  32.2933346  39.0777735   2.5073641  32.5965043  39.6862693
   3.5677764  33.0962427  38.7283192   2.3970399  19.7898478  48.5675404
   1.4792960  20.0113425  48.4097092   2.8130542  19.8644788  47.7087112
   3.1805446  21.1889893  43.6978085   3.9277265  21.7011291  43.3885207
   3.4497036  20.8673946  44.5582478   1.4532097  23.6848434  40.6805039
   0.5443316  23.4007467  40.7777509   1.4827180  24.1047513  39.8208346
   6.6851364  27.2955024  44.4496206   6.2313691  26.4545933  44.5061397
   6.0545331  27.9316422  44.7870987   5.6284284  18.2247010  45.6796874
   4.8907040  17.7124396  46.0107117   5.8811057  17.7847391  44.8680151
   5.1284303  29.1331520  45.3846025   5.4207278  29.6936577  44.6658390
   5.6382924  29.4260081  46.1399184   1.1508184  25.2257178  38.0193118
   0.7127614  24.5093037  37.5598755   1.8918625  25.4533293  37.4578209
   3.5383562  20.3795939  53.3720107   3.8932950  20.6067412  54.2314573
   4.1855693  20.7114316  52.7497362   9.2681299  23.5014375  44.0769436
   9.1299198  23.6915971  43.1490625   8.9117518  24.2633758  44.5337487
   9.2950679  25.5690902  49.0880708   9.7287185  25.4766191  49.9363762
  10.0082260  25.5448402  48.4500724   3.0278574  29.1692996  50.6213808
   3.0815596  29.7383932  51.3891524   2.1593355  29.3394881  50.2567845
  10.1566228  25.6114602  51.6213593  10.3502118  26.5160413  51.8672868
  10.0566847  25.1522021  52.4552178   5.2181337  25.7621345  57.1954474
   5.0666843  25.5331897  56.2784557   5.2086017  26.7191947  57.2085819
   1.9866673  23.3353258  52.1800740   2.9158733  23.4864418  52.0069707
   1.5657703  23.4237279  51.3249387   1.3803157  32.4613019  41.2924814
   1.5554913  31.9901062  42.1070437   0.6935945  33.0878785  41.5206075
   2.3360220  26.7385525  47.3388115   2.0010053  26.6986295  48.2345765
   1.8364166  26.0730241  46.8658526   5.2719412  24.0841559  37.6125175
   4.6548583  23.3588388  37.5158228   4.8035900  24.8450920  37.2692249
   6.9273544  28.7940468  55.2730955   6.8686090  28.1099688  54.6061538
   7.3293062  29.5359458  54.8211581   6.9290951  26.7580052  53.5044935
   6.0417730  26.4205973  53.6271334   7.4989502  26.0263083  53.7413701
   3.5578534  16.4647903  46.6243205   4.0547234  15.7117866  46.3044276
   2.7865516  16.5012220  46.0586415  11.4108292  22.1688269  48.2661497
  11.3998168  23.0512984  47.8955430  10.5425671  21.8159820  48.0716034
   2.9190788  31.3168338  52.6264337   3.6318760  31.9515803  52.5540238
   2.4280817  31.4132204  51.8104339   4.6408315  25.2219591  44.1981629
   3.7064594  25.3421053  44.0286333   4.8184983  24.3192057  43.9341639
   8.0280866  21.0636910  44.7331663   8.4941318  21.8964902  44.6591965
   8.4788367  20.5981892  45.4376921   6.0957097  27.4080731  41.7317815
   6.3716941  27.2937326  42.6411689   5.2261596  27.0098216  41.6929988
   5.7703987  21.6207389  51.2722458   5.1175438  21.8683296  50.6174911
   6.1484367  20.8071527  50.9384935   2.7311161  31.6567082  45.3750628
   2.9133556  30.8388738  45.8378381   3.5544147  31.8734774  44.9375518
   3.0653327  30.5835267  42.6365677   3.5941093  30.0727722  42.0235839
   3.3281546  30.2677797  43.5011210   1.8191560  22.3627200  57.7588495
   1.1432197  22.2621329  58.4290870   2.6419194  22.2066414  58.2224492
   0.5614343  33.6694127  51.9946111   1.1132651  33.8325749  52.7595196
   0.9020537  34.2598565  51.3226136   5.4125218  28.4955385  57.8494766
   5.9565122  29.1085343  57.3549720   4.8312062  29.0534963  58.3661779
   3.6982731  31.6176103  48.9809793   3.5733870  30.8165843  48.4720739
   4.3561822  32.1122296  48.4923763   5.7617639  29.4185123  50.6089343
   4.8147974  29.2990474  50.5367670   6.1100412  28.5307621  50.6915605
   2.7664072  29.2137839  46.8093696   2.6189035  28.2854547  46.9901266
   3.5917566  29.2357930  46.3250771   6.3698194  30.0366398  47.8958568
   7.2944742  29.8309259  47.7583020   6.2013497  29.7882799  48.8047910
   6.1593510  30.5552065  43.2520660   6.3330388  29.9898488  42.4994512
   6.6522402  31.3552960  43.0700150  12.0132901  23.3188488  44.8710960
  12.4564047  22.5695814  44.4730083  11.1359412  23.3098625  44.4884692
   7.1468683  29.8718830  40.3517558   7.8419587  30.4925523  40.5704873
   7.4891833  29.0214181  40.6269936   9.0460106  27.3218535  41.8804889
   9.5711430  27.6605808  41.1554209   8.9582458  26.3865551  41.6968024
   0.7080155  31.2352609  54.0094766   1.0167281  30.9901756  54.8817465
   1.5055637  31.4399247  53.5213636   8.7354012  27.9551439  57.1856087
   7.9449556  27.9375578  56.6460586   8.4987367  28.4939733  57.9405124
   8.8551887  24.8043905  54.4988815   8.9049892  24.6393913  55.4404338
   8.7465810  23.9371164  54.1086696   6.1455649  20.7874833  55.8148122
   7.0465512  20.6481298  55.5232120   6.2203624  20.9529288  56.7546300
  10.3570084  27.2240847  54.7430837  10.0654892  27.5870827  55.5794298
   9.7442215  26.5107855  54.5644169  11.5565766  24.7893727  47.2633407
  12.3912658  25.2283531  47.4270968  11.6924895  24.3132380  46.4441653
   8.6057272  22.3473462  53.2110895   9.0811394  22.5401108  52.4029746
   7.6822837  22.4032647  52.9654279   1.2383551  29.9780582  39.2592652
   0.6657518  30.5970769  38.8063124   1.8116345  30.5279943  39.7932574
   7.3058941  19.2239222  51.4439201   8.2576364  19.3237319  51.4651425
   7.1362392  18.4317490  51.9537285   5.3273321  16.3094805  51.6298602
   4.7323253  16.5899818  50.9345090   5.0423017  16.7988706  52.4015343
   4.4580811  30.2617732  40.3901234   5.3911484  30.1963293  40.5934110
   4.3704024  31.0973999  39.9315767   7.0868828  29.5783602  37.3505182
   7.0082459  29.2443466  38.2440940   7.9078494  30.0705370  37.3496654
   9.7847019  22.4445341  50.5581500   9.7523339  21.5061342  50.7441184
  10.3947643  22.5229378  49.8247325   1.6230350  21.3141394  36.6008704
   2.5689454  21.1847602  36.6697122   1.2444595  20.5756056  37.0778132
   9.9341507  19.2356385  50.6039783   9.4180556  18.4514841  50.4169712
  10.8181456  18.9075101  50.7686303  15.6023569  23.5061348  49.6987537
  16.3326957  23.2446636  50.2595240  14.9930514  22.7690070  49.7389605
  13.6838866  21.6469211  50.2961988  12.9572029  21.5125176  49.6878480
  13.2686153  21.9546039  51.1018706   1.5069042  25.3659140  58.0609361
   2.4272052  25.5437739  58.2549408   1.4718625  24.4215186  57.9089061
   6.7304688  14.9706832  43.8210792   6.1503357  15.6291636  43.4388844
   6.4640621  14.1484177  43.4098209   5.5129566  17.1306923  42.8767140
   4.6255421  17.4156573  42.6587335   5.9283555  16.9700686  42.0294417
   8.8644102  17.1553444  46.5921479   9.6404492  17.6449896  46.8646096
   8.1392236  17.5811498  47.0493349  11.3016661  17.8681063  47.6495420
  11.8961152  17.6276799  46.9388728  11.3743244  17.1488194  48.2768956
   4.6572779  26.8951597  36.9715160   5.3608630  27.1001600  37.5872816
   3.9335428  27.4628359  37.2364243   5.4870590  22.6461459  43.0917430
   5.4305791  23.1030010  42.2525063   6.0398932  21.8852143  42.9140273
   9.2975396  18.4351191  43.9167550   9.0412330  18.0347826  44.7475757
   8.6728264  19.1494984  43.7917689  13.6087734  21.1747264  46.4238841
  13.0487291  21.2440453  47.1970403  13.0031237  20.9988248  45.7038337
   6.5659477  27.3334127  39.0213620   7.4005081  26.9015325  38.8391095
   6.4043820  27.1616140  39.9490514   6.2205369  23.8366240  40.3869959
   6.1654173  23.6710511  39.4458403   5.5951424  24.5442273  40.5432149
   3.5351276  26.1415152  59.7123522   4.4042436  26.3155804  59.3510157
   3.0558028  26.9609569  59.5899251  15.1943752  37.8503778  49.1168797
  15.8322162  37.7310525  48.4132137  15.0764595  38.7984622  49.1756749
  12.0033458  37.8031206  49.0530321  11.6651970  37.6872271  48.1650856
  12.8723226  37.4022371  49.0331328   7.8620274  39.6566682  45.0427212
   7.2985139  39.5656619  44.2743500   7.7472669  38.8366587  45.5229705
  12.4853241  38.9566058  55.0116527  12.4741882  38.5618856  54.1397031
  12.6473881  38.2232130  55.6050298   5.4084706  41.1517874  47.8811433
   6.2005998  40.8108698  47.4657732   5.6481356  41.2612849  48.8013586
  13.4419833  43.3237650  40.3541677  12.7907812  43.9091730  39.9675691
  14.2364195  43.8543845  40.4136715   7.3675460  40.4126787  40.7528812
   8.1406336  39.8655774  40.6141687   7.7200859  41.2771036  40.9643273
   9.2060502  41.7403169  53.9595711   8.9150368  42.6448800  53.8442377
   9.8417487  41.7819697  54.6739781  10.1316709  39.1180018  50.5497071
  10.7280281  38.8936040  49.8354034  10.1891681  38.3764763  51.1522518
   9.7041738  36.5719453  38.3847262   9.9567258  36.0500974  37.6230725
   8.7666297  36.4085599  38.4873945  14.7485020  35.5755232  46.1922005
  15.5348110  35.1574655  45.8412422  15.0123725  36.4801324  46.3603653
  14.9195098  41.0128082  40.8910662  14.2840931  41.0862708  41.6031566
  14.5892504  41.6021681  40.2129741  20.1493448  35.5130465  47.0954983
  20.8818620  34.9429682  47.3292813  19.3932803  35.1252065  47.5361489
   9.4238026  38.4747559  40.5871637   9.3074284  37.7992463  41.2552721
   9.5340286  37.9879933  39.7703790  11.7669567  37.9357706  44.2918326
  11.4027775  37.4088327  45.0031247  12.6236683  37.5456175  44.1184811
  17.6718868  29.2252039  51.5549592  17.3402193  30.0947450  51.3310807
  17.0764481  28.9088323  52.2343622  11.4075054  32.9647606  39.2879674
  11.5749457  33.8327842  39.6550145  11.2172223  33.1274888  38.3640964
  14.1650387  41.4264585  50.9545505  13.8651111  42.3289624  50.8461312
  13.8201447  41.1596768  51.8066658   7.6162869  37.8778382  46.9882209
   6.6913365  37.7454596  47.1959901   7.8647282  38.6572601  47.4852151
  17.5647531  33.9447125  48.6342942  16.6564409  33.8762533  48.3401703
  17.5135127  34.4219070  49.4624767  11.3864275  35.4205263  40.2726341
  11.2663900  35.8662314  41.1111821  10.6916864  35.7690581  39.7139879
   4.9771680  37.5211655  47.8225998   5.1064061  37.7746134  48.7365410
   4.2969131  38.1139363  47.5030653   9.1471167  48.1908905  43.9216472
   9.0695197  49.1416730  44.0004953   8.5432811  47.8454778  44.5791399
  11.6388397  35.3636771  56.5777839  10.8621731  35.9230691  56.5680704
  12.2778960  35.8493554  57.0992709  19.4309178  32.1463563  50.4120816
  18.7883558  32.4396097  49.7660610  18.9264106  32.0316484  51.2174013
  17.0849341  35.8926737  41.1006675  17.9967197  36.1254123  40.9254373
  16.5758988  36.4763781  40.5381754   9.8934769  38.1722224  56.1395806
  10.6349454  38.7107268  55.8630630   9.1871755  38.7988513  56.2967358
  15.3690109  40.3151364  54.7367968  15.7773465  39.8733775  53.9922600
  14.6467370  39.7403992  54.9902161  11.7221179  35.2523971  52.1101525
  12.5682374  35.6763385  52.2536174  11.6619817  34.5957596  52.8040088
  15.6918924  40.8752555  48.4920257  15.0627786  41.0398269  47.7896324
  15.3044586  41.2894165  49.2631221  19.5708156  41.8106993  45.8464620
  18.8859194  42.1905894  45.2961654  19.6552005  42.4202320  46.5796568
  14.8720624  32.9128340  53.7682698  14.6281556  33.6670400  53.2316974
  15.1480555  33.2913687  54.6029945  16.8259087  39.4566952  52.4459964
  17.0375982  40.0998712  51.7694345  16.7788835  38.6229269  51.9781894
  14.4285316  32.0684773  49.3496536  13.5669795  32.3666026  49.6413274
  14.4547751  32.2855172  48.4177569  11.2446886  40.6126963  45.7570342
  11.7085231  40.8914666  44.9674964  10.9803684  39.7110408  45.5743432
   8.1370967  40.1598445  48.6950105   8.7072324  40.5885713  48.0567589
   8.7279078  39.8781029  49.3934291  10.1815772  36.7350116  42.5659907
  10.8839815  37.1871159  43.0333833   9.8496400  36.0933934  43.1939800
   8.6296133  35.3261872  56.9411116   7.9994794  36.0078153  57.1746513
   8.5232221  35.2144954  55.9964254   3.9241106  34.9933668  47.8677040
   3.1340160  35.2491197  47.3917151   4.4152353  35.8082006  47.9729081
  17.9404915  42.3338907  50.6182321  18.7622359  41.9319095  50.3365003
  17.9367318  42.2307142  51.5698437   5.8755851  35.3578247  44.8260517
   5.0787014  35.4696942  45.3444013   5.6481443  35.6964900  43.9601408
  11.7061519  41.8822951  52.7743032  11.7705951  42.3443358  53.6101204
  10.9972442  41.2520316  52.9025342   2.2078809  35.2464159  50.2992031
   2.4586847  36.1311169  50.5649607   2.7438357  35.0668760  49.5267123
  26.0310908  38.6777656  46.9667293  25.2774617  38.1085054  46.8111297
  26.1658449  38.6440320  47.9137927  11.4209536  43.5491058  42.6422012
  11.2855211  44.3942594  43.0706860  11.9619349  43.7510336  41.8787946
   7.9076876  29.6282638  59.3036367   7.5143821  29.0748837  59.9784012
   8.7243016  29.9393217  59.6942885   4.8738934  41.0666496  43.2149937
   5.3863454  41.8609746  43.3655502   5.5261646  40.3692787  43.1483539
   6.6833818  44.1832253  45.2972690   6.8600447  45.1050217  45.1093674
   7.4790652  43.8690672  45.7267070  10.8244837  31.0440517  56.8956624
  11.5654550  31.6447670  56.8161086  11.0562760  30.3018155  56.3374666
   5.9686175  36.2296884  55.1734854   5.8539690  35.3282142  55.4741952
   5.1130693  36.4760581  54.8219670  13.0478013  44.1714625  56.7722354
  12.6041867  43.3851003  56.4543259  13.7095226  44.3593775  56.1066245
   7.8065134  45.7010426  51.2983033   8.3572559  45.5727490  50.5260027
   6.9676610  46.0005315  50.9477925  15.1459251  44.4517425  54.8003755
  15.1277726  45.2726306  54.3084025  16.0679171  44.3271500  55.0253897
  11.6032305  41.9661554  55.6427264  12.1360642  41.2049842  55.4126572
  11.0746386  41.6735206  56.3851418  14.7702000  27.0721620  51.1720906
  14.4266269  27.9623262  51.0960016  15.1380962  26.8823278  50.3090491
   2.8387850  39.3955151  43.9909508   3.6763072  39.8052159  43.7743215
   3.0166118  38.4554593  43.9609702  14.7352282  37.0630231  39.6793341
  14.2198906  37.8334836  39.9181728  14.4629591  36.3895367  40.3026402
  12.3199394  31.9079932  44.7378579  11.4640990  31.5186782  44.5584218
  12.7326345  31.9871893  43.8778365  13.8498540  29.4426275  49.1370139
  13.3463336  29.4056410  48.3237944  14.1429147  30.3519018  49.1966795
  10.0941426  29.5265005  48.1436321  10.9594423  29.3307814  47.7842210
  10.1618935  29.2975357  49.0705677  19.7086557  39.8162586  41.6146514
  18.9315999  39.4773745  41.1701676  20.3878038  39.8215209  40.9401479
  14.5238586  34.9357323  41.5053122  14.2188721  35.2503472  42.3563265
  15.4769028  35.0138743  41.5480455  12.9685017  41.0947547  43.1546076
  12.4406379  40.3600306  42.8419313  12.4672520  41.8722223  42.9086044
  17.9477864  39.2896567  48.2713122  17.2901538  39.9795828  48.3593251
  18.7518263  39.6792999  48.6147108   7.7003745  31.7567213  45.5152687
   8.2747497  31.5342394  44.7825880   8.2874728  31.8255907  46.2681289
  16.7583322  37.6440940  46.3217064  17.2715204  38.2770932  46.8238774
  17.4084546  37.0442135  45.9560424   8.0273332  33.7871674  39.5348573
   7.1910644  34.1246360  39.8557847   7.8878102  33.6520654  38.5975710
  10.0026413  28.6308462  44.2427757   9.3490825  28.3157479  43.6184372
   9.9606887  28.0084202  44.9687580  11.1137618  38.9127757  36.1581049
  10.2064679  38.6817010  36.3572198  11.6108650  38.1165376  36.3455030
  14.0205697  47.6225264  39.0777735  13.3467395  47.9256961  39.6862693
  14.4071519  48.4254344  38.7283192  13.2364153  35.1190395  48.5675404
  12.3186715  35.3405342  48.4097092  13.6524297  35.1936706  47.7087112
  14.0199201  36.5181811  43.6978085  14.7671020  37.0303208  43.3885207
  14.2890790  36.1965864  44.5582478  12.2925851  39.0140352  40.6805039
  11.3837070  38.7299385  40.7777509  12.3220935  39.4339430  39.8208346
  17.5245119  42.6246941  44.4496206  17.0707446  41.7837851  44.5061397
  16.8939085  43.2608340  44.7870987  16.4678038  33.5538927  45.6796874
  15.7300795  33.0416313  46.0107117  16.7204812  33.1139309  44.8680151
  15.9678058  44.4623438  45.3846025  16.2601032  45.0228495  44.6658390
  16.4776678  44.7551999  46.1399184  16.5689665  26.3315179  46.2738643
  16.8748542  25.4712543  45.9864558  17.2942270  26.9232799  46.0737637
   2.8614021  36.7345866  44.6620241   2.6638421  36.1415227  43.9371308
   2.3060685  36.4298076  45.3796180  10.8410745  36.6268972  46.7814834
  10.8959355  35.6742809  46.7057311  10.0301947  36.7828411  47.2656133
  11.9901939  40.5549095  38.0193118  11.5521369  39.8384954  37.5598755
  12.7312380  40.7825210  37.4578209   8.7803105  35.2446032  44.5405213
   7.9670971  35.5440203  44.9470405   9.2762099  34.8501721  45.2579695
  10.9311683  45.2403789  46.4739478  10.8887862  45.4664635  45.5448010
  11.8474382  45.0067164  46.6225279  14.3777317  35.7087857  53.3720107
  14.7326704  35.9359330  54.2314573  15.0249448  36.0406233  52.7497362
  20.1075054  38.8306292  44.0769436  19.9692952  39.0207888  43.1490625
  19.7511273  39.5925675  44.5337487   8.2717180  32.8164388  50.1566448
   8.9116559  32.6753147  49.4589411   7.4394710  32.5298901  49.7805050
  20.1344433  40.8982819  49.0880708  20.5680940  40.8058109  49.9363762
  20.8476014  40.8740320  48.4500724   9.0477484  42.1166818  46.2701441
   9.8418082  41.6217138  46.0684016   8.3369176  41.5884681  45.9069146
  13.8672328  44.4984914  50.6213808  13.9209350  45.0675850  51.3891524
  12.9987110  44.6686799  50.2567845   5.3560247  36.2609900  42.3461193
   4.4257835  36.1994355  42.5631155   5.4517719  35.7385853  41.5497835
   5.2745796  32.7864713  44.9339435   5.5352614  33.7010046  44.8248595
   6.0962969  32.3189155  45.0836048   6.7470722  34.2002470  52.1038259
   7.4193775  33.9919832  51.4550908   5.9200508  34.0024556  51.6643492
  20.9959983  40.9406520  51.6213593  21.1895873  41.8452331  51.8672868
  20.8960601  40.4813939  52.4552178  12.6496294  30.8264411  54.1203920
  12.0024209  31.5254360  54.0268397  13.4197309  31.2600555  54.4880169
  16.0575092  41.0913263  57.1954474  15.9060598  40.8623815  56.2784557
  16.0479771  42.0483864  57.2085819  12.8260428  38.6645176  52.1800740
  13.7552488  38.8156335  52.0069707  12.4051458  38.7529196  51.3249387
  11.6248760  42.6895840  49.9499278  11.4859845  42.3214624  50.8225216
  10.8363356  43.2043479  49.7783235  12.2196912  47.7904936  41.2924814
  12.3948667  47.3192980  42.1070437  11.5329700  48.4170703  41.5206075
  13.1753975  42.0677443  47.3388115  12.8403807  42.0278213  48.2345765
  12.6757921  41.4022159  46.8658526   7.1498219  37.4745073  52.8640697
   7.0118017  36.7425312  53.4652236   8.0603142  37.3853973  52.5824884
  16.1113167  39.4133477  37.6125175  15.4942337  38.6880305  37.5158228
  15.6429655  40.1742837  37.2692249   9.7780520  37.1865032  52.3524376
  10.4880138  36.5458224  52.3110995   9.7349828  37.4377927  53.2750557
  17.7667298  44.1232385  55.2730955  17.7079844  43.4391606  54.6061538
  18.1686817  44.8651375  54.8211581   8.4909453  34.1730250  54.1720016
   7.9546811  33.7220988  54.8241612   7.9026162  34.3076159  53.4290480
   6.7857997  50.9394299  48.0664674   7.0254595  51.5712823  48.7443693
   5.9427193  50.5882339  48.3530034   7.9011712  33.6318901  36.7346479
   7.0241179  33.5107702  36.3708726   8.3769466  32.8404980  36.4825368
  17.7684705  42.0871969  53.5044935  16.8811484  41.7497891  53.6271334
  18.3383257  41.3555001  53.7413701   4.2248575  33.3086258  51.2573010
   4.1406763  32.7011927  50.5223420   3.4031281  33.7995276  51.2582507
  11.2985859  46.7473422  50.4706178  11.2256030  47.5528393  50.9825483
  10.8563252  46.9465387  49.6454200  11.0875638  45.9845192  43.9809000
  10.3043160  46.5266872  44.0747224  11.7868384  46.5019171  44.3803241
  14.3972289  31.7939821  46.6243205  14.8940988  31.0409783  46.3044276
  13.6259270  31.8304138  46.0586415  22.2502046  37.4980187  48.2661497
  22.2391922  38.3804902  47.8955430  21.3819425  37.1451738  48.0716034
  13.7584542  46.6460256  52.6264337  14.4712515  47.2807721  52.5540238
  13.2674571  46.7424122  51.8104339  15.4802069  40.5511508  44.1981629
  14.5458348  40.6712971  44.0286333  15.6578738  39.6483975  43.9341639
  10.9807257  33.9357204  46.3514890  10.6105045  33.3828245  47.0395795
  11.4766350  33.3315338  45.7989890  18.8674621  36.3928828  44.7331663
  19.3335073  37.2256819  44.6591965  19.3182121  35.9273809  45.4376921
   8.8096456  44.3954699  53.4469908   9.5105915  45.0291182  53.5999302
   8.3391571  44.7369431  52.6865547  16.9350852  42.7372649  41.7317815
  17.2110696  42.6229244  42.6411689  16.0655350  42.3390134  41.6929988
  16.8391283  28.7609415  48.7722564  15.9254363  28.9913641  48.9404771
  17.2684385  28.8447859  49.6236597  16.6097742  36.9499307  51.2722458
  15.9569192  37.1975214  50.6174911  16.9878122  36.1363445  50.9384935
  13.5704916  46.9859000  45.3750628  13.7527310  46.1680656  45.8378381
  14.3937902  47.2026692  44.9375518  13.9047081  45.9127185  42.6365677
  14.4334848  45.4019640  42.0235839  14.1675301  45.5969715  43.5011210
  12.6585315  37.6919118  57.7588495  11.9825952  37.5913247  58.4290870
  13.4812949  37.5358331  58.2224492   4.4064174  43.9291054  50.3801010
   4.9917611  43.1834742  50.5128915   4.2089012  44.2395011  51.2637674
   7.2602829  46.9642302  45.3963453   6.5913204  47.4488429  44.9127493
   7.1215699  47.2111522  46.3106831  11.4008098  48.9986045  51.9946111
  11.9526406  49.1617667  52.7595196  11.7414291  49.5890483  51.3226136
   6.3772591  31.3461195  52.5967996   6.4413917  32.2076026  52.1845394
   6.3139711  30.7335197  51.8640354   5.8524864  33.4184327  56.2441030
   6.4796902  33.0361405  56.8578555   4.9952782  33.1998529  56.6096723
  16.2518972  43.8247303  57.8494766  16.7958876  44.4377261  57.3549720
  15.6705817  44.3826881  58.3661779   2.6290406  35.2260757  42.1759385
   2.9243847  34.3171435  42.1226439   1.7278442  35.2048496  41.8540387
  14.5376485  46.9468021  48.9809793  14.4127625  46.1457760  48.4720739
  15.1955576  47.4414214  48.4923763   6.1584653  33.3016753  48.1586934
   5.4371239  33.9152721  48.0194407   6.9477909  33.8374518  48.0803580
  16.6011393  44.7477041  50.6089343  15.6541729  44.6282392  50.5367670
  16.9494167  43.8599539  50.6915605   8.9610967  30.6371180  54.4327585
   9.4845369  30.8833476  55.1953895   8.7423300  31.4691214  54.0130723
   4.3578248  32.9074854  42.2998710   4.0290954  32.0272233  42.1173816
   4.7117619  32.8522523  43.1875099  13.6057827  44.5429757  46.8093696
  13.4582789  43.6146464  46.9901266  14.4311320  44.5649848  46.3250771
   7.4720071  33.1947824  42.6674188   7.8116144  33.7233745  41.9452796
   7.9192191  33.5328230  43.4432754  17.2091949  45.3658316  47.8958568
  18.1338496  45.1601177  47.7583020  17.0407252  45.1174717  48.8047910
  10.1663512  31.5784875  52.1177256   9.8260332  30.7792688  52.5197936
   9.4602518  31.8786586  51.5454089  10.8179984  28.6634187  50.5704579
  11.6406053  28.1894665  50.4483469  11.0618047  29.4424671  51.0703265
   9.4588218  31.6922446  40.8667481  10.1796581  32.0703698  40.3631197
   8.8353522  32.4111322  40.9702459  13.6019341  32.3967595  41.8025813
  13.8182955  33.2792232  41.5014641  13.1213408  32.0053808  41.0731455
   8.3418562  35.3553308  48.3796558   8.1963143  35.6693611  49.2720839
   7.8643766  35.9738208  47.8267456  10.2014945  32.3455856  48.4277447
  10.1876514  31.4496949  48.0909745  10.9187373  32.3526520  49.0615733
  12.0541076  32.7793196  50.4730575  11.7958854  33.7010267  50.4714905
  11.5226116  32.3823631  51.1631039  16.9987265  45.8843983  43.2520660
  17.1724142  45.3190406  42.4994512  17.4916156  46.6844878  43.0700150
   2.8164225  37.8958652  51.3184219   2.2717693  38.6718460  51.4504493
   3.6943574  38.2429457  51.1603340   9.6051841  31.2270236  43.6965017
   9.7267752  30.2986882  43.8955905   9.3153884  31.2408922  42.7843333
  12.4743032  28.9125147  46.8331737  12.4964728  28.9764480  45.8783717
  12.8911091  28.0729655  47.0272243  22.8526656  38.6480406  44.8710960
  23.2957802  37.8987731  44.4730083  21.9753166  38.6390542  44.4884692
  17.9862437  45.2010748  40.3517558  18.6813342  45.8217440  40.5704873
  18.3285587  44.3506099  40.6269936   3.6030246  37.0228548  54.2114376
   2.8611982  37.1711184  54.7979006   3.2822991  37.2836814  53.3481125
  19.8853860  42.6510453  41.8804889  20.4105184  42.9897726  41.1554209
  19.7976213  41.7157468  41.6968024  11.5473909  46.5644527  54.0094766
  11.8561036  46.3193673  54.8817465  12.3449391  46.7691165  53.5213636
  11.5694521  48.7182436  46.2400142  11.1299511  48.2258815  46.9332999
  12.3202638  48.1755404  45.9992217   4.0486860  44.9093977  46.2424770
   4.8744880  44.6097749  45.8623414   3.6980912  44.1401600  46.6914559
   9.0168393  44.2620445  48.3122444   8.3948403  43.5991150  48.0124672
   9.6873260  44.2881577  47.6296092   2.2495465  42.8280304  47.2013704
   1.4127373  42.4002478  47.0197705   2.2219111  43.0212747  48.1384495
   9.0892921  32.7402233  57.9054950   9.1381076  33.6164356  57.5232719
   9.6315435  32.1979627  57.3326593  19.5747766  43.2843357  57.1856087
  18.7843310  43.2667496  56.6460586  19.3381121  43.8231650  57.9405124
  19.6945642  40.1335823  54.4988815  19.7443646  39.9685831  55.4404338
  19.5859565  39.2663082  54.1086696   8.5781900  42.8124369  41.7880904
   8.7270021  43.4959833  41.1347577   9.3848344  42.7929459  42.3030360
  16.9849404  36.1166751  55.8148122  17.8859267  35.9773216  55.5232120
  17.0597378  36.2821206  56.7546300  11.3192209  33.4933606  54.6601308
  10.4495519  33.7867172  54.3883897  11.5551690  34.0774051  55.3808572
  21.1963838  42.5532765  54.7430837  20.9048647  42.9162745  55.5794298
  20.5835970  41.8399773  54.5644169  22.3959521  40.1185644  47.2633407
  23.2306412  40.5575448  47.4270968  22.5318649  39.6424298  46.4441653
  19.4451027  37.6765379  53.2110895  19.9205148  37.8693026  52.4029746
  18.5216592  37.7324565  52.9654279   6.3334533  38.8389546  42.7941973
   6.0880575  37.9351876  42.9922183   6.5030448  38.8406697  41.8521451
  14.0231243  29.7113223  52.1766729  14.5413187  30.4474250  51.8513217
  13.6686376  30.0177216  53.0113488   5.6030181  34.5717904  40.2928135
   4.9099426  34.6462259  39.6368171   5.3581933  33.8078248  40.8149652
  14.2743837  26.1313505  47.6967625  14.5545591  25.4636694  48.3228052
  15.0594444  26.3242601  47.1842289  12.0777306  45.3072499  39.2592652
  11.5051273  45.9262686  38.8063124  12.6510099  45.8571861  39.7932574
  18.1452696  34.5531139  51.4439201  19.0970118  34.6529237  51.4651425
  17.9756146  33.7609408  51.9537285  16.1667075  31.6386723  51.6298602
  15.5717007  31.9191735  50.9345090  15.8816772  32.1280623  52.4015343
  15.2974566  45.5909649  40.3901234  16.2305239  45.5255211  40.5934110
  15.2097778  46.4265916  39.9315767  17.9262582  44.9075520  37.3505182
  17.8476214  44.5735383  38.2440940  18.7472249  45.3997288  37.3496654
  20.6240773  37.7737259  50.5581500  20.5917093  36.8353260  50.7441184
  21.2341397  37.8521296  49.8247325  12.4624104  36.6433312  36.6008704
  13.4083209  36.5139520  36.6697122  12.0838349  35.9047974  37.0778132
  20.7735262  34.5648302  50.6039783  20.2574310  33.7806759  50.4169712
  21.6575210  34.2367019  50.7686303  18.4345989  28.3089318  46.5635596
  18.2370810  28.0004406  47.4478928  19.0445694  29.0350957  46.6933526
  26.4417323  38.8353266  49.6987537  27.1720712  38.5738554  50.2595240
  25.8324269  38.0981988  49.7389605  24.5232620  36.9761128  50.2961988
  23.7965784  36.8417093  49.6878480  24.1079907  37.2837957  51.1018706
  12.3462797  40.6951058  58.0609361  13.2665806  40.8729657  58.2549408
  12.3112380  39.7507103  57.9089061  10.6467021  34.5683288  36.5363590
   9.7398477  34.2716401  36.6126303  10.9243002  34.2713106  35.6697876
   1.5644962  35.8889652  46.9862636   1.2447746  35.0354960  46.6937010
   1.0178390  36.1038230  47.7420603   5.3424869  38.6052093  50.7032142
   5.5610879  39.5369201  50.7220176   5.7550643  38.2460067  51.4886946
  12.2629087  29.1120178  42.6907831  11.4529815  28.7667263  43.0663077
  12.9513504  28.8027722  43.2795442  14.1919635  28.1898225  44.3132127
  14.7450674  28.6093678  44.9722151  14.4289722  27.2633973  44.3555083
  10.2152735  34.1785299  60.0934891  10.1149462  35.1279655  60.0246982
   9.9974277  33.8503537  59.2210961   9.4165806  31.4270224  36.6775569
  10.2784970  31.7525122  36.9371386   9.6016150  30.6401719  36.1648635
   1.4333222  39.5092563  48.9555757   0.7396693  39.0946516  48.4425712
   2.1806213  39.5513100  48.3589176  17.5698442  30.2998750  43.8210792
  16.9897112  30.9583554  43.4388844  17.3034375  29.4776095  43.4098209
  16.0202009  29.7003808  46.0232112  16.5201787  29.8120342  45.2146431
  16.6637617  29.3964861  46.6632920  10.0784005  37.6082437  58.9099953
   9.5951086  38.4082797  59.1163842  10.1644944  37.6190382  57.9567397
   3.3469964  39.4410817  46.8321772   3.3240652  39.5398504  45.8803655
   3.6570601  40.2875968  47.1538939   6.0057342  41.4986972  50.9468387
   6.9600596  41.4670914  50.8798318   5.8069866  41.0377596  51.7618613
   6.5956724  40.0688088  53.5139184   7.4149613  40.5632167  53.5374022
   6.8693532  39.1520056  53.4856752  16.3523320  32.4598840  42.8767140
  15.4649176  32.7448491  42.6587335  16.7677310  32.2992604  42.0294417
  19.7037857  32.4845361  46.5921479  20.4798247  32.9741814  46.8646096
  18.9785991  32.9103416  47.0493349  22.1410415  33.1972981  47.6495420
  22.7354906  32.9568717  46.9388728  22.2136999  32.4780111  48.2768956
   4.3607571  47.0406592  47.9638585   4.2262039  46.2806992  47.3976583
   3.9439633  47.7647491  47.4967374  15.4966534  42.2243515  36.9715160
  16.2002384  42.4293518  37.5872816  14.7729183  42.7920277  37.2364243
  16.3264344  37.9753376  43.0917430  16.2699546  38.4321928  42.2525063
  16.8792687  37.2144061  42.9140273  20.1369150  33.7643108  43.9167550
  19.8806084  33.3639744  44.7475757  19.5122018  34.4786902  43.7917689
  24.4481488  36.5039181  46.4238841  23.8881046  36.5732371  47.1970403
  23.8424991  36.3280166  45.7038337   7.5176697  47.9375909  48.1757027
   7.4009081  48.8821341  48.0735718   6.6969143  47.6349470  48.5642827
  17.4053231  42.6626044  39.0213620  18.2398835  42.2307243  38.8391095
  17.2437574  42.4908058  39.9490514  17.0599124  39.1658158  40.3869959
  17.0047927  39.0002429  39.4458403  16.4345179  39.8734191  40.5432149
   1.8491639  34.4026222  54.2131382   2.4950502  33.8925176  54.7018607
   1.6408790  35.1394904  54.7874807  14.3745031  41.4707069  59.7123522
  15.2436190  41.6447722  59.3510157  13.8951782  42.2901486  59.5899251
  10.3695249  28.6666267  39.9655278  10.3573919  29.6108107  40.1223549
  11.2618671  28.4836412  39.6714739   8.5431211  48.5904170  51.3912956
   9.4458458  48.6227781  51.7079451   8.3168581  47.6604621  51.4059292
  10.2984813  47.3435157  48.0523034   9.3480444  47.3437019  47.9387407
  10.6017299  46.5967892  47.5359069  14.1847368  25.2609043  44.2201215
  13.4179764  24.7067530  44.3657897  14.5958073  25.3330912  45.0815366
   6.1889130  31.5493839  58.3106396   7.0520591  31.1930644  58.5209720
   5.6154540  31.2107734  58.9981800  26.0337506  53.1795695  49.1168797
  26.6715916  53.0602443  48.4132137  25.9158349  54.1276539  49.1756749
  22.8427213  53.1323124  49.0530321  22.5045724  53.0164188  48.1650856
  23.7116981  52.7314289  49.0331328  18.7014028  54.9858600  45.0427212
  18.1378894  54.8948537  44.2743500  18.5866423  54.1658504  45.5229705
  23.3246996  54.2857975  55.0116527  23.3135637  53.8910774  54.1397031
  23.4867635  53.5524048  55.6050298  16.2478460  56.4809792  47.8811433
  17.0399752  56.1400616  47.4657732  16.4875111  56.5904767  48.8013586
  24.2813587  58.6529568  40.3541677  23.6301567  59.2383648  39.9675691
  25.0757950  59.1835763  40.4136715  18.2069214  55.7418705  40.7528812
  18.9800090  55.1947692  40.6141687  18.5594613  56.6062954  40.9643273
  20.0454257  57.0695087  53.9595711  19.7544123  57.9740718  53.8442377
  20.6811241  57.1111615  54.6739781  20.9710464  54.4471936  50.5497071
  21.5674036  54.2227958  49.8354034  21.0285435  53.7056681  51.1522518
  20.5435492  51.9011371  38.3847262  20.7961013  51.3792892  37.6230725
  19.6060051  51.7377516  38.4873945  25.5878775  50.9047149  46.1922005
  26.3741864  50.4866572  45.8412422  25.8517479  51.8093241  46.3603653
  25.7588852  56.3420000  40.8910662  25.1234685  56.4154626  41.6031566
  25.4286259  56.9313598  40.2129741  30.9887202  50.8422382  47.0954983
  31.7212374  50.2721599  47.3292813  30.2326558  50.4543983  47.5361489
  20.2631781  53.8039477  40.5871637  20.1468039  53.1284380  41.2552721
  20.3734041  53.3171851  39.7703790  22.6063322  53.2649624  44.2918326
  22.2421529  52.7380245  45.0031247  23.4630438  52.8748093  44.1184811
  28.5112622  44.5543957  51.5549592  28.1795947  45.4239368  51.3310807
  27.9158236  44.2380241  52.2343622  22.2468809  48.2939524  39.2879674
  22.4143211  49.1619760  39.6550145  22.0565978  48.4566805  38.3640964
  25.0044142  56.7556503  50.9545505  24.7044865  57.6581541  50.8461312
  24.6595201  56.4888686  51.8066658  18.4556623  53.2070299  46.9882209
  17.5307120  53.0746514  47.1959901  18.7041037  53.9864519  47.4852151
  28.4041286  49.2739043  48.6342942  27.4958163  49.2054451  48.3401703
  28.3528882  49.7510988  49.4624767  22.2258030  50.7497181  40.2726341
  22.1057655  51.1954232  41.1111821  21.5310618  51.0982499  39.7139879
  15.8165434  52.8503573  47.8225998  15.9457816  53.1038052  48.7365410
  15.1362886  53.4431281  47.5030653  19.9864922  63.5200823  43.9216472
  19.9088951  64.4708648  44.0004953  19.3826565  63.1746695  44.5791399
  22.4782152  50.6928688  56.5777839  21.7015486  51.2522608  56.5680704
  23.1172715  51.1785471  57.0992709  30.2702932  47.4755481  50.4120816
  29.6277312  47.7688014  49.7660610  29.7657861  47.3608401  51.2174013
  27.9243096  51.2218654  41.1006675  28.8360952  51.4546041  40.9254373
  27.4152743  51.8055699  40.5381754  20.7328524  53.5014142  56.1395806
  21.4743208  54.0399186  55.8630630  20.0265509  54.1280430  56.2967358
  26.2083863  55.6443282  54.7367968  26.6167220  55.2025693  53.9922600
  25.4861125  55.0695910  54.9902161  22.5614934  50.5815889  52.1101525
  23.4076129  51.0055302  52.2536174  22.5013571  49.9249513  52.8040088
  26.5312678  56.2044473  48.4920257  25.9021541  56.3690187  47.7896324
  26.1438340  56.6186082  49.2631221  25.7114379  48.2420257  53.7682698
  25.4675311  48.9962318  53.2316974  25.9874309  48.6205605  54.6029945
  27.6652842  54.7858870  52.4459964  27.8769737  55.4290630  51.7694345
  27.6182590  53.9521186  51.9781894  25.2679071  47.3976690  49.3496536
  24.4063550  47.6957944  49.6413274  25.2941505  47.6147089  48.4177569
  22.0840640  55.9418881  45.7570342  22.5478986  56.2206584  44.9674964
  21.8197438  55.0402325  45.5743432  18.9764721  55.4890362  48.6950105
  19.5466078  55.9177631  48.0567589  19.5672833  55.2072947  49.3934291
  21.0209526  52.0642033  42.5659907  21.7233569  52.5163077  43.0333833
  20.6890155  51.4225852  43.1939800  19.4689888  50.6553790  56.9411116
  18.8388548  51.3370071  57.1746513  19.3625975  50.5436871  55.9964254
  14.7634860  50.3225586  47.8677040  13.9733914  50.5783114  47.3917151
  15.2546107  51.1373924  47.9729081  28.7798670  57.6630825  50.6182321
  29.6016113  57.2611012  50.3365003  28.7761072  57.5599059  51.5698437
  16.7149605  50.6870165  44.8260517  15.9180769  50.7988859  45.3444013
  16.4875198  51.0256817  43.9601408  22.5455273  57.2114868  52.7743032
  22.6099706  57.6735276  53.6101204  21.8366197  56.5812233  52.9025342
  13.0472563  50.5756076  50.2992031  13.2980601  51.4603086  50.5649607
  13.5832111  50.3960678  49.5267123  22.2603291  58.8782976  42.6422012
  22.1248965  59.7234512  43.0706860  22.8013103  59.0802254  41.8787946
  18.7470630  44.9574556  59.3036367  18.3537576  44.4040754  59.9784012
  19.5636771  45.2685134  59.6942885  15.7132688  56.3958414  43.2149937
  16.2257209  57.1901664  43.3655502  16.3655401  55.6984704  43.1483539
  17.5227573  59.5124170  45.2972690  17.6994201  60.4342135  45.1093674
  18.3184406  59.1982589  45.7267070  21.6638591  46.3732435  56.8956624
  22.4048305  46.9739588  56.8161086  21.8956514  45.6310073  56.3374666
  16.8079929  51.5588802  55.1734854  16.6933444  50.6574059  55.4741952
  15.9524447  51.8052499  54.8219670  23.8871767  59.5006542  56.7722354
  23.4435621  58.7142921  56.4543259  24.5488981  59.6885693  56.1066245
  18.6458888  61.0302344  51.2983033  19.1966313  60.9019407  50.5260027
  17.8070364  61.3297233  50.9477925  25.9853005  59.7809342  54.8003755
  25.9671480  60.6018223  54.3084025  26.9072925  59.6563418  55.0253897
  22.4426059  57.2953472  55.6427264  22.9754396  56.5341760  55.4126572
  21.9140140  57.0027124  56.3851418  25.6095754  42.4013538  51.1720906
  25.2660024  43.2915179  51.0960016  25.9774717  42.2115195  50.3090491
  13.6781605  54.7247068  43.9909508  14.5156827  55.1344077  43.7743215
  13.8559873  53.7846510  43.9609702  25.5746037  52.3922149  39.6793341
  25.0592660  53.1626753  39.9181728  25.3023345  51.7187285  40.3026402
  23.1593148  47.2371850  44.7378579  22.3034744  46.8478700  44.5584218
  23.5720100  47.3163810  43.8778365  24.6892295  44.7718193  49.1370139
  24.1857090  44.7348328  48.3237944  24.9822901  45.6810936  49.1966795
  20.9335181  44.8556923  48.1436321  21.7988177  44.6599731  47.7842210
  21.0012689  44.6267274  49.0705677  30.5480311  55.1454503  41.6146514
  29.7709754  54.8065663  41.1701676  31.2271792  55.1507127  40.9401479
  25.3632340  50.2649241  41.5053122  25.0582476  50.5795390  42.3563265
  26.3162782  50.3430661  41.5480455  23.8078772  56.4239464  43.1546076
  23.2800134  55.6892224  42.8419313  23.3066275  57.2014141  42.9086044
  28.7871618  54.6188485  48.2713122  28.1295292  55.3087746  48.3593251
  29.5912017  55.0084917  48.6147108  18.5397500  47.0859131  45.5152687
  19.1141251  46.8634312  44.7825880  19.1268482  47.1547825  46.2681289
  27.5977077  52.9732857  46.3217064  28.1108959  53.6062849  46.8238774
  28.2478301  52.3734053  45.9560424  18.8667087  49.1163592  39.5348573
  18.0304399  49.4538278  39.8557847  18.7271856  48.9812571  38.5975710
  20.8420167  43.9600379  44.2427757  20.1884580  43.6449397  43.6184372
  20.8000641  43.3376120  44.9687580  21.9531372  54.2419675  36.1581049
  21.0458434  54.0108928  36.3572198  22.4502404  53.4457294  36.3455030
  24.8599451  62.9517182  39.0777735  24.1861150  63.2548878  39.6862693
  25.2465273  63.7546262  38.7283192  24.0757908  50.4482313  48.5675404
  23.1580469  50.6697260  48.4097092  24.4918051  50.5228623  47.7087112
  24.8592955  51.8473729  43.6978085  25.6064774  52.3595126  43.3885207
  25.1284545  51.5257781  44.5582478  23.1319606  54.3432269  40.6805039
  22.2230825  54.0591302  40.7777509  23.1614689  54.7631348  39.8208346
  28.3638873  57.9538859  44.4496206  27.9101200  57.1129769  44.5061397
  27.7332840  58.5900257  44.7870987  27.3071793  48.8830845  45.6796874
  26.5694549  48.3708231  46.0107117  27.5598566  48.4431227  44.8680151
  26.8071812  59.7915356  45.3846025  27.0994787  60.3520413  44.6658390
  27.3170433  60.0843917  46.1399184  27.4083420  41.6607097  46.2738643
  27.7142297  40.8004460  45.9864558  28.1336025  42.2524717  46.0737637
  13.7007776  52.0637784  44.6620241  13.5032176  51.4707144  43.9371308
  13.1454440  51.7589994  45.3796180  21.6804500  51.9560890  46.7814834
  21.7353109  51.0034726  46.7057311  20.8695702  52.1120329  47.2656133
  22.8295693  55.8841013  38.0193118  22.3915123  55.1676872  37.5598755
  23.5706134  56.1117128  37.4578209  19.6196860  50.5737950  44.5405213
  18.8064725  50.8732120  44.9470405  20.1155854  50.1793639  45.2579695
  21.7705437  60.5695707  46.4739478  21.7281616  60.7956553  45.5448010
  22.6868136  60.3359081  46.6225279  25.2171071  51.0379774  53.3720107
  25.5720459  51.2651247  54.2314573  25.8643202  51.3698151  52.7497362
  30.9468808  54.1598210  44.0769436  30.8086707  54.3499806  43.1490625
  30.5905027  54.9217593  44.5337487  19.1110934  48.1456305  50.1566448
  19.7510314  48.0045064  49.4589411  18.2788465  47.8590819  49.7805050
  30.9738188  56.2274737  49.0880708  31.4074694  56.1350026  49.9363762
  31.6869768  56.2032238  48.4500724  19.8871238  57.4458736  46.2701441
  20.6811837  56.9509056  46.0684016  19.1762931  56.9176599  45.9069146
  24.7066083  59.8276831  50.6213808  24.7603105  60.3967768  51.3891524
  23.8380864  59.9978716  50.2567845  16.1954002  51.5901817  42.3461193
  15.2651590  51.5286273  42.5631155  16.2911474  51.0677770  41.5497835
  16.1139551  48.1156630  44.9339435  16.3746368  49.0301963  44.8248595
  16.9356723  47.6481073  45.0836048  17.5864476  49.5294387  52.1038259
  18.2587529  49.3211750  51.4550908  16.7594263  49.3316473  51.6643492
  23.4890048  46.1556328  54.1203920  22.8417963  46.8546278  54.0268397
  24.2591063  46.5892472  54.4880169  26.8968846  56.4205181  57.1954474
  26.7454352  56.1915732  56.2784557  26.8873526  57.3775782  57.2085819
  23.6654182  53.9937093  52.1800740  24.5946242  54.1448253  52.0069707
  23.2445212  54.0821114  51.3249387  22.4642514  58.0187758  49.9499278
  22.3253600  57.6506542  50.8225216  21.6757110  58.5335397  49.7783235
  23.0590666  63.1196854  41.2924814  23.2342422  62.6484897  42.1070437
  22.3723454  63.7462620  41.5206075  24.0147729  57.3969360  47.3388115
  23.6797562  57.3570130  48.2345765  23.5151675  56.7314076  46.8658526
  17.9891973  52.8036990  52.8640697  17.8511771  52.0717229  53.4652236
  18.8996897  52.7145891  52.5824884  26.9506921  54.7425395  37.6125175
  26.3336092  54.0172223  37.5158228  26.4823409  55.5034755  37.2692249
  20.6174274  52.5156950  52.3524376  21.3273893  51.8750142  52.3110995
  20.5743582  52.7669845  53.2750557  28.6061053  59.4524303  55.2730955
  28.5473599  58.7683523  54.6061538  29.0080571  60.1943293  54.8211581
  19.3303208  49.5022168  54.1720016  18.7940565  49.0512906  54.8241612
  18.7419916  49.6368076  53.4290480  17.6251751  66.2686217  48.0664674
  17.8648350  66.9004741  48.7443693  16.7820948  65.9174257  48.3530034
  18.7405467  48.9610819  36.7346479  17.8634933  48.8399620  36.3708726
  19.2163220  48.1696897  36.4825368  28.6078460  57.4163887  53.5044935
  27.7205239  57.0789809  53.6271334  29.1777011  56.6846918  53.7413701
  10.2607607  53.7487979  46.8287987  10.9478647  53.4349709  46.2409002
  10.1055736  54.6529343  46.5555238  15.0642329  48.6378175  51.2573010
  14.9800518  48.0303845  50.5223420  14.2425036  49.1287194  51.2582507
  22.1379613  62.0765339  50.4706178  22.0649785  62.8820311  50.9825483
  21.6957006  62.2757305  49.6454200  21.9269393  61.3137109  43.9809000
  21.1436915  61.8558790  44.0747224  22.6262138  61.8311089  44.3803241
  25.2366043  47.1231739  46.6243205  25.7334743  46.3701701  46.3044276
  24.4653025  47.1596055  46.0586415  33.0895800  52.8272104  48.2661497
  33.0785677  53.7096820  47.8955430  32.2213180  52.4743655  48.0716034
  24.5978297  61.9752173  52.6264337  25.3106269  62.6099638  52.5540238
  24.1068326  62.0716039  51.8104339  26.3195824  55.8803426  44.1981629
  25.3852103  56.0004889  44.0286333  26.4972492  54.9775893  43.9341639
  21.8201012  49.2649122  46.3514890  21.4498799  48.7120162  47.0395795
  22.3160104  48.6607255  45.7989890  29.7068375  51.7220745  44.7331663
  30.1728827  52.5548737  44.6591965  30.1575876  51.2565727  45.4376921
  19.6490210  59.7246617  53.4469908  20.3499670  60.3583100  53.5999302
  19.1785325  60.0661348  52.6865547  27.7744606  58.0664567  41.7317815
  28.0504450  57.9521161  42.6411689  26.9049105  57.6682051  41.6929988
  27.6785038  44.0901332  48.7722564  26.7648118  44.3205559  48.9404771
  28.1078139  44.1739776  49.6236597  27.4491496  52.2791224  51.2722458
  26.7962947  52.5267132  50.6174911  27.8271876  51.4655362  50.9384935
  24.4098670  62.3150917  45.3750628  24.5921065  61.4972573  45.8378381
  25.2331656  62.5318610  44.9375518  24.7440836  61.2419103  42.6365677
  25.2728602  60.7311557  42.0235839  25.0069055  60.9261633  43.5011210
  23.4979069  53.0211035  57.7588495  22.8219706  52.9205165  58.4290870
  24.3206703  52.8650249  58.2224492  15.2457928  59.2582972  50.3801010
  15.8311365  58.5126660  50.5128915  15.0482767  59.5686929  51.2637674
  18.0996584  62.2934219  45.3963453  17.4306959  62.7780347  44.9127493
  17.9609453  62.5403440  46.3106831   9.8375583  51.8288572  49.1005454
   9.8759683  51.2952163  49.8942572   9.3315876  51.3023778  48.4816431
  22.2401852  64.3277963  51.9946111  22.7920160  64.4909584  52.7595196
  22.5808046  64.9182401  51.3226136  17.2166345  46.6753113  52.5967996
  17.2807672  47.5367944  52.1845394  17.1533466  46.0627114  51.8640354
  16.6918618  48.7476245  56.2441030  17.3190657  48.3653322  56.8578555
  15.8346537  48.5290447  56.6096723  27.0912727  59.1539220  57.8494766
  27.6352631  59.7669179  57.3549720  26.5099571  59.7118799  58.3661779
  13.4684161  50.5552674  42.1759385  13.7637602  49.6463353  42.1226439
  12.5672197  50.5340414  41.8540387  25.3770240  62.2759938  48.9809793
  25.2521379  61.4749678  48.4720739  26.0349331  62.7706132  48.4923763
  16.9978408  48.6308671  48.1586934  16.2764994  49.2444639  48.0194407
  17.7871664  49.1666436  48.0803580  27.4405148  60.0768958  50.6089343
  26.4935483  59.9574310  50.5367670  27.7887921  59.1891456  50.6915605
  19.8004721  45.9663097  54.4327585  20.3239123  46.2125394  55.1953895
  19.5817055  46.7983132  54.0130723  15.1972002  48.2366772  42.2998710
  14.8684709  47.3564151  42.1173816  15.5511373  48.1814441  43.1875099
  24.4451581  59.8721675  46.8093696  24.2976544  58.9438382  46.9901266
  25.2705075  59.8941765  46.3250771  18.3113826  48.5239742  42.6674188
  18.6509898  49.0525663  41.9452796  18.7585946  48.8620148  43.4432754
  28.0485703  60.6950233  47.8958568  28.9732251  60.4893095  47.7583020
  27.8801006  60.4466635  48.8047910  21.0057266  46.9076792  52.1177256
  20.6654087  46.1084605  52.5197936  20.2996273  47.2078503  51.5454089
  21.6573738  43.9926105  50.5704579  22.4799807  43.5186583  50.4483469
  21.9011802  44.7716589  51.0703265  20.2981973  47.0214363  40.8667481
  21.0190335  47.3995616  40.3631197  19.6747277  47.7403240  40.9702459
  24.4413096  47.7259512  41.8025813  24.6576710  48.6084150  41.5014641
  23.9607163  47.3345726  41.0731455  19.1812317  50.6845225  48.3796558
  19.0356898  50.9985529  49.2720839  18.7037521  51.3030126  47.8267456
  21.0408700  47.6747773  48.4277447  21.0270269  46.7788867  48.0909745
  21.7581128  47.6818437  49.0615733  22.8934831  48.1085114  50.4730575
  22.6352608  49.0302184  50.4714905  22.3619871  47.7115548  51.1631039
  27.8381019  61.2135901  43.2520660  28.0117897  60.6482323  42.4994512
  28.3309911  62.0136796  43.0700150  13.6557979  53.2250570  51.3184219
  13.1111447  54.0010378  51.4504493  14.5337329  53.5721374  51.1603340
  20.4445596  46.5562154  43.6965017  20.5661507  45.6278800  43.8955905
  20.1547638  46.5700840  42.7843333  23.3136786  44.2417064  46.8331737
  23.3358483  44.3056397  45.8783717  23.7304845  43.4021573  47.0272243
  33.6920410  53.9772324  44.8710960  34.1351556  53.2279649  44.4730083
  32.8146921  53.9682460  44.4884692  28.8256192  60.5302665  40.3517558
  29.5207096  61.1509358  40.5704873  29.1679342  59.6798016  40.6269936
  14.4424001  52.3520466  54.2114376  13.7005737  52.5003102  54.7979006
  14.1216745  52.6128732  53.3481125  30.7247615  57.9802371  41.8804889
  31.2498939  58.3189644  41.1554209  30.6369967  57.0449386  41.6968024
  22.3867664  61.8936444  54.0094766  22.6954790  61.6485591  54.8817465
  23.1843146  62.0983083  53.5213636  22.4088276  64.0474354  46.2400142
  21.9693266  63.5550733  46.9332999  23.1596393  63.5047322  45.9992217
  14.8880615  60.2385895  46.2424770  15.7138635  59.9389667  45.8623414
  14.5374667  59.4693517  46.6914559  19.8562148  59.5912363  48.3122444
  19.2342157  58.9283068  48.0124672  20.5267015  59.6173495  47.6296092
  13.0889220  58.1572221  47.2013704  12.2521128  57.7294396  47.0197705
  13.0612865  58.3504665  48.1384495  19.9286675  48.0694151  57.9054950
  19.9774831  48.9456274  57.5232719  20.4709189  47.5271544  57.3326593
  30.4141521  58.6135274  57.1856087  29.6237065  58.5959413  56.6460586
  30.1774876  59.1523568  57.9405124  30.5339396  55.4627741  54.4988815
  30.5837401  55.2977748  55.4404338  30.4253319  54.5955000  54.1086696
  19.4175655  58.1416286  41.7880904  19.5663775  58.8251751  41.1347577
  20.2242098  58.1221377  42.3030360  27.8243158  51.4458669  55.8148122
  28.7253021  51.3065134  55.5232120  27.8991133  51.6113124  56.7546300
  22.1585964  48.8225524  54.6601308  21.2889273  49.1159090  54.3883897
  22.3945444  49.4065969  55.3808572  33.2353275  55.4477562  47.2633407
  34.0700167  55.8867366  47.4270968  33.3712404  54.9716215  46.4441653
  30.2844781  53.0057297  53.2110895  30.7598903  53.1984943  52.4029746
  29.3610346  53.0616483  52.9654279  17.1728288  54.1681464  42.7941973
  16.9274330  53.2643794  42.9922183  17.3424202  54.1698615  41.8521451
  24.8624998  45.0405140  52.1766729  25.3806941  45.7766167  51.8513217
  24.5080130  45.3469134  53.0113488  16.4423935  49.9009822  40.2928135
  15.7493180  49.9754177  39.6368171  16.1975687  49.1370165  40.8149652
  25.1137592  41.4605423  47.6967625  25.3939345  40.7928612  48.3228052
  25.8988199  41.6534519  47.1842289  22.9171060  60.6364417  39.2592652
  22.3445027  61.2554604  38.8063124  23.4903854  61.1863779  39.7932574
  28.9846450  49.8823057  51.4439201  29.9363873  49.9821155  51.4651425
  28.8149900  49.0901326  51.9537285  27.0060830  46.9678640  51.6298602
  26.4110762  47.2483653  50.9345090  26.7210526  47.4572541  52.4015343
  26.1368320  60.9201567  40.3901234  27.0698993  60.8547129  40.5934110
  26.0491533  61.7557834  39.9315767  28.7656337  60.2367437  37.3505182
  28.6869968  59.9027301  38.2440940  29.5866003  60.7289205  37.3496654
  31.4634528  53.1029177  50.5581500  31.4310848  52.1645177  50.7441184
  32.0735152  53.1813213  49.8247325  23.3017859  51.9725230  36.6008704
  24.2476963  51.8431438  36.6697122  22.9232104  51.2339892  37.0778132
  31.6129016  49.8940220  50.6039783  31.0968065  49.1098677  50.4169712
  32.4968965  49.5658937  50.7686303  29.2739743  43.6381236  46.5635596
  29.0764564  43.3296324  47.4478928  29.8839449  44.3642875  46.6933526
  35.3626375  52.3053046  50.2961988  34.6359538  52.1709011  49.6878480
  34.9473662  52.6129875  51.1018706  23.1856551  56.0242976  58.0609361
  24.1059561  56.2021575  58.2549408  23.1506134  55.0799021  57.9089061
  21.4860776  49.8975206  36.5363590  20.5792231  49.6008319  36.6126303
  21.7636757  49.6005024  35.6697876  12.4038716  51.2181569  46.9862636
  12.0841501  50.3646878  46.6937010  11.8572144  51.4330148  47.7420603
  16.1818624  53.9344010  50.7032142  16.4004634  54.8661118  50.7220176
  16.5944398  53.5751985  51.4886946  23.1022842  44.4412096  42.6907831
  22.2923570  44.0959181  43.0663077  23.7907259  44.1319639  43.2795442
  25.0313390  43.5190143  44.3132127  25.5844428  43.9385596  44.9722151
  25.2683476  42.5925891  44.3555083  21.0546489  49.5077216  60.0934891
  20.9543216  50.4571573  60.0246982  20.8368031  49.1795455  59.2210961
  20.2559561  46.7562141  36.6775569  21.1178724  47.0817040  36.9371386
  20.4409905  45.9693637  36.1648635  12.2726976  54.8384481  48.9555757
  11.5790448  54.4238434  48.4425712  13.0199967  54.8805017  48.3589176
  28.4092197  45.6290668  43.8210792  27.8290866  46.2875472  43.4388844
  28.1428130  44.8068012  43.4098209  26.8595763  45.0295725  46.0232112
  27.3595542  45.1412260  45.2146431  27.5031371  44.7256778  46.6632920
  20.9177759  52.9374355  58.9099953  20.4344841  53.7374715  59.1163842
  21.0038698  52.9482300  57.9567397  14.1863719  54.7702735  46.8321772
  14.1634407  54.8690422  45.8803655  14.4964355  55.6167886  47.1538939
  16.8451097  56.8278890  50.9468387  17.7994350  56.7962832  50.8798318
  16.6463620  56.3669513  51.7618613  17.4350479  55.3980006  53.5139184
  18.2543368  55.8924084  53.5374022  17.7087286  54.4811974  53.4856752
  27.1917075  47.7890758  42.8767140  26.3042930  48.0740409  42.6587335
  27.6071064  47.6284521  42.0294417  30.5431611  47.8137279  46.5921479
  31.3192001  48.3033732  46.8646096  29.8179745  48.2395333  47.0493349
  32.9804170  48.5264898  47.6495420  33.5748661  48.2860634  46.9388728
  33.0530753  47.8072029  48.2768956  15.2001325  62.3698509  47.9638585
  15.0655793  61.6098910  47.3976583  14.7833388  63.0939409  47.4967374
  26.3360288  57.5535433  36.9715160  27.0396139  57.7585435  37.5872816
  25.6122937  58.1212195  37.2364243  27.1658099  53.3045294  43.0917430
  27.1093300  53.7613845  42.2525063  27.7186441  52.5435979  42.9140273
  30.9762905  49.0935026  43.9167550  30.7199839  48.6931662  44.7475757
  30.3515773  49.8078820  43.7917689  35.2875243  51.8331099  46.4238841
  34.7274800  51.9024288  47.1970403  34.6818746  51.6572084  45.7038337
  18.3570451  63.2667826  48.1757027  18.2402835  64.2113259  48.0735718
  17.5362898  62.9641388  48.5642827  28.2446986  57.9917962  39.0213620
  29.0792590  57.5599160  38.8391095  28.0831329  57.8199976  39.9490514
  27.8992878  54.4950075  40.3869959  27.8441682  54.3294347  39.4458403
  27.2738933  55.2026108  40.5432149  12.6885393  49.7318140  54.2131382
  13.3344257  49.2217094  54.7018607  12.4802544  50.4686821  54.7874807
  25.2138785  56.7998987  59.7123522  26.0829945  56.9739639  59.3510157
  24.7345537  57.6193404  59.5899251  21.2089004  43.9958184  39.9655278
  21.1967673  44.9400024  40.1223549  22.1012425  43.8128330  39.6714739
  19.3824965  63.9196088  51.3912956  20.2852212  63.9519698  51.7079451
  19.1562336  62.9896539  51.4059292  21.1378567  62.6727075  48.0523034
  20.1874198  62.6728936  47.9387407  21.4411054  61.9259809  47.5359069
  25.0241123  40.5900961  44.2201215  24.2573519  40.0359448  44.3657897
  25.4351828  40.6622830  45.0815366  17.0282884  46.8785757  58.3106396
  17.8914346  46.5222562  58.5209720  16.4548295  46.5399652  58.9981800
  29.5407783  70.3150518  45.0427212  28.9772648  70.2240455  44.2743500
  29.4260178  69.4950422  45.5229705  27.0872215  71.8101709  47.8811433
  27.8793507  71.4692534  47.4657732  27.3268865  71.9196684  48.8013586
  35.1207342  73.9821485  40.3541677  34.4695321  74.5675566  39.9675691
  35.9151704  74.5127680  40.4136715  29.0462969  71.0710622  40.7528812
  29.8193845  70.5239610  40.6141687  29.3988368  71.9354872  40.9643273
  31.3829247  67.2303289  38.3847262  31.6354767  66.7084810  37.6230725
  30.4453806  67.0669434  38.4873945  36.5982607  71.6711917  40.8910662
  35.9628440  71.7446544  41.6031566  36.2680013  72.2605516  40.2129741
  31.1025535  69.1331395  40.5871637  30.9861793  68.4576298  41.2552721
  31.2127795  68.6463768  39.7703790  33.0862563  63.6231441  39.2879674
  33.2536966  64.4911678  39.6550145  32.8959732  63.7858723  38.3640964
  29.2950378  68.5362217  46.9882209  28.3700874  68.4038431  47.1959901
  29.5434791  69.3156436  47.4852151  33.0651784  66.0789099  40.2726341
  32.9451409  66.5246150  41.1111821  32.3704373  66.4274417  39.7139879
  26.6559189  68.1795491  47.8225998  26.7851570  68.4329970  48.7365410
  25.9756640  68.7723199  47.5030653  30.8258676  78.8492741  43.9216472
  30.7482706  79.8000566  44.0004953  30.2220320  78.5038613  44.5791399
  32.9234394  71.2710799  45.7570342  33.3872740  71.5498502  44.9674964
  32.6591193  70.3694243  45.5743432  29.8158476  70.8182280  48.6950105
  30.3859833  71.2469548  48.0567589  30.4066587  70.5364865  49.3934291
  31.8603281  67.3933951  42.5659907  32.5627324  67.8454995  43.0333833
  31.5283909  66.7517770  43.1939800  30.3083642  65.9845708  56.9411116
  29.6782303  66.6661988  57.1746513  30.2019730  65.8728789  55.9964254
  25.6028615  65.6517504  47.8677040  24.8127668  65.9075032  47.3917151
  26.0939862  66.4665841  47.9729081  27.5543360  66.0162083  44.8260517
  26.7574523  66.1280777  45.3444013  27.3268952  66.3548735  43.9601408
  23.8866317  65.9047994  50.2992031  24.1374356  66.7895004  50.5649607
  24.4225866  65.7252596  49.5267123  47.7098417  69.3361491  46.9667293
  46.9562126  68.7668889  46.8111297  47.8445958  69.3024156  47.9137927
  33.0997045  74.2074894  42.6422012  32.9642720  75.0526429  43.0706860
  33.6406858  74.4094171  41.8787946  26.5526443  71.7250332  43.2149937
  27.0650963  72.5193582  43.3655502  27.2049155  71.0276622  43.1483539
  28.3621327  74.8416088  45.2972690  28.5387956  75.7634053  45.1093674
  29.1578161  74.5274507  45.7267070  27.6473684  66.8880720  55.1734854
  27.5327199  65.9865977  55.4741952  26.7918202  67.1344417  54.8219670
  29.4852643  76.3594262  51.2983033  30.0360068  76.2311325  50.5260027
  28.6464119  76.6589151  50.9477925  24.5175359  70.0538986  43.9909508
  25.3550581  70.4635994  43.7743215  24.6953627  69.1138428  43.9609702
  36.4139791  67.7214067  39.6793341  35.8986415  68.4918671  39.9181728
  36.1417100  67.0479203  40.3026402  41.3874066  70.4746421  41.6146514
  40.6103508  70.1357581  41.1701676  42.0665547  70.4799044  40.9401479
  34.6472526  71.7531382  43.1546076  34.1193888  71.0184142  42.8419313
  34.1460029  72.5306058  42.9086044  29.3791254  62.4151048  45.5152687
  29.9535006  62.1926230  44.7825880  29.9662237  62.4839743  46.2681289
  29.7060841  64.4455509  39.5348573  28.8698153  64.7830196  39.8557847
  29.5665611  64.3104489  38.5975710  32.7925127  69.5711592  36.1581049
  31.8852188  69.3400846  36.3572198  33.2896159  68.7749211  36.3455030
  35.6993206  78.2809099  39.0777735  35.0254904  78.5840796  39.6862693
  36.0859028  79.0838180  38.7283192  33.9713360  69.6724187  40.6805039
  33.0624579  69.3883220  40.7777509  34.0008444  70.0923266  39.8208346
  39.2032628  73.2830777  44.4496206  38.7494955  72.4421686  44.5061397
  38.5726594  73.9192175  44.7870987  37.6465567  75.1207273  45.3846025
  37.9388541  75.6812330  44.6658390  38.1564187  75.4135834  46.1399184
  24.5401530  67.3929701  44.6620241  24.3425930  66.7999062  43.9371308
  23.9848194  67.0881911  45.3796180  33.6689448  71.2132931  38.0193118
  33.2308878  70.4968790  37.5598755  34.4099889  71.4409046  37.4578209
  30.4590614  65.9029867  44.5405213  29.6458480  66.2024038  44.9470405
  30.9549608  65.5085556  45.2579695  32.6099192  75.8987624  46.4739478
  32.5675371  76.1248471  45.5448010  33.5261891  75.6650999  46.6225279
  29.9504689  63.4748223  50.1566448  30.5904068  63.3336982  49.4589411
  29.1182219  63.1882736  49.7805050  30.7264993  72.7750653  46.2701441
  31.5205591  72.2800973  46.0684016  30.0156685  72.2468516  45.9069146
  35.5459837  75.1568749  50.6213808  35.5996859  75.7259685  51.3891524
  34.6774619  75.3270634  50.2567845  27.0347756  66.9193735  42.3461193
  26.1045344  66.8578191  42.5631155  27.1305228  66.3969688  41.5497835
  26.9533305  63.4448548  44.9339435  27.2140123  64.3593881  44.8248595
  27.7750478  62.9772990  45.0836048  28.4258231  64.8586305  52.1038259
  29.0981284  64.6503667  51.4550908  27.5988017  64.6608391  51.6643492
  33.3036269  73.3479675  49.9499278  33.1647354  72.9798460  50.8225216
  32.5150865  73.8627315  49.7783235  33.8984421  78.4488772  41.2924814
  34.0736176  77.9776815  42.1070437  33.2117209  79.0754538  41.5206075
  34.8541484  72.7261278  47.3388115  34.5191316  72.6862048  48.2345765
  34.3545430  72.0605994  46.8658526  28.8285728  68.1328908  52.8640697
  28.6905526  67.4009147  53.4652236  29.7390651  68.0437808  52.5824884
  37.7900676  70.0717312  37.6125175  37.1729846  69.3464141  37.5158228
  37.3217164  70.8326673  37.2692249  30.1696962  64.8314085  54.1720016
  29.6334319  64.3804824  54.8241612  29.5813671  64.9659994  53.4290480
  28.4645506  81.5978135  48.0664674  28.7042104  82.2296659  48.7443693
  27.6214702  81.2466175  48.3530034  29.5799221  64.2902737  36.7346479
  28.7028688  64.1691537  36.3708726  30.0556974  63.4988815  36.4825368
  21.1001362  69.0779896  46.8287987  21.7872401  68.7641626  46.2409002
  20.9449490  69.9821261  46.5555238  25.9036084  63.9670093  51.2573010
  25.8194272  63.3595763  50.5223420  25.0818790  64.4579111  51.2582507
  32.9773368  77.4057257  50.4706178  32.9043539  78.2112229  50.9825483
  32.5350761  77.6049223  49.6454200  32.7663147  76.6429027  43.9809000
  31.9830669  77.1850707  44.0747224  33.4655893  77.1603007  44.3803241
  35.4372051  77.3044091  52.6264337  36.1500024  77.9391556  52.5540238
  34.9462080  77.4007957  51.8104339  37.1589578  71.2095344  44.1981629
  36.2245857  71.3296806  44.0286333  37.3366247  70.3067811  43.9341639
  38.6138361  73.3956484  41.7317815  38.8898205  73.2813079  42.6411689
  37.7442859  72.9973969  41.6929988  35.2492425  77.6442835  45.3750628
  35.4314819  76.8264491  45.8378381  36.0725411  77.8610527  44.9375518
  35.5834590  76.5711020  42.6365677  36.1122357  76.0603475  42.0235839
  35.8462810  76.2553550  43.5011210  26.0851683  74.5874890  50.3801010
  26.6705120  73.8418577  50.5128915  25.8876521  74.8978846  51.2637674
  28.9390338  77.6226137  45.3963453  28.2700713  78.1072265  44.9127493
  28.8003208  77.8695357  46.3106831  20.6769338  67.1580490  49.1005454
  20.7153437  66.6244080  49.8942572  20.1709631  66.6315695  48.4816431
  33.0795607  79.6569880  51.9946111  33.6313915  79.8201502  52.7595196
  33.4201800  80.2474318  51.3226136  28.0560100  62.0045030  52.5967996
  28.1201426  62.8659861  52.1845394  27.9927220  61.3919032  51.8640354
  27.5312373  64.0768163  56.2441030  28.1584411  63.6945240  56.8578555
  26.6740291  63.8582365  56.6096723  24.3077915  65.8844592  42.1759385
  24.6031356  64.9755270  42.1226439  23.4065951  65.8632331  41.8540387
  36.2163994  77.6051856  48.9809793  36.0915133  76.8041596  48.4720739
  36.8743085  78.0998049  48.4923763  27.8372162  63.9600588  48.1586934
  27.1158748  64.5736556  48.0194407  28.6265418  64.4958353  48.0803580
  26.0365757  63.5658690  42.2998710  25.7078463  62.6856069  42.1173816
  26.3905128  63.5106358  43.1875099  35.2845336  75.2013592  46.8093696
  35.1370298  74.2730300  46.9901266  36.1098829  75.2233683  46.3250771
  29.1507580  63.8531659  42.6674188  29.4903653  64.3817581  41.9452796
  29.5979700  64.1912066  43.4432754  38.8879458  76.0242151  47.8958568
  39.8126005  75.8185012  47.7583020  38.7194761  75.7758552  48.8047910
  31.1375727  62.3506281  40.8667481  31.8584090  62.7287534  40.3631197
  30.5141031  63.0695158  40.9702459  35.2806850  63.0551430  41.8025813
  35.4970464  63.9376068  41.5014641  34.8000917  62.6637643  41.0731455
  30.0206071  66.0137143  48.3796558  29.8750652  66.3277446  49.2720839
  29.5431275  66.6322044  47.8267456  38.6774774  76.5427818  43.2520660
  38.8511651  75.9774241  42.4994512  39.1703665  77.3428713  43.0700150
  24.4951734  68.5542488  51.3184219  23.9505202  69.3302296  51.4504493
  25.3731083  68.9013292  51.1603340  31.2839350  61.8854071  43.6965017
  31.4055261  60.9570718  43.8955905  30.9941393  61.8992757  42.7843333
  39.6649946  75.8594583  40.3517558  40.3600851  76.4801276  40.5704873
  40.0073096  75.0089934  40.6269936  25.2817755  67.6812384  54.2114376
  24.5399491  67.8295019  54.7979006  24.9610500  67.9420649  53.3481125
  41.5641369  73.3094288  41.8804889  42.0892693  73.6481561  41.1554209
  41.4763722  72.3741304  41.6968024  33.2261418  77.2228362  54.0094766
  33.5348545  76.9777509  54.8817465  34.0236900  77.4275001  53.5213636
  33.2482030  79.3766272  46.2400142  32.8087020  78.8842650  46.9332999
  33.9990147  78.8339239  45.9992217  25.7274369  75.5677813  46.2424770
  26.5532389  75.2681584  45.8623414  25.3768421  74.7985435  46.6914559
  30.6955902  74.9204281  48.3122444  30.0735912  74.2574986  48.0124672
  31.3660769  74.9465413  47.6296092  23.9282974  73.4864139  47.2013704
  23.0914882  73.0586313  47.0197705  23.9006620  73.6796582  48.1384495
  30.2569409  73.4708204  41.7880904  30.4057530  74.1543669  41.1347577
  31.0635853  73.4513294  42.3030360  28.0122042  69.4973382  42.7941973
  27.7668084  68.5935712  42.9922183  28.1817957  69.4990532  41.8521451
  27.2817690  65.2301739  40.2928135  26.5886935  65.3046094  39.6368171
  27.0369442  64.4662083  40.8149652  33.7564815  75.9656335  39.2592652
  33.1838782  76.5846522  38.8063124  34.3297608  76.5155696  39.7932574
  36.9762074  76.2493485  40.3901234  37.9092748  76.1839046  40.5934110
  36.8885287  77.0849752  39.9315767  39.6050091  75.5659355  37.3505182
  39.5263723  75.2319219  38.2440940  40.4259758  76.0581123  37.3496654
  34.1411613  67.3017147  36.6008704  35.0870718  67.1723355  36.6697122
  33.7625858  66.5631809  37.0778132  32.3254530  65.2267124  36.5363590
  31.4185986  64.9300236  36.6126303  32.6030511  64.9296942  35.6697876
  23.2432471  66.5473487  46.9862636  22.9235255  65.6938795  46.6937010
  22.6965899  66.7622065  47.7420603  27.0212378  69.2635928  50.7032142
  27.2398388  70.1953036  50.7220176  27.4338152  68.9043903  51.4886946
  31.0953315  62.0854059  36.6775569  31.9572479  62.4108957  36.9371386
  31.2803659  61.2985555  36.1648635  23.1120731  70.1676399  48.9555757
  22.4184202  69.7530351  48.4425712  23.8593722  70.2096935  48.3589176
  31.7571514  68.2666273  58.9099953  31.2738595  69.0666633  59.1163842
  31.8432453  68.2774218  57.9567397  25.0257473  70.0994652  46.8321772
  25.0028161  70.1982340  45.8803655  25.3358110  70.9459803  47.1538939
  27.6844851  72.1570807  50.9468387  28.6388105  72.1254750  50.8798318
  27.4857375  71.6961431  51.7618613  28.2744233  70.7271923  53.5139184
  29.0937122  71.2216002  53.5374022  28.5481041  69.8103892  53.4856752
  26.0395080  77.6990427  47.9638585  25.9049548  76.9390828  47.3976583
  25.6227142  78.4231327  47.4967374  37.1754043  72.8827350  36.9715160
  37.8789893  73.0877353  37.5872816  36.4516692  73.4504112  37.2364243
  29.1964206  78.5959744  48.1757027  29.0796590  79.5405176  48.0735718
  28.3756652  78.2933305  48.5642827  39.0840740  73.3209880  39.0213620
  39.9186344  72.8891078  38.8391095  38.9225083  73.1491893  39.9490514
  38.7386633  69.8241993  40.3869959  38.6835436  69.6586264  39.4458403
  38.1132688  70.5318026  40.5432149  23.5279148  65.0610057  54.2131382
  24.1738011  64.5509011  54.7018607  23.3196299  65.7978739  54.7874807
  32.0482758  59.3250102  39.9655278  32.0361428  60.2691942  40.1223549
  32.9406180  59.1420247  39.6714739  30.2218720  79.2488006  51.3912956
  31.1245967  79.2811616  51.7079451  29.9956090  78.3188457  51.4059292
  31.9772322  78.0018992  48.0523034  31.0267953  78.0020854  47.9387407
  32.2804808  77.2551727  47.5359069  35.8634877  55.9192879  44.2201215
  35.0967273  55.3651365  44.3657897  36.2745582  55.9914747  45.0815366
  27.8676639  62.2077674  58.3106396  28.7308100  61.8514479  58.5209720
  27.2942049  61.8691569  58.9981800  47.7125015  83.8379531  49.1168797
  48.3503425  83.7186278  48.4132137  47.5945858  84.7860375  49.1756749
  44.5214722  83.7906959  49.0530321  44.1833233  83.6748024  48.1650856
  45.3904490  83.3898124  49.0331328  40.3801537  85.6442435  45.0427212
  39.8166403  85.5532372  44.2743500  40.2653932  84.8242340  45.5229705
  45.0034505  84.9441811  55.0116527  44.9923145  84.5494609  54.1397031
  45.1655144  84.2107883  55.6050298  37.9265969  87.1393627  47.8811433
  38.7187261  86.7984452  47.4657732  38.1662620  87.2488602  48.8013586
  45.9601096  89.3113403  40.3541677  45.3089076  89.8967483  39.9675691
  46.7545459  89.8419598  40.4136715  39.8856723  86.4002540  40.7528812
  40.6587599  85.8531527  40.6141687  40.2382122  87.2646789  40.9643273
  41.7241766  87.7278922  53.9595711  41.4331632  88.6324553  53.8442377
  42.3598750  87.7695450  54.6739781  42.6497973  85.1055771  50.5497071
  43.2461545  84.8811793  49.8354034  42.7072944  84.3640516  51.1522518
  42.2223001  82.5595206  38.3847262  42.4748522  82.0376728  37.6230725
  41.2847560  82.3961352  38.4873945  47.2666284  81.5630985  46.1922005
  48.0529373  81.1450408  45.8412422  47.5304988  82.4677077  46.3603653
  47.4376361  87.0003835  40.8910662  46.8022194  87.0738461  41.6031566
  47.1073768  87.5897434  40.2129741  52.6674711  81.5006218  47.0954983
  53.3999883  80.9305435  47.3292813  51.9114067  81.1127818  47.5361489
  41.9419290  84.4623312  40.5871637  41.8255548  83.7868216  41.2552721
  42.0521550  83.9755686  39.7703790  44.2850831  83.9233459  44.2918326
  43.9209038  83.3964080  45.0031247  45.1417947  83.5331928  44.1184811
  50.1900131  75.2127792  51.5549592  49.8583456  76.0823203  51.3310807
  49.5945745  74.8964076  52.2343622  43.9256318  78.9523359  39.2879674
  44.0930720  79.8203595  39.6550145  43.7353487  79.1150641  38.3640964
  46.6831651  87.4140338  50.9545505  46.3832374  88.3165377  50.8461312
  46.3382710  87.1472521  51.8066658  40.1344132  83.8654135  46.9882209
  39.2094629  83.7330349  47.1959901  40.3828546  84.6448354  47.4852151
  50.0828795  79.9322878  48.6342942  49.1745672  79.8638287  48.3401703
  50.0316391  80.4094823  49.4624767  43.9045539  81.4081016  40.2726341
  43.7845164  81.8538067  41.1111821  43.2098127  81.7566334  39.7139879
  37.4952943  83.5087408  47.8225998  37.6245325  83.7621887  48.7365410
  36.8150395  84.1015116  47.5030653  41.6652431  94.1784658  43.9216472
  41.5876460  95.1292483  44.0004953  41.0614074  93.8330531  44.5791399
  44.1569661  81.3512524  56.5777839  43.3802995  81.9106444  56.5680704
  44.7960224  81.8369307  57.0992709  51.9490441  78.1339316  50.4120816
  51.3064821  78.4271850  49.7660610  51.4445370  78.0192237  51.2174013
  49.6030605  81.8802490  41.1006675  50.5148461  82.1129876  40.9254373
  49.0940252  82.4639534  40.5381754  42.4116033  84.1597977  56.1395806
  43.1530717  84.6983021  55.8630630  41.7053018  84.7864266  56.2967358
  47.8871372  86.3027118  54.7367968  48.2954728  85.8609528  53.9922600
  47.1648634  85.7279745  54.9902161  44.2402443  81.2399724  52.1101525
  45.0863638  81.6639138  52.2536174  44.1801080  80.5833349  52.8040088
  48.2100187  86.8628308  48.4920257  47.5809050  87.0274022  47.7896324
  47.8225849  87.2769918  49.2631221  52.0889419  87.7982746  45.8464620
  51.4040457  88.1781647  45.2961654  52.1733268  88.4078073  46.5796568
  47.3901888  78.9004093  53.7682698  47.1462820  79.6546153  53.2316974
  47.6661818  79.2789440  54.6029945  49.3440351  85.4442705  52.4459964
  49.5557246  86.0874465  51.7694345  49.2970099  84.6105022  51.9781894
  46.9466580  78.0560526  49.3496536  46.0851059  78.3541779  49.6413274
  46.9729014  78.2730925  48.4177569  43.7628149  86.6002716  45.7570342
  44.2266495  86.8790419  44.9674964  43.4984947  85.6986161  45.5743432
  40.6552230  86.1474198  48.6950105  41.2253587  86.5761466  48.0567589
  41.2460342  85.8656782  49.3934291  42.6997035  82.7225869  42.5659907
  43.4021078  83.1746912  43.0333833  42.3677664  82.0809687  43.1939800
  41.1477397  81.3137625  56.9411116  40.5176057  81.9953906  57.1746513
  41.0413484  81.2020707  55.9964254  36.4422369  80.9809421  47.8677040
  35.6521423  81.2366950  47.3917151  36.9333616  81.7957759  47.9729081
  50.4586179  88.3214660  50.6182321  51.2803622  87.9194848  50.3365003
  50.4548581  88.2182895  51.5698437  38.3937114  81.3454001  44.8260517
  37.5968278  81.4572695  45.3444013  38.1662707  81.6840653  43.9601408
  44.2242782  87.8698704  52.7743032  44.2887215  88.3319111  53.6101204
  43.5153706  87.2396069  52.9025342  34.7260072  81.2339912  50.2992031
  34.9768110  82.1186922  50.5649607  35.2619620  81.0544513  49.5267123
  58.5492172  84.6653409  46.9667293  57.7955880  84.0960807  46.8111297
  58.6839713  84.6316073  47.9137927  43.9390800  89.5366811  42.6422012
  43.8036474  90.3818347  43.0706860  44.4800612  89.7386089  41.8787946
  37.3920197  87.0542249  43.2149937  37.9044718  87.8485500  43.3655502
  38.0442910  86.3568540  43.1483539  39.2015082  90.1708006  45.2972690
  39.3781710  91.0925970  45.1093674  39.9971915  89.8566425  45.7267070
  43.3426100  77.0316270  56.8956624  44.0835814  77.6323423  56.8161086
  43.5744023  76.2893908  56.3374666  38.4867438  82.2172637  55.1734854
  38.3720953  81.3157895  55.4741952  37.6311956  82.4636334  54.8219670
  45.5659276  90.1590378  56.7722354  45.1223130  89.3726756  56.4543259
  46.2276490  90.3469528  56.1066245  40.3246397  91.6886179  51.2983033
  40.8753822  91.5603243  50.5260027  39.4857873  91.9881068  50.9477925
  47.6640514  90.4393178  54.8003755  47.6458989  91.2602059  54.3084025
  48.5860434  90.3147253  55.0253897  44.1213568  87.9537307  55.6427264
  44.6541905  87.1925595  55.4126572  43.5927649  87.6610959  56.3851418
  47.2883263  73.0597373  51.1720906  46.9447533  73.9499015  51.0960016
  47.6562226  72.8699031  50.3090491  35.3569114  85.3830904  43.9909508
  36.1944336  85.7927912  43.7743215  35.5347382  84.4430346  43.9609702
  47.2533546  83.0505984  39.6793341  46.7380169  83.8210589  39.9181728
  46.9810854  82.3771120  40.3026402  44.8380657  77.8955685  44.7378579
  43.9822253  77.5062535  44.5584218  45.2507609  77.9747646  43.8778365
  46.3679804  75.4302028  49.1370139  45.8644599  75.3932163  48.3237944
  46.6610410  76.3394771  49.1966795  52.2267820  85.8038339  41.6146514
  51.4497263  85.4649498  41.1701676  52.9059301  85.8090962  40.9401479
  47.0419849  80.9233076  41.5053122  46.7369985  81.2379225  42.3563265
  47.9950291  81.0014496  41.5480455  45.4866281  87.0823300  43.1546076
  44.9587643  86.3476059  42.8419313  44.9853784  87.8597976  42.9086044
  50.4659127  85.2772320  48.2713122  49.8082801  85.9671581  48.3593251
  51.2699526  85.6668752  48.6147108  40.2185009  77.7442966  45.5152687
  40.7928760  77.5218147  44.7825880  40.8055991  77.8131660  46.2681289
  49.2764586  83.6316693  46.3217064  49.7896468  84.2646685  46.8238774
  49.9265810  83.0317888  45.9560424  40.5454596  79.7747427  39.5348573
  39.7091908  80.1122113  39.8557847  40.4059365  79.6396407  38.5975710
  42.5207676  74.6184215  44.2427757  41.8672089  74.3033232  43.6184372
  42.4788150  73.9959955  44.9687580  43.6318881  84.9003510  36.1581049
  42.7245943  84.6692763  36.3572198  44.1289913  84.1041129  36.3455030
  46.5386960  93.6101017  39.0777735  45.8648659  93.9132714  39.6862693
  46.9252782  94.4130097  38.7283192  45.7545417  81.1066148  48.5675404
  44.8367978  81.3281095  48.4097092  46.1705560  81.1812459  47.7087112
  46.5380464  82.5057564  43.6978085  47.2852283  83.0178961  43.3885207
  46.8072054  82.1841617  44.5582478  44.8107115  85.0016105  40.6805039
  43.9018334  84.7175138  40.7777509  44.8402198  85.4215183  39.8208346
  50.0426382  88.6122694  44.4496206  49.5888709  87.7713604  44.5061397
  49.4120349  89.2484093  44.7870987  48.9859302  79.5414680  45.6796874
  48.2482058  79.0292066  46.0107117  49.2386075  79.1015062  44.8680151
  48.4859321  90.4499191  45.3846025  48.7782296  91.0104248  44.6658390
  48.9957942  90.7427752  46.1399184  49.0870929  72.3190932  46.2738643
  49.3929806  71.4588296  45.9864558  49.8123534  72.9108552  46.0737637
  35.3795285  82.7221619  44.6620241  35.1819685  82.1290980  43.9371308
  34.8241949  82.4173829  45.3796180  43.3592009  82.6144725  46.7814834
  43.4140618  81.6618562  46.7057311  42.5483211  82.7704164  47.2656133
  44.5083202  86.5424848  38.0193118  44.0702632  85.8260707  37.5598755
  45.2493643  86.7700963  37.4578209  41.2984369  81.2321785  44.5405213
  40.4852234  81.5315956  44.9470405  41.7943363  80.8377474  45.2579695
  43.4492946  91.2279542  46.4739478  43.4069125  91.4540388  45.5448010
  44.3655645  90.9942917  46.6225279  46.8958580  81.6963610  53.3720107
  47.2507968  81.9235083  54.2314573  47.5430711  82.0281986  52.7497362
  52.6256317  84.8182045  44.0769436  52.4874216  85.0083641  43.1490625
  52.2692536  85.5801428  44.5337487  40.7898443  78.8040141  50.1566448
  41.4297823  78.6628900  49.4589411  39.9575974  78.5174654  49.7805050
  52.6525697  86.8858572  49.0880708  53.0862203  86.7933862  49.9363762
  53.3657277  86.8616073  48.4500724  41.5658747  88.1042571  46.2701441
  42.3599346  87.6092891  46.0684016  40.8550440  87.5760434  45.9069146
  46.3853592  90.4860667  50.6213808  46.4390614  91.0551603  51.3891524
  45.5168373  90.6562552  50.2567845  37.8741511  82.2485653  42.3461193
  36.9439099  82.1870108  42.5631155  37.9698983  81.7261606  41.5497835
  37.7927060  78.7740466  44.9339435  38.0533877  79.6885799  44.8248595
  38.6144232  78.3064908  45.0836048  39.2651985  80.1878223  52.1038259
  39.9375038  79.9795585  51.4550908  38.4381772  79.9900309  51.6643492
  53.5141246  86.9282273  51.6213593  53.7077136  87.8328084  51.8672868
  53.4141864  86.4689692  52.4552178  45.1677557  76.8140164  54.1203920
  44.5205472  77.5130113  54.0268397  45.9378572  77.2476308  54.4880169
  45.3441691  84.6520929  52.1800740  46.2733751  84.8032088  52.0069707
  44.9232721  84.7404949  51.3249387  44.1430023  88.6771593  49.9499278
  44.0041109  88.3090377  50.8225216  43.3544619  89.1919232  49.7783235
  44.7378175  93.7780689  41.2924814  44.9129931  93.3068733  42.1070437
  44.0510963  94.4046456  41.5206075  45.6935238  88.0553196  47.3388115
  45.3585071  88.0153966  48.2345765  45.1939184  87.3897912  46.8658526
  39.6679482  83.4620826  52.8640697  39.5299280  82.7301065  53.4652236
  40.5784406  83.3729726  52.5824884  48.6294430  85.4009230  37.6125175
  48.0123601  84.6756058  37.5158228  48.1610918  86.1618590  37.2692249
  42.2961783  83.1740785  52.3524376  43.0061402  82.5333977  52.3110995
  42.2531091  83.4253680  53.2750557  50.2848562  90.1108138  55.2730955
  50.2261108  89.4267359  54.6061538  50.6868080  90.8527128  54.8211581
  41.0090717  80.1606003  54.1720016  40.4728074  79.7096741  54.8241612
  40.4207425  80.2951912  53.4290480  39.3039260  96.9270052  48.0664674
  39.5435859  97.5588576  48.7443693  38.4608457  96.5758092  48.3530034
  40.4192976  79.6194654  36.7346479  39.5422442  79.4983455  36.3708726
  40.8950729  78.8280733  36.4825368  50.2865969  88.0747722  53.5044935
  49.3992748  87.7373644  53.6271334  50.8564520  87.3430754  53.7413701
  31.9395116  84.4071814  46.8287987  32.6266156  84.0933544  46.2409002
  31.7843245  85.3113179  46.5555238  36.7429838  79.2962011  51.2573010
  36.6588027  78.6887680  50.5223420  35.9212545  79.7871029  51.2582507
  43.8167122  92.7349175  50.4706178  43.7437294  93.5404146  50.9825483
  43.3744515  92.9341141  49.6454200  43.6056902  91.9720945  43.9809000
  42.8224424  92.5142625  44.0747224  44.3049647  92.4894924  44.3803241
  46.9153552  77.7815574  46.6243205  47.4122252  77.0285537  46.3044276
  46.1440534  77.8179891  46.0586415  54.7683309  83.4855940  48.2661497
  54.7573186  84.3680655  47.8955430  53.9000689  83.1327491  48.0716034
  46.2765806  92.6336009  52.6264337  46.9893778  93.2683474  52.5540238
  45.7855834  92.7299875  51.8104339  47.9983333  86.5387261  44.1981629
  47.0639611  86.6588724  44.0286333  48.1760001  85.6359728  43.9341639
  43.4988521  79.9232957  46.3514890  43.1286308  79.3703998  47.0395795
  43.9947613  79.3191091  45.7989890  51.3855884  82.3804581  44.7331663
  51.8516336  83.2132572  44.6591965  51.8363385  81.9149562  45.4376921
  41.3277719  90.3830452  53.4469908  42.0287179  91.0166935  53.5999302
  40.8572834  90.7245184  52.6865547  49.4532115  88.7248402  41.7317815
  49.7291959  88.6104997  42.6411689  48.5836614  88.3265887  41.6929988
  49.3572547  74.7485168  48.7722564  48.4435627  74.9789395  48.9404771
  49.7865648  74.8323612  49.6236597  49.1279005  82.9375060  51.2722458
  48.4750456  83.1850967  50.6174911  49.5059385  82.1239198  50.9384935
  46.0886179  92.9734753  45.3750628  46.2708574  92.1556409  45.8378381
  46.9119165  93.1902445  44.9375518  46.4228345  91.9002938  42.6365677
  46.9516111  91.3895393  42.0235839  46.6856564  91.5845468  43.5011210
  45.1766578  83.6794871  57.7588495  44.5007215  83.5789000  58.4290870
  45.9994212  83.5234084  58.2224492  36.9245437  89.9166807  50.3801010
  37.5098874  89.1710495  50.5128915  36.7270276  90.2270764  51.2637674
  39.7784093  92.9518055  45.3963453  39.1094468  93.4364182  44.9127493
  39.6396962  93.1987275  46.3106831  31.5163092  82.4872407  49.1005454
  31.5547192  81.9535998  49.8942572  31.0103385  81.9607613  48.4816431
  43.9189361  94.9861798  51.9946111  44.4707669  95.1493420  52.7595196
  44.2595555  95.5766236  51.3226136  38.3706127  79.4060080  56.2441030
  38.9978166  79.0237158  56.8578555  37.5134046  79.1874282  56.6096723
  48.7700236  89.8123056  57.8494766  49.3140140  90.4253014  57.3549720
  48.1887080  90.3702634  58.3661779  35.1471670  81.2136510  42.1759385
  35.4425111  80.3047188  42.1226439  34.2459706  81.1924249  41.8540387
  47.0557749  92.9343774  48.9809793  46.9308888  92.1333514  48.4720739
  47.7136840  93.4289967  48.4923763  38.6765917  79.2892506  48.1586934
  37.9552503  79.9028474  48.0194407  39.4659173  79.8250271  48.0803580
  49.1192657  90.7352794  50.6089343  48.1722992  90.6158145  50.5367670
  49.4675430  89.8475292  50.6915605  41.4792230  76.6246933  54.4327585
  42.0026632  76.8709229  55.1953895  41.2604564  77.4566967  54.0130723
  36.8759511  78.8950607  42.2998710  36.5472217  78.0147986  42.1173816
  37.2298882  78.8398276  43.1875099  46.1239090  90.5305510  46.8093696
  45.9764053  89.6022217  46.9901266  46.9492584  90.5525601  46.3250771
  39.9901334  79.1823577  42.6674188  40.3297407  79.7109498  41.9452796
  40.4373455  79.5203983  43.4432754  49.7273212  91.3534069  47.8958568
  50.6519760  91.1476930  47.7583020  49.5588515  91.1050470  48.8047910
  42.6844775  77.5660628  52.1177256  42.3441596  76.7668441  52.5197936
  41.9783782  77.8662339  51.5454089  41.9769482  77.6798199  40.8667481
  42.6977844  78.0579451  40.3631197  41.3534786  78.3987075  40.9702459
  46.1200605  78.3843348  41.8025813  46.3364219  79.2667985  41.5014641
  45.6394672  77.9929561  41.0731455  40.8599826  81.3429061  48.3796558
  40.7144407  81.6569364  49.2720839  40.3825030  81.9613961  47.8267456
  42.7196209  78.3331609  48.4277447  42.7057778  77.4372702  48.0909745
  43.4368637  78.3402273  49.0615733  44.5722339  78.7668949  50.4730575
  44.3140117  79.6886020  50.4714905  44.0407380  78.3699384  51.1631039
  49.5168528  91.8719736  43.2520660  49.6905406  91.3066159  42.4994512
  50.0097419  92.6720631  43.0700150  35.3345488  83.8834405  51.3184219
  34.7898956  84.6594213  51.4504493  36.2124838  84.2305210  51.1603340
  42.1233105  77.2145989  43.6965017  42.2449016  76.2862635  43.8955905
  41.8335147  77.2284675  42.7843333  55.3707919  84.6356159  44.8710960
  55.8139065  83.8863484  44.4730083  54.4934430  84.6266295  44.4884692
  50.5043701  91.1886501  40.3517558  51.1994605  91.8093193  40.5704873
  50.8466851  90.3381852  40.6269936  36.1211510  83.0104302  54.2114376
  35.3793246  83.1586937  54.7979006  35.8004254  83.2712567  53.3481125
  52.4035124  88.6386206  41.8804889  52.9286448  88.9773479  41.1554209
  52.3157476  87.7033221  41.6968024  44.0655173  92.5520280  54.0094766
  44.3742299  92.3069427  54.8817465  44.8630655  92.7566918  53.5213636
  44.0875785  94.7058189  46.2400142  43.6480775  94.2134568  46.9332999
  44.8383902  94.1631157  45.9992217  36.5668124  90.8969730  46.2424770
  37.3926144  90.5973502  45.8623414  36.2162176  90.1277353  46.6914559
  41.5349657  90.2496198  48.3122444  40.9129666  89.5866903  48.0124672
  42.2054524  90.2757330  47.6296092  34.7676729  88.8156057  47.2013704
  33.9308637  88.3878231  47.0197705  34.7400374  89.0088500  48.1384495
  41.6074184  78.7277986  57.9054950  41.6562340  79.6040109  57.5232719
  42.1496698  78.1855380  57.3326593  52.0929030  89.2719110  57.1856087
  51.3024574  89.2543249  56.6460586  51.8562385  89.8107403  57.9405124
  52.2126905  86.1211576  54.4988815  52.2624910  85.9561584  55.4404338
  52.1040828  85.2538835  54.1086696  41.0963164  88.8000122  41.7880904
  41.2451284  89.4835586  41.1347577  41.9029607  88.7805212  42.3030360
  43.8373473  79.4809359  54.6601308  42.9676782  79.7742925  54.3883897
  44.0732953  80.0649804  55.3808572  54.9140784  86.1061397  47.2633407
  55.7487676  86.5451201  47.4270968  55.0499913  85.6300051  46.4441653
  51.9632290  83.6641132  53.2110895  52.4386412  83.8568779  52.4029746
  51.0397855  83.7200318  52.9654279  38.8515797  84.8265299  42.7941973
  38.6061839  83.9227629  42.9922183  39.0211711  84.8282450  41.8521451
  46.5412507  75.6988976  52.1766729  47.0594450  76.4350003  51.8513217
  46.1867639  76.0052969  53.0113488  38.1211444  80.5593657  40.2928135
  37.4280689  80.6338012  39.6368171  37.8763196  79.7954001  40.8149652
  46.7925101  72.1189258  47.6967625  47.0726854  71.4512447  48.3228052
  47.5775708  72.3118354  47.1842289  44.5958569  91.2948252  39.2592652
  44.0232536  91.9138439  38.8063124  45.1691363  91.8447614  39.7932574
  50.6633959  80.5406892  51.4439201  51.6151382  80.6404990  51.4651425
  50.4937409  79.7485161  51.9537285  48.6848339  77.6262476  51.6298602
  48.0898271  77.9067488  50.9345090  48.3998035  78.1156376  52.4015343
  47.8155829  91.5785402  40.3901234  48.7486502  91.5130964  40.5934110
  47.7279042  92.4141669  39.9315767  50.4443846  90.8951273  37.3505182
  50.3657477  90.5611136  38.2440940  51.2653512  91.3873041  37.3496654
  53.1422037  83.7613012  50.5581500  53.1098357  82.8229013  50.7441184
  53.7522660  83.8397049  49.8247325  44.9805368  82.6309065  36.6008704
  45.9264472  82.5015273  36.6697122  44.6019613  81.8923727  37.0778132
  53.2916525  80.5524055  50.6039783  52.7755574  79.7682512  50.4169712
  54.1756474  80.2242772  50.7686303  50.9527252  74.2965071  46.5635596
  50.7552073  73.9880159  47.4478928  51.5626958  75.0226710  46.6933526
  58.9598587  84.8229019  49.6987537  59.6901975  84.5614307  50.2595240
  58.3505532  84.0857741  49.7389605  57.0413884  82.9636881  50.2961988
  56.3147047  82.8292846  49.6878480  56.6261171  83.2713710  51.1018706
  44.8644060  86.6826811  58.0609361  45.7847070  86.8605410  58.2549408
  44.8293643  85.7382856  57.9089061  43.1648285  80.5559041  36.5363590
  42.2579740  80.2592154  36.6126303  43.4424266  80.2588859  35.6697876
  34.0826225  81.8765405  46.9862636  33.7629010  81.0230713  46.6937010
  33.5359653  82.0913983  47.7420603  37.8606133  84.5927846  50.7032142
  38.0792143  85.5244954  50.7220176  38.2731907  84.2335820  51.4886946
  44.7810351  75.0995931  42.6907831  43.9711079  74.7543016  43.0663077
  45.4694768  74.7903475  43.2795442  46.7100899  74.1773978  44.3132127
  47.2631937  74.5969431  44.9722151  46.9470985  73.2509726  44.3555083
  42.7333998  80.1661052  60.0934891  42.6330725  81.1155409  60.0246982
  42.5155540  79.8379290  59.2210961  41.9347069  77.4145977  36.6775569
  42.7966233  77.7400875  36.9371386  42.1197414  76.6277473  36.1648635
  33.9514485  85.4968316  48.9555757  33.2577957  85.0822269  48.4425712
  34.6987476  85.5388853  48.3589176  50.0879706  76.2874503  43.8210792
  49.5078375  76.9459307  43.4388844  49.8215639  75.4651848  43.4098209
  48.5383272  75.6879561  46.0232112  49.0383051  75.7996095  45.2146431
  49.1818880  75.3840614  46.6632920  42.5965268  83.5958190  58.9099953
  42.1132350  84.3958551  59.1163842  42.6826207  83.6066135  57.9567397
  35.8651228  85.4286570  46.8321772  35.8421916  85.5274257  45.8803655
  36.1751864  86.2751721  47.1538939  38.5238606  87.4862725  50.9468387
  39.4781859  87.4546667  50.8798318  38.3251129  87.0253349  51.7618613
  39.1137988  86.0563841  53.5139184  39.9330877  86.5507920  53.5374022
  39.3874795  85.1395809  53.4856752  48.8704584  78.4474593  42.8767140
  47.9830439  78.7324244  42.6587335  49.2858573  78.2868357  42.0294417
  52.2219120  78.4721114  46.5921479  52.9979510  78.9617567  46.8646096
  51.4967254  78.8979169  47.0493349  54.6591679  79.1848734  47.6495420
  55.2536170  78.9444470  46.9388728  54.7318262  78.4655864  48.2768956
  36.8788834  93.0282345  47.9638585  36.7443302  92.2682745  47.3976583
  36.4620897  93.7523244  47.4967374  48.0147797  88.2119268  36.9715160
  48.7183648  88.4169271  37.5872816  47.2910446  88.7796030  37.2364243
  48.8445608  83.9629129  43.0917430  48.7880809  84.4197681  42.2525063
  49.3973950  83.2019814  42.9140273  52.6550414  79.7518861  43.9167550
  52.3987348  79.3515497  44.7475757  52.0303282  80.4662655  43.7917689
  56.9662751  82.4914934  46.4238841  56.4062309  82.5608124  47.1970403
  56.3606255  82.3155919  45.7038337  40.0357960  93.9251662  48.1757027
  39.9190344  94.8697094  48.0735718  39.2150407  93.6225223  48.5642827
  49.9234495  88.6501797  39.0213620  50.7580099  88.2182996  38.8391095
  49.7618838  88.4783811  39.9490514  49.5780387  85.1533911  40.3869959
  49.5229191  84.9878182  39.4458403  48.9526442  85.8609944  40.5432149
  34.3672902  80.3901975  54.2131382  35.0131766  79.8800929  54.7018607
  34.1590053  81.1270657  54.7874807  42.8876512  74.6542020  39.9655278
  42.8755182  75.5983860  40.1223549  43.7799934  74.4712165  39.6714739
  41.0612474  94.5779923  51.3912956  41.9639721  94.6103534  51.7079451
  40.8349844  93.6480374  51.4059292  42.8166076  93.3310910  48.0523034
  41.8661707  93.3312772  47.9387407  43.1198563  92.5843645  47.5359069
  46.7028632  71.2484796  44.2201215  45.9361028  70.6943283  44.3657897
  47.1139337  71.3206665  45.0815366  58.5518770  99.1671448  49.1168797
  59.1897180  99.0478196  48.4132137  58.4339613 100.1152292  49.1756749
  55.3608476  99.1198877  49.0530321  55.0226988  99.0039941  48.1650856
  56.2298244  98.7190042  49.0331328  51.2195292 100.9734353  45.0427212
  50.6560157 100.8824290  44.2743500  51.1047687 100.1534257  45.5229705
  55.8428259 100.2733728  55.0116527  55.8316900  99.8786527  54.1397031
  56.0048899  99.5399801  55.6050298  48.7659724 102.4685545  47.8811433
  49.5581016 102.1276369  47.4657732  49.0056374 102.5780520  48.8013586
  56.7994851 104.6405321  40.3541677  56.1482830 105.2259401  39.9675691
  57.5939213 105.1711516  40.4136715  50.7250478 101.7294458  40.7528812
  51.4981354 101.1823445  40.6141687  51.0775877 102.5938707  40.9643273
  52.5635520 103.0570840  53.9595711  52.2725386 103.9616471  53.8442377
  53.1992505 103.0987368  54.6739781  53.4891727 100.4347689  50.5497071
  54.0855299 100.2103711  49.8354034  53.5466699  99.6932434  51.1522518
  53.0616756  97.8887124  38.3847262  53.3142276  97.3668645  37.6230725
  52.1241315  97.7253269  38.4873945  58.1060038  96.8922902  46.1922005
  58.8923128  96.4742325  45.8412422  58.3698743  97.7968994  46.3603653
  58.2770116 102.3295753  40.8910662  57.6415949 102.4030379  41.6031566
  57.9467522 102.9189351  40.2129741  63.5068466  96.8298135  47.0954983
  64.2393637  96.2597352  47.3292813  62.7507821  96.4419736  47.5361489
  52.7813044  99.7915230  40.5871637  52.6649302  99.1160133  41.2552721
  52.8915304  99.3047604  39.7703790  55.1244585  99.2525377  44.2918326
  54.7602793  98.7255998  45.0031247  55.9811701  98.8623846  44.1184811
  61.0293886  90.5419710  51.5549592  60.6977211  91.4115121  51.3310807
  60.4339499  90.2255994  52.2343622  54.7650072  94.2815277  39.2879674
  54.9324475  95.1495513  39.6550145  54.5747241  94.4442558  38.3640964
  57.5225405 102.7432256  50.9545505  57.2226129 103.6457294  50.8461312
  57.1776465 102.4764439  51.8066658  50.9737887  99.1946052  46.9882209
  50.0488383  99.0622267  47.1959901  51.2222300  99.9740272  47.4852151
  60.9222549  95.2614796  48.6342942  60.0139427  95.1930204  48.3401703
  60.8710145  95.7386741  49.4624767  54.7439293  96.7372934  40.2726341
  54.6238918  97.1829985  41.1111821  54.0491882  97.0858252  39.7139879
  48.3346698  98.8379326  47.8225998  48.4639079  99.0913805  48.7365410
  47.6544149  99.4307034  47.5030653  52.5046185 109.5076576  43.9216472
  52.4270215 110.4584401  44.0004953  51.9007829 109.1622448  44.5791399
  54.9963415  96.6804441  56.5777839  54.2196749  97.2398361  56.5680704
  55.6353978  97.1661224  57.0992709  62.7884196  93.4631234  50.4120816
  62.1458576  93.7563767  49.7660610  62.2839124  93.3484155  51.2174013
  60.4424359  97.2094407  41.1006675  61.3542215  97.4421794  40.9254373
  59.9334006  97.7931452  40.5381754  53.2509787  99.4889895  56.1395806
  53.9924472 100.0274939  55.8630630  52.5446773 100.1156183  56.2967358
  58.7265127 101.6319035  54.7367968  59.1348483 101.1901446  53.9922600
  58.0042388 101.0571663  54.9902161  55.0796197  96.5691642  52.1101525
  55.9257392  96.9931056  52.2536174  55.0194835  95.9125266  52.8040088
  59.0493942 102.1920226  48.4920257  58.4202804 102.3565940  47.7896324
  58.6619604 102.6061835  49.2631221  62.9283173 103.1274664  45.8464620
  62.2434212 103.5073565  45.2961654  63.0127023 103.7369990  46.5796568
  58.2295642  94.2296010  53.7682698  57.9856574  94.9838071  53.2316974
  58.5055573  94.6081358  54.6029945  60.1834105 100.7734623  52.4459964
  60.3951000 101.4166383  51.7694345  60.1363853  99.9396939  51.9781894
  57.7860334  93.3852443  49.3496536  56.9244813  93.6833697  49.6413274
  57.8122769  93.6022842  48.4177569  54.6021903 101.9294634  45.7570342
  55.0660249 102.2082337  44.9674964  54.3378702 101.0278078  45.5743432
  51.4945985 101.4766115  48.6950105  52.0647342 101.9053384  48.0567589
  52.0854096 101.1948700  49.3934291  53.5390790  98.0517786  42.5659907
  54.2414833  98.5038830  43.0333833  53.2071418  97.4101605  43.1939800
  51.9871151  96.6429543  56.9411116  51.3569812  97.3245824  57.1746513
  51.8807239  96.5312624  55.9964254  47.2816123  96.3101339  47.8677040
  46.4915177  96.5658867  47.3917151  47.7727371  97.1249677  47.9729081
  61.2979933 103.6506578  50.6182321  62.1197377 103.2486765  50.3365003
  61.2942336 103.5474812  51.5698437  49.2330869  96.6745918  44.8260517
  48.4362032  96.7864612  45.3444013  49.0056461  97.0132570  43.9601408
  55.0636536 103.1990621  52.7743032  55.1280969 103.6611029  53.6101204
  54.3547460 102.5687986  52.9025342  45.5653826  96.5631829  50.2992031
  45.8161865  97.4478839  50.5649607  46.1013375  96.3836431  49.5267123
  69.3885926  99.9945327  46.9667293  68.6349634  99.4252725  46.8111297
  69.5233467  99.9607991  47.9137927  54.7784554 104.8658729  42.6422012
  54.6430229 105.7110265  43.0706860  55.3194367 105.0678007  41.8787946
  51.2651894  90.9450309  59.3036367  50.8718839  90.3916507  59.9784012
  52.0818034  91.2560887  59.6942885  48.2313952 102.3834167  43.2149937
  48.7438472 103.1777417  43.3655502  48.8836664 101.6860457  43.1483539
  50.0408836 105.4999923  45.2972690  50.2175465 106.4217888  45.1093674
  50.8365670 105.1858342  45.7267070  54.1819855  92.3608188  56.8956624
  54.9229568  92.9615341  56.8161086  54.4137778  91.6185826  56.3374666
  49.3261193  97.5464555  55.1734854  49.2114708  96.6449812  55.4741952
  48.4705711  97.7928252  54.8219670  56.4053031 105.4882295  56.7722354
  55.9616885 104.7018674  56.4543259  57.0670244 105.6761446  56.1066245
  51.1640152 107.0178097  51.2983033  51.7147577 106.8895160  50.5260027
  50.3251628 107.3172986  50.9477925  58.5034269 105.7685095  54.8003755
  58.4852744 106.5893976  54.3084025  59.4254189 105.6439171  55.0253897
  54.9607323 103.2829225  55.6427264  55.4935660 102.5217513  55.4126572
  54.4321404 102.9902877  56.3851418  58.1277018  88.3889291  51.1720906
  57.7841287  89.2790932  51.0960016  58.4955980  88.1990948  50.3090491
  46.1962868 100.7122821  43.9909508  47.0338090 101.1219830  43.7743215
  46.3741136  99.7722263  43.9609702  58.0927300  98.3797902  39.6793341
  57.5773924  99.1502507  39.9181728  57.8204609  97.7063038  40.3026402
  55.6774411  93.2247603  44.7378579  54.8216008  92.8354453  44.5584218
  56.0901363  93.3039563  43.8778365  57.2073558  90.7593946  49.1370139
  56.7038354  90.7224081  48.3237944  57.5004165  91.6686689  49.1966795
  53.4516444  90.8432676  48.1436321  54.3169441  90.6475484  47.7842210
  53.5193953  90.6143027  49.0705677  63.0661575 101.1330257  41.6146514
  62.2891017 100.7941416  41.1701676  63.7453056 101.1382880  40.9401479
  57.8813604  96.2524994  41.5053122  57.5763739  96.5671143  42.3563265
  58.8344046  96.3306414  41.5480455  56.3260035 102.4115217  43.1546076
  55.7981397 101.6767977  42.8419313  55.8247538 103.1889894  42.9086044
  61.3052881 100.6064238  48.2713122  60.6476556 101.2963499  48.3593251
  62.1093281 100.9960670  48.6147108  51.0578763  93.0734884  45.5152687
  51.6322515  92.8510065  44.7825880  51.6449746  93.1423578  46.2681289
  60.1158340  98.9608610  46.3217064  60.6290222  99.5938602  46.8238774
  60.7659564  98.3609806  45.9560424  51.3848350  95.1039345  39.5348573
  50.5485662  95.4414031  39.8557847  51.2453120  94.9688324  38.5975710
  53.3601431  89.9476132  44.2427757  52.7065843  89.6325150  43.6184372
  53.3181905  89.3251873  44.9687580  54.4712636 100.2295428  36.1581049
  53.5639697  99.9984681  36.3572198  54.9683668  99.4333047  36.3455030
  57.3780715 108.9392935  39.0777735  56.7042413 109.2424631  39.6862693
  57.7646536 109.7422015  38.7283192  56.5939171  96.4358066  48.5675404
  55.6761733  96.6573013  48.4097092  57.0099315  96.5104376  47.7087112
  57.3774219  97.8349482  43.6978085  58.1246038  98.3470879  43.3885207
  57.6465808  97.5133534  44.5582478  55.6500869 100.3308022  40.6805039
  54.7412088 100.0467055  40.7777509  55.6795953 100.7507101  39.8208346
  60.8820136 103.9414612  44.4496206  60.4282464 103.1005522  44.5061397
  60.2514103 104.5776010  44.7870987  59.8253056  94.8706598  45.6796874
  59.0875813  94.3583984  46.0107117  60.0779830  94.4306980  44.8680151
  59.3253076 105.7791109  45.3846025  59.6176050 106.3396166  44.6658390
  59.8351696 106.0719670  46.1399184  59.9264683  87.6482850  46.2738643
  60.2323560  86.7880213  45.9864558  60.6517288  88.2400470  46.0737637
  46.2189039  98.0513537  44.6620241  46.0213439  97.4582897  43.9371308
  45.6635703  97.7465747  45.3796180  54.1985763  97.9436643  46.7814834
  54.2534373  96.9910479  46.7057311  53.3876965  98.0996082  47.2656133
  55.3476957 101.8716766  38.0193118  54.9096387 101.1552625  37.5598755
  56.0887398 102.0992881  37.4578209  52.1378123  96.5613703  44.5405213
  51.3245989  96.8607873  44.9470405  52.6337117  96.1669392  45.2579695
  54.2886701 106.5571460  46.4739478  54.2462880 106.7832306  45.5448010
  55.2049400 106.3234834  46.6225279  57.7352335  97.0255527  53.3720107
  58.0901722  97.2527000  54.2314573  58.3824466  97.3573904  52.7497362
  63.4650072 100.1473963  44.0769436  63.3267970 100.3375559  43.1490625
  63.1086290 100.9093346  44.5337487  51.6292198  94.1332058  50.1566448
  52.2691577  93.9920817  49.4589411  50.7969728  93.8466572  49.7805050
  63.4919451 102.2150490  49.0880708  63.9255958 102.1225779  49.9363762
  64.2051032 102.1907991  48.4500724  52.4052502 103.4334489  46.2701441
  53.1993100 102.9384809  46.0684016  51.6944194 102.9052352  45.9069146
  57.2247346 105.8152584  50.6213808  57.2784368 106.3843521  51.3891524
  56.3562128 105.9854469  50.2567845  48.7135265  97.5777570  42.3461193
  47.7832853  97.5162026  42.5631155  48.8092737  97.0553523  41.5497835
  48.6320814  94.1032383  44.9339435  48.8927632  95.0177717  44.8248595
  49.4537987  93.6356826  45.0836048  50.1045740  95.5170140  52.1038259
  50.7768793  95.3087503  51.4550908  49.2775526  95.3192226  51.6643492
  64.3535001 102.2574191  51.6213593  64.5470891 103.1620001  51.8672868
  64.2535619 101.7981610  52.4552178  56.0071312  92.1432081  54.1203920
  55.3599227  92.8422031  54.0268397  56.7772327  92.5768225  54.4880169
  59.4150110 102.4080934  57.1954474  59.2635616 102.1791485  56.2784557
  59.4054789 103.3651535  57.2085819  56.1835446  99.9812846  52.1800740
  57.1127506 100.1324006  52.0069707  55.7626476 100.0696867  51.3249387
  54.9823778 104.0063511  49.9499278  54.8434863 103.6382295  50.8225216
  54.1938374 104.5211150  49.7783235  55.5771930 109.1072607  41.2924814
  55.7523685 108.6360650  42.1070437  54.8904718 109.7338373  41.5206075
  56.5328993 103.3845113  47.3388115  56.1978825 103.3445883  48.2345765
  56.0332939 102.7189829  46.8658526  50.5073237  98.7912743  52.8640697
  50.3693035  98.0592982  53.4652236  51.4178160  98.7021644  52.5824884
  59.4688184 100.7301148  37.6125175  58.8517355 100.0047976  37.5158228
  59.0004673 101.4910508  37.2692249  53.1355537  98.5032703  52.3524376
  53.8455156  97.8625895  52.3110995  53.0924846  98.7545598  53.2750557
  61.1242316 105.4400056  55.2730955  61.0654862 104.7559276  54.6061538
  61.5261835 106.1819046  54.8211581  51.8484471  95.4897921  54.1720016
  51.3121828  95.0388659  54.8241612  51.2601180  95.6243829  53.4290480
  50.1433015 112.2561970  48.0664674  50.3829613 112.8880494  48.7443693
  49.3002211 111.9050010  48.3530034  51.2586730  94.9486572  36.7346479
  50.3816197  94.8275373  36.3708726  51.7344483  94.1572650  36.4825368
  61.1259723 103.4039640  53.5044935  60.2386502 103.0665562  53.6271334
  61.6958274 102.6722671  53.7413701  42.7788871  99.7363732  46.8287987
  43.4659910  99.4225462  46.2409002  42.6236999 100.6405096  46.5555238
  47.5823593  94.6253928  51.2573010  47.4981781  94.0179598  50.5223420
  46.7606299  95.1162947  51.2582507  54.6560877 108.0641092  50.4706178
  54.5831048 108.8696064  50.9825483  54.2138270 108.2633058  49.6454200
  54.4450656 107.3012862  43.9809000  53.6618178 107.8434543  44.0747224
  55.1443402 107.8186842  44.3803241  57.7547307  93.1107492  46.6243205
  58.2516006  92.3577454  46.3044276  56.9834288  93.1471809  46.0586415
  65.6077064  98.8147857  48.2661497  65.5966940  99.6972573  47.8955430
  64.7394443  98.4619408  48.0716034  57.1159560 107.9627926  52.6264337
  57.8287533 108.5975391  52.5540238  56.6249589 108.0591792  51.8104339
  58.8377087 101.8679179  44.1981629  57.9033366 101.9880642  44.0286333
  59.0153756 100.9651646  43.9341639  54.3382275  95.2524875  46.3514890
  53.9680063  94.6995915  47.0395795  54.8341368  94.6483008  45.7989890
  62.2249639  97.7096498  44.7331663  62.6910091  98.5424490  44.6591965
  62.6757139  97.2441480  45.4376921  52.1671474 105.7122370  53.4469908
  52.8680933 106.3458853  53.5999302  51.6966589 106.0537101  52.6865547
  60.2925870 104.0540320  41.7317815  60.5685714 103.9396914  42.6411689
  59.4230368 103.6557805  41.6929988  60.1966301  90.0777085  48.7722564
  59.2829381  90.3081312  48.9404771  60.6259403  90.1615529  49.6236597
  59.9672760  98.2666977  51.2722458  59.3144210  98.5142885  50.6174911
  60.3453140  97.4531116  50.9384935  56.9279934 108.3026670  45.3750628
  57.1102328 107.4848326  45.8378381  57.7512920 108.5194363  44.9375518
  57.2622099 107.2294856  42.6365677  57.7909866 106.7187310  42.0235839
  57.5250319 106.9137386  43.5011210  56.0160333  99.0086788  57.7588495
  55.3400970  98.9080918  58.4290870  56.8387967  98.8526002  58.2224492
  47.7639192 105.2458725  50.3801010  48.3492629 104.5002413  50.5128915
  47.5664030 105.5562682  51.2637674  50.6177847 108.2809972  45.3963453
  49.9488222 108.7656100  44.9127493  50.4790717 108.5279193  46.3106831
  42.3556847  97.8164325  49.1005454  42.3940946  97.2827916  49.8942572
  41.8497139  97.2899531  48.4816431  54.7583116 110.3153716  51.9946111
  55.3101424 110.4785337  52.7595196  55.0989309 110.9058154  51.3226136
  49.7347609  92.6628866  52.5967996  49.7988935  93.5243697  52.1845394
  49.6714729  92.0502867  51.8640354  49.2099881  94.7351998  56.2441030
  49.8371920  94.3529075  56.8578555  48.3527800  94.5166200  56.6096723
  59.6093990 105.1414973  57.8494766  60.1533894 105.7544932  57.3549720
  59.0280835 105.6994552  58.3661779  45.9865424  96.5428427  42.1759385
  46.2818865  95.6339106  42.1226439  45.0853460  96.5216167  41.8540387
  57.8951503 108.2635691  48.9809793  57.7702642 107.4625431  48.4720739
  58.5530594 108.7581885  48.4923763  49.5159671  94.6184424  48.1586934
  48.7946257  95.2320392  48.0194407  50.3052927  95.1542189  48.0803580
  59.9586411 106.0644711  50.6089343  59.0116747 105.9450063  50.5367670
  60.3069185 105.1767209  50.6915605  52.3185985  91.9538850  54.4327585
  52.8420387  92.2001147  55.1953895  52.0998318  92.7858885  54.0130723
  47.7153266  94.2242525  42.2998710  47.3865972  93.3439904  42.1173816
  48.0692637  94.1690194  43.1875099  56.9632845 105.8597428  46.8093696
  56.8157807 104.9314135  46.9901266  57.7886338 105.8817518  46.3250771
  50.8295089  94.5115495  42.6674188  51.1691161  95.0401416  41.9452796
  51.2767209  94.8495901  43.4432754  60.5666967 106.6825986  47.8958568
  61.4913514 106.4768848  47.7583020  60.3982270 106.4342388  48.8047910
  53.5238530  92.8952545  52.1177256  53.1835350  92.0960359  52.5197936
  52.8177536  93.1954256  51.5454089  54.1755002  89.9801858  50.5704579
  54.9981071  89.5062336  50.4483469  54.4193065  90.7592342  51.0703265
  52.8163236  93.0090116  40.8667481  53.5371599  93.3871369  40.3631197
  52.1928540  93.7278993  40.9702459  56.9594359  93.7135265  41.8025813
  57.1757973  94.5959903  41.5014641  56.4788426  93.3221479  41.0731455
  51.6993580  96.6720979  48.3796558  51.5538161  96.9861282  49.2720839
  51.2218784  97.2905879  47.8267456  53.5589963  93.6623527  48.4277447
  53.5451532  92.7664620  48.0909745  54.2762391  93.6694190  49.0615733
  55.4116094  94.0960867  50.4730575  55.1533872  95.0177937  50.4714905
  54.8801134  93.6991301  51.1631039  60.3562283 107.2011654  43.2520660
  60.5299160 106.6358076  42.4994512  60.8491174 108.0012549  43.0700150
  46.1739243  99.2126323  51.3184219  45.6292711  99.9886131  51.4504493
  47.0518592  99.5597127  51.1603340  52.9626859  92.5437907  43.6965017
  53.0842770  91.6154553  43.8955905  52.6728902  92.5576593  42.7843333
  55.8318050  90.2292817  46.8331737  55.8539746  90.2932150  45.8783717
  56.2486109  89.3897326  47.0272243  66.2101674  99.9648077  44.8710960
  66.6532820  99.2155402  44.4730083  65.3328184  99.9558213  44.4884692
  61.3437455 106.5178418  40.3517558  62.0388360 107.1385111  40.5704873
  61.6860605 105.6673769  40.6269936  46.9605264  98.3396219  54.2114376
  46.2187000  98.4878855  54.7979006  46.6398009  98.6004485  53.3481125
  63.2428878 103.9678124  41.8804889  63.7680202 104.3065397  41.1554209
  63.1551231 103.0325139  41.6968024  54.9048927 107.8812197  54.0094766
  55.2136054 107.6361344  54.8817465  55.7024409 108.0858836  53.5213636
  54.9269539 110.0350107  46.2400142  54.4874529 109.5426486  46.9332999
  55.6777656 109.4923075  45.9992217  47.4061878 106.2261648  46.2424770
  48.2319898 105.9265420  45.8623414  47.0555930 105.4569270  46.6914559
  52.3743411 105.5788116  48.3122444  51.7523421 104.9158821  48.0124672
  53.0448278 105.6049248  47.6296092  45.6070483 104.1447974  47.2013704
  44.7702391 103.7170149  47.0197705  45.5794129 104.3380418  48.1384495
  52.4467939  94.0569904  57.9054950  52.4956094  94.9332027  57.5232719
  52.9890453  93.5147297  57.3326593  62.9322784 104.6011027  57.1856087
  62.1418328 104.5835166  56.6460586  62.6956139 105.1399321  57.9405124
  63.0520659 101.4503494  54.4988815  63.1018664 101.2853501  55.4404338
  62.9434583 100.5830753  54.1086696  51.9356918 104.1292039  41.7880904
  52.0845039 104.8127504  41.1347577  52.7423362 104.1097130  42.3030360
  60.3424422  97.4334422  55.8148122  61.2434285  97.2940887  55.5232120
  60.4172396  97.5988877  56.7546300  54.6767227  94.8101277  54.6601308
  53.8070537  95.1034843  54.3883897  54.9126708  95.3941722  55.3808572
  64.5538856 103.8700435  54.7430837  64.2623665 104.2330416  55.5794298
  63.9410988 103.1567444  54.5644169  65.7534539 101.4353315  47.2633407
  66.5881430 101.8743119  47.4270968  65.8893667 100.9591968  46.4441653
  62.8026045  98.9933050  53.2110895  63.2780166  99.1860696  52.4029746
  61.8791610  99.0492236  52.9654279  49.6909551 100.1557217  42.7941973
  49.4455593  99.2519547  42.9922183  49.8605466 100.1574368  41.8521451
  57.3806261  91.0280893  52.1766729  57.8988205  91.7641920  51.8513217
  57.0261394  91.3344887  53.0113488  48.9605199  95.8885575  40.2928135
  48.2674444  95.9629930  39.6368171  48.7156951  95.1245918  40.8149652
  57.6318855  87.4481176  47.6967625  57.9120609  86.7804365  48.3228052
  58.4169462  87.6410272  47.1842289  55.4352324 106.6240170  39.2592652
  54.8626291 107.2430357  38.8063124  56.0085117 107.1739532  39.7932574
  61.5027714  95.8698810  51.4439201  62.4545136  95.9696908  51.4651425
  61.3331164  95.0777079  51.9537285  59.5242093  92.9554393  51.6298602
  58.9292025  93.2359406  50.9345090  59.2391790  93.4448294  52.4015343
  58.6549583 106.9077320  40.3901234  59.5880257 106.8422882  40.5934110
  58.5672796 107.7433587  39.9315767  61.2837600 106.2243190  37.3505182
  61.2051232 105.8903054  38.2440940  62.1047267 106.7164958  37.3496654
  63.9815791  99.0904930  50.5581500  63.9492111  98.1520930  50.7441184
  64.5916415  99.1688966  49.8247325  55.8199122  97.9600983  36.6008704
  56.7658227  97.8307191  36.6697122  55.4413367  97.2215645  37.0778132
  64.1310280  95.8815973  50.6039783  63.6149328  95.0974430  50.4169712
  65.0150228  95.5534690  50.7686303  61.7921007  89.6256989  46.5635596
  61.5945828  89.3172077  47.4478928  62.4020712  90.3518628  46.6933526
  69.7992341 100.1520937  49.6987537  70.5295730  99.8906225  50.2595240
  69.1899287  99.4149658  49.7389605  67.8807638  98.2928799  50.2961988
  67.1540802  98.1584764  49.6878480  67.4654925  98.6005628  51.1018706
  55.7037815 102.0118729  58.0609361  56.6240824 102.1897328  58.2549408
  55.6687398 101.0674774  57.9089061  54.0042039  95.8850959  36.5363590
  53.0973495  95.5884072  36.6126303  54.2818020  95.5880777  35.6697876
  44.9219980  97.2057322  46.9862636  44.6022764  96.3522631  46.6937010
  44.3753408  97.4205901  47.7420603  48.6999887  99.9219763  50.7032142
  48.9185897 100.8536871  50.7220176  49.1125661  99.5627738  51.4886946
  55.6204105  90.4287849  42.6907831  54.8104833  90.0834934  43.0663077
  56.3088522  90.1195393  43.2795442  57.5494653  89.5065896  44.3132127
  58.1025692  89.9261349  44.9722151  57.7864740  88.5801644  44.3555083
  53.5727753  95.4952969  60.0934891  53.4724479  96.4447326  60.0246982
  53.3549295  95.1671208  59.2210961  52.7740824  92.7437894  36.6775569
  53.6359988  93.0692793  36.9371386  52.9591168  91.9569390  36.1648635
  44.7908240 100.8260234  48.9555757  44.0971711 100.4114187  48.4425712
  45.5381231 100.8680770  48.3589176  60.9273460  91.6166421  43.8210792
  60.3472129  92.2751225  43.4388844  60.6609393  90.7943765  43.4098209
  59.3777027  91.0171478  46.0232112  59.8776805  91.1288013  45.2146431
  60.0212635  90.7132531  46.6632920  53.4359023  98.9250108  58.9099953
  52.9526104  99.7250468  59.1163842  53.5219962  98.9358053  57.9567397
  46.7044982 100.7578488  46.8321772  46.6815670 100.8566175  45.8803655
  47.0145619 101.6043639  47.1538939  49.3632360 102.8154643  50.9468387
  50.3175614 102.7838585  50.8798318  49.1644884 102.3545267  51.7618613
  49.9531742 101.3855759  53.5139184  50.7724631 101.8799837  53.5374022
  50.2268550 100.4687727  53.4856752  59.7098338  93.7766511  42.8767140
  58.8224193  94.0616162  42.6587335  60.1252328  93.6160275  42.0294417
  63.0612875  93.8013032  46.5921479  63.8373265  94.2909485  46.8646096
  62.3361009  94.2271086  47.0493349  65.4985433  94.5140651  47.6495420
  66.0929924  94.2736387  46.9388728  65.5712017  93.7947782  48.2768956
  47.7182589 108.3574262  47.9638585  47.5837057 107.5974663  47.3976583
  47.3014651 109.0815162  47.4967374  58.8541552 103.5411186  36.9715160
  59.5577402 103.7461188  37.5872816  58.1304201 104.1087948  37.2364243
  59.6839362  99.2921047  43.0917430  59.6274564  99.7489598  42.2525063
  60.2367705  98.5311732  42.9140273  63.4944168  95.0810779  43.9167550
  63.2381102  94.6807415  44.7475757  62.8697036  95.7954573  43.7917689
  67.8056506  97.8206852  46.4238841  67.2456064  97.8900041  47.1970403
  67.2000009  97.6447837  45.7038337  50.8751715 109.2543579  48.1757027
  50.7584099 110.1989012  48.0735718  50.0544161 108.9517141  48.5642827
  60.7628249 103.9793715  39.0213620  61.5973853 103.5474913  38.8391095
  60.6012592 103.8075729  39.9490514  60.4174142 100.4825828  40.3869959
  60.3622945 100.3170100  39.4458403  59.7920197 101.1901861  40.5432149
  45.2066657  95.7193893  54.2131382  45.8525520  95.2092847  54.7018607
  44.9983808  96.4562574  54.7874807  57.7320049 102.7874740  59.7123522
  58.6011208 102.9615392  59.3510157  57.2526800 103.6069157  59.5899251
  53.7270267  89.9833937  39.9655278  53.7148937  90.9275777  40.1223549
  54.6193689  89.8004083  39.6714739  51.9006229 109.9071841  51.3912956
  52.8033476 109.9395451  51.7079451  51.6743599 108.9772292  51.4059292
  53.6559831 108.6602828  48.0523034  52.7055462 108.6604689  47.9387407
  53.9592317 107.9135562  47.5359069  57.5422386  86.5776714  44.2201215
  56.7754782  86.0235201  44.3657897  57.9533091  86.6498583  45.0815366
  49.5464147  92.8661510  58.3106396  50.4095609  92.5098315  58.5209720
  48.9729558  92.5275405  58.9981800  69.3912524 114.4963366  49.1168797
  70.0290934 114.3770113  48.4132137  69.2733367 115.4444210  49.1756749
  66.2002231 114.4490794  49.0530321  65.8620742 114.3331859  48.1650856
  67.0691999 114.0481959  49.0331328  62.0589046 116.3026271  45.0427212
  61.4953912 116.2116208  44.2743500  61.9441441 115.4826175  45.5229705
  66.6822014 115.6025646  55.0116527  66.6710654 115.2078444  54.1397031
  66.8442653 114.8691719  55.6050298  59.6053478 117.7977462  47.8811433
  60.3974770 117.4568287  47.4657732  59.8450128 117.9072437  48.8013586
  67.6388605 119.9697238  40.3541677  66.9876585 120.5551319  39.9675691
  68.4332968 120.5003433  40.4136715  61.5644232 117.0586375  40.7528812
  62.3375108 116.5115363  40.6141687  61.9169631 117.9230625  40.9643273
  63.4029275 118.3862758  53.9595711  63.1119141 119.2908389  53.8442377
  64.0386259 118.4279285  54.6739781  64.3285482 115.7639606  50.5497071
  64.9249054 115.5395629  49.8354034  64.3860453 115.0224352  51.1522518
  63.9010510 113.2179042  38.3847262  64.1536031 112.6960563  37.6230725
  62.9635069 113.0545187  38.4873945  68.9453793 112.2214820  46.1922005
  69.7316882 111.8034243  45.8412422  69.2092497 113.1260912  46.3603653
  69.1163870 117.6587670  40.8910662  68.4809703 117.7322297  41.6031566
  68.7861277 118.2481269  40.2129741  74.3462220 112.1590053  47.0954983
  75.0787392 111.5889270  47.3292813  73.5901576 111.7711654  47.5361489
  63.6206799 115.1207148  40.5871637  63.5043057 114.4452051  41.2552721
  63.7309059 114.6339521  39.7703790  65.9638340 114.5817295  44.2918326
  65.5996547 114.0547916  45.0031247  66.8205456 114.1915764  44.1184811
  71.8687640 105.8711627  51.5549592  71.5370965 106.7407038  51.3310807
  71.2733254 105.5547911  52.2343622  65.6043827 109.6107194  39.2879674
  65.7718229 110.4787431  39.6550145  65.4140996 109.7734476  38.3640964
  68.3619160 118.0724173  50.9545505  68.0619883 118.9749212  50.8461312
  68.0170219 117.8056356  51.8066658  61.8131641 114.5237970  46.9882209
  60.8882138 114.3914184  47.1959901  62.0616055 115.3032189  47.4852151
  71.7616304 110.5906713  48.6342942  70.8533181 110.5222122  48.3401703
  71.7103900 111.0678658  49.4624767  65.5833048 112.0664852  40.2726341
  65.4632673 112.5121903  41.1111821  64.8885636 112.4150170  39.7139879
  59.1740452 114.1671244  47.8225998  59.3032834 114.4205723  48.7365410
  58.4937904 114.7598952  47.5030653  63.3439940 124.8368494  43.9216472
  63.2663969 125.7876319  44.0004953  62.7401583 124.4914366  44.5791399
  65.8357169 112.0096359  56.5777839  65.0590504 112.5690279  56.5680704
  66.4747733 112.4953142  57.0992709  73.6277950 108.7923152  50.4120816
  72.9852330 109.0855685  49.7660610  73.1232879 108.6776072  51.2174013
  71.2818114 112.5386325  41.1006675  72.1935970 112.7713712  40.9254373
  70.7727761 113.1223369  40.5381754  64.0903542 114.8181812  56.1395806
  64.8318226 115.3566856  55.8630630  63.3840527 115.4448101  56.2967358
  69.5658881 116.9610953  54.7367968  69.9742237 116.5193363  53.9922600
  68.8436143 116.3863580  54.9902161  65.9189951 111.8983560  52.1101525
  66.7651147 112.3222973  52.2536174  65.8588589 111.2417184  52.8040088
  69.8887696 117.5212143  48.4920257  69.2596559 117.6857858  47.7896324
  69.5013358 117.9353753  49.2631221  73.7676928 118.4566581  45.8464620
  73.0827966 118.8365483  45.2961654  73.8520777 119.0661908  46.5796568
  69.0689397 109.5587928  53.7682698  68.8250329 110.3129989  53.2316974
  69.3449327 109.9373276  54.6029945  71.0227860 116.1026540  52.4459964
  71.2344755 116.7458300  51.7694345  70.9757608 115.2688857  51.9781894
  68.6254089 108.7144361  49.3496536  67.7638568 109.0125615  49.6413274
  68.6516523 108.9314760  48.4177569  65.4415658 117.2586552  45.7570342
  65.9054003 117.5374255  44.9674964  65.1772456 116.3569996  45.5743432
  62.3339739 116.8058033  48.6950105  62.9041096 117.2345301  48.0567589
  62.9247851 116.5240618  49.3934291  64.3784544 113.3809704  42.5659907
  65.0808587 113.8330748  43.0333833  64.0465173 112.7393523  43.1939800
  62.8264906 111.9721461  56.9411116  62.1963566 112.6537741  57.1746513
  62.7200993 111.8604542  55.9964254  58.1209878 111.6393257  47.8677040
  57.3308932 111.8950785  47.3917151  58.6121125 112.4541594  47.9729081
  72.1373688 118.9798496  50.6182321  72.9591131 118.5778683  50.3365003
  72.1336090 118.8766730  51.5698437  60.0724623 112.0037836  44.8260517
  59.2755787 112.1156530  45.3444013  59.8450216 112.3424488  43.9601408
  65.9030291 118.5282539  52.7743032  65.9674723 118.9902946  53.6101204
  65.1941215 117.8979904  52.9025342  56.4047581 111.8923747  50.2992031
  56.6555619 112.7770757  50.5649607  56.9407129 111.7128349  49.5267123
  80.2279681 115.3237244  46.9667293  79.4743389 114.7544642  46.8111297
  80.3627222 115.2899909  47.9137927  65.6178309 120.1950647  42.6422012
  65.4823983 121.0402182  43.0706860  66.1588121 120.3969924  41.8787946
  62.1045648 106.2742226  59.3036367  61.7112594 105.7208425  59.9784012
  62.9211789 106.5852805  59.6942885  59.0707706 117.7126085  43.2149937
  59.5832227 118.5069335  43.3655502  59.7230419 117.0152375  43.1483539
  60.8802591 120.8291841  45.2972690  61.0569219 121.7509806  45.1093674
  61.6759424 120.5150260  45.7267070  65.0213609 107.6900106  56.8956624
  65.7623323 108.2907259  56.8161086  65.2531532 106.9477743  56.3374666
  60.1654947 112.8756473  55.1734854  60.0508462 111.9741730  55.4741952
  59.3099465 113.1220170  54.8219670  67.2446785 120.8174213  56.7722354
  66.8010639 120.0310592  56.4543259  67.9063999 121.0053364  56.1066245
  62.0033906 122.3470015  51.2983033  62.5541331 122.2187078  50.5260027
  61.1645382 122.6464904  50.9477925  69.3428023 121.0977013  54.8003755
  69.3246498 121.9185894  54.3084025  70.2647943 120.9731088  55.0253897
  65.8001077 118.6121142  55.6427264  66.3329414 117.8509431  55.4126572
  65.2715158 118.3194794  56.3851418  68.9670772 103.7181208  51.1720906
  68.6235042 104.6082850  51.0960016  69.3349735 103.5282866  50.3090491
  57.0356623 116.0414739  43.9909508  57.8731845 116.4511747  43.7743215
  57.2134891 115.1014181  43.9609702  68.9321055 113.7089820  39.6793341
  68.4167678 114.4794424  39.9181728  68.6598363 113.0354956  40.3026402
  66.5168166 108.5539520  44.7378579  65.6609762 108.1646371  44.5584218
  66.9295118 108.6331481  43.8778365  68.0467313 106.0885864  49.1370139
  67.5432108 106.0515999  48.3237944  68.3397919 106.9978606  49.1966795
  64.2910198 106.1724593  48.1436321  65.1563195 105.9767402  47.7842210
  64.3587707 105.9434945  49.0705677  73.9055329 116.4622174  41.6146514
  73.1284772 116.1233334  41.1701676  74.5846810 116.4674797  40.9401479
  68.7207358 111.5816912  41.5053122  68.4157494 111.8963061  42.3563265
  69.6737800 111.6598332  41.5480455  67.1653790 117.7407135  43.1546076
  66.6375152 117.0059895  42.8419313  66.6641293 118.5181811  42.9086044
  72.1446636 115.9356155  48.2713122  71.4870310 116.6255417  48.3593251
  72.9487035 116.3252587  48.6147108  61.8972518 108.4026801  45.5152687
  62.4716269 108.1801983  44.7825880  62.4843500 108.4715496  46.2681289
  70.9552095 114.2900528  46.3217064  71.4683977 114.9230520  46.8238774
  71.6053319 113.6901724  45.9560424  62.2242105 110.4331262  39.5348573
  61.3879417 110.7705949  39.8557847  62.0846874 110.2980242  38.5975710
  64.1995185 105.2768050  44.2427757  63.5459598 104.9617067  43.6184372
  64.1575659 104.6543791  44.9687580  65.3106390 115.5587345  36.1581049
  64.4033452 115.3276599  36.3572198  65.8077422 114.7624964  36.3455030
  68.2174469 124.2684852  39.0777735  67.5436168 124.5716549  39.6862693
  68.6040291 125.0713933  38.7283192  67.4332926 111.7649984  48.5675404
  66.5155487 111.9864931  48.4097092  67.8493069 111.8396294  47.7087112
  68.2167973 113.1641399  43.6978085  68.9639792 113.6762797  43.3885207
  68.4859563 112.8425452  44.5582478  66.4894624 115.6599940  40.6805039
  65.5805843 115.3758973  40.7777509  66.5189707 116.0799019  39.8208346
  71.7213891 119.2706530  44.4496206  71.2676218 118.4297439  44.5061397
  71.0907858 119.9067928  44.7870987  70.6646811 110.1998516  45.6796874
  69.9269567 109.6875902  46.0107117  70.9173584 109.7598897  44.8680151
  70.1646830 121.1083026  45.3846025  70.4569805 121.6688083  44.6658390
  70.6745451 121.4011587  46.1399184  70.7658438 102.9774768  46.2738643
  71.0717315 102.1172131  45.9864558  71.4911043 103.5692388  46.0737637
  57.0582794 113.3805454  44.6620241  56.8607194 112.7874815  43.9371308
  56.5029458 113.0757664  45.3796180  65.0379518 113.2728561  46.7814834
  65.0928127 112.3202397  46.7057311  64.2270720 113.4288000  47.2656133
  66.1870711 117.2008684  38.0193118  65.7490141 116.4844543  37.5598755
  66.9281152 117.4284799  37.4578209  62.9771878 111.8905620  44.5405213
  62.1639743 112.1899791  44.9470405  63.4730872 111.4961309  45.2579695
  65.1280455 121.8863377  46.4739478  65.0856634 122.1124224  45.5448010
  66.0443154 121.6526752  46.6225279  68.5746089 112.3547445  53.3720107
  68.9295477 112.5818918  54.2314573  69.2218220 112.6865822  52.7497362
  74.3043826 115.4765881  44.0769436  74.1661725 115.6667477  43.1490625
  73.9480045 116.2385264  44.5337487  62.4685952 109.4623976  50.1566448
  63.1085332 109.3212735  49.4589411  61.6363483 109.1758489  49.7805050
  74.3313206 117.5442408  49.0880708  74.7649712 117.4517697  49.9363762
  75.0444786 117.5199908  48.4500724  63.2446256 118.7626406  46.2701441
  64.0386855 118.2676727  46.0684016  62.5337949 118.2344270  45.9069146
  68.0641101 121.1444502  50.6213808  68.1178123 121.7135438  51.3891524
  67.1955882 121.3146387  50.2567845  59.5529020 112.9069488  42.3461193
  58.6226608 112.8453944  42.5631155  59.6486492 112.3845441  41.5497835
  59.4714569 109.4324301  44.9339435  59.7321386 110.3469634  44.8248595
  60.2931741 108.9648744  45.0836048  60.9439494 110.8462058  52.1038259
  61.6162547 110.6379420  51.4550908  60.1169281 110.6484144  51.6643492
  75.1928755 117.5866108  51.6213593  75.3864645 118.4911919  51.8672868
  75.0929373 117.1273528  52.4552178  66.8465066 107.4723999  54.1203920
  66.1992981 108.1713949  54.0268397  67.6166081 107.9060143  54.4880169
  70.2543864 117.7372851  57.1954474  70.1029370 117.5083403  56.2784557
  70.2448543 118.6943453  57.2085819  67.0229200 115.3104764  52.1800740
  67.9521260 115.4615924  52.0069707  66.6020230 115.3988785  51.3249387
  65.8217532 119.3355428  49.9499278  65.6828618 118.9674213  50.8225216
  65.0332128 119.8503068  49.7783235  66.4165684 124.4364525  41.2924814
  66.5917440 123.9652568  42.1070437  65.7298472 125.0630291  41.5206075
  67.3722747 118.7137031  47.3388115  67.0372580 118.6737801  48.2345765
  66.8726693 118.0481747  46.8658526  61.3466991 114.1204661  52.8640697
  61.2086789 113.3884900  53.4652236  62.2571915 114.0313561  52.5824884
  70.3081939 116.0593065  37.6125175  69.6911110 115.3339894  37.5158228
  69.8398427 116.8202426  37.2692249  63.9749292 113.8324620  52.3524376
  64.6848910 113.1917813  52.3110995  63.9318600 114.0837515  53.2750557
  71.9636071 120.7691974  55.2730955  71.9048617 120.0851194  54.6061538
  72.3655589 121.5110964  54.8211581  62.6878226 110.8189838  54.1720016
  62.1515583 110.3680577  54.8241612  62.0994934 110.9535747  53.4290480
  62.0980485 110.2778490  36.7346479  61.2209951 110.1567291  36.3708726
  62.5738238 109.4864568  36.4825368  71.9653478 118.7331558  53.5044935
  71.0780257 118.3957479  53.6271334  72.5352029 118.0014589  53.7413701
  53.6182625 115.0655649  46.8287987  54.3053665 114.7517379  46.2409002
  53.4630754 115.9697014  46.5555238  58.4217347 109.9545846  51.2573010
  58.3375536 109.3471516  50.5223420  57.6000054 110.4454864  51.2582507
  65.4954631 123.3933010  50.4706178  65.4224803 124.1987982  50.9825483
  65.0532024 123.5924976  49.6454200  65.2844411 122.6304780  43.9809000
  64.5011933 123.1726460  44.0747224  65.9837156 123.1478760  44.3803241
  68.5941061 108.4399410  46.6243205  69.0909761 107.6869372  46.3044276
  67.8228043 108.4763726  46.0586415  76.4470818 114.1439775  48.2661497
  76.4360695 115.0264490  47.8955430  75.5788198 113.7911326  48.0716034
  67.9553315 123.2919844  52.6264337  68.6681287 123.9267309  52.5540238
  67.4643343 123.3883710  51.8104339  69.6770842 117.1971097  44.1981629
  68.7427120 117.3172559  44.0286333  69.8547510 116.2943564  43.9341639
  65.1776030 110.5816793  46.3514890  64.8073817 110.0287833  47.0395795
  65.6735122 109.9774926  45.7989890  73.0643393 113.0388416  44.7331663
  73.5303845 113.8716408  44.6591965  73.5150894 112.5733398  45.4376921
  63.0065228 121.0414288  53.4469908  63.7074688 121.6750771  53.5999302
  62.5360343 121.3829019  52.6865547  71.1319624 119.3832237  41.7317815
  71.4079468 119.2688832  42.6411689  70.2624123 118.9849722  41.6929988
  71.0360056 105.4069003  48.7722564  70.1223136 105.6373230  48.9404771
  71.4653157 105.4907447  49.6236597  70.8066514 113.5958895  51.2722458
  70.1537965 113.8434802  50.6174911  71.1846894 112.7823033  50.9384935
  67.7673688 123.6318588  45.3750628  67.9496083 122.8140244  45.8378381
  68.5906674 123.8486280  44.9375518  68.1015854 122.5586773  42.6365677
  68.6303620 122.0479228  42.0235839  68.3644073 122.2429304  43.5011210
  66.8554087 114.3378706  57.7588495  66.1794724 114.2372835  58.4290870
  67.6781721 114.1817920  58.2224492  58.6032946 120.5750643  50.3801010
  59.1886383 119.8294330  50.5128915  58.4057785 120.8854599  51.2637674
  61.4571602 123.6101890  45.3963453  60.7881977 124.0948018  44.9127493
  61.3184471 123.8571110  46.3106831  53.1950601 113.1456243  49.1005454
  53.2334701 112.6119833  49.8942572  52.6890894 112.6191448  48.4816431
  65.5976870 125.6445634  51.9946111  66.1495178 125.8077255  52.7595196
  65.9383064 126.2350071  51.3226136  60.5741363 107.9920783  52.5967996
  60.6382690 108.8535614  52.1845394  60.5108484 107.3794785  51.8640354
  60.0493636 110.0643916  56.2441030  60.6765675 109.6820993  56.8578555
  59.1921555 109.8458118  56.6096723  70.4487745 120.4706891  57.8494766
  70.9927649 121.0836849  57.3549720  69.8674589 121.0286469  58.3661779
  56.8259179 111.8720345  42.1759385  57.1212620 110.9631023  42.1226439
  55.9247214 111.8508084  41.8540387  68.7345257 123.5927609  48.9809793
  68.6096397 122.7917349  48.4720739  69.3924349 124.0873802  48.4923763
  60.3553426 109.9476342  48.1586934  59.6340011 110.5612309  48.0194407
  61.1446681 110.4834106  48.0803580  70.7980166 121.3936629  50.6089343
  69.8510501 121.2741980  50.5367670  71.1462939 120.5059127  50.6915605
  63.1579739 107.2830768  54.4327585  63.6814141 107.5293065  55.1953895
  62.9392073 108.1150803  54.0130723  58.5547020 109.5534443  42.2998710
  58.2259726 108.6731822  42.1173816  58.9086391 109.4982111  43.1875099
  67.8026599 121.1889345  46.8093696  67.6551562 120.2606053  46.9901266
  68.6280093 121.2109436  46.3250771  61.6688843 109.8407412  42.6674188
  62.0084916 110.3693334  41.9452796  62.1160964 110.1787819  43.4432754
  71.4060721 122.0117904  47.8958568  72.3307269 121.8060765  47.7583020
  71.2376024 121.7634305  48.8047910  64.3632284 108.2244463  52.1177256
  64.0229105 107.4252276  52.5197936  63.6571291 108.5246174  51.5454089
  65.0148756 105.3093776  50.5704579  65.8374825 104.8354254  50.4483469
  65.2586820 106.0884259  51.0703265  63.6556991 108.3382034  40.8667481
  64.3765353 108.7163287  40.3631197  63.0322295 109.0570911  40.9702459
  67.7988113 109.0427183  41.8025813  68.0151728 109.9251821  41.5014641
  67.3182181 108.6513396  41.0731455  62.5387335 112.0012896  48.3796558
  62.3931916 112.3153199  49.2720839  62.0612539 112.6197797  47.8267456
  64.3983718 108.9915444  48.4277447  64.3845287 108.0956537  48.0909745
  65.1156146 108.9986108  49.0615733  66.2509848 109.4252784  50.4730575
  65.9927626 110.3469855  50.4714905  65.7194889 109.0283219  51.1631039
  71.1956037 122.5303572  43.2520660  71.3692915 121.9649994  42.4994512
  71.6884928 123.3304466  43.0700150  57.0132997 114.5418241  51.3184219
  56.4686465 115.3178049  51.4504493  57.8912347 114.8889045  51.1603340
  63.8020614 107.8729824  43.6965017  63.9236525 106.9446471  43.8955905
  63.5122656 107.8868510  42.7843333  66.6711804 105.5584735  46.8331737
  66.6933501 105.6224068  45.8783717  67.0879863 104.7189244  47.0272243
  77.0495428 115.2939994  44.8710960  77.4926574 114.5447320  44.4730083
  76.1721939 115.2850131  44.4884692  72.1831210 121.8470336  40.3517558
  72.8782114 122.4677029  40.5704873  72.5254360 120.9965687  40.6269936
  57.7999019 113.6688137  54.2114376  57.0580755 113.8170772  54.7979006
  57.4791763 113.9296402  53.3481125  74.0822633 119.2970041  41.8804889
  74.6073957 119.6357314  41.1554209  73.9944985 118.3617057  41.6968024
  65.7442682 123.2104115  54.0094766  66.0529808 122.9653262  54.8817465
  66.5418164 123.4150754  53.5213636  65.7663294 125.3642025  46.2400142
  65.3268284 124.8718403  46.9332999  66.5171411 124.8214992  45.9992217
  58.2455633 121.5553566  46.2424770  59.0713652 121.2557337  45.8623414
  57.8949685 120.7861188  46.6914559  63.2137166 120.9080034  48.3122444
  62.5917175 120.2450739  48.0124672  63.8842033 120.9341166  47.6296092
  56.4464238 119.4739892  47.2013704  55.6096146 119.0462066  47.0197705
  56.4187883 119.6672335  48.1384495  63.2861693 109.3861822  57.9054950
  63.3349849 110.2623945  57.5232719  63.8284207 108.8439215  57.3326593
  73.7716539 119.9302945  57.1856087  72.9812083 119.9127084  56.6460586
  73.5349893 120.4691239  57.9405124  73.8914414 116.7795411  54.4988815
  73.9412419 116.6145419  55.4404338  73.7828337 115.9122670  54.1086696
  62.7750673 119.4583957  41.7880904  62.9238793 120.1419422  41.1347577
  63.5817116 119.4389047  42.3030360  71.1818176 112.7626339  55.8148122
  72.0828039 112.6232804  55.5232120  71.2566151 112.9280794  56.7546300
  65.5160982 110.1393194  54.6601308  64.6464291 110.4326760  54.3883897
  65.7520462 110.7233639  55.3808572  75.3932611 119.1992353  54.7430837
  75.1017419 119.5622334  55.5794298  74.7804742 118.4859361  54.5644169
  76.5928293 116.7645233  47.2633407  77.4275184 117.2035037  47.4270968
  76.7287422 116.2883886  46.4441653  73.6419799 114.3224968  53.2110895
  74.1173921 114.5152614  52.4029746  72.7185364 114.3784153  52.9654279
  60.5303306 115.4849135  42.7941973  60.2849348 114.5811465  42.9922183
  60.6999220 115.4866285  41.8521451  68.2200016 106.3572811  52.1766729
  68.7381959 107.0933838  51.8513217  67.8655148 106.6636804  53.0113488
  59.7998953 111.2177492  40.2928135  59.1068198 111.2921847  39.6368171
  59.5550705 110.4537836  40.8149652  68.4712610 102.7773094  47.6967625
  68.7514363 102.1096283  48.3228052  69.2563217 102.9702189  47.1842289
  66.2746078 121.9532088  39.2592652  65.7020045 122.5722275  38.8063124
  66.8478872 122.5031449  39.7932574  72.3421468 111.1990728  51.4439201
  73.2938891 111.2988825  51.4651425  72.1724918 110.4068996  51.9537285
  70.3635847 108.2846311  51.6298602  69.7685780 108.5651324  50.9345090
  70.0785544 108.7740212  52.4015343  69.4943338 122.2369238  40.3901234
  70.4274011 122.1714799  40.5934110  69.4066551 123.0725505  39.9315767
  72.1231355 121.5535108  37.3505182  72.0444986 121.2194972  38.2440940
  72.9441021 122.0456876  37.3496654  74.8209546 114.4196847  50.5581500
  74.7885866 113.4812848  50.7441184  75.4310169 114.4980884  49.8247325
  66.6592877 113.2892900  36.6008704  67.6051981 113.1599108  36.6697122
  66.2807122 112.5507562  37.0778132  74.9704034 111.2107891  50.6039783
  74.4543083 110.4266347  50.4169712  75.8543983 110.8826607  50.7686303
  72.6314761 104.9548906  46.5635596  72.4339582 104.6463995  47.4478928
  73.2414467 105.6810545  46.6933526  80.6386096 115.4812854  49.6987537
  81.3689484 115.2198142  50.2595240  80.0293041 114.7441576  49.7389605
  78.7201393 113.6220717  50.2961988  77.9934556 113.4876682  49.6878480
  78.3048680 113.9297545  51.1018706  66.5431569 117.3410646  58.0609361
  67.4634579 117.5189245  58.2549408  66.5081152 116.3966692  57.9089061
  64.8435794 111.2142877  36.5363590  63.9367249 110.9175989  36.6126303
  65.1211775 110.9172695  35.6697876  55.7613734 112.5349240  46.9862636
  55.4416519 111.6814548  46.6937010  55.2147162 112.7497818  47.7420603
  59.5393642 115.2511681  50.7032142  59.7579652 116.1828789  50.7220176
  59.9519416 114.8919656  51.4886946  66.4597860 105.7579766  42.6907831
  65.6498588 105.4126851  43.0663077  67.1482276 105.4487310  43.2795442
  68.3888408 104.8357813  44.3132127  68.9419446 105.2553267  44.9722151
  68.6258494 103.9093561  44.3555083  64.4121507 110.8244887  60.0934891
  64.3118234 111.7739244  60.0246982  64.1943049 110.4963126  59.2210961
  63.6134578 108.0729812  36.6775569  64.4753742 108.3984710  36.9371386
  63.7984923 107.2861308  36.1648635  55.6301994 116.1552152  48.9555757
  54.9365466 115.7406104  48.4425712  56.3774985 116.1972688  48.3589176
  71.7667215 106.9458338  43.8210792  71.1865884 107.6043142  43.4388844
  71.5003148 106.1235683  43.4098209  70.2170781 106.3463396  46.0232112
  70.7170560 106.4579931  45.2146431  70.8606389 106.0424449  46.6632920
  64.2752777 114.2542026  58.9099953  63.7919859 115.0542386  59.1163842
  64.3613716 114.2649971  57.9567397  57.5438737 116.0870405  46.8321772
  57.5209425 116.1858093  45.8803655  57.8539373 116.9335556  47.1538939
  60.2026115 118.1446560  50.9468387  61.1569368 118.1130503  50.8798318
  60.0038638 117.6837184  51.7618613  60.7925497 116.7147676  53.5139184
  61.6118386 117.2091755  53.5374022  61.0662304 115.7979645  53.4856752
  70.5492093 109.1058429  42.8767140  69.6617948 109.3908079  42.6587335
  70.9646082 108.9452192  42.0294417  73.9006629 109.1304950  46.5921479
  74.6767019 109.6201402  46.8646096  73.1754763 109.5563004  47.0493349
  76.3379188 109.8432569  47.6495420  76.9323679 109.6028305  46.9388728
  76.4105771 109.1239700  48.2768956  69.6935306 118.8703103  36.9715160
  70.3971157 119.0753106  37.5872816  68.9697955 119.4379865  37.2364243
  70.5233117 114.6212965  43.0917430  70.4668318 115.0781516  42.2525063
  71.0761459 113.8603649  42.9140273  74.3337923 110.4102697  43.9167550
  74.0774857 110.0099332  44.7475757  73.7090791 111.1246491  43.7917689
  78.6450260 113.1498770  46.4238841  78.0849818 113.2191959  47.1970403
  78.0393764 112.9739754  45.7038337  71.6022004 119.3085633  39.0213620
  72.4367608 118.8766831  38.8391095  71.4406347 119.1367646  39.9490514
  71.2567896 115.8117746  40.3869959  71.2016700 115.6462017  39.4458403
  70.6313951 116.5193779  40.5432149  56.0460411 111.0485810  54.2131382
  56.6919275 110.5384764  54.7018607  55.8377562 111.7854492  54.7874807
  68.5713803 118.1166658  59.7123522  69.4404963 118.2907310  59.3510157
  68.0920555 118.9361075  59.5899251  64.5664021 105.3125855  39.9655278
  64.5542691 106.2567695  40.1223549  65.4587443 105.1296000  39.6714739
  62.7399983 125.2363759  51.3912956  63.6427230 125.2687369  51.7079451
  62.5137353 124.3064210  51.4059292  64.4953585 123.9894745  48.0523034
  63.5449216 123.9896607  47.9387407  64.7986072 123.2427480  47.5359069
  68.3816141 101.9068632  44.2201215  67.6148537 101.3527118  44.3657897
  68.7926846 101.9790500  45.0815366  60.3857902 108.1953427  58.3106396
  61.2489364 107.8390232  58.5209720  59.8123313 107.8567322  58.9981800
  80.2306279 129.8255284  49.1168797  80.8684689 129.7062031  48.4132137
  80.1127122 130.7736128  49.1756749  77.0395985 129.7782712  49.0530321
  76.7014497 129.6623777  48.1650856  77.9085753 129.3773877  49.0331328
  77.5215768 130.9317564  55.0116527  77.5104409 130.5370362  54.1397031
  77.6836408 130.1983636  55.6050298  74.7404265 128.5470959  38.3847262
  74.9929785 128.0252481  37.6230725  73.8028824 128.3837105  38.4873945
  79.7847547 127.5506738  46.1922005  80.5710637 127.1326161  45.8412422
  80.0486252 128.4552830  46.3603653  85.1855975 127.4881971  47.0954983
  85.9181146 126.9181188  47.3292813  84.4295330 127.1003571  47.5361489
  76.8032094 129.9109212  44.2918326  76.4390301 129.3839833  45.0031247
  77.6599210 129.5207681  44.1184811  82.7081395 121.2003545  51.5549592
  82.3764720 122.0698956  51.3310807  82.1127008 120.8839829  52.2343622
  76.4437581 124.9399112  39.2879674  76.6111984 125.8079348  39.6550145
  76.2534750 125.1026394  38.3640964  82.6010058 125.9198631  48.6342942
  81.6926936 125.8514040  48.3401703  82.5497654 126.3970576  49.4624767
  76.4226802 127.3956770  40.2726341  76.3026427 127.8413820  41.1111821
  75.7279390 127.7442087  39.7139879  76.6750924 127.3388277  56.5777839
  75.8984258 127.8982197  56.5680704  77.3141487 127.8245060  57.0992709
  84.4671705 124.1215070  50.4120816  83.8246085 124.4147603  49.7660610
  83.9626633 124.0067990  51.2174013  82.1211868 127.8678243  41.1006675
  83.0329724 128.1005629  40.9254373  81.6121515 128.4515287  40.5381754
  76.7583706 127.2275477  52.1101525  77.6044901 127.6514891  52.2536174
  76.6982344 126.5709102  52.8040088  79.9083151 124.8879846  53.7682698
  79.6644083 125.6421906  53.2316974  80.1843082 125.2665193  54.6029945
  79.4647843 124.0436279  49.3496536  78.6032322 124.3417532  49.6413274
  79.4910278 124.2606678  48.4177569  75.2178299 128.7101622  42.5659907
  75.9202342 129.1622665  43.0333833  74.8858927 128.0685440  43.1939800
  73.6658660 127.3013378  56.9411116  73.0357321 127.9829659  57.1746513
  73.5594748 127.1896460  55.9964254  68.9603632 126.9685174  47.8677040
  68.1702686 127.2242703  47.3917151  69.4514880 127.7833512  47.9729081
  70.9118378 127.3329754  44.8260517  70.1149541 127.4448448  45.3444013
  70.6843970 127.6716406  43.9601408  72.9439403 121.6034144  59.3036367
  72.5506348 121.0500343  59.9784012  73.7605543 121.9144723  59.6942885
  75.8607364 123.0192023  56.8956624  76.6017077 123.6199176  56.8161086
  76.0925287 122.2769661  56.3374666  79.8064527 119.0473126  51.1720906
  79.4628796 119.9374768  51.0960016  80.1743489 118.8574784  50.3090491
  79.7714809 129.0381737  39.6793341  79.2561433 129.8086342  39.9181728
  79.4992118 128.3646873  40.3026402  77.3561920 123.8831438  44.7378579
  76.5003517 123.4938288  44.5584218  77.7688872 123.9623399  43.8778365
  78.8861067 121.4177781  49.1370139  78.3825863 121.3807916  48.3237944
  79.1791674 122.3270524  49.1966795  75.1303953 121.5016511  48.1436321
  75.9956950 121.3059320  47.7842210  75.1981462 121.2726863  49.0705677
  79.5601113 126.9108829  41.5053122  79.2551248 127.2254979  42.3563265
  80.5131555 126.9890249  41.5480455  72.7366272 123.7318719  45.5152687
  73.3110024 123.5093900  44.7825880  73.3237254 123.8007413  46.2681289
  81.7945849 129.6192446  46.3217064  82.3077731 130.2522438  46.8238774
  82.4447073 129.0193641  45.9560424  73.0635859 125.7623180  39.5348573
  72.2273171 126.0997866  39.8557847  72.9240629 125.6272160  38.5975710
  75.0388940 120.6059968  44.2427757  74.3853352 120.2908985  43.6184372
  74.9969414 119.9835708  44.9687580  78.2726680 127.0941901  48.5675404
  77.3549241 127.3156848  48.4097092  78.6886824 127.1688212  47.7087112
  79.0561728 128.4933317  43.6978085  79.8033547 129.0054714  43.3885207
  79.3253317 128.1717370  44.5582478  81.5040565 125.5290433  45.6796874
  80.7663322 125.0167820  46.0107117  81.7567339 125.0890815  44.8680151
  81.6052192 118.3066685  46.2738643  81.9111069 117.4464049  45.9864558
  82.3304797 118.8984306  46.0737637  75.8773272 128.6020478  46.7814834
  75.9321882 127.6494315  46.7057311  75.0664474 128.7579917  47.2656133
  73.8165632 127.2197538  44.5405213  73.0033498 127.5191709  44.9470405
  74.3124626 126.8253227  45.2579695  79.4139844 127.6839363  53.3720107
  79.7689231 127.9110836  54.2314573  80.0611975 128.0157739  52.7497362
  73.3079707 124.7915894  50.1566448  73.9479086 124.6504653  49.4589411
  72.4757237 124.5050407  49.7805050  70.3922774 128.2361406  42.3461193
  69.4620362 128.1745861  42.5631155  70.4880246 127.7137359  41.5497835
  70.3108323 124.7616219  44.9339435  70.5715140 125.6761552  44.8248595
  71.1325496 124.2940661  45.0836048  71.7833249 126.1753976  52.1038259
  72.4556302 125.9671338  51.4550908  70.9563035 125.9776062  51.6643492
  77.6858821 122.8015917  54.1203920  77.0386736 123.5005866  54.0268397
  78.4559836 123.2352061  54.4880169  77.8622955 130.6396682  52.1800740
  78.7915015 130.7907841  52.0069707  77.4413985 130.7280702  51.3249387
  81.1475693 131.3884983  37.6125175  80.5304864 130.6631811  37.5158228
  80.6792182 132.1494343  37.2692249  74.8143046 129.1616538  52.3524376
  75.5242665 128.5209730  52.3110995  74.7712355 129.4129433  53.2750557
  73.5271980 126.1481756  54.1720016  72.9909337 125.6972494  54.8241612
  72.9388689 126.2827665  53.4290480  72.9374239 125.6070407  36.7346479
  72.0603706 125.4859208  36.3708726  73.4131992 124.8156486  36.4825368
  69.2611102 125.2837764  51.2573010  69.1769290 124.6763433  50.5223420
  68.4393808 125.7746782  51.2582507  79.4334816 123.7691327  46.6243205
  79.9303515 123.0161290  46.3044276  78.6621797 123.8055644  46.0586415
  76.0169784 125.9108710  46.3514890  75.6467572 125.3579751  47.0395795
  76.5128877 125.3066844  45.7989890  83.9037148 128.3680334  44.7331663
  84.3697600 129.2008325  44.6591965  84.3544648 127.9025315  45.4376921
  81.8753810 120.7360921  48.7722564  80.9616890 120.9665148  48.9404771
  82.3046912 120.8199365  49.6236597  81.6460269 128.9250813  51.2722458
  80.9931719 129.1726720  50.6174911  82.0240649 128.1114951  50.9384935
  77.6947842 129.6670624  57.7588495  77.0188479 129.5664753  58.4290870
  78.5175476 129.5109837  58.2224492  71.4135118 123.3212701  52.5967996
  71.4776444 124.1827532  52.1845394  71.3502238 122.7086703  51.8640354
  70.8887390 125.3935834  56.2441030  71.5159429 125.0112911  56.8578555
  70.0315309 125.1750035  56.6096723  67.6652933 127.2012263  42.1759385
  67.9606374 126.2922941  42.1226439  66.7640969 127.1800002  41.8540387
  71.1947180 125.2768259  48.1586934  70.4733766 125.8904227  48.0194407
  71.9840436 125.8126024  48.0803580  73.9973494 122.6122686  54.4327585
  74.5207896 122.8584982  55.1953895  73.7785827 123.4442721  54.0130723
  69.3940775 124.8826360  42.2998710  69.0653481 124.0023739  42.1173816
  69.7480146 124.8274029  43.1875099  72.5082598 125.1699330  42.6674188
  72.8478670 125.6985251  41.9452796  72.9554718 125.5079736  43.4432754
  75.2026039 123.5536381  52.1177256  74.8622859 122.7544194  52.5197936
  74.4965045 123.8538092  51.5454089  75.8542511 120.6385693  50.5704579
  76.6768580 120.1646171  50.4483469  76.0980574 121.4176177  51.0703265
  74.4950745 123.6673952  40.8667481  75.2159108 124.0455204  40.3631197
  73.8716049 124.3862828  40.9702459  78.6381868 124.3719101  41.8025813
  78.8545482 125.2543739  41.5014641  78.1575935 123.9805314  41.0731455
  73.3781089 127.3304814  48.3796558  73.2325670 127.6445117  49.2720839
  72.9006293 127.9489714  47.8267456  75.2377472 124.3207362  48.4277447
  75.2239041 123.4248455  48.0909745  75.9549900 124.3278026  49.0615733
  77.0903603 124.7544702  50.4730575  76.8321381 125.6761773  50.4714905
  76.5588643 124.3575137  51.1631039  74.6414368 123.2021742  43.6965017
  74.7630279 122.2738388  43.8955905  74.3516411 123.2160428  42.7843333
  77.5105559 120.8876653  46.8331737  77.5327255 120.9515986  45.8783717
  77.9273618 120.0481161  47.0272243  74.1255448 124.7153740  57.9054950
  74.1743603 125.5915862  57.5232719  74.6677962 124.1731133  57.3326593
  82.0211931 128.0918257  55.8148122  82.9221794 127.9524722  55.5232120
  82.0959905 128.2572712  56.7546300  76.3554736 125.4685112  54.6601308
  75.4858046 125.7618678  54.3883897  76.5914217 126.0525557  55.3808572
  79.0593770 121.6864729  52.1766729  79.5775714 122.4225756  51.8513217
  78.7048903 121.9928722  53.0113488  70.6392708 126.5469410  40.2928135
  69.9461953 126.6213765  39.6368171  70.3944460 125.7829754  40.8149652
  79.3106364 118.1065011  47.6967625  79.5908118 117.4388200  48.3228052
  80.0956971 118.2994107  47.1842289  83.1815223 126.5282645  51.4439201
  84.1332645 126.6280743  51.4651425  83.0118673 125.7360914  51.9537285
  81.2029602 123.6138229  51.6298602  80.6079534 123.8943241  50.9345090
  80.9179299 124.1032130  52.4015343  77.4986631 128.6184818  36.6008704
  78.4445736 128.4891026  36.6697122  77.1200876 127.8799480  37.0778132
  85.8097789 126.5399808  50.6039783  85.2936837 125.7558265  50.4169712
  86.6937737 126.2118525  50.7686303  83.4708516 120.2840824  46.5635596
  83.2733337 119.9755912  47.4478928  84.0808221 121.0102463  46.6933526
  75.6829548 126.5434794  36.5363590  74.7761004 126.2467907  36.6126303
  75.9605529 126.2464613  35.6697876  77.2991614 121.0871684  42.6907831
  76.4892342 120.7418769  43.0663077  77.9876031 120.7779228  43.2795442
  79.2282162 120.1649731  44.3132127  79.7813201 120.5845184  44.9722151
  79.4652249 119.2385479  44.3555083  75.2515262 126.1536805  60.0934891
  75.1511988 127.1031162  60.0246982  75.0336804 125.8255043  59.2210961
  74.4528333 123.4021730  36.6775569  75.3147497 123.7276628  36.9371386
  74.6378677 122.6153226  36.1648635  82.6060969 122.2750256  43.8210792
  82.0259638 122.9335060  43.4388844  82.3396902 121.4527601  43.4098209
  81.0564536 121.6755314  46.0232112  81.5564314 121.7871848  45.2146431
  81.7000144 121.3716367  46.6632920  81.3885847 124.4350346  42.8767140
  80.5011702 124.7199997  42.6587335  81.8039837 124.2744110  42.0294417
  84.7400384 124.4596867  46.5921479  85.5160774 124.9493320  46.8646096
  84.0148518 124.8854922  47.0493349  87.1772942 125.1724487  47.6495420
  87.7717433 124.9320223  46.9388728  87.2499526 124.4531617  48.2768956
  81.3626871 129.9504882  43.0917430  81.3062073 130.4073434  42.2525063
  81.9155214 129.1895567  42.9140273  85.1731677 125.7394614  43.9167550
  84.9168611 125.3391250  44.7475757  84.5484545 126.4538408  43.7917689
  82.0961651 131.1409664  40.3869959  82.0410454 130.9753935  39.4458403
  81.4707706 131.8485697  40.5432149  66.8854165 126.3777728  54.2131382
  67.5313029 125.8676682  54.7018607  66.6771317 127.1146410  54.7874807
  75.4057776 120.6417773  39.9655278  75.3936446 121.5859613  40.1223549
  76.2981198 120.4587918  39.6714739  79.2209895 117.2360549  44.2201215
  78.4542291 116.6819036  44.3657897  79.6320600 117.3082418  45.0815366
  71.2251656 123.5245345  58.3106396  72.0883118 123.1682150  58.5209720
  70.6517067 123.1859240  58.9981800  15.1943753  14.8565900  35.8414103
  15.8322163  14.7372648  35.1377443  15.0764596  15.8046744  35.9002056
  12.0033460  14.8093328  35.7775628  11.6651971  14.6934393  34.8896163
  12.8723228  14.4084494  35.7576634  12.4853243  15.9628180  41.7361834
  12.4741883  15.5680978  40.8642337  12.6473882  15.2294253  42.3295605
   5.4084707  18.1579996  34.6056739   6.2005999  17.8170821  34.1903039
   5.6481357  18.2674971  35.5258893   9.2060504  18.7465292  40.6841018
   8.9150370  19.6510923  40.5687684   9.8417488  18.7881820  41.3985087
  10.1316711  16.1242140  37.2742377  10.7280283  15.8998163  36.5599340
  10.1891682  15.3826886  37.8767825  20.1493449  12.5192587  33.8200290
  20.8818621  11.9491804  34.0538119  19.3932805  12.1314188  34.2606796
  14.1650389  18.4326707  37.6790811  13.8651112  19.3351746  37.5706619
  13.8201448  18.1658891  38.5311964  17.5647533  10.9509248  35.3588249
  16.6564410  10.8824656  35.0647010  17.5135128  11.4281193  36.1870074
   9.1471169  25.1971028  30.6461779   9.0695198  26.1478853  30.7250260
   8.5432812  24.8516900  31.3036705  11.6388398  12.3698893  43.3023146
  10.8621732  12.9292813  43.2926011  12.2778961  12.8555676  43.8238016
  19.4309179   9.1525686  37.1366123  18.7883559   9.4458219  36.4905917
  18.9264107   9.0378606  37.9419319   9.8934771  15.1784347  42.8641113
  10.6349455  15.7169391  42.5875936   9.1871756  15.8050635  43.0212665
  15.3690110  17.3213487  41.4613274  15.7773466  16.8795898  40.7167907
  14.6467372  16.7466115  41.7147467  11.7221180  12.2586094  38.8346831
  12.5682375  12.6825507  38.9781480  11.6619818  11.6019718  39.5285394
  15.6918925  17.8814678  35.2165563  15.0627787  18.0460392  34.5141631
  15.3044587  18.2956287  35.9876527  19.5708157  18.8169116  32.5709927
  18.8859195  19.1968017  32.0206960  19.6552006  19.4264442  33.3041875
  14.8720626   9.9190462  40.4928005  14.6281558  10.6732523  39.9562281
  15.1480556  10.2975810  41.3275252  16.8259088  16.4629075  39.1705271
  17.0375984  17.1060834  38.4939652  16.7788837  15.6291391  38.7027201
   8.1370968  17.1660567  35.4195412   8.7072325  17.5947836  34.7812896
   8.7279080  16.8843152  36.1179597  17.9404916  19.3401030  37.3427628
  18.7622360  18.9381217  37.0610310  17.9367319  19.2369264  38.2943744
  11.7061520  18.8885073  39.4988338  11.7705952  19.3505481  40.3346510
  10.9972444  18.2582438  39.6270648  26.0310909  15.6839778  33.6912599
  25.2774618  15.1147177  33.5356604  26.1658451  15.6502443  34.6383234
   6.6833820  21.1894375  32.0217997   6.8600448  22.1112340  31.8338981
   7.4790653  20.8752794  32.4512377  13.0478014  21.1776747  43.4967661
  12.6041868  20.3913126  43.1788565  13.7095227  21.3655898  42.8311552
   7.8065135  22.7072549  38.0228339   8.3572560  22.5789612  37.2505333
   6.9676611  23.0067438  37.6723232  15.1459252  21.4579547  41.5249062
  15.1277727  22.2788428  41.0329331  16.0679172  21.3333622  41.7499203
  11.6032306  18.9723677  42.3672570  12.1360643  18.2111965  42.1371878
  11.0746387  18.6797329  43.1096725  17.9477865  16.2958690  34.9958429
  17.2901539  16.9857951  35.0838557  18.7518264  16.6855122  35.3392415
  16.7583324  14.6503062  33.0462370  17.2715205  15.2833054  33.5484080
  17.4084547  14.0504258  32.6805731  13.2364154  12.1252518  35.2920711
  12.3186716  12.3467465  35.1342399  13.6524298  12.1998828  34.4332418
  17.5245120  19.6309064  31.1741513  17.0707447  18.7899974  31.2306704
  16.8939086  20.2670462  31.5116293  15.9678059  21.4685561  32.1091331
  16.2601033  22.0290618  31.3903697  16.4776680  21.7614121  32.8644490
  10.9311684  22.2465912  33.1984784  10.8887863  22.4726758  32.2693316
  11.8474383  22.0129286  33.3470586  14.3777318  12.7149979  40.0965414
  14.7326706  12.9421452  40.9559879  15.0249449  13.0468356  39.4742669
  20.1075055  15.8368415  30.8014743  19.9692954  16.0270011  29.8735932
  19.7511274  16.5987798  31.2582794  20.1344435  17.9044942  35.8126014
  20.5680941  17.8120231  36.6609068  20.8476015  17.8802442  35.1746030
  13.8672329  21.5047036  37.3459115  13.9209352  22.0737972  38.1136831
  12.9987111  21.6748921  36.9813152  20.9959984  17.9468643  38.3458900
  21.1895874  18.8514453  38.5918175  20.8960602  17.4876062  39.1797485
  16.0575093  18.0975385  43.9199780  15.9060599  17.8685937  43.0029864
  16.0479772  19.0545987  43.9331125  12.8260429  15.6707298  38.9046047
  13.7552489  15.8218458  38.7315014  12.4051459  15.7591319  38.0494693
  11.6248761  19.6957963  36.6744584  11.4859847  19.3276747  37.5470522
  10.8363357  20.2105602  36.5028542  12.2196913  24.7967059  28.0170121
  12.3948669  24.3255102  28.8315743  11.5329701  25.4232825  28.2451382
  13.1753976  19.0739565  34.0633422  12.8403809  19.0340335  34.9591072
  12.6757922  18.4084281  33.5903832   7.1498220  14.4807195  39.5886003
   7.0118018  13.7487434  40.1897542   8.0603144  14.3916095  39.3070191
   9.7780521  14.1927155  39.0769683  10.4880139  13.5520347  39.0356301
   9.7349829  14.4440049  39.9995864  17.7667299  21.1294508  41.9976262
  17.7079846  20.4453728  41.3306845  18.1686818  21.8713498  41.5456888
   6.7857998  27.9456422  34.7909981   7.0254596  28.5774946  35.4689000
   5.9427195  27.5944462  35.0775340  17.7684707  19.0934092  40.2290242
  16.8811485  18.7560014  40.3516641  18.3383258  18.3617123  40.4659007
  11.2985860  23.7535544  37.1951485  11.2256032  24.5590516  37.7070790
  10.8563253  23.9527510  36.3699506  11.0875640  22.9907314  30.7054307
  10.3043162  23.5328994  30.7992531  11.7868385  23.5081294  31.1048548
  22.2502047  14.5042309  34.9906803  22.2391923  15.3867025  34.6200737
  21.3819427  14.1513860  34.7961340  13.7584544  23.6522378  39.3509644
  14.4712516  24.2869843  39.2785545  13.2674572  23.7486244  38.5349645
   8.8096457  21.4016822  40.1715214   9.5105917  22.0353305  40.3244609
   8.3391572  21.7431553  39.4110854  16.6097743  13.9561429  37.9967765
  15.9569193  14.2037337  37.3420218  16.9878123  13.1425567  37.6630242
  13.5704917  23.9921122  32.0995935  13.7527312  23.1742778  32.5623687
  14.3937903  24.2088815  31.6620825  13.9047083  22.9189308  29.3610984
  14.4334849  22.4081762  28.7481146  14.1675302  22.6031838  30.2256517
  12.6585316  14.6981240  44.4833802  11.9825953  14.5975370  45.1536177
  13.4812950  14.5420454  44.9469799   4.4064175  20.9353177  37.1046317
   4.9917612  20.1896865  37.2374221   4.2089014  21.2457134  37.9882981
   7.2602830  23.9704424  32.1208760   6.5913206  24.4550552  31.6372800
   7.1215700  24.2173645  33.0352138  11.4008099  26.0048168  38.7191418
  11.9526407  26.1679789  39.4840503  11.7414292  26.5952606  38.0471443
  16.2518973  20.8309425  44.5740072  16.7958877  21.4439384  44.0795027
  15.6705818  21.3889004  45.0907085  14.5376486  23.9530143  35.7055100
  14.4127626  23.1519883  35.1966046  15.1955577  24.4476337  35.2169070
  16.6011395  21.7539163  37.3334650  15.6541730  21.6344515  37.2612977
  16.9494168  20.8661661  37.4160912  13.6057828  21.5491880  33.5339002
  13.4582790  20.6208587  33.7146572  14.4311321  21.5711970  33.0496078
  17.2091950  22.3720438  34.6203875  18.1338497  22.1663300  34.4828326
  17.0407253  22.1236839  35.5293217  16.9987266  22.8906106  29.9765967
  17.1724144  22.3252528  29.2239819  17.4916157  23.6907001  29.7945457
  22.8526657  15.6542529  31.5956266  23.2957803  14.9049854  31.1975390
  21.9753168  15.6452665  31.2129998  17.9862439  22.2072870  27.0762865
  18.6813343  22.8279563  27.2950179  18.3285589  21.3568221  27.3515243
  19.8853862  19.6572576  28.6050196  20.4105186  19.9959848  27.8799516
  19.7976214  18.7219591  28.4213330  11.5473910  23.5706649  40.7340072
  11.8561037  23.3255796  41.6062772  12.3449392  23.7753288  40.2458942
  11.5694522  25.7244559  32.9645449  11.1299513  25.2320938  33.6578306
  12.3202639  25.1817527  32.7237524   4.0486861  21.9156100  32.9670077
   4.8744881  21.6159872  32.5868720   3.6980913  21.1463722  33.4159866
   9.0168395  21.2682568  35.0367750   8.3948404  20.6053273  34.7369978
   9.6873261  21.2943700  34.3541398  19.5747768  20.2905479  43.9101394
  18.7843311  20.2729618  43.3705893  19.3381122  20.8293773  44.6650430
  19.6945643  17.1397946  41.2234122  19.7443648  16.9747953  42.1649645
  19.5859566  16.2725205  40.8332003  16.9849405  13.1228874  42.5393429
  17.8859268  12.9835339  42.2477427  17.0597380  13.2883329  43.4791606
  21.1963840  19.5594887  41.4676144  20.9048648  19.9224868  42.3039605
  20.5835971  18.8461895  41.2889476  22.3959522  17.1247767  33.9878714
  23.2306413  17.5637571  34.1516274  22.5318651  16.6486420  33.1686960
  19.4451028  14.6827502  39.9356202  19.9205149  14.8755148  39.1275053
  18.5216593  14.7386688  39.6899585  18.1452697  11.5593262  38.1684507
  19.0970120  11.6591360  38.1896731  17.9756147  10.7671530  38.6782592
  16.1667076   8.6448845  38.3543908  15.5717008   8.9253858  37.6590397
  15.8816773   9.1342746  39.1260649  20.6240775  14.7799382  37.2826807
  20.5917095  13.8415382  37.4686491  21.2341398  14.8583418  36.5492632
  20.7735263  11.5710425  37.3285090  20.2574312  10.7868882  37.1415019
  21.6575212  11.2429142  37.4931610  26.4417324  15.8415388  36.4232844
  27.1720713  15.5800677  36.9840547  25.8324270  15.1044110  36.4634912
  24.5232622  13.9823251  37.0207295  23.7965785  13.8479216  36.4123786
  24.1079908  14.2900080  37.8264013  12.3462798  17.7013181  44.7854668
  13.2665807  17.8791780  44.9794714  12.3112381  16.7569226  44.6334367
   5.3424871  15.6114215  37.4277449   5.5610880  16.5431323  37.4465483
   5.7550644  15.2522190  38.2132253  10.0784006  14.6144560  45.6345260
   9.5951088  15.4144920  45.8409149  10.1644945  14.6252505  44.6812704
   6.0057343  18.5049095  37.6713693   6.9600597  18.4733037  37.6043625
   5.8069867  18.0439718  38.4863919   6.5956726  17.0750211  40.2384491
   7.4149615  17.5694289  40.2619328   6.8693533  16.1582179  40.2102059
  22.1410417  10.2035103  34.3740726  22.7354907   9.9630839  33.6634035
  22.2137000   9.4842234  35.0014263   4.3607572  24.0468714  34.6883891
   4.2262040  23.2869115  34.1221889   3.9439634  24.7709614  34.2212680
  24.4481489  13.5101304  33.1484148  23.8881047  13.5794493  33.9215710
  23.8424993  13.3342289  32.4283644   7.5176698  24.9438031  34.9002334
   7.4009082  25.8883464  34.7981024   6.6969144  24.6411593  35.2888133
  14.3745032  18.4769192  46.4368829  15.2436192  18.6509844  46.0755464
  13.8951783  19.2963609  46.3144558   8.5431212  25.5966293  38.1158262
   9.4458459  25.6289903  38.4324757   8.3168582  24.6666744  38.1304598
  10.2984814  24.3497280  34.7768341   9.3480445  24.3499141  34.6632713
  10.6017300  23.6030014  34.2604376  26.0337508  30.1857818  35.8414103
  26.6715918  30.0664565  35.1377443  25.9158351  31.1338662  35.9002056
  22.8427214  30.1385246  35.7775628  22.5045726  30.0226311  34.8896163
  23.7116982  29.7376411  35.7576634  18.7014030  31.9920723  31.7672519
  18.1378895  31.9010659  30.9988807  18.5866425  31.1720627  32.2475012
  23.3246997  31.2920098  41.7361834  23.3135638  30.8972896  40.8642337
  23.4867636  30.5586170  42.3295605  16.2478462  33.4871914  34.6056739
  17.0399754  33.1462739  34.1903039  16.4875112  33.5966889  35.5258893
  24.2813588  35.6591690  27.0786984  23.6301568  36.2445771  26.6920998
  25.0757951  36.1897885  27.1382021  18.2069216  32.7480827  27.4774118
  18.9800092  32.2009814  27.3386994  18.5594614  33.6125077  27.6888580
  20.0454258  34.0757210  40.6841018  19.7544124  34.9802840  40.5687684
  20.6811242  34.1173737  41.3985087  20.9710465  31.4534058  37.2742377
  21.5674037  31.2290081  36.5599340  21.0285437  30.7118804  37.8767825
  20.5435493  28.9073493  25.1092568  20.7961014  28.3855015  24.3476031
  19.6060052  28.7439639  25.2119252  25.5878776  27.9109272  32.9167311
  26.3741865  27.4928695  32.5657728  25.8517481  28.8155364  33.0848960
  25.7588854  33.3482122  27.6155968  25.1234687  33.4216749  28.3276873
  25.4286260  33.9375721  26.9375047  30.9887203  27.8484505  33.8200290
  31.7212375  27.2783722  34.0538119  30.2326559  27.4606105  34.2606796
  20.2631782  30.8101599  27.3116943  20.1468040  30.1346503  27.9798027
  20.3734042  30.3233973  26.4949096  22.6063323  30.2711747  31.0163632
  22.2421530  29.7442368  31.7276554  23.4630439  29.8810216  30.8430118
  28.5112624  21.5606079  38.2794899  28.1795948  22.4301490  38.0556114
  27.9158237  21.2442363  38.9588929  22.2468810  25.3001646  26.0124981
  22.4143212  26.1681883  26.3795452  22.0565979  25.4628928  25.0886270
  25.0044143  33.7618625  37.6790811  24.7044866  34.6643664  37.5706619
  24.6595203  33.4950808  38.5311964  18.4556625  30.2132422  33.7127516
  17.5307121  30.0808636  33.9205207  18.7041038  30.9926641  34.2097458
  28.4041287  26.2801165  35.3588249  27.4958164  26.2116574  35.0647010
  28.3528883  26.7573110  36.1870074  22.2258031  27.7559304  26.9971648
  22.1057656  28.2016355  27.8357128  21.5310619  28.1044621  26.4385186
  15.8165436  29.8565696  34.5471305  15.9457817  30.1100174  35.4610716
  15.1362887  30.4493404  34.2275960  19.9864923  40.5262945  30.6461779
  19.9088953  41.4770771  30.7250260  19.3826567  40.1808818  31.3036705
  22.4782153  27.6990811  43.3023146  21.7015487  28.2584731  43.2926011
  23.1172716  28.1847594  43.8238016  30.2702933  24.4817604  37.1366123
  29.6277314  24.7750137  36.4905917  29.7657862  24.3670524  37.9419319
  27.9243097  28.2280777  27.8251982  28.8360953  28.4608164  27.6499679
  27.4152744  28.8117821  27.2627060  20.7328525  30.5076264  42.8641113
  21.4743209  31.0461308  42.5875936  20.0265511  31.1342553  43.0212665
  26.2083865  32.6505405  41.4613274  26.6167221  32.2087815  40.7167907
  25.4861126  32.0758032  41.7147467  22.5614935  27.5878012  38.8346831
  23.4076130  28.0117425  38.9781480  22.5013572  26.9311636  39.5285394
  26.5312679  33.2106595  35.2165563  25.9021542  33.3752310  34.5141631
  26.1438341  33.6248205  35.9876527  30.4101911  34.1461033  32.5709927
  29.7252949  34.5259935  32.0206960  30.4945761  34.7556360  33.3041875
  25.7114380  25.2482380  40.4928005  25.4675312  26.0024440  39.9562281
  25.9874311  25.6267727  41.3275252  27.6652843  31.7920992  39.1705271
  27.8769738  32.4352752  38.4939652  27.6182591  30.9583309  38.7027201
  25.2679072  24.4038813  36.0741843  24.4063551  24.7020066  36.3658580
  25.2941506  24.6209212  35.1422875  22.0840641  32.9481003  32.4815648
  22.5478987  33.2268706  31.6920271  21.8197439  32.0464448  32.2988739
  18.9764722  32.4952485  35.4195412  19.5466079  32.9239753  34.7812896
  19.5672834  32.2135070  36.1179597  21.0209527  29.0704156  29.2905213
  21.7233571  29.5225199  29.7579140  20.6890156  28.4287975  29.9185107
  19.4689889  27.6615912  43.6656423  18.8388549  28.3432193  43.8991820
  19.3625977  27.5498994  42.7209561  14.7634861  27.3287708  34.5922347
  13.9733915  27.5845237  34.1162458  15.2546109  28.1436046  34.6974388
  28.7798671  34.6692948  37.3427628  29.6016115  34.2673135  37.0610310
  28.7761074  34.5661182  38.2943744  16.7149607  27.6932288  31.5505824
  15.9180770  27.8050982  32.0689319  16.4875199  28.0318940  30.6846714
  22.5455274  34.2176991  39.4988338  22.6099707  34.6797398  40.3346510
  21.8366198  33.5874356  39.6270648  13.0472564  27.5818199  37.0237338
  13.2980603  28.4665209  37.2894914  13.5832113  27.4022800  36.2512430
  36.8704664  31.0131696  33.6912599  36.1168372  30.4439094  33.5356604
  37.0052205  30.9794361  34.6383234  22.2603292  35.8845098  29.3667319
  22.1248967  36.7296634  29.7952167  22.8013104  36.0864376  28.6033253
  18.7470632  21.9636678  46.0281674  18.3537577  21.4102877  46.7029318
  19.5636772  22.2747257  46.4188191  15.7132689  33.4020536  29.9395244
  16.2257210  34.1963787  30.0900808  16.3655402  32.7046827  29.8728845
  17.5227574  36.5186293  32.0217997  17.6994202  37.4404257  31.8338981
  18.3184408  36.2044712  32.4512377  21.6638593  23.3794557  43.6201930
  22.4048306  23.9801711  43.5406393  21.8956515  22.6372195  43.0619973
  16.8079931  28.5650925  41.8980160  16.6933446  27.6636182  42.1987259
  15.9524448  28.8114621  41.5464977  23.8871768  36.5068665  43.4967661
  23.4435623  35.7205044  43.1788565  24.5488982  36.6947815  42.8311552
  18.6458889  38.0364467  38.0228339  19.1966315  37.9081530  37.2505333
  17.8070365  38.3359356  37.6723232  25.9853006  36.7871465  41.5249062
  25.9671482  37.6080346  41.0329331  26.9072926  36.6625540  41.7499203
  22.4426061  34.3015594  42.3672570  22.9754397  33.5403883  42.1371878
  21.9140142  34.0089246  43.1096725  25.6095756  19.4075660  37.8966212
  25.2660025  20.2977302  37.8205323  25.9774718  19.2177318  37.0335797
  13.6781606  31.7309191  30.7154814  14.5156828  32.1406199  30.4988522
  13.8559874  30.7908633  30.6855008  25.5746038  29.3984271  26.4038647
  25.0592662  30.1688876  26.6427035  25.3023347  28.7249408  27.0271709
  23.1593149  24.2433972  31.4623886  22.3034746  23.8540823  31.2829524
  23.5720101  24.3225933  30.6023671  24.6892296  21.7780315  35.8615445
  24.1857091  21.7410451  35.0483251  24.9822903  22.6873058  35.9212102
  20.9335182  21.8619045  34.8681627  21.7988179  21.6661854  34.5087517
  21.0012691  21.6329397  35.7950984  30.5480312  32.1516626  28.3391821
  29.7709755  31.8127786  27.8946983  31.2271793  32.1569249  27.6646786
  25.3632341  27.2711364  28.2298428  25.0582477  27.5857513  29.0808572
  26.3162784  27.3492783  28.2725761  23.8078773  33.4301587  29.8791382
  23.2800135  32.6954346  29.5664620  23.3066276  34.2076263  29.6331351
  28.7871619  31.6250607  34.9958429  28.1295294  32.3149869  35.0838557
  29.5912018  32.0147039  35.3392415  18.5397501  24.0921253  32.2397994
  19.1141253  23.8696435  31.5071187  19.1268483  24.1609948  32.9926595
  27.5977078  29.9794980  33.0462370  28.1108960  30.6124972  33.5484080
  28.2478302  29.3796176  32.6805731  18.8667088  26.1225714  26.2593879
  18.0304400  26.4600401  26.5803154  18.7271858  25.9874694  25.3221016
  20.8420169  20.9662502  30.9673063  20.1884581  20.6511519  30.3429678
  20.8000643  20.3438243  31.6932886  21.9531373  31.2481797  22.8826355
  21.0458435  31.0171051  23.0817504  22.4502405  30.4519416  23.0700337
  24.8599452  39.9579304  25.8023042  24.1861151  40.2611001  26.4107999
  25.2465274  40.7608385  25.4528499  24.0757909  27.4544436  35.2920711
  23.1580470  27.6759383  35.1342399  24.4918053  27.5290746  34.4332418
  24.8592957  28.8535851  30.4223391  25.6064776  29.3657248  30.1130513
  25.1284546  28.5319904  31.2827785  23.1319607  31.3494392  27.4050346
  22.2230826  31.0653425  27.5022815  23.1614691  31.7693471  26.5453652
  28.3638874  34.9600981  31.1741513  27.9101201  34.1191891  31.2306704
  27.7332841  35.5962380  31.5116293  27.3071794  25.8892968  32.4042181
  26.5694551  25.3770354  32.7352423  27.5598567  25.4493349  31.5925457
  26.8071814  36.7977478  32.1091331  27.0994788  37.3582535  31.3903697
  27.3170434  37.0906039  32.8644490  27.4083421  18.6669220  32.9983950
  27.7142298  17.8066583  32.7109865  28.1336026  19.2586840  32.7982944
  13.7007777  29.0699906  31.3865548  13.5032177  28.4769267  30.6616614
  13.1454441  28.7652116  32.1041487  21.6804501  28.9623013  33.5060141
  21.7353111  28.0096849  33.4302617  20.8695703  29.1182452  33.9901439
  22.8295695  32.8903136  24.7438424  22.3915125  32.1738995  24.2844061
  23.5706136  33.1179250  24.1823516  19.6196861  27.5800072  31.2650520
  18.8064726  27.8794243  31.6715712  20.1155855  27.1855761  31.9825002
  21.7705439  37.5757829  33.1984784  21.7281618  37.8018676  32.2693316
  22.6868138  37.3421204  33.3470586  25.2171073  28.0441897  40.0965414
  25.5720460  28.2713370  40.9559879  25.8643204  28.3760274  39.4742669
  30.9468809  31.1660333  30.8014743  30.8086708  31.3561929  29.8735932
  30.5905028  31.9279716  31.2582794  19.1110936  25.1518428  36.8811755
  19.7510315  25.0107187  36.1834718  18.2788466  24.8652941  36.5050357
  30.9738189  33.2336860  35.8126014  31.4074696  33.1412149  36.6609068
  31.6869770  33.2094360  35.1746030  19.8871239  34.4520858  32.9946747
  20.6811838  33.9571178  32.7929322  19.1762932  33.9238721  32.6314453
  24.7066084  36.8338954  37.3459115  24.7603106  37.4029890  38.1136831
  23.8380865  37.0040839  36.9813152  16.1954003  28.5963940  29.0706500
  15.2651591  28.5348396  29.2876462  16.2911475  28.0739893  28.2743141
  16.1139552  25.1218753  31.6584742  16.3746369  26.0364086  31.5493902
  16.9356724  24.6543195  31.8081354  17.5864477  26.5356510  38.8283566
  18.2587531  26.3273872  38.1796215  16.7594264  26.3378596  38.3888798
  31.8353739  33.2760560  38.3458900  32.0289629  34.1806371  38.5918175
  31.7354357  32.8167979  39.1797485  23.4890049  23.1618451  40.8449227
  22.8417964  23.8608401  40.7513703  24.2591065  23.5954595  41.2125475
  26.8968847  33.4267303  43.9199780  26.7454354  33.1977855  43.0029864
  26.8873527  34.3837905  43.9331125  23.6654184  30.9999216  38.9046047
  24.5946244  31.1510375  38.7315014  23.2445214  31.0883237  38.0494693
  22.4642515  35.0249880  36.6744584  22.3253601  34.6568665  37.5470522
  21.6757112  35.5397520  36.5028542  23.0590667  40.1258977  28.0170121
  23.2342423  39.6547020  28.8315743  22.3723455  40.7524743  28.2451382
  24.0147731  34.4031483  34.0633422  23.6797563  34.3632253  34.9591072
  23.5151676  33.7376199  33.5903832  17.9891975  29.8099113  39.5886003
  17.8511773  29.0779352  40.1897542  18.8996898  29.7208013  39.3070191
  26.9506922  31.7487517  24.3370482  26.3336093  31.0234345  24.2403534
  26.4823411  32.5096878  23.9937556  20.6174275  29.5219072  39.0769683
  21.3273894  28.8812265  39.0356301  20.5743583  29.7731967  39.9995864
  28.6061054  36.4586426  41.9976262  28.5473600  35.7745646  41.3306845
  29.0080572  37.2005416  41.5456888  19.3303209  26.5084290  40.8965322
  18.7940566  26.0575029  41.5486919  18.7419918  26.6430199  40.1535787
  17.6251753  43.2748339  34.7909981  17.8648351  43.9066864  35.4689000
  16.7820949  42.9236380  35.0775340  28.6078461  34.4226010  40.2290242
  27.7205240  34.0851931  40.3516641  29.1777012  33.6909041  40.4659007
  10.2607608  30.7550101  33.5533293  10.9478648  30.4411831  32.9654308
  10.1055737  31.6591466  33.2800545  15.0642330  25.6440298  37.9818317
  14.9800519  25.0365967  37.2468727  14.2425037  26.1349316  37.9827813
  22.1379615  39.0827462  37.1951485  22.0649786  39.8882433  37.7070790
  21.6957008  39.2819428  36.3699506  21.9269394  38.3199232  30.7054307
  21.1436916  38.8620912  30.7992531  22.6262139  38.8373212  31.1048548
  25.2366044  24.1293861  33.3488512  25.7334744  23.3763824  33.0289582
  24.4653026  24.1658178  32.7831721  33.0895802  29.8334227  34.9906803
  33.0785678  30.7158942  34.6200737  32.2213181  29.4805778  34.7961340
  24.5978298  38.9814296  39.3509644  25.3106270  39.6161761  39.2785545
  24.1068327  39.0778162  38.5349645  26.3195825  32.8865549  30.9226935
  25.3852104  33.0067011  30.7531640  26.4972493  31.9838015  30.6586945
  21.8201013  26.2711244  33.0760196  21.4498801  25.7182285  33.7641102
  22.3160106  25.6669378  32.5235197  29.7068376  28.7282868  31.4576969
  30.1728829  29.5610860  31.3837272  30.1575877  28.2627850  32.1622228
  19.6490212  36.7308739  40.1715214  20.3499671  37.3645222  40.3244609
  19.1785327  37.0723471  39.4110854  27.7744607  35.0726689  28.4563121
  28.0504451  34.9583284  29.3656996  26.9049106  34.6744174  28.4175295
  27.6785039  21.0963455  35.4967871  26.7648119  21.3267682  35.6650078
  28.1078141  21.1801899  36.3481903  27.4491498  29.2853347  37.9967765
  26.7962948  29.5329254  37.3420218  27.8271878  28.4717485  37.6630242
  24.4098671  39.3213040  32.0995935  24.5921066  38.5034696  32.5623687
  25.2331658  39.5380732  31.6620825  24.7440837  38.2481225  29.3610984
  25.2728603  37.7373680  28.7481146  25.0069057  37.9323755  30.2256517
  23.4979071  30.0273158  44.4833802  22.8219708  29.9267287  45.1536177
  24.3206705  29.8712372  44.9469799  15.2457930  36.2645094  37.1046317
  15.8311367  35.5188782  37.2374221  15.0482768  36.5749051  37.9882981
  18.0996585  39.2996342  32.1208760  17.4306960  39.7842470  31.6372800
  17.9609455  39.5465562  33.0352138   9.8375584  28.8350695  35.8250760
   9.8759684  28.3014285  36.6187878   9.3315877  28.3085900  35.2061737
  22.2401854  41.3340085  38.7191418  22.7920162  41.4971707  39.4840503
  22.5808047  41.9244523  38.0471443  17.2166347  23.6815235  39.3213303
  17.2807673  24.5430066  38.9090700  17.1533467  23.0689237  38.5885661
  16.6918619  25.7538368  42.9686337  17.3190658  25.3715445  43.5823861
  15.8346538  25.5352570  43.3342029  27.0912728  36.1601343  44.5740072
  27.6352632  36.7731301  44.0795027  26.5099573  36.7180921  45.0907085
  13.4684162  27.5614797  28.9004692  13.7637603  26.6525475  28.8471745
  12.5672198  27.5402536  28.5785694  25.3770241  39.2822061  35.7055100
  25.2521380  38.4811801  35.1966046  26.0349332  39.7768254  35.2169070
  16.9978409  25.6370793  34.8832240  16.2764995  26.2506761  34.7439714
  17.7871665  26.1728558  34.8048886  27.4405149  37.0831081  37.3334650
  26.4935485  36.9636432  37.2612977  27.7887922  36.1953579  37.4160912
  19.8004723  22.9725220  41.1572892  20.3239124  23.2187516  41.9199201
  19.5817056  23.8045255  40.7376029  15.1972004  25.2428895  29.0244017
  14.8684710  24.3626273  28.8419123  15.5511374  25.1876563  29.9120406
  24.4451582  36.8783797  33.5339002  24.2976545  35.9500505  33.7146572
  25.2705076  36.9003888  33.0496078  18.3113827  25.5301864  29.3919495
  18.6509899  26.0587786  28.6698103  18.7585947  25.8682270  30.1678061
  28.0485704  37.7012356  34.6203875  28.9732252  37.4955217  34.4828326
  27.8801008  37.4528757  35.5293217  21.0057268  23.9138915  38.8422563
  20.6654088  23.1146728  39.2443242  20.2996274  24.2140626  38.2699396
  21.6573739  20.9988227  37.2949886  22.4799809  20.5248706  37.1728776
  21.9011803  21.7778711  37.7948572  20.2981974  24.0276486  27.5912787
  21.0190336  24.4057739  27.0876504  19.6747278  24.7465363  27.6947765
  24.4413097  24.7321635  28.5271120  24.6576711  25.6146273  28.2259948
  23.9607164  24.3407848  27.7976762  19.1812318  27.6907348  35.1041864
  19.0356899  28.0047651  35.9966146  18.7037522  28.3092248  34.5512763
  21.0408701  24.6809896  35.1522754  21.0270270  23.7850989  34.8155052
  21.7581129  24.6880560  35.7861040  22.8934832  25.1147236  37.1975881
  22.6352610  26.0364307  37.1960212  22.3619872  24.7177671  37.8876345
  27.8381021  38.2198023  29.9765967  28.0117898  37.6544446  29.2239819
  28.3309912  39.0198918  29.7945457  13.6557980  30.2312692  38.0429525
  13.1111448  31.0072500  38.1749800  14.5337330  30.5783497  37.8848647
  20.4445597  23.5624276  30.4210324  20.5661508  22.6340923  30.6201211
  20.1547639  23.5762962  29.5088639  23.3136787  21.2479187  33.5577044
  23.3358484  21.3118520  32.6029023  23.7304846  20.4083695  33.7517550
  33.6920412  30.9834446  31.5956266  34.1351558  30.2341772  31.1975390
  32.8146922  30.9744583  31.2129998  28.8256193  37.5364788  27.0762865
  29.5207098  38.1571480  27.2950179  29.1679343  36.6860139  27.3515243
  14.4424002  29.3582589  40.9359682  13.7005738  29.5065224  41.5224313
  14.1216746  29.6190854  40.0726432  30.7247616  34.9864493  28.6050196
  31.2498940  35.3251766  27.8799516  30.6369969  34.0511509  28.4213330
  22.3867665  38.8998567  40.7340072  22.6954791  38.6547714  41.6062772
  23.1843147  39.1045205  40.2458942  22.4088277  41.0536477  32.9645449
  21.9693267  40.5612855  33.6578306  23.1596394  40.5109444  32.7237524
  14.8880616  37.2448017  32.9670077  15.7138636  36.9451789  32.5868720
  14.5374668  36.4755640  33.4159866  19.8562149  36.5974486  35.0367750
  19.2342158  35.9345191  34.7369978  20.5267016  36.6235618  34.3541398
  13.0889221  35.1634344  33.9259010  12.2521129  34.7356518  33.7443012
  13.0612866  35.3566787  34.8629802  19.9286677  25.0756274  44.6300257
  19.9774832  25.9518397  44.2478026  20.4709191  24.5333667  44.0571900
  30.4141522  35.6197397  43.9101394  29.6237066  35.6021536  43.3705893
  30.1774877  36.1585691  44.6650430  30.5339397  32.4689863  41.2234122
  30.5837402  32.3039871  42.1649645  30.4253321  31.6017122  40.8332003
  19.4175656  35.1478409  28.5126211  19.5663776  35.8313873  27.8592884
  20.2242099  35.1283499  29.0275667  27.8243160  28.4520791  42.5393429
  28.7253022  28.3127256  42.2477427  27.8991134  28.6175246  43.4791606
  22.1585965  25.8287646  41.3846615  21.2889274  26.1221212  41.1129204
  22.3945445  26.4128091  42.1053879  32.0357594  34.8886805  41.4676144
  31.7442402  35.2516785  42.3039605  31.4229725  34.1753813  41.2889476
  33.2353276  32.4539685  33.9878714  34.0700168  32.8929489  34.1516274
  33.3712405  31.9778338  33.1686960  30.2844782  30.0119419  39.9356202
  30.7598904  30.2047066  39.1275053  29.3610348  30.0678605  39.6899585
  17.1728289  31.1743587  29.5187280  16.9274331  30.2705917  29.7167490
  17.3424203  31.1760737  28.5766758  24.8624999  22.0467263  38.9012036
  25.3806943  22.7828290  38.5758524  24.5080132  22.3531256  39.7358795
  16.4423936  26.9071944  27.0173441  15.7493181  26.9816299  26.3613477
  16.1975688  26.1432288  27.5394958  25.1137593  18.4667546  34.4212932
  25.3939347  17.7990735  35.0473359  25.8988200  18.6596641  33.9087596
  22.9171061  37.6426539  25.9837958  22.3445029  38.2616727  25.5308430
  23.4903855  38.1925901  26.5177880  28.9846451  26.8885180  38.1684507
  29.9363874  26.9883277  38.1896731  28.8149902  26.0963448  38.6782592
  27.0060831  23.9740763  38.3543908  26.4110763  24.2545776  37.6590397
  26.7210527  24.4634664  39.1260649  26.1368321  37.9263690  27.1146541
  27.0698994  37.8609251  27.3179416  26.0491534  38.7619956  26.6561073
  28.7656338  37.2429560  24.0750488  28.6869969  36.9089424  24.9686246
  29.5866005  37.7351328  24.0741961  31.4634529  30.1091299  37.2826807
  31.4310849  29.1707300  37.4686491  32.0735153  30.1875336  36.5492632
  23.3017860  28.9787352  23.3254011  24.2476965  28.8493560  23.3942429
  22.9232105  28.2402014  23.8023439  31.6129018  26.9002343  37.3285090
  31.0968066  26.1160799  37.1415019  32.4968966  26.5721059  37.4931610
  29.2739745  20.6443358  33.2880903  29.0764566  20.3358446  34.1724235
  29.8839450  21.3704997  33.4178833  37.2811079  31.1707306  36.4232844
  38.0114467  30.9092594  36.9840547  36.6718024  30.4336028  36.4634912
  35.3626376  29.3115169  37.0207295  34.6359540  29.1771134  36.4123786
  34.9473663  29.6191997  37.8264013  23.1856553  33.0305098  44.7854668
  24.1059562  33.2083697  44.9794714  23.1506136  32.0861144  44.6334367
  12.4038718  28.2243692  33.7107943  12.0841502  27.3709000  33.4182317
  11.8572146  28.4392270  34.4665910  16.1818625  30.9406133  37.4277449
  16.4004635  31.8723241  37.4465483  16.5944399  30.5814107  38.2132253
  23.1022843  21.4474218  29.4153137  22.2923571  21.1021303  29.7908384
  23.7907260  21.1381762  30.0040749  25.0313391  20.5252265  31.0377434
  25.5844430  20.9447719  31.6967457  25.2683478  19.5988013  31.0800390
  21.0546490  26.5139339  46.8180198  20.9543217  27.4633696  46.7492289
  20.8368032  26.1857578  45.9456268  12.2726978  31.8446604  35.6801064
  11.5790449  31.4300556  35.1671019  13.0199969  31.8867140  35.0834483
  28.4092198  22.6352790  30.5456098  27.8290867  23.2937594  30.1634151
  28.1428131  21.8130135  30.1343516  26.8595765  22.0357848  32.7477419
  27.3595543  22.1474383  31.9391738  27.5031373  21.7318901  33.3878227
  20.9177760  29.9436478  45.6345260  20.4344842  30.7436838  45.8409149
  21.0038699  29.9544423  44.6812704  14.1863720  31.7764857  33.5567079
  14.1634408  31.8752545  32.6048962  14.4964357  32.6230008  33.8784245
  16.8451098  33.8341012  37.6713693  17.7994351  33.8024955  37.6043625
  16.6463621  33.3731636  38.4863919  17.4350480  32.4042128  40.2384491
  18.2543369  32.8986207  40.2619328  17.7087288  31.4874097  40.2102059
  27.1917076  24.7952881  29.6012447  26.3042931  25.0802531  29.3832641
  27.6071065  24.6346644  28.7539724  30.5431612  24.8199402  33.3166786
  31.3192002  25.3095854  33.5891403  29.8179747  25.2457456  33.7738655
  32.9804171  25.5327021  34.3740726  33.5748662  25.2922757  33.6634035
  33.0530755  24.8134151  35.0014263  15.2001327  39.3760632  34.6883891
  15.0655795  38.6161033  34.1221889  14.7833389  40.1001532  34.2212680
  26.3360290  34.5597555  23.6960467  27.0396140  34.7647558  24.3118122
  25.6122938  35.1274317  23.9609550  27.1658100  30.3107417  29.8162737
  27.1093301  30.7675968  28.9770369  27.7186442  29.5498101  29.6385580
  30.9762906  26.0997148  30.6412856  30.7199840  25.6993784  31.4721064
  30.3515774  26.8140942  30.5162995  35.2875244  28.8393222  33.1484148
  34.7274802  28.9086411  33.9215710  34.6818747  28.6634206  32.4283644
  18.3570453  40.2729949  34.9002334  18.2402837  41.2175381  34.7981024
  17.5362899  39.9703510  35.2888133  28.2446987  34.9980085  25.7458927
  29.0792591  34.5661283  25.5636401  28.0831330  34.8262098  26.6735821
  27.8992879  31.5012198  27.1115266  27.8441683  31.3356469  26.1703710
  27.2738935  32.2088231  27.2677456  12.6885394  26.7380262  40.9376688
  13.3344258  26.2279216  41.4263913  12.4802545  27.4748944  41.5120113
  25.2138786  33.8061110  46.4368829  26.0829946  33.9801762  46.0755464
  24.7345538  34.6255527  46.3144558  21.2089005  21.0020307  26.6900584
  21.1967675  21.9462147  26.8468855  22.1012427  20.8190452  26.3960046
  19.3824967  40.9258211  38.1158262  20.2852213  40.9581821  38.4324757
  19.1562337  39.9958662  38.1304598  21.1378569  39.6789197  34.7768341
  20.1874200  39.6791059  34.6632713  21.4411055  38.9321932  34.2604376
  25.0241124  17.5963084  30.9446521  24.2573520  17.0421570  31.0903204
  25.4351829  17.6684952  31.8060673  17.0282885  23.8847879  45.0351702
  17.8914347  23.5284684  45.2455027  16.4548296  23.5461774  45.7227107
  36.8731262  45.5149736  35.8414103  37.5109672  45.3956483  35.1377443
  36.7552105  46.4630580  35.9002056  33.6820968  45.4677164  35.7775628
  33.3439480  45.3518228  34.8896163  34.5510737  45.0668329  35.7576634
  29.5407784  47.3212640  31.7672519  28.9772649  47.2302577  30.9988807
  29.4260179  46.5012545  32.2475012  34.1640751  46.6212016  41.7361834
  34.1529392  46.2264814  40.8642337  34.3261391  45.8878088  42.3295605
  27.0872216  48.8163832  34.6056739  27.8793508  48.4754656  34.1903039
  27.3268866  48.9258807  35.5258893  35.1207343  50.9883608  27.0786984
  34.4695323  51.5737688  26.6920998  35.9151706  51.5189803  27.1382021
  29.0462970  48.0772745  27.4774118  29.8193846  47.5301732  27.3386994
  29.3988369  48.9416994  27.6888580  30.8848013  49.4049127  40.6841018
  30.5937879  50.3094758  40.5687684  31.5204997  49.4465655  41.3985087
  31.8104219  46.7825976  37.2742377  32.4067792  46.5581998  36.5599340
  31.8679191  46.0410721  37.8767825  31.3829248  44.2365411  25.1092568
  31.6354769  43.7146932  24.3476031  30.4453807  44.0731557  25.2119252
  36.4272531  43.2401190  32.9167311  37.2135620  42.8220613  32.5657728
  36.6911235  44.1447282  33.0848960  36.5982608  48.6774040  27.6155968
  35.9628441  48.7508666  28.3276873  36.2680014  49.2667639  26.9375047
  41.8280958  43.1776423  33.8200290  42.5606130  42.6075640  34.0538119
  41.0720314  42.7898023  34.2606796  31.1025537  46.1393517  27.3116943
  30.9861795  45.4638421  27.9798027  31.2127797  45.6525891  26.4949096
  33.4457078  45.6003664  31.0163632  33.0815285  45.0734285  31.7276554
  34.3024193  45.2102133  30.8430118  39.3506378  36.8897997  38.2794899
  39.0189703  37.7593408  38.0556114  38.7551992  36.5734281  38.9588929
  33.0862565  40.6293564  26.0124981  33.2536967  41.4973800  26.3795452
  32.8959734  40.7920846  25.0886270  35.8437898  49.0910543  37.6790811
  35.5438621  49.9935582  37.5706619  35.4988957  48.8242726  38.5311964
  29.2950379  45.5424340  33.7127516  28.3700876  45.4100554  33.9205207
  29.5434792  46.3218559  34.2097458  39.2435042  41.6093083  35.3588249
  38.3351919  41.5408491  35.0647010  39.1922637  42.0865028  36.1870074
  33.0651785  43.0851221  26.9971648  32.9451411  43.5308272  27.8357128
  32.3704374  43.4336539  26.4385186  26.6559190  45.1857613  34.5471305
  26.7851571  45.4392092  35.4610716  25.9756642  45.7785321  34.2275960
  30.8258678  55.8554863  30.6461779  30.7482707  56.8062688  30.7250260
  30.2220321  55.5100736  31.3036705  33.3175907  43.0282729  43.3023146
  32.5409241  43.5876649  43.2926011  33.9566470  43.5139512  43.8238016
  41.1096688  39.8109521  37.1366123  40.4671068  40.1042055  36.4905917
  40.6051616  39.6962442  37.9419319  38.7636852  43.5572695  27.8251982
  39.6754708  43.7900081  27.6499679  38.2546499  44.1409739  27.2627060
  31.5722280  45.8368182  42.8641113  32.3136964  46.3753226  42.5875936
  30.8659265  46.4634471  43.0212665  37.0477619  47.9797322  41.4613274
  37.4560975  47.5379733  40.7167907  36.3254881  47.4049950  41.7147467
  33.4008689  42.9169929  38.8346831  34.2469884  43.3409343  38.9781480
  33.3407327  42.2603554  39.5285394  37.3706434  48.5398513  35.2165563
  36.7415296  48.7044227  34.5141631  36.9832096  48.9540123  35.9876527
  41.2495666  49.4752951  32.5709927  40.5646704  49.8551852  32.0206960
  41.3339515  50.0848278  33.3041875  36.5508135  40.5774298  40.4928005
  36.3069066  41.3316358  39.9562281  36.8268065  40.9559645  41.3275252
  38.5046597  47.1212910  39.1705271  38.7163493  47.7644670  38.4939652
  38.4576346  46.2875226  38.7027201  36.1072826  39.7330731  36.0741843
  35.2457305  40.0311984  36.3658580  36.1335261  39.9501129  35.1422875
  32.9234396  48.2772921  32.4815648  33.3872741  48.5560624  31.6920271
  32.6591194  47.3756366  32.2988739  29.8158477  47.8244403  35.4195412
  30.3859834  48.2531671  34.7812896  30.4066589  47.5426987  36.1179597
  31.8603282  44.3996074  29.2905213  32.5627325  44.8517117  29.7579140
  31.5283910  43.7579892  29.9185107  30.3083643  42.9907830  43.6656423
  29.6782304  43.6724111  43.8991820  30.2019731  42.8790912  42.7209561
  25.6028616  42.6579626  34.5922347  24.8127670  42.9137155  34.1162458
  26.0939863  43.4727964  34.6974388  39.6192425  49.9984865  37.3427628
  40.4409869  49.5965053  37.0610310  39.6154828  49.8953100  38.2943744
  27.5543361  43.0224205  31.5505824  26.7574524  43.1342900  32.0689319
  27.3268953  43.3610858  30.6846714  33.3849029  49.5468909  39.4988338
  33.4493461  50.0089316  40.3346510  32.6759953  48.9166274  39.6270648
  23.8866319  42.9110117  37.0237338  24.1374357  43.7957127  37.2894914
  24.4225867  42.7314718  36.2512430  47.7098418  46.3423614  33.6912599
  46.9562127  45.7731012  33.5356604  47.8445960  46.3086278  34.6383234
  33.0997046  51.2137016  29.3667319  32.9642721  52.0588552  29.7952167
  33.6406859  51.4156294  28.6033253  29.5864386  37.2928596  46.0281674
  29.1931332  36.7394795  46.7029318  30.4030526  37.6039174  46.4188191
  26.5526444  48.7312454  29.9395244  27.0650964  49.5255704  30.0900808
  27.2049157  48.0338745  29.8728845  28.3621329  51.8478210  32.0217997
  28.5387957  52.7696175  31.8338981  29.1578162  51.5336630  32.4512377
  32.5032347  38.7086475  43.6201930  33.2442060  39.3093628  43.5406393
  32.7350270  37.9664113  43.0619973  27.6473685  43.8942842  41.8980160
  27.5327200  42.9928100  42.1987259  26.7918203  44.1406539  41.5464977
  34.7265523  51.8360583  43.4967661  34.2829377  51.0496961  43.1788565
  35.3882736  52.0239733  42.8311552  29.4852644  53.3656384  38.0228339
  30.0360069  53.2373448  37.2505333  28.6464120  53.6651273  37.6723232
  36.8246761  52.1163383  41.5249062  36.8065236  52.9372264  41.0329331
  37.7466681  51.9917458  41.7499203  33.2819815  49.6307512  42.3672570
  33.8148152  48.8695800  42.1371878  32.7533896  49.3381164  43.1096725
  36.4489510  34.7367578  37.8966212  36.1053779  35.6269220  37.8205323
  36.8168473  34.5469236  37.0335797  24.5175361  47.0601108  30.7154814
  25.3550583  47.4698117  30.4988522  24.6953628  46.1200551  30.6855008
  36.4139793  44.7276189  26.4038647  35.8986416  45.4980794  26.6427035
  36.1417101  44.0541325  27.0271709  33.9986904  39.5725890  31.4623886
  33.1428500  39.1832740  31.2829524  34.4113856  39.6517851  30.6023671
  35.5286050  37.1072233  35.8615445  35.0250846  37.0702368  35.0483251
  35.8216657  38.0164976  35.9212102  31.7728936  37.1910963  34.8681627
  32.6381933  36.9953772  34.5087517  31.8406445  36.9621315  35.7950984
  41.3874067  47.4808544  28.3391821  40.6103510  47.1419703  27.8946983
  42.0665548  47.4861167  27.6646786  36.2026096  42.6003281  28.2298428
  35.8976231  42.9149430  29.0808572  37.1556538  42.6784701  28.2725761
  34.6472528  48.7593505  29.8791382  34.1193889  48.0246264  29.5664620
  34.1460030  49.5368181  29.6331351  39.6265374  46.9542525  34.9958429
  38.9689048  47.6441786  35.0838557  40.4305773  47.3438957  35.3392415
  29.3791255  39.4213171  32.2397994  29.9535007  39.1988352  31.5071187
  29.9662238  39.4901865  32.9926595  38.4370833  45.3086898  33.0462370
  38.9502714  45.9416890  33.5484080  39.0872056  44.7088093  32.6805731
  29.7060842  41.4517632  26.2593879  28.8698155  41.7892318  26.5803154
  29.5665612  41.3166612  25.3221016  31.6813923  36.2954420  30.9673063
  31.0278335  35.9803437  30.3429678  31.6394397  35.6730160  31.6932886
  32.7925128  46.5773715  22.8826355  31.8852190  46.3462968  23.0817504
  33.2896160  45.7811334  23.0700337  35.6993207  55.2871222  25.8023042
  35.0254906  55.5902919  26.4107999  36.0859029  56.0900302  25.4528499
  34.9151663  42.7836353  35.2920711  33.9974225  43.0051300  35.1342399
  35.3311807  42.8582664  34.4332418  35.6986711  44.1827769  30.4223391
  36.4458530  44.6949166  30.1130513  35.9678301  43.8611822  31.2827785
  33.9713361  46.6786310  27.4050346  33.0624581  46.3945342  27.5022815
  34.0008445  47.0985388  26.5453652  39.2032629  50.2892899  31.1741513
  38.7494956  49.4483809  31.2306704  38.5726595  50.9254298  31.5116293
  38.1465548  41.2184885  32.4042181  37.4088305  40.7062271  32.7352423
  38.3992322  40.7785267  31.5925457  37.6465568  52.1269396  32.1091331
  37.9388542  52.6874453  31.3903697  38.1564189  52.4197957  32.8644490
  38.2477176  33.9961137  32.9983950  38.5536052  33.1358501  32.7109865
  38.9729780  34.5878757  32.7982944  24.5401532  44.3991824  31.3865548
  24.3425932  43.8061184  30.6616614  23.9848196  44.0944034  32.1041487
  32.5198255  44.2914930  33.5060141  32.5746865  43.3388767  33.4302617
  31.7089457  44.4474369  33.9901439  33.6689449  48.2195053  24.7438424
  33.2308879  47.5030912  24.2844061  34.4099890  48.4471168  24.1823516
  30.4590615  42.9091990  31.2650520  29.6458481  43.2086161  31.6715712
  30.9549609  42.5147679  31.9825002  32.6099193  52.9049747  33.1984784
  32.5675372  53.1310593  32.2693316  33.5261892  52.6713122  33.3470586
  36.0564827  43.3733814  40.0965414  36.4114215  43.6005288  40.9559879
  36.7036958  43.7052191  39.4742669  41.7862564  46.4952250  30.8014743
  41.6480463  46.6853846  29.8735932  41.4298783  47.2571633  31.2582794
  29.9504690  40.4810346  36.8811755  30.5904069  40.3399105  36.1834718
  29.1182221  40.1944859  36.5050357  41.8131944  48.5628777  35.8126014
  42.2468450  48.4704066  36.6609068  42.5263524  48.5386278  35.1746030
  30.7264994  49.7812776  32.9946747  31.5205592  49.2863096  32.7929322
  30.0156686  49.2530639  32.6314453  35.5459838  52.1630871  37.3459115
  35.5996861  52.7321808  38.1136831  34.6774620  52.3332757  36.9813152
  27.0347757  43.9255858  29.0706500  26.1045346  43.8640313  29.2876462
  27.1305229  43.4031810  28.2743141  26.9533306  40.4510671  31.6584742
  27.2140124  41.3656004  31.5493902  27.7750479  39.9835113  31.8081354
  28.4258232  41.8648428  38.8283566  29.0981285  41.6565790  38.1796215
  27.5988018  41.6670514  38.3888798  42.6747493  48.6052478  38.3458900
  42.8683383  49.5098289  38.5918175  42.5748111  48.1459897  39.1797485
  34.3283804  38.4910369  40.8449227  33.6811719  39.1900318  40.7513703
  35.0984819  38.9246513  41.2125475  37.7362602  48.7559221  43.9199780
  37.5848108  48.5269772  43.0029864  37.7267281  49.7129822  43.9331125
  34.5047938  46.3291134  38.9046047  35.4339998  46.4802293  38.7315014
  34.0838968  46.4175154  38.0494693  33.3036270  50.3541798  36.6744584
  33.1647356  49.9860582  37.5470522  32.5150866  50.8689437  36.5028542
  33.8984422  55.4550894  28.0170121  34.0736178  54.9838938  28.8315743
  33.2117210  56.0816661  28.2451382  34.8541485  49.7323401  34.0633422
  34.5191318  49.6924171  34.9591072  34.3545431  49.0668117  33.5903832
  28.8285729  45.1391031  39.5886003  28.6905527  44.4071269  40.1897542
  29.7390653  45.0499931  39.3070191  37.7900677  47.0779435  24.3370482
  37.1729847  46.3526263  24.2403534  37.3217165  47.8388795  23.9937556
  31.4568030  44.8510990  39.0769683  32.1667648  44.2104182  39.0356301
  31.4137338  45.1023885  39.9995864  39.4454808  51.7878343  41.9976262
  39.3867355  51.1037563  41.3306845  39.8474327  52.5297333  41.5456888
  30.1696964  41.8376208  40.8965322  29.6334321  41.3866946  41.5486919
  29.5813672  41.9722117  40.1535787  28.4645507  58.6040257  34.7909981
  28.7042105  59.2358781  35.4689000  27.6214704  58.2528297  35.0775340
  29.5799223  41.2964859  23.4591786  28.7028689  41.1753660  23.0954033
  30.0556976  40.5050938  23.2070675  39.4472216  49.7517927  40.2290242
  38.5598994  49.4143849  40.3516641  40.0170767  49.0200958  40.4659007
  21.1001363  46.0842019  33.5533293  21.7872403  45.7703749  32.9654308
  20.9449492  46.9883384  33.2800545  25.9036085  40.9732216  37.9818317
  25.8194274  40.3657885  37.2468727  25.0818791  41.4641234  37.9827813
  32.9773369  54.4119380  37.1951485  32.9043541  55.2174351  37.7070790
  32.5350762  54.6111345  36.3699506  32.7663149  53.6491150  30.7054307
  31.9830671  54.1912830  30.7992531  33.4655894  54.1665129  31.1048548
  36.0759799  39.4585779  33.3488512  36.5728498  38.7055741  33.0289582
  35.3046780  39.4950096  32.7831721  43.9289556  45.1626145  34.9906803
  43.9179432  46.0450860  34.6200737  43.0606936  44.8097695  34.7961340
  35.4372053  54.3106214  39.3509644  36.1500025  54.9453678  39.2785545
  34.9462081  54.4070080  38.5349645  37.1589580  48.2157466  30.9226935
  36.2245858  48.3358929  30.7531640  37.3366248  47.3129933  30.6586945
  32.6594768  41.6003162  33.0760196  32.2892555  41.0474202  33.7641102
  33.1553860  40.9961296  32.5235197  40.5462131  44.0574786  31.4576969
  41.0122583  44.8902777  31.3837272  40.9969631  43.5919767  32.1622228
  30.4883966  52.0600657  40.1715214  31.1893426  52.6937140  40.3244609
  30.0179081  52.4015389  39.4110854  38.6138362  50.4018607  28.4563121
  38.8898206  50.2875201  29.3656996  37.7442861  50.0036092  28.4175295
  38.5178794  36.4255373  35.4967871  37.6041873  36.6559599  35.6650078
  38.9471895  36.5093817  36.3481903  38.2885252  44.6145265  37.9967765
  37.6356702  44.8621172  37.3420218  38.6665632  43.8009403  37.6630242
  35.2492426  54.6504958  32.0995935  35.4314821  53.8326614  32.5623687
  36.0725412  54.8672650  31.6620825  35.5834591  53.5773143  29.3610984
  36.1122358  53.0665597  28.7481146  35.8462811  53.2615673  30.2256517
  34.3372825  45.3565076  44.4833802  33.6613462  45.2559205  45.1536177
  35.1600459  45.2004289  44.9469799  26.0851684  51.5937012  37.1046317
  26.6705121  50.8480700  37.2374221  25.8876523  51.9040969  37.9882981
  28.9390339  54.6288260  32.1208760  28.2700715  55.1134387  31.6372800
  28.8003209  54.8757480  33.0352138  20.6769339  44.1642612  35.8250760
  20.7153438  43.6306203  36.6187878  20.1709632  43.6377818  35.2061737
  33.0795608  56.6632003  38.7191418  33.6313916  56.8263625  39.4840503
  33.4201801  57.2536441  38.0471443  28.0560101  39.0107153  39.3213303
  28.1201428  39.8721984  38.9090700  27.9927221  38.3981155  38.5885661
  27.5312374  41.0830285  42.9686337  28.1584413  40.7007363  43.5823861
  26.6740293  40.8644487  43.3342029  37.9306482  51.4893261  44.5740072
  38.4746386  52.1023219  44.0795027  37.3493327  52.0472839  45.0907085
  24.3077917  42.8906715  28.9004692  24.6031358  41.9817393  28.8471745
  23.4065952  42.8694454  28.5785694  36.2163995  54.6113979  35.7055100
  36.0915135  53.8103718  35.1966046  36.8743086  55.1060172  35.2169070
  27.8372164  40.9662711  34.8832240  27.1158749  41.5798679  34.7439714
  28.6265419  41.5020476  34.8048886  38.2798904  52.4122999  37.3334650
  37.3329239  52.2928350  37.2612977  38.6281677  51.5245497  37.4160912
  30.6398477  38.3017138  41.1572892  31.1632879  38.5479434  41.9199201
  30.4210810  39.1337172  40.7376029  26.0365758  40.5720812  29.0244017
  25.7078464  39.6918191  28.8419123  26.3905129  40.5168481  29.9120406
  35.2845337  52.2075715  33.5339002  35.1370299  51.2792422  33.7146572
  36.1098830  52.2295806  33.0496078  29.1507581  40.8593782  29.3919495
  29.4903654  41.3879703  28.6698103  29.5979702  41.1974188  30.1678061
  38.8879459  53.0304274  34.6203875  39.8126006  52.8247135  34.4828326
  38.7194762  52.7820675  35.5293217  31.8451022  39.2430833  38.8422563
  31.5047842  38.4438646  39.2443242  31.1390028  39.5432544  38.2699396
  32.4967494  36.3280145  37.2949886  33.3193563  35.8540623  37.1728776
  32.7405557  37.1070629  37.7948572  31.1375728  39.3568404  27.5912787
  31.8584091  39.7349656  27.0876504  30.5141033  40.0757280  27.6947765
  35.2806851  40.0613553  28.5271120  35.4970466  40.9438190  28.2259948
  34.8000918  39.6699766  27.7976762  30.0206073  43.0199266  35.1041864
  29.8750653  43.3339569  35.9966146  29.5431276  43.6384166  34.5512763
  31.8802456  40.0101814  35.1522754  31.8664024  39.1142907  34.8155052
  32.5974884  40.0172477  35.7861040  33.7328586  40.4439154  37.1975881
  33.4746364  41.3656225  37.1960212  33.2013627  40.0469588  37.8876345
  38.6774775  53.5489941  29.9765967  38.8511653  52.9836364  29.2239819
  39.1703666  54.3490836  29.7945457  24.4951735  45.5604610  38.0429525
  23.9505203  46.3364418  38.1749800  25.3731085  45.9075415  37.8848647
  31.2839351  38.8916194  30.4210324  31.4055263  37.9632840  30.6201211
  30.9941394  38.9054880  29.5088639  34.1530542  36.5771104  33.5577044
  34.1752239  36.6410438  32.6029023  34.5698601  35.7375613  33.7517550
  44.5314166  46.3126364  31.5956266  44.9745312  45.5633689  31.1975390
  43.6540676  46.3036500  31.2129998  39.6649948  52.8656705  27.0762865
  40.3600852  53.4863398  27.2950179  40.0073098  52.0152057  27.3515243
  25.2817757  44.6874506  40.9359682  24.5399493  44.8357142  41.5224313
  24.9610501  44.9482772  40.0726432  41.5641371  50.3156411  28.6050196
  42.0892695  50.6543684  27.8799516  41.4763723  49.3803426  28.4213330
  33.2261419  54.2290485  40.7340072  33.5348546  53.9839631  41.6062772
  34.0236901  54.4337123  40.2458942  33.2482031  56.3828394  32.9645449
  32.8087022  55.8904773  33.6578306  33.9990148  55.8401362  32.7237524
  25.7274370  52.5739935  32.9670077  26.5532390  52.2743707  32.5868720
  25.3768422  51.8047558  33.4159866  30.6955904  51.9266403  35.0367750
  30.0735913  51.2637108  34.7369978  31.3660770  51.9527535  34.3541398
  23.9282975  50.4926262  33.9259010  23.0914884  50.0648436  33.7443012
  23.9006621  50.6858705  34.8629802  30.7680431  40.4048191  44.6300257
  30.8168586  41.2810314  44.2478026  31.3102945  39.8625584  44.0571900
  41.3733152  47.7981781  41.2234122  41.4231157  47.6331788  42.1649645
  41.2647075  46.9309040  40.8332003  30.2569410  50.4770327  28.5126211
  30.4057531  51.1605791  27.8592884  31.0635854  50.4575417  29.0275667
  38.6636914  43.7812709  42.5393429  39.5646777  43.6419174  42.2477427
  38.7384889  43.9467164  43.4791606  32.9979719  41.1579564  41.3846615
  32.1283029  41.4513130  41.1129204  33.2339200  41.7420009  42.1053879
  42.8751349  50.2178723  41.4676144  42.5836157  50.5808703  42.3039605
  42.2623480  49.5045731  41.2889476  44.0747031  47.7831602  33.9878714
  44.9093922  48.2221406  34.1516274  44.2106160  47.3070256  33.1686960
  41.1238537  45.3411337  39.9356202  41.5992658  45.5338983  39.1275053
  40.2004102  45.3970523  39.6899585  28.0122043  46.5035504  29.5187280
  27.7668085  45.5997834  29.7167490  28.1817958  46.5052655  28.5766758
  35.7018753  37.3759181  38.9012036  36.2200697  38.1120208  38.5758524
  35.3473886  37.6823174  39.7358795  27.2817691  42.2363862  27.0173441
  26.5886936  42.3108217  26.3613477  27.0369443  41.4724206  27.5394958
  35.9531347  33.7959463  34.4212932  36.2333101  33.1282652  35.0473359
  36.7381954  33.9888559  33.9087596  33.7564816  52.9718457  25.9837958
  33.1838783  53.5908644  25.5308430  34.3297610  53.5217819  26.5177880
  39.8240206  42.2177097  38.1684507  40.7757629  42.3175195  38.1896731
  39.6543656  41.4255366  38.6782592  37.8454585  39.3032680  38.3543908
  37.2504517  39.5837693  37.6590397  37.5604282  39.7926581  39.1260649
  36.9762076  53.2555607  27.1146541  37.9092749  53.1901169  27.3179416
  36.8885289  54.0911874  26.6561073  39.6050092  52.5721478  24.0750488
  39.5263724  52.2381341  24.9686246  40.4259759  53.0643246  24.0741961
  42.3028284  45.4383217  37.2826807  42.2704604  44.4999218  37.4686491
  42.9128907  45.5167254  36.5492632  34.1411614  44.3079270  23.3254011
  35.0870719  44.1785478  23.3942429  33.7625859  43.5693932  23.8023439
  42.4522772  42.2294260  37.3285090  41.9361821  41.4452717  37.1415019
  43.3362721  41.9012977  37.4931610  40.1133499  35.9735276  33.2880903
  39.9158320  35.6650364  34.1724235  40.7233205  36.6996915  33.4178833
  48.1204833  46.4999224  36.4232844  48.8508222  46.2384512  36.9840547
  47.5111779  45.7627946  36.4634912  46.2020131  44.6407086  37.0207295
  45.4753294  44.5063051  36.4123786  45.7867417  44.9483915  37.8264013
  34.0250307  48.3597016  44.7854668  34.9453316  48.5375615  44.9794714
  33.9899890  47.4153061  44.6334367  32.3254532  42.2329246  23.2608896
  31.4185987  41.9362359  23.3371610  32.6030513  41.9359064  22.3943182
  23.2432472  43.5535610  33.7107943  22.9235256  42.7000918  33.4182317
  22.6965900  43.7684188  34.4665910  27.0212380  46.2698051  37.4277449
  27.2398389  47.2015159  37.4465483  27.4338153  45.9106025  38.2132253
  33.9416597  36.7766136  29.4153137  33.1317326  36.4313221  29.7908384
  34.6301014  36.4673680  30.0040749  35.8707146  35.8544183  31.0377434
  36.4238184  36.2739636  31.6967457  36.1077232  34.9279931  31.0800390
  31.8940245  41.8431256  46.8180198  31.7936972  42.7925613  46.7492289
  31.6761787  41.5149495  45.9456268  31.0953316  39.0916182  23.4020875
  31.9572480  39.4171080  23.6616693  31.2803660  38.3047677  22.8893941
  23.1120732  47.1738521  35.6801064  22.4184203  46.7592474  35.1671019
  23.8593723  47.2159058  35.0834483  39.2485953  37.9644708  30.5456098
  38.6684622  38.6229512  30.1634151  38.9821885  37.1422053  30.1343516
  37.6989519  37.3649766  32.7477419  38.1989297  37.4766300  31.9391738
  38.3425127  37.0610819  33.3878227  31.7571515  45.2728395  45.6345260
  31.2738597  46.0728755  45.8409149  31.8432454  45.2836340  44.6812704
  25.0257475  47.1056775  33.5567079  25.0028163  47.2044462  32.6048962
  25.3358111  47.9521926  33.8784245  27.6844852  49.1632930  37.6713693
  28.6388106  49.1316872  37.6043625  27.4857376  48.7023554  38.4863919
  28.2744235  47.7334046  40.2384491  29.0937124  48.2278125  40.2619328
  28.5481042  46.8166014  40.2102059  38.0310831  40.1244798  29.6012447
  37.1436686  40.4094449  29.3832641  38.4464820  39.9638562  28.7539724
  41.3825367  40.1491319  33.3166786  42.1585757  40.6387772  33.5891403
  40.6573501  40.5749374  33.7738655  43.8197925  40.8618939  34.3740726
  44.4142416  40.6214675  33.6634035  43.8924509  40.1426069  35.0014263
  26.0395081  54.7052550  34.6883891  25.9049549  53.9452950  34.1221889
  25.6227143  55.4293449  34.2212680  37.1754044  49.8889473  23.6960467
  37.8789894  50.0939476  24.3118122  36.4516693  50.4566235  23.9609550
  38.0051854  45.6399334  29.8162737  37.9487056  46.0967886  28.9770369
  38.5580197  44.8790019  29.6385580  41.8156660  41.4289066  30.6412856
  41.5593595  41.0285702  31.4721064  41.1909528  42.1432860  30.5162995
  46.1268998  44.1685139  33.1484148  45.5668556  44.2378329  33.9215710
  45.5212502  43.9926124  32.4283644  29.1964207  55.6021867  34.9002334
  29.0796591  56.5467299  34.7981024  28.3756653  55.2995428  35.2888133
  39.0840742  50.3272002  25.7458927  39.9186346  49.8953201  25.5636401
  38.9225085  50.1554016  26.6735821  38.7386634  46.8304116  27.1115266
  38.6835438  46.6648387  26.1703710  38.1132689  47.5380148  27.2677456
  23.5279149  42.0672180  40.9376688  24.1738012  41.5571134  41.4263913
  23.3196300  42.8040862  41.5120113  36.0532541  49.1353027  46.4368829
  36.9223701  49.3093680  46.0755464  35.5739292  49.9547444  46.3144558
  32.0482759  36.3312225  26.6900584  32.0361429  37.2754064  26.8468855
  32.9406181  36.1482370  26.3960046  30.2218721  56.2550128  38.1158262
  31.1245968  56.2873739  38.4324757  29.9956091  55.3250579  38.1304598
  31.9772323  55.0081115  34.7768341  31.0267954  55.0082977  34.6632713
  32.2804809  54.2613850  34.2604376  35.8634879  32.9255001  30.9446521
  35.0967275  32.3713488  31.0903204  36.2745584  32.9976870  31.8060673
  27.8676640  39.2139797  45.0351702  28.7308101  38.8576602  45.2455027
  27.2942050  38.8753692  45.7227107  44.5214723  60.7969081  35.7775628
  44.1833235  60.6810146  34.8896163  45.3904491  60.3960247  35.7576634
  40.3801539  62.6504558  31.7672519  39.8166404  62.5594495  30.9988807
  40.2653934  61.8304462  32.2475012  37.9265971  64.1455749  34.6056739
  38.7187263  63.8046574  34.1903039  38.1662621  64.2550725  35.5258893
  45.9601097  66.3175526  27.0786984  45.3089077  66.9029606  26.6920998
  46.7545460  66.8481720  27.1382021  39.8856725  63.4064663  27.4774118
  40.6587601  62.8593650  27.3386994  40.2382123  64.2708912  27.6888580
  42.6497974  62.1117894  37.2742377  43.2461546  61.8873916  36.5599340
  42.7072946  61.3702639  37.8767825  42.2223002  59.5657329  25.1092568
  42.4748523  59.0438850  24.3476031  41.2847561  59.4023474  25.2119252
  47.2666285  58.5693107  32.9167311  48.0529374  58.1512530  32.5657728
  47.5304990  59.4739199  33.0848960  47.4376363  64.0065958  27.6155968
  46.8022196  64.0800584  28.3276873  47.1073769  64.5959556  26.9375047
  41.9419291  61.4685435  27.3116943  41.8255549  60.7930338  27.9798027
  42.0521551  60.9817809  26.4949096  44.2850832  60.9295582  31.0163632
  43.9209039  60.4026203  31.7276554  45.1417948  60.5394051  30.8430118
  50.1900133  52.2189915  38.2794899  49.8583457  53.0885325  38.0556114
  49.5945746  51.9026199  38.9588929  43.9256319  55.9585482  26.0124981
  44.0930721  56.8265718  26.3795452  43.7353488  56.1212763  25.0886270
  40.1344134  60.8716257  33.7127516  39.2094630  60.7392471  33.9205207
  40.3828547  61.6510477  34.2097458  43.9045540  58.4143139  26.9971648
  43.7845165  58.8600190  27.8357128  43.2098128  58.7628457  26.4385186
  37.4952945  60.5149531  34.5471305  37.6245326  60.7684010  35.4610716
  36.8150396  61.1077239  34.2275960  41.6652432  71.1846781  30.6461779
  41.5876462  72.1354606  30.7250260  41.0614076  70.8392653  31.3036705
  49.6030606  58.8864612  27.8251982  50.5148462  59.1191999  27.6499679
  49.0940253  59.4701656  27.2627060  44.2402444  58.2461847  38.8346831
  45.0863639  58.6701260  38.9781480  44.1801081  57.5895471  39.5285394
  46.9466581  55.0622648  36.0741843  46.0851060  55.3603902  36.3658580
  46.9729015  55.2793047  35.1422875  43.7628150  63.6064839  32.4815648
  44.2266496  63.8852542  31.6920271  43.4984948  62.7048283  32.2988739
  40.6552231  63.1536320  35.4195412  41.2253588  63.5823589  34.7812896
  41.2460343  62.8718905  36.1179597  42.6997036  59.7287991  29.2905213
  43.4021080  60.1809035  29.7579140  42.3677665  59.0871810  29.9185107
  36.4422370  57.9871544  34.5922347  35.6521424  58.2429072  34.1162458
  36.9333618  58.8019882  34.6974388  38.3937116  58.3516123  31.5505824
  37.5968279  58.4634817  32.0689319  38.1662708  58.6902775  30.6846714
  44.2242783  64.8760826  39.4988338  44.2887216  65.3381234  40.3346510
  43.5153707  64.2458191  39.6270648  34.7260073  58.2402034  37.0237338
  34.9768112  59.1249044  37.2894914  35.2619622  58.0606636  36.2512430
  43.9390801  66.5428934  29.3667319  43.8036476  67.3880470  29.7952167
  44.4800613  66.7448211  28.6033253  37.3920198  64.0604372  29.9395244
  37.9044719  64.8547622  30.0900808  38.0442911  63.3630662  29.8728845
  39.2015083  67.1770128  32.0217997  39.3781711  68.0988093  31.8338981
  39.9971917  66.8628547  32.4512377  40.3246398  68.6948302  38.0228339
  40.8753824  68.5665365  37.2505333  39.4857874  68.9943191  37.6723232
  47.6640515  67.4455300  41.5249062  47.6458991  68.2664181  41.0329331
  48.5860435  67.3209375  41.7499203  47.2883264  50.0659496  37.8966212
  46.9447534  50.9561137  37.8205323  47.6562227  49.8761153  37.0335797
  35.3569115  62.3893026  30.7154814  36.1944337  62.7990035  30.4988522
  35.5347383  61.4492468  30.6855008  47.2533547  60.0568107  26.4038647
  46.7380171  60.8272711  26.6427035  46.9810856  59.3833243  27.0271709
  44.8380658  54.9017808  31.4623886  43.9822255  54.5124658  31.2829524
  45.2507610  54.9809768  30.6023671  46.3679805  52.4364151  35.8615445
  45.8644600  52.3994286  35.0483251  46.6610412  53.3456894  35.9212102
  42.6122691  52.5202881  34.8681627  43.4775688  52.3245689  34.5087517
  42.6800200  52.2913232  35.7950984  47.0419850  57.9295199  28.2298428
  46.7369986  58.2441348  29.0808572  47.9950293  58.0076619  28.2725761
  45.4866282  64.0885422  29.8791382  44.9587644  63.3538182  29.5664620
  44.9853785  64.8660099  29.6331351  40.2185010  54.7505088  32.2397994
  40.7928762  54.5280270  31.5071187  40.8055992  54.8193783  32.9926595
  40.5454597  56.7809550  26.2593879  39.7091909  57.1184236  26.5803154
  40.4059367  56.6458529  25.3221016  42.5207678  51.6246337  30.9673063
  41.8672090  51.3095355  30.3429678  42.4788152  51.0022078  31.6932886
  43.6318882  61.9065632  22.8826355  42.7245944  61.6754886  23.0817504
  44.1289914  61.1103252  23.0700337  46.5386961  70.6163140  25.8023042
  45.8648660  70.9194836  26.4107999  46.9252783  71.4192220  25.4528499
  45.7545418  58.1128271  35.2920711  44.8367979  58.3343218  35.1342399
  46.1705562  58.1874581  34.4332418  46.5380466  59.5119687  30.4223391
  47.2852285  60.0241084  30.1130513  46.8072055  59.1903739  31.2827785
  44.8107116  62.0078227  27.4050346  43.9018335  61.7237260  27.5022815
  44.8402200  62.4277306  26.5453652  48.4859323  67.4561314  32.1091331
  48.7782297  68.0166371  31.3903697  48.9957943  67.7489875  32.8644490
  49.0870930  49.3253055  32.9983950  49.3929807  48.4650418  32.7109865
  49.8123535  49.9170675  32.7982944  35.3795286  59.7283741  31.3865548
  35.1819686  59.1353102  30.6616614  34.8241950  59.4235952  32.1041487
  43.3592010  59.6206848  33.5060141  43.4140620  58.6680684  33.4302617
  42.5483212  59.7766287  33.9901439  44.5083204  63.5486971  24.7438424
  44.0702634  62.8322830  24.2844061  45.2493645  63.7763086  24.1823516
  41.2984370  58.2383908  31.2650520  40.4852235  58.5378078  31.6715712
  41.7943364  57.8439596  31.9825002  43.4492948  68.2341665  33.1984784
  43.4069126  68.4602511  32.2693316  44.3655647  68.0005039  33.3470586
  40.7898445  55.8102263  36.8811755  41.4297824  55.6691022  36.1834718
  39.9575975  55.5236777  36.5050357  41.5658748  65.1104694  32.9946747
  42.3599347  64.6155014  32.7929322  40.8550441  64.5822557  32.6314453
  46.3853593  67.4922789  37.3459115  46.4390615  68.0613725  38.1136831
  45.5168374  67.6624674  36.9813152  37.8741512  59.2547775  29.0706500
  36.9439100  59.1932231  29.2876462  37.9698984  58.7323728  28.2743141
  37.7927061  55.7802588  31.6584742  38.0533878  56.6947921  31.5493902
  38.6144233  55.3127031  31.8081354  39.2651986  57.1940345  38.8283566
  39.9375040  56.9857707  38.1796215  38.4381773  56.9962431  38.3888798
  44.1430024  65.6833716  36.6744584  44.0041110  65.3152500  37.5470522
  43.3544621  66.1981355  36.5028542  44.7378176  70.7842812  28.0170121
  44.9129932  70.3130855  28.8315743  44.0510964  71.4108578  28.2451382
  45.6935240  65.0615318  34.0633422  45.3585072  65.0216088  34.9591072
  45.1939185  64.3960034  33.5903832  39.6679484  60.4682948  39.5886003
  39.5299282  59.7363187  40.1897542  40.5784407  60.3791848  39.3070191
  48.6294431  62.4071353  24.3370482  48.0123602  61.6818181  24.2403534
  48.1610920  63.1680713  23.9937556  42.2961784  60.1802908  39.0769683
  43.0061403  59.5396100  39.0356301  42.2531092  60.4315803  39.9995864
  50.2848563  67.1170261  41.9976262  50.2261109  66.4329481  41.3306845
  50.6868081  67.8589251  41.5456888  39.3039262  73.9332175  34.7909981
  39.5435860  74.5650699  35.4689000  38.4608458  73.5820215  35.0775340
  40.4192977  56.6256777  23.4591786  39.5422443  56.5045578  23.0954033
  40.8950730  55.8342855  23.2070675  31.9395117  61.4133937  33.5533293
  32.6266157  61.0995667  32.9654308  31.7843246  62.3175301  33.2800545
  36.7429839  56.3024133  37.9818317  36.6588028  55.6949803  37.2468727
  35.9212546  56.7933152  37.9827813  43.8167124  69.7411297  37.1951485
  43.7437295  70.5466269  37.7070790  43.3744517  69.9403263  36.3699506
  43.6056903  68.9783067  30.7054307  42.8224425  69.5204748  30.7992531
  44.3049648  69.4957047  31.1048548  46.9153553  54.7877697  33.3488512
  47.4122253  54.0347659  33.0289582  46.1440535  54.8242013  32.7831721
  46.2765807  69.6398131  39.3509644  46.9893779  70.2745596  39.2785545
  45.7855836  69.7361997  38.5349645  43.4988522  56.9295080  33.0760196
  43.1286310  56.3766120  33.7641102  43.9947615  56.3253213  32.5235197
  41.3277721  67.3892575  40.1715214  42.0287180  68.0229058  40.3244609
  40.8572836  67.7307306  39.4110854  49.4532116  65.7310525  28.4563121
  49.7291960  65.6167119  29.3656996  48.5836615  65.3328009  28.4175295
  49.3572548  51.7547290  35.4967871  48.4435628  51.9851517  35.6650078
  49.7865650  51.8385734  36.3481903  46.0886180  69.9796875  32.0995935
  46.2708575  69.1618531  32.5623687  46.9119166  70.1964568  31.6620825
  46.4228346  68.9065061  29.3610984  46.9516112  68.3957515  28.7481146
  46.6856566  68.5907591  30.2256517  36.9245439  66.9228930  37.1046317
  37.5098876  66.1772618  37.2374221  36.7270277  67.2332887  37.9882981
  39.7784094  69.9580177  32.1208760  39.1094469  70.4426305  31.6372800
  39.6396964  70.2049398  33.0352138  31.5163093  59.4934530  35.8250760
  31.5547193  58.9598121  36.6187878  31.0103386  58.9669736  35.2061737
  43.9189363  71.9923921  38.7191418  44.4707671  72.1555542  39.4840503
  44.2595556  72.5828359  38.0471443  38.8953856  54.3399071  39.3213303
  38.9595182  55.2013901  38.9090700  38.8320976  53.7273072  38.5885661
  48.7700237  66.8185178  44.5740072  49.3140141  67.4315137  44.0795027
  48.1887082  67.3764757  45.0907085  35.1471671  58.2198632  28.9004692
  35.4425112  57.3109311  28.8471745  34.2459707  58.1986372  28.5785694
  47.0557750  69.9405896  35.7055100  46.9308889  69.1395636  35.1966046
  47.7136841  70.4352090  35.2169070  38.6765918  56.2954629  34.8832240
  37.9552504  56.9090596  34.7439714  39.4659174  56.8312394  34.8048886
  41.4792232  53.6309055  41.1572892  42.0026633  53.8771352  41.9199201
  41.2604565  54.4629090  40.7376029  36.8759513  55.9012730  29.0244017
  36.5472219  55.0210109  28.8419123  37.2298883  55.8460399  29.9120406
  46.1239091  67.5367633  33.5339002  45.9764054  66.6084340  33.7146572
  46.9492585  67.5587723  33.0496078  39.9901336  56.1885700  29.3919495
  40.3297408  56.7171621  28.6698103  40.4373456  56.5266106  30.1678061
  49.7273213  68.3596191  34.6203875  50.6519761  68.1539053  34.4828326
  49.5588517  68.1112592  35.5293217  42.6844777  54.5722750  38.8422563
  42.3441597  53.7730563  39.2443242  41.9783783  54.8724461  38.2699396
  43.3361248  51.6572063  37.2949886  44.1587318  51.1832541  37.1728776
  43.5799312  52.4362547  37.7948572  41.9769483  54.6860321  27.5912787
  42.6977845  55.0641574  27.0876504  41.3534787  55.4049198  27.6947765
  46.1200606  55.3905470  28.5271120  46.3364220  56.2730108  28.2259948
  45.6394673  54.9991684  27.7976762  40.8599827  58.3491183  35.1041864
  40.7144408  58.6631487  35.9966146  40.3825031  58.9676084  34.5512763
  42.7196210  55.3393731  35.1522754  42.7057779  54.4434825  34.8155052
  43.4368638  55.3464395  35.7861040  44.5722341  55.7731072  37.1975881
  44.3140119  56.6948142  37.1960212  44.0407381  55.3761506  37.8876345
  49.5168530  68.8781859  29.9765967  49.6905407  68.3128281  29.2239819
  50.0097421  69.6782754  29.7945457  35.3345489  60.8896528  38.0429525
  34.7898957  61.6656336  38.1749800  36.2124839  61.2367332  37.8848647
  42.1233106  54.2208112  30.4210324  42.2449017  53.2924758  30.6201211
  41.8335148  54.2346798  29.5088639  44.9924296  51.9063022  33.5577044
  45.0145993  51.9702355  32.6029023  45.4092355  51.0667531  33.7517550
  50.5043702  68.1948623  27.0762865  51.1994607  68.8155316  27.2950179
  50.8466852  67.3443974  27.3515243  36.1211511  60.0166424  40.9359682
  35.3793247  60.1649059  41.5224313  35.8004255  60.2774690  40.0726432
  52.4035125  65.6448329  28.6050196  52.9286449  65.9835601  27.8799516
  52.3157478  64.7095344  28.4213330  44.0655174  69.5582402  40.7340072
  44.3742300  69.3131549  41.6062772  44.8630656  69.7629041  40.2458942
  44.0875786  71.7120312  32.9645449  43.6480776  71.2196691  33.6578306
  44.8383903  71.1693280  32.7237524  36.5668125  67.9031853  32.9670077
  37.3926145  67.6035625  32.5868720  36.2162177  67.1339475  33.4159866
  41.5349658  67.2558321  35.0367750  40.9129667  66.5929026  34.7369978
  42.2054525  67.2819453  34.3541398  34.7676730  65.8218179  33.9259010
  33.9308638  65.3940354  33.7443012  34.7400375  66.0150623  34.8629802
  52.0929031  66.2781232  43.9101394  51.3024575  66.2605371  43.3705893
  51.8562386  66.8169526  44.6650430  41.0963165  65.8062244  28.5126211
  41.2451285  66.4897709  27.8592884  41.9029608  65.7867334  29.0275667
  38.8515798  61.8327422  29.5187280  38.6061840  60.9289752  29.7167490
  39.0211712  61.8344572  28.5766758  46.5412508  52.7051098  38.9012036
  47.0594452  53.4412125  38.5758524  46.1867641  53.0115092  39.7358795
  38.1211445  57.5655780  27.0173441  37.4280690  57.6400135  26.3613477
  37.8763197  56.8016123  27.5394958  46.7925102  49.1251381  34.4212932
  47.0726856  48.4574570  35.0473359  47.5775709  49.3180477  33.9087596
  44.5958570  68.3010375  25.9837958  44.0232538  68.9200562  25.5308430
  45.1691364  68.8509737  26.5177880  48.6848340  54.6324598  38.3543908
  48.0898272  54.9129611  37.6590397  48.3998036  55.1218499  39.1260649
  47.8155830  68.5847525  27.1146541  48.7486503  68.5193087  27.3179416
  47.7279043  69.4203792  26.6561073  50.4443847  67.9013395  24.0750488
  50.3657478  67.5673259  24.9686246  51.2653514  68.3935163  24.0741961
  44.9805369  59.6371188  23.3254011  45.9264474  59.5077396  23.3942429
  44.6019614  58.8985850  23.8023439  50.9527253  51.3027194  33.2880903
  50.7552075  50.9942282  34.1724235  51.5626959  52.0288833  33.4178833
  43.1648286  57.5621164  23.2608896  42.2579742  57.2654277  23.3371610
  43.4424267  57.2650982  22.3943182  34.0826226  58.8827527  33.7107943
  33.7629011  58.0292836  33.4182317  33.5359655  59.0976106  34.4665910
  37.8606134  61.5989968  37.4277449  38.0792144  62.5307076  37.4465483
  38.2731908  61.2397943  38.2132253  44.7810352  52.1058054  29.4153137
  43.9711080  51.7605139  29.7908384  45.4694769  51.7965597  30.0040749
  46.7100900  51.1836101  31.0377434  47.2631939  51.6031554  31.6967457
  46.9470986  50.2571849  31.0800390  41.9347071  54.4208099  23.4020875
  42.7966235  54.7462998  23.6616693  42.1197415  53.6339595  22.8893941
  33.9514486  62.5030439  35.6801064  33.2577958  62.0884392  35.1671019
  34.6987477  62.5450975  35.0834483  50.0879707  53.2936626  30.5456098
  49.5078376  53.9521430  30.1634151  49.8215640  52.4713970  30.1343516
  48.5383274  52.6941683  32.7477419  49.0383052  52.8058218  31.9391738
  49.1818882  52.3902736  33.3878227  35.8651229  62.4348693  33.5567079
  35.8421917  62.5336380  32.6048962  36.1751866  63.2813843  33.8784245
  38.5238607  64.4924848  37.6713693  39.4781860  64.4608790  37.6043625
  38.3251130  64.0315471  38.4863919  39.1137989  63.0625964  40.2384491
  39.9330878  63.5570042  40.2619328  39.3874797  62.1457932  40.2102059
  48.8704585  55.4536716  29.6012447  47.9830440  55.7386367  29.3832641
  49.2858574  55.2930479  28.7539724  52.2219121  55.4783237  33.3166786
  52.9979511  55.9679689  33.5891403  51.4967256  55.9041291  33.7738655
  36.8788836  70.0344467  34.6883891  36.7443304  69.2744868  34.1221889
  36.4620898  70.7585367  34.2212680  48.0147799  65.2181391  23.6960467
  48.7183649  65.4231393  24.3118122  47.2910447  65.7858153  23.9609550
  40.0357962  70.9313784  34.9002334  39.9190346  71.8759217  34.7981024
  39.2150408  70.6287346  35.2888133  49.9234496  65.6563920  25.7458927
  50.7580100  65.2245118  25.5636401  49.7618839  65.4845934  26.6735821
  49.5780388  62.1596033  27.1115266  49.5229192  61.9940305  26.1703710
  48.9526444  62.8672066  27.2677456  34.3672903  57.3964098  40.9376688
  35.0131767  56.8863052  41.4263913  34.1590054  58.1332779  41.5120113
  42.8876514  51.6604142  26.6900584  42.8755184  52.6045982  26.8468855
  43.7799936  51.4774288  26.3960046  41.0612476  71.5842046  38.1158262
  41.9639722  71.6165656  38.4324757  40.8349846  70.6542497  38.1304598
  42.8166078  70.3373033  34.7768341  41.8661709  70.3374894  34.6632713
  43.1198564  69.5905767  34.2604376  46.7028633  48.2546919  30.9446521
  45.9361029  47.7005406  31.0903204  47.1139338  48.3268788  31.8060673
  58.5518771  76.1733571  35.8414103  59.1897181  76.0540318  35.1377443
  58.4339614  77.1214415  35.9002056  55.3608477  76.1260999  35.7775628
  55.0226989  76.0102064  34.8896163  56.2298246  75.7252164  35.7576634
  51.2195293  77.9796476  31.7672519  50.6560158  77.8886412  30.9988807
  51.1047688  77.1596380  32.2475012  55.8428260  77.2795851  41.7361834
  55.8316901  76.8848649  40.8642337  56.0048900  76.5461923  42.3295605
  48.7659725  79.4747667  34.6056739  49.5581017  79.1338492  34.1903039
  49.0056375  79.5842642  35.5258893  56.7994852  81.6467443  27.0786984
  56.1482832  82.2321524  26.6920998  57.5939215  82.1773638  27.1382021
  50.7250479  78.7356580  27.4774118  51.4981355  78.1885567  27.3386994
  51.0775878  79.6000830  27.6888580  52.5635522  80.0632963  40.6841018
  52.2725388  80.9678594  40.5687684  53.1992506  80.1049490  41.3985087
  53.4891728  77.4409811  37.2742377  54.0855301  77.2165834  36.5599340
  53.5466700  76.6994557  37.8767825  53.0616757  74.8949247  25.1092568
  53.3142278  74.3730768  24.3476031  52.1241316  74.7315392  25.2119252
  58.1060040  73.8985025  32.9167311  58.8923129  73.4804448  32.5657728
  58.3698744  74.8031117  33.0848960  58.2770117  79.3357875  27.6155968
  57.6415950  79.4092502  28.3276873  57.9467523  79.9251474  26.9375047
  52.7813046  76.7977352  27.3116943  52.6649304  76.1222256  27.9798027
  52.8915305  76.3109726  26.4949096  55.1244587  76.2587500  31.0163632
  54.7602794  75.7318121  31.7276554  55.9811702  75.8685969  30.8430118
  54.7650074  71.2877399  26.0124981  54.9324476  72.1557636  26.3795452
  54.5747243  71.4504681  25.0886270  57.5225407  79.7494378  37.6790811
  57.2226130  80.6519417  37.5706619  57.1776466  79.4826561  38.5311964
  50.9737888  76.2008175  33.7127516  50.0488385  76.0684389  33.9205207
  51.2222301  76.9802394  34.2097458  54.7439294  73.7435057  26.9971648
  54.6238920  74.1892108  27.8357128  54.0491883  74.0920374  26.4385186
  48.3346699  75.8441449  34.5471305  48.4639080  76.0975928  35.4610716
  47.6544151  76.4369157  34.2275960  52.5046186  86.5138699  30.6461779
  52.4270216  87.4646524  30.7250260  51.9007830  86.1684571  31.3036705
  54.9963416  73.6866564  43.3023146  54.2196750  74.2460484  43.2926011
  55.6353979  74.1723347  43.8238016  60.4424361  74.2156530  27.8251982
  61.3542217  74.4483917  27.6499679  59.9334008  74.7993574  27.2627060
  53.2509789  76.4952017  42.8641113  53.9924473  77.0337061  42.5875936
  52.5446774  77.1218306  43.0212665  58.7265128  78.6381158  41.4613274
  59.1348484  78.1963568  40.7167907  58.0042390  78.0633785  41.7147467
  55.0796198  73.5753765  38.8346831  55.9257393  73.9993178  38.9781480
  55.0194836  72.9187389  39.5285394  59.0493943  79.1982348  35.2165563
  58.4202805  79.3628063  34.5141631  58.6619605  79.6123958  35.9876527
  62.9283175  80.1336786  32.5709927  62.2434213  80.5135688  32.0206960
  63.0127024  80.7432113  33.3041875  58.2295644  71.2358133  40.4928005
  57.9856575  71.9900193  39.9562281  58.5055574  71.6143481  41.3275252
  60.1834106  77.7796745  39.1705271  60.3951002  78.4228505  38.4939652
  60.1363855  76.9459062  38.7027201  57.7860335  70.3914566  36.0741843
  56.9244814  70.6895819  36.3658580  57.8122770  70.6084965  35.1422875
  54.6021905  78.9356756  32.4815648  55.0660250  79.2144459  31.6920271
  54.3378703  78.0340201  32.2988739  51.4945986  78.4828238  35.4195412
  52.0647343  78.9115506  34.7812896  52.0854098  78.2010823  36.1179597
  53.5390791  75.0579909  29.2905213  54.2414834  75.5100953  29.7579140
  53.2071419  74.4163728  29.9185107  51.9871152  73.6491665  43.6656423
  51.3569813  74.3307946  43.8991820  51.8807240  73.5374747  42.7209561
  47.2816125  73.3163462  34.5922347  46.4915179  73.5720990  34.1162458
  47.7727372  74.1311799  34.6974388  61.2979934  80.6568701  37.3427628
  62.1197378  80.2548888  37.0610310  61.2942337  80.5536935  38.2943744
  49.2330870  73.6808041  31.5505824  48.4362033  73.7926735  32.0689319
  49.0056462  74.0194693  30.6846714  55.0636538  80.2052744  39.4988338
  55.1280970  80.6673151  40.3346510  54.3547462  79.5750109  39.6270648
  45.5653828  73.5693952  37.0237338  45.8161866  74.4540962  37.2894914
  46.1013376  73.3898554  36.2512430  69.3885927  77.0007449  33.6912599
  68.6349636  76.4314847  33.5356604  69.5233469  76.9670114  34.6383234
  54.7784555  81.8720851  29.3667319  54.6430230  82.7172387  29.7952167
  55.3194368  82.0740129  28.6033253  51.2651895  67.9512431  46.0281674
  50.8718841  67.3978630  46.7029318  52.0818035  68.2623010  46.4188191
  48.2313953  79.3896290  29.9395244  48.7438473  80.1839540  30.0900808
  48.8836666  78.6922580  29.8728845  50.0408838  82.5062046  32.0217997
  50.2175466  83.4280010  31.8338981  50.8365671  82.1920465  32.4512377
  54.1819856  69.3670310  43.6201930  54.9229569  69.9677464  43.5406393
  54.4137779  68.6247948  43.0619973  49.3261194  74.5526678  41.8980160
  49.2114709  73.6511935  42.1987259  48.4705712  74.7990374  41.5464977
  56.4053032  82.4944418  43.4967661  55.9616886  81.7080797  43.1788565
  57.0670245  82.6823568  42.8311552  51.1640153  84.0240220  38.0228339
  51.7147578  83.8957283  37.2505333  50.3251629  84.3235109  37.6723232
  58.5034270  82.7747218  41.5249062  58.4852745  83.5956099  41.0329331
  59.4254190  82.6501293  41.7499203  54.9607324  80.2891347  42.3672570
  55.4935661  79.5279636  42.1371878  54.4321405  79.9964999  43.1096725
  46.1962870  77.7184944  30.7154814  47.0338092  78.1281952  30.4988522
  46.3741137  76.7784386  30.6855008  58.0927302  75.3860024  26.4038647
  57.5773925  76.1564629  26.6427035  57.8204610  74.7125161  27.0271709
  55.6774413  70.2309725  31.4623886  54.8216009  69.8416576  31.2829524
  56.0901364  70.3101686  30.6023671  57.2073559  67.7656069  35.8615445
  56.7038355  67.7286204  35.0483251  57.5004166  68.6748811  35.9212102
  53.4516445  67.8494798  34.8681627  54.3169442  67.6537607  34.5087517
  53.5193954  67.6205150  35.7950984  63.0661576  78.1392379  28.3391821
  62.2891019  77.8003539  27.8946983  63.7453057  78.1445002  27.6646786
  57.8813605  73.2587117  28.2298428  57.5763740  73.5733266  29.0808572
  58.8344047  73.3368536  28.2725761  56.3260037  79.4177340  29.8791382
  55.7981398  78.6830099  29.5664620  55.8247539  80.1952016  29.6331351
  61.3052883  77.6126360  34.9958429  60.6476557  78.3025622  35.0838557
  62.1093282  78.0022792  35.3392415  51.0578764  70.0797006  32.2397994
  51.6322516  69.8572188  31.5071187  51.6449747  70.1485701  32.9926595
  60.1158342  75.9670733  33.0462370  60.6290223  76.6000725  33.5484080
  60.7659565  75.3671929  32.6805731  51.3848351  72.1101467  26.2593879
  50.5485664  72.4476154  26.5803154  51.2453121  71.9750447  25.3221016
  53.3601432  66.9538255  30.9673063  52.7065844  66.6387272  30.3429678
  53.3181906  66.3313996  31.6932886  54.4712637  77.2357550  22.8826355
  53.5639699  77.0046804  23.0817504  54.9683669  76.4395169  23.0700337
  57.3780716  85.9455057  25.8023042  56.7042415  86.2486754  26.4107999
  57.7646538  86.7484138  25.4528499  56.5939172  73.4420189  35.2920711
  55.6761734  73.6635136  35.1342399  57.0099316  73.5166499  34.4332418
  57.3774220  74.8411604  30.4223391  58.1246039  75.3533002  30.1130513
  57.6465810  74.5195657  31.2827785  55.6500870  77.3370145  27.4050346
  54.7412090  77.0529178  27.5022815  55.6795954  77.7569224  26.5453652
  60.8820138  80.9476735  31.1741513  60.4282465  80.1067644  31.2306704
  60.2514104  81.5838133  31.5116293  59.3253077  82.7853231  32.1091331
  59.6176051  83.3458288  31.3903697  59.8351698  83.0781792  32.8644490
  46.2189041  75.0575659  31.3865548  46.0213441  74.4645020  30.6616614
  45.6635705  74.7527869  32.1041487  54.1985764  74.9498766  33.5060141
  54.2534374  73.9972602  33.4302617  53.3876966  75.1058205  33.9901439
  55.3476958  78.8778889  24.7438424  54.9096388  78.1614748  24.2844061
  56.0887399  79.1055004  24.1823516  52.1378124  73.5675825  31.2650520
  51.3245990  73.8669996  31.6715712  52.6337118  73.1731514  31.9825002
  54.2886702  83.5633582  33.1984784  54.2462881  83.7894429  32.2693316
  55.2049401  83.3296957  33.3470586  57.7352336  74.0317650  40.0965414
  58.0901724  74.2589123  40.9559879  58.3824467  74.3636027  39.4742669
  63.4650073  77.1536086  30.8014743  63.3267972  77.3437682  29.8735932
  63.1086292  77.9155469  31.2582794  51.6292199  71.1394181  36.8811755
  52.2691578  70.9982940  36.1834718  50.7969730  70.8528694  36.5050357
  63.4919453  79.2212613  35.8126014  63.9255959  79.1287902  36.6609068
  64.2051033  79.1970113  35.1746030  52.4052503  80.4396611  32.9946747
  53.1993101  79.9446931  32.7929322  51.6944195  79.9114474  32.6314453
  57.2247347  82.8214707  37.3459115  57.2784370  83.3905643  38.1136831
  56.3562129  82.9916592  36.9813152  48.7135266  74.5839693  29.0706500
  47.7832855  74.5224149  29.2876462  48.8092738  74.0615646  28.2743141
  48.6320815  71.1094506  31.6584742  48.8927633  72.0239839  31.5493902
  49.4537988  70.6418948  31.8081354  50.1045741  72.5232263  38.8283566
  50.7768794  72.3149625  38.1796215  49.2775527  72.3254349  38.3888798
  64.3535002  79.2636313  38.3458900  64.5470892  80.1682124  38.5918175
  64.2535620  78.8043732  39.1797485  56.0071313  69.1494204  40.8449227
  55.3599228  69.8484154  40.7513703  56.7772328  69.5830348  41.2125475
  59.4150111  79.4143056  43.9199780  59.2635617  79.1853608  43.0029864
  59.4054790  80.3713658  43.9331125  56.1835447  76.9874969  38.9046047
  57.1127507  77.1386128  38.7315014  55.7626477  77.0758990  38.0494693
  54.9823779  81.0125633  36.6744584  54.8434865  80.6444418  37.5470522
  54.1938375  81.5273273  36.5028542  55.5771931  86.1134730  28.0170121
  55.7523687  85.6422773  28.8315743  54.8904719  86.7400496  28.2451382
  56.5328994  80.3907236  34.0633422  56.1978827  80.3508006  34.9591072
  56.0332940  79.7251952  33.5903832  50.5073238  75.7974866  39.5886003
  50.3693036  75.0655105  40.1897542  51.4178162  75.7083766  39.3070191
  59.4688186  77.7363270  24.3370482  58.8517356  77.0110098  24.2403534
  59.0004674  78.4972631  23.9937556  53.1355539  75.5094825  39.0769683
  53.8455157  74.8688018  39.0356301  53.0924847  75.7607720  39.9995864
  61.1242317  82.4462179  41.9976262  61.0654864  81.7621399  41.3306845
  61.5261836  83.1881169  41.5456888  51.8484473  72.4960043  40.8965322
  51.3121830  72.0450782  41.5486919  51.2601181  72.6305952  40.1535787
  50.1433016  89.2624093  34.7909981  50.3829614  89.8942617  35.4689000
  49.3002213  88.9112133  35.0775340  51.2586732  71.9548695  23.4591786
  50.3816198  71.8337495  23.0954033  51.7344485  71.1634773  23.2070675
  61.1259725  80.4101763  40.2290242  60.2386503  80.0727684  40.3516641
  61.6958276  79.6784794  40.4659007  42.7788872  76.7425854  33.5533293
  43.4659912  76.4287584  32.9654308  42.6237000  77.6467219  33.2800545
  47.5823594  71.6316051  37.9818317  47.4981783  71.0241720  37.2468727
  46.7606300  72.1225069  37.9827813  54.6560878  85.0703215  37.1951485
  54.5831050  85.8758186  37.7070790  54.2138271  85.2695181  36.3699506
  54.4450658  84.3074985  30.7054307  53.6618180  84.8496665  30.7992531
  55.1443403  84.8248965  31.1048548  65.6077065  75.8209980  34.9906803
  65.5966941  76.7034695  34.6200737  64.7394445  75.4681531  34.7961340
  57.1159562  84.9690049  39.3509644  57.8287534  85.6037514  39.2785545
  56.6249590  85.0653915  38.5349645  58.8377088  78.8741302  30.9226935
  57.9033367  78.9942764  30.7531640  59.0153757  77.9713768  30.6586945
  54.3382277  72.2586997  33.0760196  53.9680064  71.7058038  33.7641102
  54.8341369  71.6545131  32.5235197  62.2249640  74.7158621  31.4576969
  62.6910092  75.5486613  31.3837272  62.6757140  74.2503603  32.1622228
  52.1671475  82.7184492  40.1715214  52.8680935  83.3520975  40.3244609
  51.6966590  83.0599224  39.4110854  60.2925871  81.0602442  28.4563121
  60.5685715  80.9459037  29.3656996  59.4230370  80.6619927  28.4175295
  59.9672761  75.2729100  37.9967765  59.3144211  75.5205007  37.3420218
  60.3453141  74.4593238  37.6630242  56.9279935  85.3088793  32.0995935
  57.1102330  84.4910449  32.5623687  57.7512921  85.5256485  31.6620825
  57.2622100  84.2356978  29.3610984  57.7909867  83.7249433  28.7481146
  57.5250320  83.9199508  30.2256517  56.0160334  76.0148911  44.4833802
  55.3400971  75.9143040  45.1536177  56.8387968  75.8588125  44.9469799
  47.7639193  82.2520848  37.1046317  48.3492630  81.5064535  37.2374221
  47.5664032  82.5624804  37.9882981  50.6177848  85.2872095  32.1208760
  49.9488224  85.7718223  31.6372800  50.4790718  85.5341315  33.0352138
  42.3556848  74.8226448  35.8250760  42.3940947  74.2890038  36.6187878
  41.8497141  74.2961653  35.2061737  54.7583117  87.3215838  38.7191418
  55.3101425  87.4847460  39.4840503  55.0989310  87.9120276  38.0471443
  49.7347610  69.6690988  39.3213303  49.7988937  70.5305819  38.9090700
  49.6714730  69.0564990  38.5885661  49.2099883  71.7414121  42.9686337
  49.8371922  71.3591198  43.5823861  48.3527802  71.5228323  43.3342029
  59.6093991  82.1477096  44.5740072  60.1533895  82.7607054  44.0795027
  59.0280836  82.7056674  45.0907085  45.9865426  73.5490550  28.9004692
  46.2818867  72.6401228  28.8471745  45.0853461  73.5278289  28.5785694
  57.8951504  85.2697814  35.7055100  57.7702644  84.4687554  35.1966046
  58.5530595  85.7644007  35.2169070  49.5159673  71.6246546  34.8832240
  48.7946258  72.2382514  34.7439714  50.3052928  72.1604311  34.8048886
  59.9586413  83.0706834  37.3334650  59.0116748  82.9512185  37.2612977
  60.3069186  82.1829332  37.4160912  52.3185986  68.9600973  41.1572892
  52.8420388  69.2063269  41.9199201  52.0998319  69.7921008  40.7376029
  47.7153267  71.2304648  29.0244017  47.3865973  70.3502026  28.8419123
  48.0692638  71.1752316  29.9120406  56.9632846  82.8659550  33.5339002
  56.8157808  81.9376258  33.7146572  57.7886339  82.8879641  33.0496078
  50.8295090  71.5177617  29.3919495  51.1691163  72.0463539  28.6698103
  51.2767211  71.8558023  30.1678061  60.5666968  83.6888109  34.6203875
  61.4913515  83.4830970  34.4828326  60.3982271  83.4404510  35.5293217
  53.5238531  69.9014668  38.8422563  53.1835351  69.1022481  39.2443242
  52.8177537  70.2016379  38.2699396  54.1755003  66.9863980  37.2949886
  54.9981072  66.5124459  37.1728776  54.4193066  67.7654464  37.7948572
  52.8163237  70.0152239  27.5912787  53.5371600  70.3933492  27.0876504
  52.1928542  70.7341116  27.6947765  56.9594360  70.7197388  28.5271120
  57.1757975  71.6022026  28.2259948  56.4788427  70.3283601  27.7976762
  51.6993582  73.6783101  35.1041864  51.5538162  73.9923404  35.9966146
  51.2218785  74.2968001  34.5512763  53.5589965  70.6685649  35.1522754
  53.5451533  69.7726742  34.8155052  54.2762393  70.6756313  35.7861040
  55.4116095  71.1022989  37.1975881  55.1533873  72.0240060  37.1960212
  54.8801136  70.7053424  37.8876345  60.3562284  84.2073776  29.9765967
  60.5299162  83.6420199  29.2239819  60.8491175  85.0074671  29.7945457
  46.1739244  76.2188446  38.0429525  45.6292712  76.9948253  38.1749800
  47.0518594  76.5659250  37.8848647  52.9626860  69.5500029  30.4210324
  53.0842772  68.6216676  30.6201211  52.6728903  69.5638715  29.5088639
  55.8318051  67.2354940  33.5577044  55.8539748  67.2994273  32.6029023
  56.2486110  66.3959448  33.7517550  66.2101675  76.9710199  31.5956266
  66.6532821  76.2217525  31.1975390  65.3328185  76.9620336  31.2129998
  61.3437456  83.5240541  27.0762865  62.0388361  84.1447234  27.2950179
  61.6860607  82.6735892  27.3515243  46.9605266  75.3458342  40.9359682
  46.2187002  75.4940977  41.5224313  46.6398010  75.6066607  40.0726432
  63.2428880  80.9740246  28.6050196  63.7680204  81.3127519  27.8799516
  63.1551232  80.0387262  28.4213330  54.9048928  84.8874320  40.7340072
  55.2136055  84.6423467  41.6062772  55.7024410  85.0920958  40.2458942
  54.9269540  87.0412230  32.9645449  54.4874531  86.5488608  33.6578306
  55.6777657  86.4985197  32.7237524  47.4061879  83.2323770  32.9670077
  48.2319899  82.9327542  32.5868720  47.0555931  82.4631393  33.4159866
  52.3743413  82.5850239  35.0367750  51.7523422  81.9220944  34.7369978
  53.0448279  82.6111371  34.3541398  45.6070484  81.1510097  33.9259010
  44.7702393  80.7232271  33.7443012  45.5794130  81.3442540  34.8629802
  52.4467940  71.0632027  44.6300257  52.4956095  71.9394150  44.2478026
  52.9890454  70.5209420  44.0571900  62.9322786  81.6073150  43.9101394
  62.1418329  81.5897289  43.3705893  62.6956140  82.1461444  44.6650430
  63.0520661  78.4565616  41.2234122  63.1018666  78.2915624  42.1649645
  62.9434584  77.5892875  40.8332003  51.9356919  81.1354162  28.5126211
  52.0845040  81.8189626  27.8592884  52.7423363  81.1159252  29.0275667
  60.3424423  74.4396544  42.5393429  61.2434286  74.3003009  42.2477427
  60.4172398  74.6050999  43.4791606  54.6767228  71.8163399  41.3846615
  53.8070538  72.1096965  41.1129204  54.9126709  72.4003844  42.1053879
  64.5538858  80.8762558  41.4676144  64.2623666  81.2392538  42.3039605
  63.9410989  80.1629566  41.2889476  65.7534540  78.4415438  33.9878714
  66.5881431  78.8805242  34.1516274  65.8893669  77.9654091  33.1686960
  62.8026046  75.9995173  39.9356202  63.2780167  76.1922819  39.1275053
  61.8791611  76.0554358  39.6899585  49.6909552  77.1619340  29.5187280
  49.4455594  76.2581670  29.7167490  49.8605467  77.1636490  28.5766758
  48.9605200  72.8947697  27.0173441  48.2674445  72.9692052  26.3613477
  48.7156952  72.1308041  27.5394958  55.4352325  83.6302293  25.9837958
  54.8626292  84.2492480  25.5308430  56.0085119  84.1801654  26.5177880
  58.6549585  83.9139443  27.1146541  59.5880258  83.8485004  27.3179416
  58.5672798  84.7495710  26.6561073  61.2837601  83.2305313  24.0750488
  61.2051233  82.8965177  24.9686246  62.1047268  83.7227081  24.0741961
  63.9815793  76.0967052  37.2826807  63.9492113  75.1583053  37.4686491
  64.5916416  76.1751089  36.5492632  55.8199123  74.9663105  23.3254011
  56.7658228  74.8369313  23.3942429  55.4413368  74.2277767  23.8023439
  69.7992342  77.1583059  36.4232844  70.5295731  76.8968347  36.9840547
  69.1899288  76.4211781  36.4634912  55.7037816  79.0180851  44.7854668
  56.6240825  79.1959450  44.9794714  55.6687399  78.0736897  44.6334367
  54.0042041  72.8913082  23.2608896  53.0973496  72.5946194  23.3371610
  54.2818022  72.5942900  22.3943182  44.9219981  74.2119445  33.7107943
  44.6022765  73.3584753  33.4182317  44.3753409  74.4268023  34.4665910
  48.6999889  76.9281886  37.4277449  48.9185898  77.8598994  37.4465483
  49.1125662  76.5689860  38.2132253  55.6204106  67.4349971  29.4153137
  54.8104835  67.0897056  29.7908384  56.3088523  67.1257515  30.0040749
  53.5727754  72.5015092  46.8180198  53.4724481  73.4509449  46.7492289
  53.3549296  72.1733331  45.9456268  52.7740825  69.7500017  23.4020875
  53.6359989  70.0754915  23.6616693  52.9591169  68.9631513  22.8893941
  44.7908241  77.8322357  35.6801064  44.0971712  77.4176309  35.1671019
  45.5381232  77.8742893  35.0834483  53.4359024  75.9312231  45.6345260
  52.9526106  76.7312591  45.8409149  53.5219963  75.9420176  44.6812704
  46.7044984  77.7640610  33.5567079  46.6815672  77.8628298  32.6048962
  47.0145620  78.6105761  33.8784245  49.3632361  79.8216765  37.6713693
  50.3175615  79.7900708  37.6043625  49.1644885  79.3607389  38.4863919
  49.9531744  78.3917881  40.2384491  50.7724633  78.8861960  40.2619328
  50.2268551  77.4749850  40.2102059  47.7182590  85.3636385  34.6883891
  47.5837058  84.6036786  34.1221889  47.3014652  86.0877285  34.2212680
  58.8541553  80.5473308  23.6960467  59.5577403  80.7523311  24.3118122
  58.1304202  81.1150070  23.9609550  59.6839363  76.2983170  29.8162737
  59.6274565  76.7551721  28.9770369  60.2367706  75.5373854  29.6385580
  50.8751716  86.2605702  34.9002334  50.7584100  87.2051134  34.7981024
  50.0544162  85.9579263  35.2888133  60.7628251  80.9855838  25.7458927
  61.5973855  80.5537036  25.5636401  60.6012594  80.8137851  26.6735821
  60.4174143  77.4887951  27.1115266  60.3622947  77.3232222  26.1703710
  59.7920198  78.1963984  27.2677456  45.2066658  72.7256015  40.9376688
  45.8525521  72.2154969  41.4263913  44.9983809  73.4624697  41.5120113
  57.7320050  79.7936863  46.4368829  58.6011210  79.9677515  46.0755464
  57.2526801  80.6131280  46.3144558  53.7270268  66.9896060  26.6900584
  53.7148938  67.9337900  26.8468855  54.6193690  66.8066205  26.3960046
  51.9006230  86.9133964  38.1158262  52.8033477  86.9457574  38.4324757
  51.6743600  85.9834415  38.1304598  53.6559832  85.6664950  34.7768341
  52.7055463  85.6666812  34.6632713  53.9592318  84.9197685  34.2604376
  49.5464149  69.8723632  45.0351702  50.4095610  69.5160437  45.2455027
  48.9729559  69.5337527  45.7227107  69.3912526  91.5025489  35.8414103
  70.0290936  91.3832236  35.1377443  69.2733369  92.4506333  35.9002056
  66.2002232  91.4552917  35.7775628  65.8620743  91.3393982  34.8896163
  67.0692000  91.0544082  35.7576634  62.0589048  93.3088393  31.7672519
  61.4953913  93.2178330  30.9988807  61.9441443  92.4888298  32.2475012
  66.6822015  92.6087769  41.7361834  66.6710656  92.2140567  40.8642337
  66.8442654  91.8753841  42.3295605  59.6053480  94.8039585  34.6056739
  60.3974772  94.4630409  34.1903039  59.8450130  94.9134560  35.5258893
  67.6388606  96.9759361  27.0786984  66.9876586  97.5613441  26.6920998
  68.4332969  97.5065556  27.1382021  61.5644234  94.0648498  27.4774118
  62.3375110  93.5177485  27.3386994  61.9169632  94.9292747  27.6888580
  63.4029276  95.3924880  40.6841018  63.1119142  96.2970511  40.5687684
  64.0386260  95.4341408  41.3985087  64.3285483  92.7701729  37.2742377
  64.9249055  92.5457751  36.5599340  64.3860454  92.0286474  37.8767825
  63.9010511  90.2241164  25.1092568  64.1536032  89.7022685  24.3476031
  62.9635070  90.0607310  25.2119252  68.9453794  89.2276943  32.9167311
  69.7316883  88.8096366  32.5657728  69.2092498  90.1323035  33.0848960
  69.1163872  94.6649793  27.6155968  68.4809705  94.7384419  28.3276873
  68.7861278  95.2543392  26.9375047  74.3462221  89.1652176  33.8200290
  75.0787393  88.5951393  34.0538119  73.5901577  88.7773776  34.2606796
  63.6206800  92.1269270  27.3116943  63.5043058  91.4514174  27.9798027
  63.7309060  91.6401644  26.4949096  65.9638341  91.5879417  31.0163632
  65.5996548  91.0610038  31.7276554  66.8205457  91.1977886  30.8430118
  71.8687642  82.8773750  38.2794899  71.5370966  83.7469161  38.0556114
  71.2733255  82.5610034  38.9588929  65.6043828  86.6169317  26.0124981
  65.7718230  87.4849553  26.3795452  65.4140997  86.7796599  25.0886270
  68.3619161  95.0786296  37.6790811  68.0619884  95.9811335  37.5706619
  68.0170221  94.8118479  38.5311964  61.8131643  91.5300093  33.7127516
  60.8882139  91.3976307  33.9205207  62.0616056  92.3094312  34.2097458
  71.7616305  87.5968836  35.3588249  70.8533182  87.5284244  35.0647010
  71.7103901  88.0740781  36.1870074  65.5833049  89.0726974  26.9971648
  65.4632674  89.5184025  27.8357128  64.8885637  89.4212292  26.4385186
  59.1740454  91.1733366  34.5471305  59.3032835  91.4267845  35.4610716
  58.4937905  91.7661074  34.2275960  63.3439941 101.8430616  30.6461779
  63.2663971 102.7938441  30.7250260  62.7401585 101.4976489  31.3036705
  65.8357171  89.0158482  43.3023146  65.0590505  89.5752402  43.2926011
  66.4747734  89.5015265  43.8238016  73.6277951  85.7985274  37.1366123
  72.9852332  86.0917808  36.4905917  73.1232880  85.6838195  37.9419319
  71.2818115  89.5448448  27.8251982  72.1935971  89.7775834  27.6499679
  70.7727762  90.1285492  27.2627060  64.0903543  91.8243935  42.8641113
  64.8318227  92.3628979  42.5875936  63.3840529  92.4510224  43.0212665
  69.5658883  93.9673075  41.4613274  69.9742239  93.5255486  40.7167907
  68.8436144  93.3925703  41.7147467  65.9189953  88.9045682  38.8346831
  66.7651148  89.3285096  38.9781480  65.8588590  88.2479307  39.5285394
  69.8887697  94.5274266  35.2165563  69.2596560  94.6919980  34.5141631
  69.5013359  94.9415876  35.9876527  73.7676929  95.4628704  32.5709927
  73.0827967  95.8427605  32.0206960  73.8520779  96.0724031  33.3041875
  69.0689398  86.5650051  40.4928005  68.8250330  87.3192111  39.9562281
  69.3449329  86.9435398  41.3275252  71.0227861  93.1088663  39.1705271
  71.2344756  93.7520423  38.4939652  70.9757609  92.2750980  38.7027201
  68.6254090  85.7206484  36.0741843  67.7638569  86.0187737  36.3658580
  68.6516524  85.9376882  35.1422875  65.4415659  94.2648674  32.4815648
  65.9054005  94.5436377  31.6920271  65.1772457  93.3632119  32.2988739
  62.3339740  93.8120156  35.4195412  62.9041097  94.2407424  34.7812896
  62.9247852  93.5302740  36.1179597  64.3784545  90.3871827  29.2905213
  65.0808589  90.8392870  29.7579140  64.0465174  89.7455645  29.9185107
  62.8264907  88.9783583  43.6656423  62.1963567  89.6599864  43.8991820
  62.7200995  88.8666665  42.7209561  58.1209879  88.6455379  34.5922347
  57.3308933  88.9012908  34.1162458  58.6121127  89.4603717  34.6974388
  72.1373689  95.9860618  37.3427628  72.9591133  95.5840806  37.0610310
  72.1336092  95.8828853  38.2943744  60.0724625  89.0099958  31.5505824
  59.2755788  89.1218653  32.0689319  59.8450217  89.3486611  30.6846714
  65.9030292  95.5344662  39.4988338  65.9674725  95.9965069  40.3346510
  65.1941216  94.9042027  39.6270648  56.4047582  88.8985870  37.0237338
  56.6555621  89.7832880  37.2894914  56.9407131  88.7190471  36.2512430
  80.2279682  92.3299367  33.6912599  79.4743390  91.7606765  33.5356604
  80.3627223  92.2962031  34.6383234  65.6178310  97.2012769  29.3667319
  65.4823985  98.0464305  29.7952167  66.1588122  97.4032047  28.6033253
  62.1045650  83.2804349  46.0281674  61.7112595  82.7270548  46.7029318
  62.9211790  83.5914927  46.4188191  59.0707707  94.7188207  29.9395244
  59.5832228  95.5131457  30.0900808  59.7230420  94.0214498  29.8728845
  60.8802592  97.8353963  32.0217997  61.0569220  98.7571928  31.8338981
  61.6759426  97.5212383  32.4512377  65.0213611  84.6962228  43.6201930
  65.7623324  85.2969381  43.5406393  65.2531533  83.9539866  43.0619973
  60.1654949  89.8818595  41.8980160  60.0508464  88.9803853  42.1987259
  59.3099466  90.1282292  41.5464977  67.2446786  97.8236336  43.4967661
  66.8010640  97.0372714  43.1788565  67.9064000  98.0115486  42.8311552
  62.0033907  99.3532137  38.0228339  62.5541333  99.2249201  37.2505333
  61.1645383  99.6527026  37.6723232  69.3428024  98.1039136  41.5249062
  69.3246500  98.9248017  41.0329331  70.2647944  97.9793211  41.7499203
  65.8001079  95.6183265  42.3672570  66.3329415  94.8571553  42.1371878
  65.2715160  95.3256917  43.1096725  68.9670773  80.7243331  37.8966212
  68.6235043  81.6144973  37.8205323  69.3349736  80.5344989  37.0335797
  57.0356624  93.0476862  30.7154814  57.8731846  93.4573870  30.4988522
  57.2134892  92.1076304  30.6855008  68.9321056  90.7151942  26.4038647
  68.4167680  91.4856547  26.6427035  68.6598365  90.0417078  27.0271709
  66.5168167  85.5601643  31.4623886  65.6609764  85.1708493  31.2829524
  66.9295119  85.6393604  30.6023671  68.0467314  83.0947986  35.8615445
  67.5432109  83.0578121  35.0483251  68.3397921  84.0040729  35.9212102
  64.2910200  83.1786716  34.8681627  65.1563197  82.9829525  34.5087517
  64.3587709  82.9497068  35.7950984  73.9055330  93.4684297  28.3391821
  73.1284773  93.1295456  27.8946983  74.5846811  93.4736920  27.6646786
  68.7207359  88.5879034  28.2298428  68.4157495  88.9025183  29.0808572
  69.6737801  88.6660454  28.2725761  67.1653791  94.7469258  29.8791382
  66.6375153  94.0122017  29.5664620  66.6641294  95.5243934  29.6331351
  72.1446637  92.9418278  34.9958429  71.4870312  93.6317539  35.0838557
  72.9487036  93.3314710  35.3392415  61.8972519  85.4088924  32.2397994
  62.4716271  85.1864105  31.5071187  62.4843501  85.4777618  32.9926595
  70.9552096  91.2962651  33.0462370  71.4683978  91.9292643  33.5484080
  71.6053320  90.6963846  32.6805731  62.2242106  87.4393385  26.2593879
  61.3879418  87.7768071  26.5803154  62.0846876  87.3042365  25.3221016
  64.1995187  82.2830173  30.9673063  63.5459599  81.9679190  30.3429678
  64.1575661  81.6605913  31.6932886  65.3106391  92.5649468  22.8826355
  64.4033453  92.3338721  23.0817504  65.8077423  91.7687087  23.0700337
  68.2174470 101.2746975  25.8023042  67.5436169 101.5778672  26.4107999
  68.6040292 102.0776055  25.4528499  67.4332927  88.7712106  35.2920711
  66.5155488  88.9927053  35.1342399  67.8493071  88.8458417  34.4332418
  68.2167975  90.1703522  30.4223391  68.9639794  90.6824919  30.1130513
  68.4859564  89.8487575  31.2827785  66.4894625  92.6662063  27.4050346
  65.5805844  92.3821096  27.5022815  66.5189709  93.0861141  26.5453652
  71.7213892  96.2768652  31.1741513  71.2676219  95.4359562  31.2306704
  71.0907859  96.9130051  31.5116293  70.6646812  87.2060638  32.4042181
  69.9269569  86.6938024  32.7352423  70.9173585  86.7661020  31.5925457
  70.1646831  98.1145149  32.1091331  70.4569806  98.6750206  31.3903697
  70.6745452  98.4073710  32.8644490  70.7658439  79.9836890  32.9983950
  71.0717316  79.1234254  32.7109865  71.4911044  80.5754510  32.7982944
  57.0582795  90.3867577  31.3865548  56.8607195  89.7936938  30.6616614
  56.5029459  90.0819787  32.1041487  65.0379519  90.2790683  33.5060141
  65.0928129  89.3264520  33.4302617  64.2270721  90.4350122  33.9901439
  66.1870713  94.2070806  24.7438424  65.7490143  93.4906665  24.2844061
  66.9281153  94.4346921  24.1823516  62.9771879  88.8967743  31.2650520
  62.1639744  89.1961914  31.6715712  63.4730873  88.5023432  31.9825002
  65.1280457  98.8925500  33.1984784  65.0856635  99.1186346  32.2693316
  66.0443156  98.6588875  33.3470586  68.5746090  89.3609568  40.0965414
  68.9295478  89.5881041  40.9559879  69.2218222  89.6927944  39.4742669
  74.3043827  92.4828003  30.8014743  74.1661726  92.6729599  29.8735932
  73.9480046  93.2447386  31.2582794  62.4685954  86.4686099  36.8811755
  63.1085333  86.3274858  36.1834718  61.6363484  86.1820612  36.5050357
  74.3313207  94.5504530  35.8126014  74.7649714  94.4579820  36.6609068
  75.0444788  94.5262031  35.1746030  63.2446257  95.7688529  32.9946747
  64.0386856  95.2738849  32.7929322  62.5337950  95.2406392  32.6314453
  68.0641102  98.1506625  37.3459115  68.1178124  98.7197561  38.1136831
  67.1955883  98.3208510  36.9813152  59.5529021  89.9131611  29.0706500
  58.6226609  89.8516066  29.2876462  59.6486493  89.3907563  28.2743141
  59.4714570  86.4386424  31.6584742  59.7321387  87.3531757  31.5493902
  60.2931742  85.9710866  31.8081354  60.9439495  87.8524181  38.8283566
  61.6162549  87.6441543  38.1796215  60.1169282  87.6546267  38.3888798
  75.1928757  94.5928231  38.3458900  75.3864647  95.4974042  38.5918175
  75.0929375  94.1335650  39.1797485  66.8465067  84.4786122  40.8449227
  66.1992982  85.1776071  40.7513703  67.6166083  84.9122266  41.2125475
  70.2543865  94.7434974  43.9199780  70.1029372  94.5145526  43.0029864
  70.2448545  95.7005575  43.9331125  67.0229202  92.3166887  38.9046047
  67.9521262  92.4678046  38.7315014  66.6020232  92.4050907  38.0494693
  65.8217533  96.3417551  36.6744584  65.6828619  95.9736335  37.5470522
  65.0332130  96.8565190  36.5028542  66.4165685 101.4426647  28.0170121
  66.5917441 100.9714691  28.8315743  65.7298473 102.0692414  28.2451382
  67.3722749  95.7199154  34.0633422  67.0372581  95.6799924  34.9591072
  66.8726694  95.0543870  33.5903832  61.3466993  91.1266784  39.5886003
  61.2086790  90.3947023  40.1897542  62.2571916  91.0375684  39.3070191
  70.3081940  93.0655188  24.3370482  69.6911111  92.3402016  24.2403534
  69.8398429  93.8264548  23.9937556  63.9749293  90.8386743  39.0769683
  64.6848912  90.1979935  39.0356301  63.9318601  91.0899638  39.9995864
  71.9636072  97.7754096  41.9976262  71.9048618  97.0913316  41.3306845
  72.3655590  98.5173086  41.5456888  62.6878227  87.8251961  40.8965322
  62.1515584  87.3742699  41.5486919  62.0994936  87.9597870  40.1535787
  60.9826771 104.5916010  34.7909981  61.2223369 105.2234534  35.4689000
  60.1395967 104.2404050  35.0775340  62.0980486  87.2840612  23.4591786
  61.2209952  87.1629413  23.0954033  62.5738239  86.4926691  23.2070675
  71.9653479  95.7393680  40.2290242  71.0780258  95.4019602  40.3516641
  72.5352030  95.0076712  40.4659007  53.6182626  92.0717772  33.5533293
  54.3053666  91.7579502  32.9654308  53.4630755  92.9759137  33.2800545
  58.4217348  86.9607969  37.9818317  58.3375537  86.3533638  37.2468727
  57.6000055  87.4516987  37.9827813  65.4954633 100.3995133  37.1951485
  65.4224804 101.2050104  37.7070790  65.0532026 100.5987098  36.3699506
  65.2844412  99.6366903  30.7054307  64.5011934 100.1788583  30.7992531
  65.9837157 100.1540882  31.1048548  68.5941062  85.4461532  33.3488512
  69.0909762  84.6931494  33.0289582  67.8228044  85.4825849  32.7831721
  76.4470820  91.1501898  34.9906803  76.4360696  92.0326613  34.6200737
  75.5788199  90.7973448  34.7961340  67.9553316 100.2981967  39.3509644
  68.6681288 100.9329431  39.2785545  67.4643345 100.3945833  38.5349645
  69.6770843  94.2033219  30.9226935  68.7427122  94.3234682  30.7531640
  69.8547511  93.3005686  30.6586945  65.1776031  87.5878915  33.0760196
  64.8073819  87.0349956  33.7641102  65.6735124  86.9837049  32.5235197
  73.0643394  90.0450539  31.4576969  73.5303847  90.8778530  31.3837272
  73.5150895  89.5795520  32.1622228  63.0065230  98.0476410  40.1715214
  63.7074689  98.6812893  40.3244609  62.5360345  98.3891142  39.4110854
  71.1319625  96.3894360  28.4563121  71.4079469  96.2750955  29.3656996
  70.2624124  95.9911845  28.4175295  71.0360057  82.4131126  35.4967871
  70.1223137  82.6435352  35.6650078  71.4653159  82.4969570  36.3481903
  70.8066516  90.6021018  37.9967765  70.1537966  90.8496925  37.3420218
  71.1846895  89.7885156  37.6630242  67.7673689 100.6380711  32.0995935
  67.9496084  99.8202367  32.5623687  68.5906675 100.8548403  31.6620825
  68.1015855  99.5648896  29.3610984  68.6303621  99.0541350  28.7481146
  68.3644075  99.2491426  30.2256517  66.8554089  91.3440829  44.4833802
  66.1794726  91.2434958  45.1536177  67.6781722  91.1880042  44.9469799
  58.6032948  97.5812765  37.1046317  59.1886384  96.8356453  37.2374221
  58.4057786  97.8916722  37.9882981  61.4571603 100.6164013  32.1208760
  60.7881978 101.1010140  31.6372800  61.3184473 100.8633233  33.0352138
  53.1950602  90.1518365  35.8250760  53.2334702  89.6181956  36.6187878
  52.6890895  89.6253571  35.2061737  65.5976871 102.6507756  38.7191418
  66.1495180 102.8139378  39.4840503  65.9383065 103.2412194  38.0471443
  60.5741365  84.9982906  39.3213303  60.6382691  85.8597737  38.9090700
  60.5108485  84.3856908  38.5885661  60.0493637  87.0706038  42.9686337
  60.6765676  86.6883116  43.5823861  59.1921556  86.8520240  43.3342029
  70.4487746  97.4769014  44.5740072  70.9927650  98.0898972  44.0795027
  69.8674591  98.0348592  45.0907085  56.8259180  88.8782468  28.9004692
  57.1212621  87.9693146  28.8471745  55.9247216  88.8570207  28.5785694
  68.7345259 100.5989732  35.7055100  68.6096398  99.7979471  35.1966046
  69.3924350 101.0935925  35.2169070  60.3553427  86.9538464  34.8832240
  59.6340013  87.5674432  34.7439714  61.1446683  87.4896229  34.8048886
  70.7980167  98.3998752  37.3334650  69.8510503  98.2804103  37.2612977
  71.1462940  97.5121250  37.4160912  63.1579741  84.2892891  41.1572892
  63.6814142  84.5355187  41.9199201  62.9392074  85.1212925  40.7376029
  58.5547022  86.5596565  29.0244017  58.2259728  85.6793944  28.8419123
  58.9086392  86.5044234  29.9120406  67.8026600  98.1951468  33.5339002
  67.6551563  97.2668175  33.7146572  68.6280094  98.2171559  33.0496078
  61.6688845  86.8469535  29.3919495  62.0084917  87.3755456  28.6698103
  62.1160965  87.1849941  30.1678061  71.4060722  99.0180027  34.6203875
  72.3307270  98.8122888  34.4828326  71.2376026  98.7696428  35.5293217
  64.3632286  85.2306586  38.8422563  64.0229106  84.4314399  39.2443242
  63.6571292  85.5308297  38.2699396  65.0148757  82.3155898  37.2949886
  65.8374827  81.8416376  37.1728776  65.2586821  83.0946382  37.7948572
  63.6556992  85.3444157  27.5912787  64.3765354  85.7225409  27.0876504
  63.0322296  86.0633033  27.6947765  67.7988115  86.0489306  28.5271120
  68.0151729  86.9313943  28.2259948  67.3182182  85.6575519  27.7976762
  62.5387336  89.0075019  35.1041864  62.3931917  89.3215322  35.9966146
  62.0612540  89.6259919  34.5512763  64.3983719  85.9977567  35.1522754
  64.3845288  85.1018660  34.8155052  65.1156147  86.0048231  35.7861040
  66.2509850  86.4314907  37.1975881  65.9927628  87.3531978  37.1960212
  65.7194890  86.0345342  37.8876345  71.1956039  99.5365694  29.9765967
  71.3692916  98.9712117  29.2239819  71.6884930 100.3366589  29.7945457
  57.0132998  91.5480363  38.0429525  56.4686466  92.3240171  38.1749800
  57.8912348  91.8951168  37.8848647  63.8020615  84.8791947  30.4210324
  63.9236526  83.9508593  30.6201211  63.5122657  84.8930633  29.5088639
  66.6711805  82.5646858  33.5577044  66.6933502  82.6286191  32.6029023
  67.0879864  81.7251366  33.7517550  77.0495430  92.3002117  31.5956266
  77.4926576  91.5509442  31.1975390  76.1721940  92.2912253  31.2129998
  72.1831211  98.8532459  27.0762865  72.8782116  99.4739151  27.2950179
  72.5254361  98.0027810  27.3515243  57.7999020  90.6750259  40.9359682
  57.0580756  90.8232895  41.5224313  57.4791764  90.9358525  40.0726432
  74.0822634  96.3032164  28.6050196  74.6073958  96.6419437  27.8799516
  73.9944987  95.3679179  28.4213330  65.7442683 100.2166238  40.7340072
  66.0529809  99.9715384  41.6062772  66.5418165 100.4212876  40.2458942
  65.7663295 102.3704147  32.9645449  65.3268285 101.8780526  33.6578306
  66.5171412 101.8277115  32.7237524  58.2455634  98.5615688  32.9670077
  59.0713654  98.2619460  32.5868720  57.8949686  97.7923311  33.4159866
  63.2137167  97.9142156  35.0367750  62.5917176  97.2512861  34.7369978
  63.8842034  97.9403288  34.3541398  56.4464239  96.4802015  33.9259010
  55.6096147  96.0524189  33.7443012  56.4187884  96.6734458  34.8629802
  63.2861695  86.3923944  44.6300257  63.3349850  87.2686067  44.2478026
  63.8284209  85.8501337  44.0571900  73.7716540  96.9365068  43.9101394
  72.9812084  96.9189207  43.3705893  73.5349895  97.4753361  44.6650430
  73.8914415  93.7857534  41.2234122  73.9412420  93.6207542  42.1649645
  73.7828339  92.9184793  40.8332003  62.7750674  96.4646080  28.5126211
  62.9238794  97.1481544  27.8592884  63.5817117  96.4451170  29.0275667
  71.1818178  89.7688462  42.5393429  72.0828040  89.6294927  42.2477427
  71.2566152  89.9342917  43.4791606  65.5160983  87.1455317  41.3846615
  64.6464292  87.4388883  41.1129204  65.7520463  87.7295762  42.1053879
  75.3932612  96.2054476  41.4676144  75.1017420  96.5684456  42.3039605
  74.7804743  95.4921484  41.2889476  76.5928294  93.7707355  33.9878714
  77.4275186  94.2097159  34.1516274  76.7287423  93.2946009  33.1686960
  73.6419800  91.3287090  39.9356202  74.1173922  91.5214737  39.1275053
  72.7185366  91.3846276  39.6899585  60.5303307  92.4911257  29.5187280
  60.2849349  91.5873587  29.7167490  60.6999221  92.4928408  28.5766758
  68.2200017  83.3634934  38.9012036  68.7381961  84.0995961  38.5758524
  67.8655150  83.6698927  39.7358795  59.7998954  88.2239615  27.0173441
  59.1068199  88.2983970  26.3613477  59.5550706  87.4599959  27.5394958
  68.4712611  79.7835216  34.4212932  68.7514365  79.1158405  35.0473359
  69.2563218  79.9764312  33.9087596  66.2746079  98.9594210  25.9837958
  65.7020047  99.5784397  25.5308430  66.8478873  99.5093572  26.5177880
  72.3421469  88.2052850  38.1684507  73.2938892  88.3050948  38.1896731
  72.1724920  87.4131119  38.6782592  70.3635849  85.2908434  38.3543908
  69.7685781  85.5713446  37.6590397  70.0785545  85.7802334  39.1260649
  69.4943339  99.2431360  27.1146541  70.4274012  99.1776922  27.3179416
  69.4066552 100.0787627  26.6561073  72.1231356  98.5597231  24.0750488
  72.0444987  98.2257094  24.9686246  72.9441023  99.0518999  24.0741961
  74.8209547  91.4258970  37.2826807  74.7885867  90.4874971  37.4686491
  75.4310171  91.5043007  36.5492632  66.6592878  90.2955023  23.3254011
  67.6051983  90.1661231  23.3942429  66.2807123  89.5569685  23.8023439
  74.9704036  88.2170013  37.3285090  74.4543084  87.4328470  37.1415019
  75.8543984  87.8888730  37.4931610  72.6314762  81.9611029  33.2880903
  72.4339584  81.6526117  34.1724235  73.2414468  82.6872668  33.4178833
  80.6386097  92.4874977  36.4232844  81.3689485  92.2260265  36.9840547
  80.0293042  91.7503699  36.4634912  78.7201394  90.6282839  37.0207295
  77.9934558  90.4938804  36.4123786  78.3048681  90.9359668  37.8264013
  66.5431570  94.3472769  44.7854668  67.4634580  94.5251368  44.9794714
  66.5081154  93.4028814  44.6334367  64.8435795  88.2204999  23.2608896
  63.9367250  87.9238112  23.3371610  65.1211776  87.9234817  22.3943182
  55.7613735  89.5411363  33.7107943  55.4416520  88.6876671  33.4182317
  55.2147164  89.7559941  34.4665910  59.5393643  92.2573804  37.4277449
  59.7579653  93.1890912  37.4465483  59.9519417  91.8981778  38.2132253
  66.4597861  82.7641889  29.4153137  65.6498589  82.4188974  29.7908384
  67.1482278  82.4549433  30.0040749  68.3888409  81.8419936  31.0377434
  68.9419448  82.2615389  31.6967457  68.6258495  80.9155684  31.0800390
  64.4121508  87.8307009  46.8180198  64.3118235  88.7801366  46.7492289
  64.1943050  87.5025248  45.9456268  63.6134580  85.0791935  23.4020875
  64.4753744  85.4046833  23.6616693  63.7984924  84.2923430  22.8893941
  55.6301995  93.1614274  35.6801064  54.9365467  92.7468227  35.1671019
  56.3774986  93.2034811  35.0834483  71.7667216  83.9520461  30.5456098
  71.1865885  84.6105265  30.1634151  71.5003149  83.1297806  30.1343516
  70.2170783  83.3525519  32.7477419  70.7170561  83.4642053  31.9391738
  70.8606390  83.0486572  33.3878227  64.2752778  91.2604148  45.6345260
  63.7919860  92.0604508  45.8409149  64.3613717  91.2712093  44.6812704
  57.5438738  93.0932528  33.5567079  57.5209426  93.1920215  32.6048962
  57.8539374  93.9397679  33.8784245  60.2026116  95.1508683  37.6713693
  61.1569369  95.1192625  37.6043625  60.0038639  94.6899307  38.4863919
  60.7925498  93.7209799  40.2384491  61.6118387  94.2153878  40.2619328
  61.0662306  92.8041767  40.2102059  70.5492094  86.1120551  29.6012447
  69.6617949  86.3970202  29.3832641  70.9646083  85.9514315  28.7539724
  73.9006630  86.1367072  33.3166786  74.6767020  86.6263525  33.5891403
  73.1754765  86.5625127  33.7738655  76.3379189  86.8494692  34.3740726
  76.9323680  86.6090428  33.6634035  76.4105773  86.1301822  35.0014263
  58.5576345 100.6928303  34.6883891  58.4230813  99.9328703  34.1221889
  58.1408407 101.4169202  34.2212680  69.6935308  95.8765226  23.6960467
  70.3971158  96.0815229  24.3118122  68.9697956  96.4441988  23.9609550
  70.5233118  91.6275087  29.8162737  70.4668319  92.0843639  28.9770369
  71.0761460  90.8665772  29.6385580  74.3337924  87.4164819  30.6412856
  74.0774858  87.0161455  31.4721064  73.7090792  88.1308613  30.5162995
  78.6450262  90.1560892  33.1484148  78.0849820  90.2254082  33.9215710
  78.0393765  89.9801877  32.4283644  61.7145471 101.5897620  34.9002334
  61.5977855 102.5343052  34.7981024  60.8937917 101.2871181  35.2888133
  71.6022005  96.3147755  25.7458927  72.4367609  95.8828954  25.5636401
  71.4406348  96.1429769  26.6735821  71.2567897  92.8179869  27.1115266
  71.2016701  92.6524140  26.1703710  70.6313953  93.5255901  27.2677456
  56.0460412  88.0547933  40.9376688  56.6919276  87.5446887  41.4263913
  55.8377563  88.7916615  41.5120113  68.5713804  95.1228780  46.4368829
  69.4404964  95.2969433  46.0755464  68.0920556  95.9423197  46.3144558
  64.5664023  82.3187978  26.6900584  64.5542693  83.2629818  26.8468855
  65.4587445  82.1358123  26.3960046  62.7399985 102.2425881  38.1158262
  63.6427231 102.2749492  38.4324757  62.5137355 101.3126332  38.1304598
  64.4953587 100.9956868  34.7768341  63.5449218 100.9958730  34.6632713
  64.7986073 100.2489603  34.2604376  68.3816142  78.9130754  30.9446521
  67.6148538  78.3589241  31.0903204  68.7926847  78.9852623  31.8060673
  60.3857903  85.2015550  45.0351702  61.2489365  84.8452355  45.2455027
  59.8123314  84.8629445  45.7227107  80.2306280 106.8317406  35.8414103
  80.8684690 106.7124154  35.1377443  80.1127123 107.7798250  35.9002056
  77.0395986 106.7844834  35.7775628  76.7014498 106.6685899  34.8896163
  77.9085755 106.3836000  35.7576634  72.8982802 108.6380311  31.7672519
  72.3347667 108.5470248  30.9988807  72.7835197 107.8180215  32.2475012
  77.5215769 107.9379686  41.7361834  77.5104410 107.5432484  40.8642337
  77.6836409 107.2045759  42.3295605  70.4447234 110.1331503  34.6056739
  71.2368526 109.7922327  34.1903039  70.6843884 110.2426478  35.5258893
  78.4782361 112.3051279  27.0786984  77.8270341 112.8905359  26.6920998
  79.2726724 112.8357474  27.1382021  72.4037988 109.3940416  27.4774118
  73.1768864 108.8469403  27.3386994  72.7563387 110.2584665  27.6888580
  74.2423031 110.7216798  40.6841018  73.9512897 111.6262429  40.5687684
  74.8780015 110.7633326  41.3985087  75.1679237 108.0993647  37.2742377
  75.7642810 107.8749669  36.5599340  75.2254209 107.3578392  37.8767825
  74.7404266 105.5533082  25.1092568  74.9929787 105.0314603  24.3476031
  73.8028825 105.3899227  25.2119252  79.7847549 104.5568860  32.9167311
  80.5710638 104.1388283  32.5657728  80.0486253 105.4614952  33.0848960
  79.9557626 109.9941711  27.6155968  79.3203459 110.0676337  28.3276873
  79.6255032 110.5835309  26.9375047  85.1855976 104.4944093  33.8200290
  85.9181148 103.9243310  34.0538119  84.4295331 104.1065694  34.2606796
  74.4600555 107.4561188  27.3116943  74.3436813 106.7806091  27.9798027
  74.5702814 106.9693562  26.4949096  76.8032096 106.9171335  31.0163632
  76.4390303 106.3901956  31.7276554  77.6599211 106.5269804  30.8430118
  82.7081396  98.2065668  38.2794899  82.3764721  99.0761079  38.0556114
  82.1127010  97.8901952  38.9588929  76.4437582 101.9461235  26.0124981
  76.6111985 102.8141471  26.3795452  76.2534752 102.1088516  25.0886270
  79.2012916 110.4078214  37.6790811  78.9013639 111.3103252  37.5706619
  78.8563975 110.1410397  38.5311964  72.6525397 106.8592010  33.7127516
  71.7275894 106.7268224  33.9205207  72.9009810 107.6386230  34.2097458
  82.6010059 102.9260754  35.3588249  81.6926937 102.8576162  35.0647010
  82.5497655 103.4032699  36.1870074  76.4226803 104.4018892  26.9971648
  76.3026429 104.8475943  27.8357128  75.7279392 104.7504210  26.4385186
  70.0134208 106.5025284  34.5471305  70.1426589 106.7559763  35.4610716
  69.3331659 107.0952992  34.2275960  74.1833695 117.1722534  30.6461779
  74.1057725 118.1230359  30.7250260  73.5795339 116.8268406  31.3036705
  76.6750925 104.3450399  43.3023146  75.8984259 104.9044319  43.2926011
  77.3141488 104.8307182  43.8238016  84.4671706 101.1277192  37.1366123
  83.8246086 101.4209725  36.4905917  83.9626634 101.0130112  37.9419319
  82.1211870 104.8740365  27.8251982  83.0329726 105.1067752  27.6499679
  81.6121517 105.4577410  27.2627060  74.9297298 107.1535853  42.8641113
  75.6711982 107.6920897  42.5875936  74.2234283 107.7802141  43.0212665
  80.4052637 109.2964993  41.4613274  80.8135993 108.8547404  40.7167907
  79.6829899 108.7217621  41.7147467  76.7583707 104.2337600  38.8346831
  77.6044902 104.6577013  38.9781480  76.6982345 103.5771224  39.5285394
  80.7281452 109.8566184  35.2165563  80.0990314 110.0211898  34.5141631
  80.3407114 110.2707793  35.9876527  84.6070684 110.7920622  32.5709927
  83.9221722 111.1719523  32.0206960  84.6914533 111.4015948  33.3041875
  79.9083153 101.8941968  40.4928005  79.6644084 102.6484029  39.9562281
  80.1843083 102.2727316  41.3275252  81.8621615 108.4380581  39.1705271
  82.0738511 109.0812341  38.4939652  81.8151364 107.6042897  38.7027201
  79.4647844 101.0498401  36.0741843  78.6032323 101.3479655  36.3658580
  79.4910279 101.2668800  35.1422875  76.2809414 109.5940592  32.4815648
  76.7447759 109.8728295  31.6920271  76.0166212 108.6924036  32.2988739
  73.1733495 109.1412073  35.4195412  73.7434852 109.5699342  34.7812896
  73.7641607 108.8594658  36.1179597  75.2178300 105.7163744  29.2905213
  75.9202343 106.1684788  29.7579140  74.8858928 105.0747563  29.9185107
  73.6658661 104.3075501  43.6656423  73.0357322 104.9891782  43.8991820
  73.5594749 104.1958582  42.7209561  68.9603634 103.9747297  34.5922347
  68.1702688 104.2304825  34.1162458  69.4514881 104.7895635  34.6974388
  82.9767443 111.3152536  37.3427628  83.7984887 110.9132723  37.0610310
  82.9729846 111.2120770  38.2943744  70.9118379 104.3391876  31.5505824
  70.1149542 104.4510570  32.0689319  70.6843971 104.6778528  30.6846714
  76.7424047 110.8636579  39.4988338  76.8068479 111.3256987  40.3346510
  76.0334971 110.2333944  39.6270648  67.2441337 104.2277787  37.0237338
  67.4949375 105.1124797  37.2894914  67.7800885 104.0482389  36.2512430
  91.0673436 107.6591285  33.6912599  90.3137145 107.0898683  33.5356604
  91.2020978 107.6253949  34.6383234  76.4572064 112.5304687  29.3667319
  76.3217739 113.3756223  29.7952167  76.9981877 112.7323964  28.6033253
  72.9439404  98.6096267  46.0281674  72.5506350  98.0562465  46.7029318
  73.7605544  98.9206845  46.4188191  69.9101462 110.0480125  29.9395244
  70.4225982 110.8423375  30.0900808  70.5624175 109.3506415  29.8728845
  71.7196346 113.1645881  32.0217997  71.8962975 114.0863846  31.8338981
  72.5153180 112.8504300  32.4512377  75.8607365 100.0254146  43.6201930
  76.6017078 100.6261299  43.5406393  76.0925288  99.2831784  43.0619973
  71.0048703 105.2110513  41.8980160  70.8902218 104.3095770  42.1987259
  70.1493221 105.4574210  41.5464977  78.0840541 113.1528253  43.4967661
  77.6404395 112.3664632  43.1788565  78.7457754 113.3407404  42.8311552
  72.8427662 114.6824055  38.0228339  73.3935087 114.5541118  37.2505333
  72.0039138 114.9818944  37.6723232  80.1821779 113.4331053  41.5249062
  80.1640254 114.2539934  41.0329331  81.1041699 113.3085128  41.7499203
  76.6394833 110.9475183  42.3672570  77.1723170 110.1863471  42.1371878
  76.1108914 110.6548835  43.1096725  79.8064528  96.0535249  37.8966212
  79.4628797  96.9436890  37.8205323  80.1743491  95.8636906  37.0335797
  67.8750379 108.3768779  30.7154814  68.7125601 108.7865788  30.4988522
  68.0528646 107.4368221  30.6855008  79.7714811 106.0443860  26.4038647
  79.2561434 106.8148464  26.6427035  79.4992119 105.3708996  27.0271709
  77.3561922 100.8893561  31.4623886  76.5003518 100.5000411  31.2829524
  77.7688873 100.9685521  30.6023671  78.8861068  98.4239904  35.8615445
  78.3825864  98.3870039  35.0483251  79.1791675  99.3332647  35.9212102
  75.1303954  98.5078634  34.8681627  75.9956951  98.3121442  34.5087517
  75.1981463  98.2788985  35.7950984  84.7449085 108.7976214  28.3391821
  83.9678528 108.4587374  27.8946983  85.4240566 108.8028838  27.6646786
  79.5601114 103.9170952  28.2298428  79.2551249 104.2317101  29.0808572
  80.5131556 103.9952372  28.2725761  78.0047546 110.0761175  29.8791382
  77.4768907 109.3413935  29.5664620  77.5035048 110.8535852  29.6331351
  82.9840392 108.2710196  34.9958429  82.3264066 108.9609457  35.0838557
  83.7880791 108.6606628  35.3392415  72.7366273 100.7380842  32.2397994
  73.3110025 100.5156023  31.5071187  73.3237256 100.8069536  32.9926595
  81.7945851 106.6254568  33.0462370  82.3077732 107.2584560  33.5484080
  82.4447074 106.0255764  32.6805731  73.0635860 102.7685303  26.2593879
  72.2273173 103.1059989  26.5803154  72.9240630 102.6334282  25.3221016
  75.0388941  97.6122090  30.9673063  74.3853353  97.2971108  30.3429678
  74.9969415  96.9897831  31.6932886  76.1500146 107.8941386  22.8826355
  75.2427208 107.6630639  23.0817504  76.6471178 107.0979005  23.0700337
  78.2726681 104.1004024  35.2920711  77.3549243 104.3218971  35.1342399
  78.6886825 104.1750334  34.4332418  79.0561729 105.4995440  30.4223391
  79.8033548 106.0116837  30.1130513  79.3253319 105.1779492  31.2827785
  77.3288379 107.9953980  27.4050346  76.4199599 107.7113013  27.5022815
  77.3583463 108.4153059  26.5453652  82.5607647 111.6060570  31.1741513
  82.1069974 110.7651480  31.2306704  81.9301613 112.2421968  31.5116293
  81.5040566 102.5352556  32.4042181  80.7663323 102.0229942  32.7352423
  81.7567340 102.0952938  31.5925457  81.0040586 113.4437067  32.1091331
  81.2963560 114.0042124  31.3903697  81.5139207 113.7365628  32.8644490
  81.6052194  95.3128808  32.9983950  81.9111070  94.4526171  32.7109865
  82.3304798  95.9046428  32.7982944  67.8976550 105.7159494  31.3865548
  67.7000950 105.1228855  30.6616614  67.3423214 105.4111705  32.1041487
  75.8773273 105.6082601  33.5060141  75.9321883 104.6556437  33.4302617
  75.0664475 105.7642040  33.9901439  77.0264467 109.5362724  24.7438424
  76.5883897 108.8198583  24.2844061  77.7674908 109.7638839  24.1823516
  73.8165633 104.2259661  31.2650520  73.0033499 104.5253831  31.6715712
  74.3124627 103.8315349  31.9825002  75.9674211 114.2217418  33.1984784
  75.9250390 114.4478264  32.2693316  76.8836910 113.9880792  33.3470586
  79.4139845 104.6901485  40.0965414  79.7689233 104.9172958  40.9559879
  80.0611976 105.0219862  39.4742669  85.1437582 107.8119921  30.8014743
  85.0055480 108.0021517  29.8735932  84.7873801 108.5739304  31.2582794
  73.3079708 101.7978016  36.8811755  73.9479087 101.6566775  36.1834718
  72.4757239 101.5112530  36.5050357  85.1706962 109.8796448  35.8126014
  85.6043468 109.7871737  36.6609068  85.8838542 109.8553949  35.1746030
  74.0840012 111.0980447  32.9946747  74.8780610 110.6030767  32.7929322
  73.3731704 110.5698310  32.6314453  78.9034856 113.4798542  37.3459115
  78.9571879 114.0489479  38.1136831  78.0349638 113.6500427  36.9813152
  70.3922775 105.2423528  29.0706500  69.4620364 105.1807984  29.2876462
  70.4880247 104.7199481  28.2743141  70.3108324 101.7678341  31.6584742
  70.5715142 102.6823674  31.5493902  71.1325497 101.3002784  31.8081354
  71.7833250 103.1816098  38.8283566  72.4556303 102.9733461  38.1796215
  70.9563036 102.9838184  38.3888798  86.0322511 109.9220149  38.3458900
  86.2258401 110.8265959  38.5918175  85.9323129 109.4627568  39.1797485
  77.6858822  99.8078039  40.8449227  77.0386737 100.5067989  40.7513703
  78.4559837 100.2414183  41.2125475  81.0937620 110.0726891  43.9199780
  80.9423126 109.8437443  43.0029864  81.0842299 111.0297493  43.9331125
  77.8622956 107.6458804  38.9046047  78.7915016 107.7969964  38.7315014
  77.4413986 107.7342825  38.0494693  76.6611288 111.6709469  36.6744584
  76.5222374 111.3028253  37.5470522  75.8725884 112.1857108  36.5028542
  77.2559440 116.7718565  28.0170121  77.4311196 116.3006608  28.8315743
  76.5692228 117.3984331  28.2451382  78.2116503 111.0491071  34.0633422
  77.8766336 111.0091841  34.9591072  77.7120449 110.3835787  33.5903832
  72.1860747 106.4558701  39.5886003  72.0480545 105.7238940  40.1897542
  73.0965671 106.3667601  39.3070191  81.1475695 108.3947106  24.3370482
  80.5304865 107.6693934  24.2403534  80.6792183 109.1556466  23.9937556
  74.8143048 106.1678661  39.0769683  75.5242666 105.5271853  39.0356301
  74.7712356 106.4191556  39.9995864  82.8029826 113.1046014  41.9976262
  82.7442373 112.4205234  41.3306845  83.2049345 113.8465004  41.5456888
  73.5271982 103.1543879  40.8965322  72.9909339 102.7034617  41.5486919
  72.9388690 103.2889787  40.1535787  71.8220525 119.9207928  34.7909981
  72.0617123 120.5526452  35.4689000  70.9789722 119.5695968  35.0775340
  72.9374241 102.6132530  23.4591786  72.0603707 102.4921331  23.0954033
  73.4131994 101.8218608  23.2070675  82.8047234 111.0685598  40.2290242
  81.9174012 110.7311520  40.3516641  83.3745785 110.3368629  40.4659007
  64.4576381 107.4009690  33.5533293  65.1447421 107.0871420  32.9654308
  64.3024509 108.3051054  33.2800545  69.2611103 102.2899886  37.9818317
  69.1769292 101.6825556  37.2468727  68.4393809 102.7808905  37.9827813
  76.3348387 115.7287050  37.1951485  76.2618559 116.5342022  37.7070790
  75.8925780 115.9279016  36.3699506  76.1238167 114.9658820  30.7054307
  75.3405689 115.5080501  30.7992531  76.8230912 115.4832800  31.1048548
  79.4334817 100.7753450  33.3488512  79.9303516 100.0223412  33.0289582
  78.6621798 100.8117766  32.7831721  87.2864574 106.4793815  34.9906803
  87.2754450 107.3618531  34.6200737  86.4181954 106.1265366  34.7961340
  78.7947071 115.6273884  39.3509644  79.5075043 116.2621349  39.2785545
  78.3037099 115.7237750  38.5349645  80.5164597 109.5325137  30.9226935
  79.5820876 109.6526599  30.7531640  80.6941266 108.6297604  30.6586945
  76.0169786 102.9170833  33.0760196  75.6467573 102.3641873  33.7641102
  76.5128878 102.3128966  32.5235197  83.9037149 105.3742456  31.4576969
  84.3697601 106.2070448  31.3837272  84.3544649 104.9087438  32.1622228
  73.8458984 113.3768328  40.1715214  74.5468444 114.0104811  40.3244609
  73.3754099 113.7183059  39.4110854  81.9713380 111.7186278  28.4563121
  82.2473224 111.6042872  29.3656996  81.1017879 111.3203762  28.4175295
  81.8753812  97.7423043  35.4967871  80.9616891  97.9727270  35.6650078
  82.3046913  97.8261487  36.3481903  81.6460270 105.9312935  37.9967765
  80.9931720 106.1788843  37.3420218  82.0240650 105.1177073  37.6630242
  78.6067444 115.9672628  32.0995935  78.7889838 115.1494284  32.5623687
  79.4300430 116.1840321  31.6620825  78.9409609 114.8940814  29.3610984
  79.4697376 114.3833268  28.7481146  79.2037829 114.5783344  30.2256517
  77.6947843 106.6732746  44.4833802  77.0188480 106.5726876  45.1536177
  78.5175477 106.5171960  44.9469799  69.4426702 112.9104683  37.1046317
  70.0280139 112.1648371  37.2374221  69.2451541 113.2208640  37.9882981
  72.2965357 115.9455930  32.1208760  71.6275733 116.4302058  31.6372800
  72.1578227 116.1925151  33.0352138  64.0344357 105.4810283  35.8250760
  64.0728456 104.9473874  36.6187878  63.5284650 104.9545489  35.2061737
  76.4370626 117.9799674  38.7191418  76.9888934 118.1431295  39.4840503
  76.7776819 118.5704112  38.0471443  71.4135119 100.3274824  39.3213303
  71.4776446 101.1889654  38.9090700  71.3502239  99.7148825  38.5885661
  70.8887392 102.3997956  42.9686337  71.5159431 102.0175033  43.5823861
  70.0315311 102.1812158  43.3342029  81.2881500 112.8060931  44.5740072
  81.8321404 113.4190890  44.0795027  80.7068345 113.3640510  45.0907085
  67.6652934 104.2074385  28.9004692  67.9606376 103.2985064  28.8471745
  66.7640970 104.1862125  28.5785694  79.5739013 115.9281649  35.7055100
  79.4490153 115.1271389  35.1966046  80.2318104 116.4227843  35.2169070
  71.1947181 102.2830382  34.8832240  70.4733767 102.8966350  34.7439714
  71.9840437 102.8188147  34.8048886  81.6373922 113.7290669  37.3334650
  80.6904257 113.6096021  37.2612977  81.9856695 112.8413167  37.4160912
  73.9973495  99.6184808  41.1572892  74.5207897  99.8647105  41.9199201
  73.7785828 100.4504843  40.7376029  69.3940776 101.8888483  29.0244017
  69.0653482 101.0085862  28.8419123  69.7480147 101.8336152  29.9120406
  78.6420355 113.5243386  33.5339002  78.4945317 112.5960093  33.7146572
  79.4673848 113.5463476  33.0496078  72.5082599 102.1761453  29.3919495
  72.8478672 102.7047374  28.6698103  72.9554720 102.5141859  30.1678061
  82.2454477 114.3471944  34.6203875  83.1701024 114.1414806  34.4828326
  82.0769780 114.0988345  35.5293217  75.2026040 100.5598503  38.8422563
  74.8622860  99.7606316  39.2443242  74.4965046 100.8600214  38.2699396
  75.8542512  97.6447816  37.2949886  76.6768581  97.1708294  37.1728776
  76.0980575  98.4238300  37.7948572  74.4950746 100.6736074  27.5912787
  75.2159109 101.0517327  27.0876504  73.8716050 101.3924951  27.6947765
  78.6381869 101.3781223  28.5271120  78.8545484 102.2605861  28.2259948
  78.1575936 100.9867437  27.7976762  73.3781091 104.3366936  35.1041864
  73.2325671 104.6507240  35.9966146  72.9006294 104.9551837  34.5512763
  75.2377474 101.3269484  35.1522754  75.2239042 100.4310578  34.8155052
  75.9549902 101.3340148  35.7861040  77.0903604 101.7606825  37.1975881
  76.8321382 102.6823895  37.1960212  76.5588645 101.3637259  37.8876345
  82.0349793 114.8657612  29.9765967  82.2086671 114.3004034  29.2239819
  82.5278684 115.6658507  29.7945457  67.8526753 106.8772281  38.0429525
  67.3080221 107.6532089  38.1749800  68.7306103 107.2243085  37.8848647
  74.6414369 100.2083865  30.4210324  74.7630281  99.2800511  30.6201211
  74.3516412 100.2222551  29.5088639  77.5105560  97.8938775  33.5577044
  77.5327257  97.9578108  32.6029023  77.9273619  97.0543284  33.7517550
  87.8889184 107.6294035  31.5956266  88.3320330 106.8801360  31.1975390
  87.0115694 107.6204171  31.2129998  83.0224965 114.1824376  27.0762865
  83.7175870 114.8031069  27.2950179  83.3648116 113.3319727  27.3515243
  68.6392775 106.0042177  40.9359682  67.8974511 106.1524812  41.5224313
  68.3185519 106.2650443  40.0726432  84.9216389 111.6324082  28.6050196
  85.4467713 111.9711354  27.8799516  84.8338741 110.6971097  28.4213330
  76.5836437 115.5458155  40.7340072  76.8923564 115.3007302  41.6062772
  77.3811919 115.7504794  40.2458942  76.6057049 117.6996065  32.9645449
  76.1662040 117.2072444  33.6578306  77.3565166 117.1569033  32.7237524
  69.0849388 113.8907606  32.9670077  69.9107408 113.5911378  32.5868720
  68.7343440 113.1215228  33.4159866  74.0530922 113.2434074  35.0367750
  73.4310931 112.5804779  34.7369978  74.7235788 113.2695206  34.3541398
  67.2857993 111.8093932  33.9259010  66.4489902 111.3816107  33.7443012
  67.2581639 112.0026376  34.8629802  74.1255449 101.7215862  44.6300257
  74.1743604 102.5977985  44.2478026  74.6677963 101.1793255  44.0571900
  84.6110295 112.2656985  43.9101394  83.8205838 112.2481124  43.3705893
  84.3743649 112.8045279  44.6650430  84.7308170 109.1149452  41.2234122
  84.7806175 108.9499459  42.1649645  84.6222093 108.2476711  40.8332003
  73.6144428 111.7937997  28.5126211  73.7632549 112.4773462  27.8592884
  74.4210872 111.7743087  29.0275667  82.0211932 105.0980380  42.5393429
  82.9221795 104.9586845  42.2477427  82.0959907 105.2634835  43.4791606
  76.3554737 102.4747235  41.3846615  75.4858047 102.7680801  41.1129204
  76.5914218 103.0587680  42.1053879  86.2326367 111.5346393  41.4676144
  85.9411175 111.8976374  42.3039605  85.6198498 110.8213402  41.2889476
  87.4322049 109.0999273  33.9878714  88.2668940 109.5389077  34.1516274
  87.5681178 108.6237926  33.1686960  84.4813555 106.6579008  39.9356202
  84.9567676 106.8506654  39.1275053  83.5579120 106.7138194  39.6899585
  71.3697061 107.8203175  29.5187280  71.1243103 106.9165505  29.7167490
  71.5392976 107.8220326  28.5766758  79.0593771  98.6926851  38.9012036
  79.5775715  99.4287878  38.5758524  78.7048904  98.9990845  39.7358795
  70.6392709 103.5531533  27.0173441  69.9461954 103.6275888  26.3613477
  70.3944461 102.7891876  27.5394958  79.3106365  95.1127134  34.4212932
  79.5908119  94.4450323  35.0473359  80.0956972  95.3056230  33.9087596
  77.1139834 114.2886128  25.9837958  76.5413801 114.9076315  25.5308430
  77.6872628 114.8385490  26.5177880  83.1815224 103.5344768  38.1684507
  84.1332647 103.6342866  38.1896731  83.0118674 102.7423037  38.6782592
  81.2029603 100.6200351  38.3543908  80.6079535 100.9005364  37.6590397
  80.9179300 101.1094252  39.1260649  80.3337094 114.5723278  27.1146541
  81.2667767 114.5068840  27.3179416  80.2460307 115.4079545  26.6561073
  85.6603302 106.7550888  37.2826807  85.6279622 105.8166888  37.4686491
  86.2703925 106.8334924  36.5492632  77.4986632 105.6246941  23.3254011
  78.4445737 105.4953149  23.3942429  77.1200877 104.8861603  23.8023439
  85.8097790 103.5461931  37.3285090  85.2936839 102.7620388  37.1415019
  86.6937739 103.2180648  37.4931610  83.4708517  97.2902947  33.2880903
  83.2733338  96.9818035  34.1724235  84.0808223  98.0164586  33.4178833
  91.4779851 107.8166894  36.4232844  92.2083240 107.5552183  36.9840547
  90.8686797 107.0795616  36.4634912  89.5595149 105.9574757  37.0207295
  88.8328312 105.8230722  36.4123786  89.1442435 106.2651586  37.8264013
  77.3825325 109.6764687  44.7854668  78.3028334 109.8543286  44.9794714
  77.3474908 108.7320732  44.6334367  75.6829550 103.5496917  23.2608896
  74.7761005 103.2530030  23.3371610  75.9605531 103.2526735  22.3943182
  66.6007490 104.8703280  33.7107943  66.2810274 104.0168589  33.4182317
  66.0540918 105.0851859  34.4665910  70.3787398 107.5865721  37.4277449
  70.5973407 108.5182829  37.4465483  70.7913171 107.2273696  38.2132253
  77.2991615  98.0933807  29.4153137  76.4892344  97.7480892  29.7908384
  77.9876032  97.7841350  30.0040749  79.2282164  97.1711854  31.0377434
  79.7813202  97.5907307  31.6967457  79.4652250  96.2447602  31.0800390
  75.2515263 103.1598927  46.8180198  75.1511990 104.1093284  46.7492289
  75.0336805 102.8317166  45.9456268  74.4528334 100.4083852  23.4020875
  75.3147498 100.7338751  23.6616693  74.6378678  99.6215348  22.8893941
  66.4695750 108.4906192  35.6801064  65.7759221 108.0760145  35.1671019
  67.2168741 108.5326728  35.0834483  82.6060971  99.2812379  30.5456098
  82.0259640  99.9397183  30.1634151  82.3396903  98.4589723  30.1343516
  81.0564537  98.6817436  32.7477419  81.5564315  98.7933971  31.9391738
  81.7000145  98.3778489  33.3878227  75.1146533 106.5896066  45.6345260
  74.6313615 107.3896426  45.8409149  75.2007472 106.6004011  44.6812704
  68.3832492 108.4224446  33.5567079  68.3603181 108.5212133  32.6048962
  68.6933129 109.2689596  33.8784245  71.0419870 110.4800601  37.6713693
  71.9963124 110.4484543  37.6043625  70.8432394 110.0191224  38.4863919
  71.6319252 109.0501717  40.2384491  72.4512141 109.5445795  40.2619328
  71.9056060 108.1333685  40.2102059  81.3885849 101.4412469  29.6012447
  80.5011704 101.7262120  29.3832641  81.8039838 101.2806232  28.7539724
  84.7400385 101.4658990  33.3166786  85.5160775 101.9555443  33.5891403
  84.0148519 101.8917044  33.7738655  87.1772943 102.1786609  34.3740726
  87.7717434 101.9382345  33.6634035  87.2499527 101.4593740  35.0014263
  69.3970099 116.0220220  34.6883891  69.2624567 115.2620621  34.1221889
  68.9802161 116.7461120  34.2212680  81.3626872 106.9567005  29.8162737
  81.3062074 107.4135556  28.9770369  81.9155215 106.1957690  29.6385580
  85.1731678 102.7456737  30.6412856  84.9168613 102.3453373  31.4721064
  84.5484546 103.4600531  30.5162995  89.4844016 105.4852810  33.1484148
  88.9243574 105.5545999  33.9215710  88.8787520 105.3093795  32.4283644
  72.5539225 116.9189537  34.9002334  72.4371609 117.8634970  34.7981024
  71.7331671 116.6163099  35.2888133  82.4415760 111.6439673  25.7458927
  83.2761364 111.2120871  25.5636401  82.2800102 111.4721687  26.6735821
  82.0961652 108.1471786  27.1115266  82.0410456 107.9816058  26.1703710
  81.4707707 108.8547819  27.2677456  66.8854167 103.3839851  40.9376688
  67.5313030 102.8738805  41.4263913  66.6771318 104.1208532  41.5120113
  79.4107559 110.4520698  46.4368829  80.2798719 110.6261350  46.0755464
  78.9314310 111.2715115  46.3144558  75.4057777  97.6479895  26.6900584
  75.3936447  98.5921735  26.8468855  76.2981199  97.4650041  26.3960046
  73.5793739 117.5717799  38.1158262  74.4820986 117.6041409  38.4324757
  73.3531109 116.6418250  38.1304598  75.3347341 116.3248786  34.7768341
  74.3842972 116.3250647  34.6632713  75.6379827 115.5781520  34.2604376
  79.2209897  94.2422672  30.9446521  78.4542292  93.6881159  31.0903204
  79.6320602  94.3144541  31.8060673  71.2251658 100.5307468  45.0351702
  72.0883119 100.1744273  45.2455027  70.6517068 100.1921363  45.7227107
  91.0700035 122.1609324  35.8414103  91.7078445 122.0416071  35.1377443
  90.9520878 123.1090168  35.9002056  87.8789741 122.1136752  35.7775628
  87.5408252 121.9977817  34.8896163  88.7479509 121.7127917  35.7576634
  88.3609524 123.2671604  41.7361834  88.3498165 122.8724402  40.8642337
  88.5230163 122.5337677  42.3295605  81.2840989 125.4623420  34.6056739
  82.0762280 125.1214245  34.1903039  81.5237639 125.5718395  35.5258893
  85.0816785 126.0508716  40.6841018  84.7906651 126.9554347  40.5687684
  85.7173769 126.0925243  41.3985087  86.0072992 123.4285564  37.2742377
  86.6036564 123.2041587  36.5599340  86.0647963 122.6870310  37.8767825
  93.5475151 113.5357585  38.2794899  93.2158475 114.4052996  38.0556114
  92.9520764 113.2193869  38.9588929  83.4919152 122.1883928  33.7127516
  82.5669648 122.0560142  33.9205207  83.7403565 122.9678147  34.2097458
  93.4403814 118.2552671  35.3588249  92.5320691 118.1868080  35.0647010
  93.3891410 118.7324616  36.1870074  80.8527963 121.8317202  34.5471305
  80.9820344 122.0851681  35.4610716  80.1725414 122.4244910  34.2275960
  87.5144680 119.6742317  43.3023146  86.7378014 120.2336237  43.2926011
  88.1535243 120.1599100  43.8238016  95.3065460 116.4569110  37.1366123
  94.6639841 116.7501643  36.4905917  94.8020389 116.3422030  37.9419319
  85.7691052 122.4827770  42.8641113  86.5105736 123.0212814  42.5875936
  85.0628038 123.1094059  43.0212665  91.2446392 124.6256911  41.4613274
  91.6529748 124.1839321  40.7167907  90.5223653 124.0509538  41.7147467
  87.5977462 119.5629518  38.8346831  88.4438657 119.9868931  38.9781480
  87.5376099 118.9063142  39.5285394  90.7476907 117.2233886  40.4928005
  90.5037839 117.9775946  39.9562281  91.0236838 117.6019234  41.3275252
  90.3041599 116.3790319  36.0741843  89.4426078 116.6771573  36.3658580
  90.3304033 116.5960718  35.1422875  84.0127249 124.4703991  35.4195412
  84.5828606 124.8991259  34.7812896  84.6035361 124.1886576  36.1179597
  84.5052416 119.6367419  43.6656423  83.8751076 120.3183699  43.8991820
  84.3988504 119.5250500  42.7209561  79.7997388 119.3039215  34.5922347
  79.0096442 119.5596743  34.1162458  80.2908636 120.1187552  34.6974388
  81.7512134 119.6683794  31.5505824  80.9543297 119.7802488  32.0689319
  81.5237726 120.0070446  30.6846714  87.5817801 126.1928497  39.4988338
  87.6462234 126.6548904  40.3346510  86.8728725 125.5625862  39.6270648
  78.0835091 119.5569705  37.0237338  78.3343130 120.4416715  37.2894914
  78.6194640 119.3774307  36.2512430  83.7833159 113.9388184  46.0281674
  83.3900104 113.3854383  46.7029318  84.5999299 114.2498763  46.4188191
  86.7001120 115.3546063  43.6201930  87.4410833 115.9553217  43.5406393
  86.9319042 114.6123701  43.0619973  81.8442458 120.5402431  41.8980160
  81.7295973 119.6387688  42.1987259  80.9886975 120.7866127  41.5464977
  83.6821416 130.0115973  38.0228339  84.2328842 129.8833036  37.2505333
  82.8432892 130.3110862  37.6723232  87.4788587 126.2767100  42.3672570
  88.0116924 125.5155389  42.1371878  86.9502669 125.9840752  43.1096725
  90.6458282 111.3827166  37.8966212  90.3022552 112.2728808  37.8205323
  91.0137245 111.1928824  37.0335797  88.1955676 116.2185478  31.4623886
  87.3397273 115.8292329  31.2829524  88.6082628 116.2977439  30.6023671
  89.7254823 113.7531822  35.8615445  89.2219618 113.7161957  35.0483251
  90.0185430 114.6624564  35.9212102  85.9697709 113.8370551  34.8681627
  86.8350705 113.6413360  34.5087517  86.0375218 113.6080903  35.7950984
  83.5760028 116.0672759  32.2397994  84.1503780 115.8447941  31.5071187
  84.1631010 116.1361454  32.9926595  85.8782696 112.9414008  30.9673063
  85.2247108 112.6263025  30.3429678  85.8363170 112.3189749  31.6932886
  89.1120436 119.4295942  35.2920711  88.1942997 119.6510889  35.1342399
  89.5280579 119.5042252  34.4332418  92.4445948 110.6420726  32.9983950
  92.7504825 109.7818089  32.7109865  93.1698553 111.2338346  32.7982944
  78.7370304 121.0451412  31.3865548  78.5394704 120.4520773  30.6616614
  78.1816968 120.7403622  32.1041487  86.7167028 120.9374519  33.5060141
  86.7715638 119.9848355  33.4302617  85.9058230 121.0933958  33.9901439
  84.6559388 119.5551578  31.2650520  83.8427253 119.8545749  31.6715712
  85.1518382 119.1607267  31.9825002  90.2533599 120.0193403  40.0965414
  90.6082987 120.2464876  40.9559879  90.9005731 120.3511780  39.4742669
  84.1473463 117.1269934  36.8811755  84.7872842 116.9858693  36.1834718
  83.3150993 116.8404447  36.5050357  81.1502079 117.0970259  31.6584742
  81.4108896 118.0115592  31.5493902  81.9719251 116.6294701  31.8081354
  82.6227004 118.5108016  38.8283566  83.2950058 118.3025378  38.1796215
  81.7956791 118.3130102  38.3888798  88.5252576 115.1369957  40.8449227
  87.8780491 115.8359907  40.7513703  89.2953592 115.5706101  41.2125475
  88.7016711 122.9750722  38.9046047  89.6308771 123.1261882  38.7315014
  88.2807741 123.0634743  38.0494693  87.5005042 127.0001386  36.6744584
  87.3616128 126.6320171  37.5470522  86.7119639 127.5149026  36.5028542
  83.0254502 121.7850619  39.5886003  82.8874299 121.0530858  40.1897542
  83.9359425 121.6959519  39.3070191  85.6536802 121.4970578  39.0769683
  86.3636421 120.8563771  39.0356301  85.6106110 121.7483473  39.9995864
  84.3665736 118.4835796  40.8965322  83.8303093 118.0326535  41.5486919
  83.7782445 118.6181705  40.1535787  75.2970135 122.7301607  33.5533293
  75.9841175 122.4163337  32.9654308  75.1418264 123.6342972  33.2800545
  80.1004857 117.6191804  37.9818317  80.0163046 117.0117474  37.2468727
  79.2787564 118.1100822  37.9827813  90.2728571 116.1045367  33.3488512
  90.7697271 115.3515330  33.0289582  89.5015553 116.1409684  32.7831721
  86.8563540 118.2462750  33.0760196  86.4861328 117.6933791  33.7641102
  87.3522632 117.6420884  32.5235197  84.6852739 128.7060245  40.1715214
  85.3862198 129.3396728  40.3244609  84.2147854 129.0474977  39.4110854
  92.7147566 113.0714961  35.4967871  91.8010646 113.3019188  35.6650078
  93.1440668 113.1553405  36.3481903  92.4854025 121.2604853  37.9967765
  91.8325475 121.5080760  37.3420218  92.8634404 120.4468991  37.6630242
  88.5341598 122.0024664  44.4833802  87.8582235 121.9018793  45.1536177
  89.3569231 121.8463878  44.9469799  80.2820457 128.2396601  37.1046317
  80.8673893 127.4940288  37.2374221  80.0845295 128.5500557  37.9882981
  74.8738111 120.8102201  35.8250760  74.9122211 120.2765791  36.6187878
  74.3678404 120.2837406  35.2061737  82.2528874 115.6566741  39.3213303
  82.3170200 116.5181572  38.9090700  82.1895994 115.0440743  38.5885661
  81.7281146 117.7289874  42.9686337  82.3553185 117.3466951  43.5823861
  80.8709065 117.5104076  43.3342029  78.5046689 119.5366303  28.9004692
  78.8000130 118.6276981  28.8471745  77.6034725 119.5154042  28.5785694
  82.0340936 117.6122299  34.8832240  81.3127522 118.2258267  34.7439714
  82.8234192 118.1480064  34.8048886  84.8367249 114.9476726  41.1572892
  85.3601651 115.1939023  41.9199201  84.6179583 115.7796761  40.7376029
  80.2334531 117.2180401  29.0244017  79.9047237 116.3377779  28.8419123
  80.5873901 117.1628069  29.9120406  86.0419795 115.8890421  38.8422563
  85.7016615 115.0898234  39.2443242  85.3358801 116.1892132  38.2699396
  86.6936266 112.9739733  37.2949886  87.5162336 112.5000212  37.1728776
  86.9374330 113.7530217  37.7948572  84.2174845 119.6658854  35.1041864
  84.0719426 119.9799157  35.9966146  83.7400049 120.2843754  34.5512763
  86.0771228 116.6561402  35.1522754  86.0632797 115.7602495  34.8155052
  86.7943656 116.6632066  35.7861040  87.9297359 117.0898742  37.1975881
  87.6715137 118.0115813  37.1960212  87.3982399 116.6929177  37.8876345
  78.6920507 122.2064199  38.0429525  78.1473975 122.9824007  38.1749800
  79.5699857 122.5535003  37.8848647  85.4808124 115.5375782  30.4210324
  85.6024035 114.6092429  30.6201211  85.1910166 115.5514468  29.5088639
  88.3499314 113.2230693  33.5577044  88.3721011 113.2870026  32.6029023
  88.7667373 112.3835201  33.7517550  79.4786529 121.3334095  40.9359682
  78.7368265 121.4816730  41.5224313  79.1579273 121.5942360  40.0726432
  78.1251748 127.1385850  33.9259010  77.2883656 126.7108024  33.7443012
  78.0975393 127.3318293  34.8629802  84.9649203 117.0507780  44.6300257
  85.0137359 117.9269903  44.2478026  85.5071718 116.5085173  44.0571900
  92.8605687 120.4272297  42.5393429  93.7615549 120.2878762  42.2477427
  92.9353661 120.5926752  43.4791606  87.1948492 117.8039152  41.3846615
  86.3251801 118.0972718  41.1129204  87.4307972 118.3879597  42.1053879
  89.8987526 114.0218769  38.9012036  90.4169470 114.7579796  38.5758524
  89.5442659 114.3282762  39.7358795  90.1500120 110.4419052  34.4212932
  90.4301874 109.7742241  35.0473359  90.9350727 110.6348147  33.9087596
  94.0208978 118.8636686  38.1684507  94.9726401 118.9634783  38.1896731
  93.8512429 118.0714954  38.6782592  92.0423358 115.9492269  38.3543908
  91.4473290 116.2297282  37.6590397  91.7573054 116.4386170  39.1260649
  96.6491545 118.8753849  37.3285090  96.1330593 118.0912305  37.1415019
  97.5331493 118.5472565  37.4931610  94.3102271 112.6194864  33.2880903
  94.1127093 112.3109953  34.1724235  94.9201977 113.3456503  33.4178833
  88.2219079 125.0056604  44.7854668  89.1422089 125.1835203  44.9794714
  88.1868662 124.0612650  44.6334367  77.4401244 120.1995198  33.7107943
  77.1204029 119.3460506  33.4182317  76.8934673 120.4143776  34.4665910
  81.2181152 122.9157639  37.4277449  81.4367162 123.8474747  37.4465483
  81.6306926 122.5565613  38.2132253  88.1385370 113.4225724  29.4153137
  87.3286098 113.0772809  29.7908384  88.8269787 113.1133268  30.0040749
  90.0675918 112.5003771  31.0377434  90.6206957 112.9199225  31.6967457
  90.3046004 111.5739519  31.0800390  86.0909017 118.4890845  46.8180198
  85.9905744 119.4385202  46.7492289  85.8730559 118.1609084  45.9456268
  77.3089504 123.8198110  35.6801064  76.6152976 123.4052062  35.1671019
  78.0562495 123.8618646  35.0834483  91.8958292 114.0109354  32.7477419
  92.3958070 114.1225889  31.9391738  92.5393899 113.7070407  33.3878227
  85.9540287 121.9187984  45.6345260  85.4707369 122.7188344  45.8409149
  86.0401226 121.9295929  44.6812704  79.2226247 123.7516363  33.5567079
  79.1996935 123.8504051  32.6048962  79.5326883 124.5981514  33.8784245
  81.8813625 125.8092518  37.6713693  82.8356878 125.7776461  37.6043625
  81.6826148 125.3483142  38.4863919  82.4713007 124.3793634  40.2384491
  83.2905896 124.8737713  40.2619328  82.7449815 123.4625603  40.2102059
  77.7247921 118.7131768  40.9376688  78.3706785 118.2030722  41.4263913
  77.5165072 119.4500450  41.5120113  90.0603651 109.5714590  30.9446521
  89.2936047 109.0173076  31.0903204  90.4714356 109.6436458  31.8060673
  82.0645412 115.8599385  45.0351702  82.9276874 115.5036190  45.2455027
  81.4910823 115.5213280  45.7227107  28.6061055  13.4648548  28.7221569
  28.5473601  12.7807768  28.0552152  29.0080574  14.2067538  28.2702195
  27.0912729  13.1663465  31.2985379  27.6352633  13.7793424  30.8040334
  26.5099574  13.7243044  31.8152392  30.4141523  12.6259520  30.6346700
  29.6237067  12.6083658  30.0951200  30.1774878  13.1647813  31.3895737
  32.0357595  11.8948927  28.1921450  31.7442404  12.2578908  29.0284911
  31.4229727  11.1815936  28.0134782  25.2138788  10.8123232  33.1614135
  26.0829947  10.9863885  32.8000770  24.7345539  11.6317649  33.0389865
  36.8731263  22.5211858  22.5659410  37.5109673  22.4018606  21.8622750
  36.7552106  23.4692702  22.6247362  33.6820970  22.4739286  22.5020935
  33.3439481  22.3580351  21.6141470  34.5510738  22.0730451  22.4821941
  34.1640753  23.6274138  28.4607140  34.1529394  23.2326936  27.5887644
  34.3261392  22.8940211  29.0540912  27.0872217  25.8225954  21.3302046
  27.8793509  25.4816779  20.9148345  27.3268868  25.9320929  22.2504199
  30.8848014  26.4111250  27.4086324  30.5937880  27.3156881  27.2932991
  31.5204998  26.4527778  28.1230394  31.8104221  23.7888098  23.9987684
  32.4067793  23.5644121  23.2844647  31.8679192  23.0472844  24.6013132
  41.8280959  20.1838545  20.5445597  42.5606131  19.6137762  20.7783426
  41.0720315  19.7960146  20.9852102  39.3506379  13.8960119  25.0040205
  39.0189704  14.7655530  24.7801420  38.7551993  13.5796403  25.6834236
  35.8437899  26.0972665  24.4036118  35.5438622  26.9997704  24.2951925
  35.4988958  25.8304849  25.2557271  39.2435043  18.6155206  22.0833555
  38.3351920  18.5470614  21.7892316  39.1922639  19.0927151  22.9115381
  30.8258679  32.8616986  17.3707086  30.7482708  33.8124811  17.4495566
  30.2220322  32.5162858  18.0282012  33.3175909  20.0344851  30.0268453
  32.5409243  20.5938771  30.0171317  33.9566472  20.5201634  30.5483323
  41.1096689  16.8171644  23.8611429  40.4671069  17.1104177  23.2151224
  40.6051618  16.7024564  24.6664626  31.5722281  22.8430305  29.5886420
  32.3136965  23.3815349  29.3121243  30.8659266  23.4696593  29.7457971
  37.0477620  24.9859445  28.1858581  37.4560977  24.5441856  27.4413213
  36.3254882  24.4112073  28.4392774  33.4008691  19.9232052  25.5592138
  34.2469886  20.3471465  25.7026787  33.3407328  19.2665676  26.2530701
  37.3706435  25.5460636  21.9410870  36.7415298  25.7106350  21.2386938
  36.9832097  25.9602245  22.7121834  41.2495667  26.4815073  19.2955234
  40.5646705  26.8613975  18.7452267  41.3339516  27.0910400  20.0287181
  36.5508136  17.5836420  27.2173312  36.3069068  18.3378481  26.6807587
  36.8268066  17.9621768  28.0520559  38.5046599  24.1275033  25.8950577
  38.7163494  24.7706792  25.2184958  38.4576347  23.2937349  25.4272507
  29.8158478  24.8306525  22.1440718  30.3859835  25.2593794  21.5058203
  30.4066590  24.5489110  22.8424904  30.3083645  19.9969953  30.3901730
  29.6782305  20.6786234  30.6237126  30.2019732  19.8853034  29.4454868
  39.6192427  27.0046988  24.0672935  40.4409870  26.6027175  23.7855616
  39.6154829  26.9015222  25.0189050  33.3849030  26.5531031  26.2233645
  33.4493463  27.0151438  27.0591817  32.6759954  25.9228396  26.3515955
  47.7098420  23.3485736  20.4157906  46.9562128  22.7793134  20.2601910
  47.8445961  23.3148401  21.3628541  29.5864387  14.2990719  32.7526981
  29.1931333  13.7456917  33.4274625  30.4030528  14.6101297  33.1433498
  28.3621330  28.8540333  18.7463304  28.5387958  29.7758298  18.5584288
  29.1578163  28.5398752  19.1757683  32.5032348  15.7148598  30.3447237
  33.2442062  16.3155751  30.2651700  32.7350271  14.9726235  29.7865280
  27.6473686  20.9004965  28.6225467  27.5327201  19.9990222  28.9232566
  26.7918204  21.1468662  28.2710283  34.7265524  28.8422705  30.2212967
  34.2829378  28.0559084  29.9033872  35.3882738  29.0301856  29.5556858
  29.4852645  30.3718507  24.7473646  30.0360070  30.2435570  23.9750640
  28.6464121  30.6713396  24.3968539  36.8246762  29.1225505  28.2494369
  36.8065237  29.9434386  27.7574638  37.7466682  28.9979580  28.4744510
  33.2819816  26.6369635  29.0917877  33.8148153  25.8757923  28.8617185
  32.7533897  26.3443286  29.8342032  39.6265375  23.9604648  21.7203735
  38.9689049  24.6503909  21.8083864  40.4305774  24.3501080  22.0637722
  38.4370834  22.3149020  19.7707677  38.9502716  22.9479012  20.2729387
  39.0872058  21.7150216  19.4051037  34.9151665  19.7898476  22.0166018
  33.9974226  20.0113423  21.8587706  35.3311808  19.8644786  21.1577725
  39.2032630  27.2955022  17.8986820  38.7494957  26.4545932  17.9552010
  38.5726597  27.9316420  18.2361600  37.6465569  29.1331518  18.8336638
  37.9388544  29.6936576  18.1149004  38.1564190  29.4260079  19.5889797
  32.6099194  29.9111870  19.9230091  32.5675373  30.1372716  18.9938623
  33.5261893  29.6775244  20.0715892  36.0564828  20.3795937  26.8210720
  36.4114216  20.6067410  27.6805186  36.7036959  20.7114314  26.1987976
  41.7862565  23.5014373  17.5260049  41.6480464  23.6915969  16.5981239
  41.4298784  24.2633756  17.9828100  41.8131945  25.5690900  22.5371321
  42.2468451  25.4766189  23.3854375  42.5263525  25.5448400  21.8991337
  35.5459840  29.1692994  24.0704421  35.5996862  29.7383930  24.8382137
  34.6774621  29.3394879  23.7058459  28.4258233  18.8710550  25.5528873
  29.0981287  18.6627912  24.9041522  27.5988020  18.6732636  25.1134105
  42.6747494  25.6114601  25.0704206  42.8683384  26.5160411  25.3163481
  42.5748113  25.1522020  25.9042791  34.3283805  15.4972491  27.5694534
  33.6811720  16.1962441  27.4759010  35.0984820  15.9308635  27.9370782
  37.7362603  25.7621343  30.6445087  37.5848109  25.5331895  29.7275171
  37.7267283  26.7191945  30.6576432  34.5047939  23.3353256  25.6291353
  35.4339999  23.4864416  25.4560321  34.0838969  23.4237277  24.7740000
  33.3036271  27.3603921  23.3989891  33.1647357  26.9922705  24.2715829
  32.5150867  27.8751560  23.2273849  33.8984423  32.4613017  14.7415427
  34.0736179  31.9901060  15.5561050  33.2117211  33.0878783  14.9696688
  34.8541486  26.7385523  20.7878729  34.5191319  26.6986293  21.6836379
  34.3545432  26.0730239  20.3149139  28.8285730  22.1453153  26.3131310
  28.6905528  21.4133392  26.9142849  29.7390654  22.0562053  26.0315498
  31.4568031  21.8573113  25.8014990  32.1667650  21.2166305  25.7601608
  31.4137339  22.1086007  26.7241170  39.4454810  28.7940466  28.7221569
  39.3867356  28.1099686  28.0552152  39.8474328  29.5359456  28.2702195
  30.1696965  18.8438330  27.6210629  29.6334322  18.3929069  28.2732225
  29.5813673  18.9784239  26.8781093  28.4645508  35.6102380  21.5155288
  28.7042107  36.2420904  22.1934306  27.6214705  35.2590420  21.8020647
  39.4472217  26.7580050  26.9535548  38.5598996  26.4205972  27.0761947
  40.0170768  26.0263081  27.1904314  32.9773370  31.4181502  23.9196792
  32.9043542  32.2236474  24.4316096  32.5350763  31.6173468  23.0944813
  32.7663150  30.6553272  17.4299613  31.9830672  31.1974952  17.5237838
  33.4655895  31.1727252  17.8293854  43.9289557  22.1688267  21.7152110
  43.9179434  23.0512983  21.3446043  43.0606937  21.8159818  21.5206647
  35.4372054  31.3168336  26.0754950  36.1500026  31.9515801  26.0030852
  34.9462083  31.4132202  25.2594952  30.4883967  29.0662780  26.8960521
  31.1893427  29.6999263  27.0489915  30.0179082  29.4077511  26.1356160
  38.2885253  21.6207387  24.7213071  37.6356704  21.8683295  24.0665524
  38.6665633  20.8071525  24.3875549  35.2492427  31.6567080  18.8241242
  35.4314822  30.8388736  19.2868994  36.0725413  31.8734773  18.3866132
  35.5834593  30.5835265  16.0856290  36.1122359  30.0727720  15.4726452
  35.8462812  30.2677796  16.9501823  34.3372826  22.3627198  31.2079109
  33.6613463  22.2621328  31.8781484  35.1600460  22.2066412  31.6715106
  26.0851685  28.5999135  23.8291624  26.6705122  27.8542823  23.9619528
  25.8876524  28.9103091  24.7128288  28.9390341  31.6350382  18.8454066
  28.2700716  32.1196510  18.3618106  28.8003210  31.8819603  19.7597445
  33.0795609  33.6694126  25.4436725  33.6313917  33.8325747  26.2085810
  33.4201803  34.2598563  24.7716749  27.5312375  18.0892408  29.6931643
  28.1584414  17.7069485  30.3069168  26.6740294  17.8706610  30.0587336
  37.9306484  28.4955383  31.2985379  38.4746388  29.1085341  30.8040334
  37.3493328  29.0534962  31.8152392  36.2163997  31.6176101  22.4300407
  36.0915136  30.8165841  21.9211352  36.8743088  32.1122295  21.9414377
  38.2798905  29.4185121  24.0579957  37.3329240  29.2990472  23.9858283
  38.6281678  28.5307619  24.1406218  30.6398478  15.3079260  27.8818199
  31.1632880  15.5541557  28.6444508  30.4210812  16.1399295  27.4621336
  35.2845338  29.2137837  20.2584309  35.1370301  28.2854545  20.4391879
  36.1098832  29.2357928  19.7741384  38.8879460  30.0366396  21.3449182
  39.8126008  29.8309258  21.2073633  38.7194763  29.7882797  22.2538523
  31.8451023  16.2492955  25.5667869  31.5047844  15.4500768  25.9688549
  31.1390030  16.5494666  24.9944702  33.7328588  17.4501277  23.9221188
  33.4746365  18.3718347  23.9205518  33.2013628  17.0531711  24.6121652
  38.6774776  30.5552064  16.7011273  38.8511654  29.9898486  15.9485126
  39.1703668  31.3552959  16.5190763  24.4951736  22.5666733  24.7674832
  23.9505204  23.3426541  24.8995106  25.3731086  22.9137537  24.6093953
  44.5314167  23.3188487  18.3201573  44.9745313  22.5695812  17.9220696
  43.6540678  23.3098623  17.9375305  39.6649949  29.8718828  13.8008171
  40.3600853  30.4925521  14.0195486  40.0073099  29.0214179  14.0760549
  25.2817758  21.6936629  27.6604989  24.5399494  21.8419264  28.2469619
  24.9610502  21.9544895  26.7971738  41.5641372  27.3218534  15.3295502
  42.0892696  27.6605806  14.6044822  41.4763724  26.3865549  15.1458637
  33.2261421  31.2352607  27.4585379  33.5348547  30.9901754  28.3308078
  34.0236903  31.4399246  26.9704249  33.2482033  33.3890517  19.6890755
  32.8087023  32.8966896  20.3823612  33.9990150  32.8463485  19.4482831
  25.7274372  29.5802058  19.6915384  26.5532392  29.2805830  19.3114027
  25.3768424  28.8109680  20.1405172  30.6955905  28.9328526  21.7613057
  30.0735914  28.2699231  21.4615285  31.3660772  28.9589658  21.0786705
  30.7680432  17.4110314  31.3545563  30.8168588  18.2872437  30.9723333
  31.3102946  16.8687707  30.7817206  41.2535278  27.9551437  30.6346700
  40.4630822  27.9375576  30.0951200  41.0168633  28.4939731  31.3895737
  41.3733153  24.8043904  27.9479429  41.4231158  24.6393911  28.8894952
  41.2647076  23.9371163  27.5577310  38.6636915  20.7874832  29.2638735
  39.5646778  20.6481297  28.9722733  38.7384890  20.9529286  30.2036913
  32.9979721  18.1641686  28.1091922  32.1283030  18.4575252  27.8374510
  33.2339201  18.7482131  28.8299185  42.8751350  27.2240845  28.1921450
  42.5836158  27.5870826  29.0284911  42.2623481  26.5107853  28.0134782
  44.0747032  24.7893725  20.7124021  44.9093924  25.2283529  20.8761581
  44.2106161  24.3132378  19.8932266  41.1238538  22.3473460  26.6601508
  41.5992660  22.5401106  25.8520360  40.2004103  22.4032646  26.4144892
  35.7018755  14.3821303  25.6257342  36.2200698  15.1182330  25.3003831
  35.3473887  14.6885297  26.4604101  39.8240207  19.2239220  24.8929814
  40.7757630  19.3237318  24.9142038  39.6543657  18.4317488  25.4027898
  37.8454587  16.3094803  25.0789215  37.2504519  16.5899816  24.3835703
  37.5604283  16.7988704  25.8505956  42.3028285  22.4445340  24.0072114
  42.2704605  21.5061340  24.1931797  42.9128909  22.5229376  23.2737938
  42.4522773  19.2356383  24.0530397  41.9361822  18.4514840  23.8660326
  43.3362722  18.9075100  24.2176916  48.1204835  23.5061346  23.1478150
  48.8508223  23.2446635  23.7085854  47.5111780  22.7690068  23.1880218
  46.2020132  21.6469209  23.7452602  45.4753295  21.5125174  23.1369093
  45.7867419  21.9546038  24.5509320  34.0250308  25.3659139  31.5099975
  34.9453318  25.5437738  31.7040021  33.9899891  24.4215184  31.3579674
  27.0212381  23.2760173  24.1522756  27.2398391  24.2077281  24.1710790
  27.4338155  22.9168148  24.9377560  31.8940246  18.8493379  33.5425505
  31.7936973  19.7987736  33.4737596  31.6761788  18.5211618  32.6701575
  31.7571516  22.2790518  32.3590566  31.2738598  23.0790878  32.5654455
  31.8432455  22.2898463  31.4058010  27.6844854  26.1695053  24.3959000
  28.6388107  26.1378995  24.3288932  27.4857377  25.7085676  25.2109226
  28.2744236  24.7396169  26.9629798  29.0937125  25.2340247  26.9864635
  28.5481044  23.8228137  26.9347365  43.8197927  17.8681061  21.0986033
  44.4142418  17.6276797  20.3879341  43.8924510  17.1488192  21.7259569
  26.0395082  31.7114672  21.4129198  25.9049550  30.9515073  20.8467196
  25.6227145  32.4355572  20.9457987  46.1269000  21.1747262  19.8729454
  45.5668557  21.2440451  20.6461016  45.5212503  20.9988247  19.1528951
  29.1964208  32.6083989  21.6247641  29.0796592  33.5529422  21.5226331
  28.3756655  32.3057551  22.0133440  23.5279150  19.0734303  27.6621995
  24.1738014  18.5633257  28.1509220  23.3196301  19.8102984  28.2365420
  36.0532542  26.1415150  33.1614135  36.9223702  26.3155802  32.8000770
  35.5739294  26.9609567  33.0389865  30.2218722  33.2612251  24.8403569
  31.1245969  33.2935861  25.1570064  29.9956093  32.3312702  24.8549905
  31.9772324  32.0143238  21.5013648  31.0267955  32.0145099  21.3878020
  32.2804811  31.2675972  20.9849682  27.8676641  16.2201920  31.7597009
  28.7308103  15.8638724  31.9700334  27.2942052  15.8815814  32.4472413
  47.7125018  37.8503776  22.5659410  48.3503428  37.7310523  21.8622750
  47.5945861  38.7984620  22.6247362  44.5214724  37.8031204  22.5020935
  44.1833236  37.6872269  21.6141470  45.3904492  37.4022369  22.4821941
  40.3801540  39.6566680  18.4917826  39.8166405  39.5656617  17.7234113
  40.2653935  38.8366585  18.9720318  45.0034507  38.9566056  28.4607140
  44.9923148  38.5618854  27.5887644  45.1655147  38.2232128  29.0540912
  37.9265972  41.1517872  21.3302046  38.7187264  40.8108697  20.9148345
  38.1662622  41.2612847  22.2504199  45.9601099  43.3237648  13.8032291
  45.3089078  43.9091729  13.4166304  46.7545461  43.8543843  13.8627328
  39.8856726  40.4126785  14.2019425  40.6587602  39.8655772  14.0632301
  40.2382125  41.2771035  14.4133886  41.7241768  41.7403168  27.4086324
  41.4331634  42.6448798  27.2932991  42.3598753  41.7819695  28.1230394
  42.6497975  39.1180016  23.9987684  43.2461547  38.8936039  23.2844647
  42.7072947  38.3764762  24.6013132  42.2223004  36.5719451  11.8337875
  42.4748524  36.0500973  11.0721338  41.2847563  36.4085597  11.9364558
  47.2666286  35.5755230  19.6412618  48.0529376  35.1574653  19.2903035
  47.5304991  36.4801322  19.8094266  47.4376364  41.0128080  14.3401275
  46.8022197  41.0862707  15.0522180  47.1073770  41.6021679  13.6620354
  52.6674714  35.5130463  20.5445597  53.3999886  34.9429680  20.7783426
  51.9114069  35.1252063  20.9852102  41.9419292  38.4747557  14.0362250
  41.8255550  37.7992461  14.7043334  42.0521552  37.9879931  13.2194403
  44.2850833  37.9357704  17.7408939  43.9209041  37.4088325  18.4521861
  45.1417949  37.5456174  17.5675424  50.1900134  29.2252037  25.0040205
  49.8583459  30.0947448  24.7801420  49.5945747  28.9088321  25.6834236
  43.9256320  32.9647604  12.7370288  44.0930723  33.8327841  13.1040759
  43.7353489  33.1274886  11.8131577  46.6831653  41.4264583  24.4036118
  46.3832377  42.3289622  24.2951925  46.3382713  41.1596766  25.2557271
  40.1344135  37.8778380  20.4372822  39.2094631  37.7454594  20.6450514
  40.3828548  38.6572599  20.9342765  50.0828797  33.9447123  22.0833555
  49.1745675  33.8762532  21.7892316  50.0316393  34.4219068  22.9115381
  43.9045541  35.4205262  13.7216954  43.7845166  35.8662312  14.5602435
  43.2098130  35.7690579  13.1630493  37.4952946  37.5211653  21.2716611
  37.6245327  37.7746132  22.1856023  36.8150397  38.1139361  20.9521266
  41.6652433  48.1908903  17.3707086  41.5876463  49.1416729  17.4495566
  41.0614077  47.8454776  18.0282012  44.1569663  35.3636769  30.0268453
  43.3802997  35.9230689  30.0171317  44.7960226  35.8493552  30.5483323
  51.9490444  32.1463562  23.8611429  51.3064824  32.4396095  23.2151224
  51.4445372  32.0316482  24.6664626  49.6030607  35.8926735  14.5497288
  50.5148463  36.1254122  14.3744986  49.0940254  36.4763779  13.9872367
  42.4116035  38.1722222  29.5886420  43.1530720  38.7107266  29.3121243
  41.7053021  38.7988511  29.7457971  47.8871375  40.3151363  28.1858581
  48.2954731  39.8733773  27.4413213  47.1648636  39.7403990  28.4392774
  44.2402445  35.2523969  25.5592138  45.0863640  35.6763383  25.7026787
  44.1801083  34.5957594  26.2530701  48.2100190  40.8752553  21.9410870
  47.5809052  41.0398267  21.2386938  47.8225852  41.2894163  22.7121834
  52.0889422  41.8106991  19.2955234  51.4040460  42.1905893  18.7452267
  52.1733271  42.4202318  20.0287181  47.3901890  32.9128338  27.2173312
  47.1462822  33.6670398  26.6807587  47.6661821  33.2913685  28.0520559
  49.3440353  39.4566950  25.8950577  49.5557248  40.0998710  25.2184958
  49.2970101  38.6229267  25.4272507  46.9466582  32.0684771  22.7987149
  46.0851061  32.3666024  23.0903887  46.9729017  32.2855170  21.8668182
  43.7628151  40.6126961  19.2060955  44.2266497  40.8914664  18.4165577
  43.4984950  39.7110406  19.0234046  40.6552233  40.1598443  22.1440718
  41.2253590  40.5885711  21.5058203  41.2460344  39.8781028  22.8424904
  42.6997038  36.7350114  16.0150520  43.4021081  37.1871157  16.4824446
  42.3677666  36.0933933  16.6430413  41.1477399  35.3261870  30.3901730
  40.5176060  36.0078151  30.6237126  41.0413487  35.2144952  29.4454868
  36.4422372  34.9933666  21.3167654  35.6521425  35.2491195  20.8407764
  36.9333619  35.8082004  21.4219694  50.4586181  42.3338906  24.0672935
  51.2803625  41.9319093  23.7855616  50.4548584  42.2307140  25.0189050
  38.3937117  35.3578246  18.2751130  37.5968280  35.4696940  18.7934626
  38.1662709  35.6964898  17.4092021  44.2242785  41.8822949  26.2233645
  44.2887217  42.3443356  27.0591817  43.5153708  41.2520314  26.3515955
  34.7260074  35.2464157  23.7482644  34.9768113  36.1311167  24.0140220
  35.2619623  35.0668758  22.9757736  58.5492174  38.6777654  20.4157906
  57.7955883  38.1085052  20.2601910  58.6839715  38.6440319  21.3628541
  43.9390802  43.5491056  16.0912625  43.8036477  44.3942592  16.5197473
  44.4800615  43.7510334  15.3278559  40.4258142  29.6282636  32.7526981
  40.0325087  29.0748835  33.4274625  41.2424282  29.9393215  33.1433498
  37.3920200  41.0666494  16.6640550  37.9044720  41.8609745  16.8146115
  38.0442912  40.3692785  16.5974152  39.2015084  44.1832251  18.7463304
  39.3781713  45.1050215  18.5584288  39.9971918  43.8690670  19.1757683
  43.3426103  31.0440515  30.3447237  44.0835816  31.6447668  30.2651700
  43.5744026  30.3018153  29.7865280  38.4867441  36.2296883  28.6225467
  38.3720956  35.3282140  28.9232566  37.6311959  36.4760579  28.2710283
  45.5659279  44.1714623  30.2212967  45.1223133  43.3851001  29.9033872
  46.2276492  44.3593773  29.5556858  40.3246400  45.7010425  24.7473646
  40.8753825  45.5727488  23.9750640  39.4857876  46.0005314  24.3968539
  47.6640517  44.4517423  28.2494369  47.6458992  45.2726304  27.7574638
  48.5860437  44.3271498  28.4744510  44.1213571  41.9661552  29.0917877
  44.6541908  41.2049841  28.8617185  43.5927652  41.6735204  29.8342032
  47.2883266  27.0721618  24.6211519  46.9447535  27.9623260  24.5450629
  47.6562228  26.8823276  23.7581104  35.3569116  39.3955149  17.4400121
  36.1944338  39.8052157  17.2233829  35.5347384  38.4554591  17.4100315
  47.2533548  37.0630229  13.1283954  46.7380172  37.8334834  13.3672341
  46.9810857  36.3895366  13.7517015  44.8380659  31.9079930  18.1869192
  43.9822256  31.5186781  18.0074831  45.2507611  31.9871891  17.3268978
  46.3679806  29.4426273  22.5860752  45.8644602  29.4056409  21.7728557
  46.6610413  30.3519016  22.6457409  42.6122692  29.5265003  21.5926934
  43.4775689  29.3307812  21.2332823  42.6800201  29.2975355  22.5196291
  52.2267823  39.8162584  15.0637127  51.4497265  39.4773744  14.6192289
  52.9059304  39.8215207  14.3892092  47.0419852  34.9357321  14.9543735
  46.7369987  35.2503471  15.8053878  47.9950294  35.0138741  14.9971068
  45.4866283  41.0947545  16.6036689  44.9587645  40.3600304  16.2909927
  44.9853786  41.8722221  16.3576657  50.4659130  39.2896565  21.7203735
  49.8082804  39.9795827  21.8083864  51.2699529  39.6792997  22.0637722
  40.2185011  31.7567211  18.9643301  40.7928763  31.5342393  18.2316494
  40.8055994  31.8255906  19.7171902  49.2764588  37.6440938  19.7707677
  49.7896470  38.2770930  20.2729387  49.9265812  37.0442133  19.4051037
  40.5454598  33.7871672  12.9839186  39.7091910  34.1246359  13.3048461
  40.4059368  33.6520652  12.0466323  42.5207679  28.6308460  17.6918370
  41.8672091  28.3157477  17.0674985  42.4788153  28.0084200  18.4178193
  43.6318884  38.9127755   9.6071662  42.7245945  38.6817009   9.8062811
  44.1289916  38.1165374   9.7945644  46.5386963  47.6225262  12.5268348
  45.8648661  47.9256959  13.1353306  46.9252785  48.4254343  12.1773805
  45.7545419  35.1190394  22.0166018  44.8367981  35.3405341  21.8587706
  46.1705563  35.1936704  21.1577725  46.5380467  36.5181809  17.1468698
  47.2852286  37.0303206  16.8375820  46.8072056  36.1965862  18.0073091
  44.8107117  39.0140350  14.1295652  43.9018336  38.7299383  14.2268122
  44.8402201  39.4339428  13.2698959  50.0426385  42.6246939  17.8986820
  49.5888712  41.7837849  17.9552010  49.4120351  43.2608338  18.2361600
  48.9859304  33.5538925  19.1287487  48.2482061  33.0416312  19.4597730
  49.2386078  33.1139307  18.3170764  48.4859324  44.4623436  18.8336638
  48.7782298  45.0228493  18.1149004  48.9957944  44.7551997  19.5889797
  49.0870931  26.3315177  19.7229256  49.3929808  25.4712541  19.4355172
  49.8123536  26.9232798  19.5228250  35.3795287  36.7345864  18.1110854
  35.1819687  36.1415225  17.3861921  34.8241951  36.4298074  18.8286793
  43.3592011  36.6268971  20.2305448  43.4140621  35.6742807  20.1547924
  42.5483213  36.7828410  20.7146746  44.5083205  40.5549094  11.4683731
  44.0702635  39.8384953  11.0089368  45.2493646  40.7825208  10.9068822
  41.2984371  35.2446030  17.9895826  40.4852237  35.5440201  18.3961019
  41.7943365  34.8501719  18.7070309  43.4492949  45.2403787  19.9230091
  43.4069128  45.4664634  18.9938623  44.3655648  45.0067162  20.0715892
  46.8958583  35.7087855  26.8210720  47.2507970  35.9359328  27.6805186
  47.5430714  36.0406232  26.1987976  52.6256320  38.8306291  17.5260049
  52.4874218  39.0207887  16.5981239  52.2692538  39.5925673  17.9828100
  40.7898446  32.8164386  23.6057061  41.4297825  32.6753145  22.9080025
  39.9575976  32.5298899  23.2295663  52.6525699  40.8982818  22.5371321
  53.0862206  40.8058107  23.3854375  53.3657280  40.8740318  21.8991337
  41.5658750  42.1166816  19.7192054  42.3599348  41.6217136  19.5174629
  40.8550442  41.5884679  19.3559759  46.3853594  44.4984912  24.0704421
  46.4390616  45.0675848  24.8382137  45.5168376  44.6686797  23.7058459
  37.8741513  36.2609898  15.7951807  36.9439101  36.1994353  16.0121769
  37.9698985  35.7385851  14.9988448  37.7927062  32.7864711  18.3830048
  38.0533880  33.7010044  18.2739209  38.6144235  32.3189153  18.5326661
  39.2651988  34.2002468  25.5528873  39.9375041  33.9919830  24.9041522
  38.4381774  34.0024554  25.1134105  53.5141249  40.9406518  25.0704206
  53.7077139  41.8452329  25.3163481  53.4141867  40.4813937  25.9042791
  45.1677560  30.8264409  27.5694534  44.5205475  31.5254359  27.4759010
  45.9378575  31.2600553  27.9370782  48.5756358  41.0913261  30.6445087
  48.4241864  40.8623813  29.7275171  48.5661037  42.0483862  30.6576432
  45.3441694  38.6645174  25.6291353  46.2733754  38.8156333  25.4560321
  44.9232724  38.7529195  24.7740000  44.1430026  42.6895838  23.3989891
  44.0041111  42.3214623  24.2715829  43.3544622  43.2043478  23.2273849
  44.7378178  47.7904935  14.7415427  44.9129933  47.3192978  15.5561050
  44.0510966  48.4170701  14.9696688  45.6935241  42.0677441  20.7878729
  45.3585073  42.0278211  21.6836379  45.1939187  41.4022157  20.3149139
  39.6679485  37.4745071  26.3131310  39.5299283  36.7425310  26.9142849
  40.5784408  37.3853971  26.0315498  48.6294433  39.4133475  11.0615788
  48.0123603  38.6880303  10.9648841  48.1610921  40.1742836  10.7182863
  42.2961785  37.1865030  25.8014990  43.0061404  36.5458222  25.7601608
  42.2531094  37.4377925  26.7241170  50.2848564  44.1232384  28.7221569
  50.2261110  43.4391604  28.0552152  50.6868083  44.8651374  28.2702195
  41.0090719  34.1730248  27.6210629  40.4728076  33.7220987  28.2732225
  40.4207428  34.3076157  26.8781093  39.3039263  50.9394297  21.5155288
  39.5435861  51.5712822  22.1934306  38.4608459  50.5882337  21.8020647
  50.2865971  42.0871968  26.9535548  49.3992750  41.7497889  27.0761947
  50.8564523  41.3554999  27.1904314  31.9395119  38.4196059  20.2778600
  32.6266158  38.1057789  19.6899615  31.7843247  39.3237424  20.0045851
  36.7429841  33.3086256  24.7063623  36.6588029  32.7011925  23.9714033
  35.9212547  33.7995274  24.7073120  43.8167125  46.7473420  23.9196792
  43.7437296  47.5528391  24.4316096  43.3744518  46.9465386  23.0944813
  43.6056904  45.9845190  17.4299613  42.8224426  46.5266870  17.5237838
  44.3049650  46.5019170  17.8293854  46.9153555  31.7939819  20.0733819
  47.4122254  31.0409782  19.7534889  46.1440536  31.8304136  19.5077028
  54.7683312  37.4980185  21.7152110  54.7573188  38.3804900  21.3446043
  53.9000691  37.1451736  21.5206647  46.2765808  46.6460254  26.0754950
  46.9893781  47.2807719  26.0030852  45.7855837  46.7424120  25.2594952
  47.9983335  40.5511507  17.6472242  47.0639614  40.6712969  17.4776946
  48.1760004  39.6483973  17.3832252  43.4988523  33.9357202  19.8005503
  43.1286311  33.3828243  20.4886409  43.9947616  33.3315336  19.2480503
  51.3855887  36.3928826  18.1822276  51.8516339  37.2256817  18.1082579
  51.8363387  35.9273807  18.8867535  41.3277722  44.3954697  26.8960521
  42.0287181  45.0291180  27.0489915  40.8572837  44.7369429  26.1356160
  49.4532118  42.7372647  15.1808428  49.7291962  42.6229242  16.0902302
  48.5836616  42.3390132  15.1420601  49.3572549  28.7609413  22.2213177
  48.4435629  28.9913640  22.3895384  49.7865651  28.8447857  23.0727210
  49.1279008  36.9499305  24.7213071  48.4750458  37.1975212  24.0665524
  49.5059388  36.1363443  24.3875549  46.0886182  46.9858998  18.8241242
  46.2708576  46.1680654  19.2868994  46.9119168  47.2026690  18.3866132
  46.4228347  45.9127183  16.0856290  46.9516114  45.4019638  15.4726452
  46.6856567  45.5969713  16.9501823  45.1766581  37.6919116  31.2079109
  44.5007218  37.5913245  31.8781484  45.9994215  37.5358330  31.6715106
  36.9245440  43.9291052  23.8291624  37.5098877  43.1834740  23.9619528
  36.7270278  44.2395009  24.7128288  39.7784095  46.9642300  18.8454066
  39.1094470  47.4488427  18.3618106  39.6396965  47.2111520  19.7597445
  31.5163095  36.4996653  22.5496067  31.5547194  35.9660243  23.3433185
  31.0103388  35.9731858  21.9307044  43.9189364  48.9986043  25.4436725
  44.4707672  49.1617665  26.2085810  44.2595557  49.5890481  24.7716749
  38.8953857  31.3461193  26.0458609  38.9595183  32.2076024  25.6336007
  38.8320977  30.7335195  25.3130968  38.3706130  33.4184326  29.6931643
  38.9978168  33.0361403  30.3069168  37.5134048  33.1998528  30.0587336
  48.7700238  43.8247301  31.2985379  49.3140142  44.4377259  30.8040334
  48.1887083  44.3826879  31.8152392  35.1471672  35.2260755  15.6249998
  35.4425113  34.3171433  15.5717052  34.2459708  35.2048494  15.3031001
  47.0557751  46.9468019  22.4300407  46.9308890  46.1457759  21.9211352
  47.7136842  47.4414212  21.9414377  38.6765919  33.3016751  21.6077547
  37.9552505  33.9152719  21.4685020  39.4659175  33.8374516  21.5294193
  49.1192659  44.7477039  24.0579957  48.1722995  44.6282390  23.9858283
  49.4675433  43.8599537  24.1406218  41.4792233  30.6371178  27.8818199
  42.0026635  30.8833474  28.6444508  41.2604566  31.4691213  27.4621336
  36.8759514  32.9074852  15.7489323  36.5472220  32.0272231  15.5664429
  37.2298885  32.8522521  16.6365713  46.1239093  44.5429755  20.2584309
  45.9764055  43.6146463  20.4391879  46.9492586  44.5649846  19.7741384
  39.9901337  33.1947822  16.1164801  40.3297410  33.7233744  15.3943409
  40.4373457  33.5328228  16.8923368  49.7273215  45.3658314  21.3449182
  50.6519762  45.1601175  21.2073633  49.5588518  45.1174715  22.2538523
  42.6844778  31.5784873  25.5667869  42.3441598  30.7792686  25.9688549
  41.9783784  31.8786584  24.9944702  43.3361250  28.6634185  24.0195192
  44.1587319  28.1894664  23.8974083  43.5799313  29.4424669  24.5193879
  41.9769484  31.6922444  14.3158094  42.6977847  32.0703697  13.8121811
  41.3534788  32.4111321  14.4193072  46.1200607  32.3967593  15.2516426
  46.3364221  33.2792231  14.9505254  45.6394674  32.0053806  14.5222068
  40.8599828  35.3553306  21.8287171  40.7144409  35.6693609  22.7211452
  40.3825032  35.9738206  21.2758069  42.7196211  32.3455854  21.8768060
  42.7057780  31.4496947  21.5400358  43.4368639  32.3526518  22.5106346
  44.5722342  32.7793194  23.9221188  44.3140120  33.7010265  23.9205518
  44.0407382  32.3823629  24.6121652  49.5168531  45.8843981  16.7011273
  49.6905408  45.3190404  15.9485126  50.0097422  46.6844876  16.5190763
  35.3345491  37.8958650  24.7674832  34.7898959  38.6718458  24.8995106
  36.2124840  38.2429455  24.6093953  42.1233107  31.2270234  17.1455631
  42.2449018  30.2986880  17.3446518  41.8335150  31.2408920  16.2333946
  44.9924298  28.9125145  20.2822350  45.0145994  28.9764478  19.3274330
  45.4092357  28.0729653  20.4762857  55.3707922  38.6480404  18.3201573
  55.8139068  37.8987729  17.9220696  54.4934432  38.6390541  17.9375305
  50.5043703  45.2010746  13.8008171  51.1994608  45.8217438  14.0195486
  50.8466853  44.3506097  14.0760549  36.1211512  37.0228547  27.6604989
  35.3793248  37.1711182  28.2469619  35.8004257  37.2836812  26.7971738
  52.4035126  42.6510451  15.3295502  52.9286450  42.9897724  14.6044822
  52.3157479  41.7157467  15.1458637  44.0655175  46.5644525  27.4585379
  44.3742302  46.3193672  28.3308078  44.8630657  46.7691163  26.9704249
  44.0875787  48.7182435  19.6890755  43.6480777  48.2258813  20.3823612
  44.8383904  48.1755402  19.4482831  36.5668126  44.9093975  19.6915384
  37.3926146  44.6097747  19.3114027  36.2162178  44.1401598  20.1405172
  41.5349659  44.2620444  21.7613057  40.9129669  43.5991149  21.4615285
  42.2054526  44.2881576  21.0786705  34.7676731  42.8280302  20.6504317
  33.9308639  42.4002476  20.4688318  34.7400377  43.0212745  21.5875108
  41.6074187  32.7402232  31.3545563  41.6562342  33.6164354  30.9723333
  42.1496701  32.1979625  30.7817206  52.0929032  43.2843355  30.6346700
  51.3024576  43.2667494  30.0951200  51.8562387  43.8231649  31.3895737
  52.2126907  40.1335821  27.9479429  52.2624912  39.9685829  28.8894952
  52.1040831  39.2663080  27.5577310  41.0963166  42.8124367  15.2371518
  41.2451287  43.4959831  14.5838190  41.9029610  42.7929457  15.7520973
  49.5030670  36.1166749  29.2638735  50.4040533  35.9773214  28.9722733
  49.5778644  36.2821204  30.2036913  43.8373475  33.4933604  28.1091922
  42.9676785  33.7867170  27.8374510  44.0732956  34.0774049  28.8299185
  53.7145104  42.5532763  28.1921450  53.4229913  42.9162743  29.0284911
  53.1017236  41.8399771  28.0134782  54.9140787  40.1185643  20.7124021
  55.7487678  40.5575447  20.8761581  55.0499915  39.6424296  19.8932266
  51.9632293  37.6765377  26.6601508  52.4386414  37.8693024  25.8520360
  51.0397858  37.7324563  26.4144892  38.8515799  38.8389545  16.2432587
  38.6061841  37.9351875  16.4412797  39.0211714  38.8406695  15.3012065
  46.5412509  29.7113221  25.6257342  47.0594453  30.4474248  25.3003831
  46.1867642  30.0177214  26.4604101  38.1211447  34.5717902  13.7418748
  37.4280692  34.6462257  13.0858784  37.8763199  33.8078246  14.2640265
  46.7925103  26.1313504  21.1458239  47.0726857  25.4636693  21.7718665
  47.5775710  26.3242599  20.6332903  44.5958572  45.3072497  12.7083265
  44.0232539  45.9262685  12.2553737  45.1691365  45.8571859  13.2423187
  50.6633962  34.5531138  24.8929814  51.6151384  34.6529235  24.9142038
  50.4937412  33.7609406  25.4027898  48.6848341  31.6386721  25.0789215
  48.0898273  31.9191733  24.3835703  48.3998038  32.1280622  25.8505956
  47.8155831  45.5909648  13.8391847  48.7486505  45.5255209  14.0424723
  47.7279044  46.4265914  13.3806380  50.4443848  44.9075518  10.7995795
  50.3657480  44.5735382  11.6931553  51.2653515  45.3997286  10.7987267
  53.1422039  37.7737257  24.0072114  53.1098359  36.8353258  24.1931797
  53.7522663  37.8521294  23.2737938  44.9805370  36.6433310  10.0499318
  45.9264475  36.5139518  10.1187736  44.6019615  35.9047972  10.5268746
  53.2916528  34.5648301  24.0530397  52.7755576  33.7806757  23.8660326
  54.1756476  34.2367017  24.2176916  50.9527255  28.3089316  20.0126209
  50.7552076  28.0004404  20.8969541  51.5626960  29.0350955  20.1424139
  58.9598589  38.8353264  23.1478150  59.6901978  38.5738552  23.7085854
  58.3505535  38.0981986  23.1880218  57.0413886  36.9761127  23.7452602
  56.3147050  36.8417092  23.1369093  56.6261173  37.2837955  24.5509320
  44.8644063  40.6951056  31.5099975  45.7847072  40.8729655  31.7040021
  44.8293646  39.7507102  31.3579674  34.0826228  35.8889650  20.4353249
  33.7629012  35.0354958  20.1427623  33.5359656  36.1038228  21.1911217
  37.8606135  38.6052091  24.1522756  38.0792145  39.5369199  24.1710790
  38.2731909  38.2460065  24.9377560  44.7810353  29.1120176  16.1398444
  43.9711081  28.7667261  16.5153690  45.4694770  28.8027720  16.7286056
  46.7100901  28.1898223  17.7622741  47.2631940  28.6093677  18.4212764
  46.9470988  27.2633971  17.8045697  42.7334001  34.1785297  33.5425505
  42.6330728  35.1279654  33.4737596  42.5155543  33.8503536  32.6701575
  33.9514488  39.5092561  22.4046371  33.2577959  39.0946514  21.8916325
  34.6987479  39.5513098  21.8079790  50.0879708  30.2998748  17.2701405
  49.5078378  30.9583552  16.8879457  49.8215641  29.4776093  16.8588822
  48.5383275  29.7003806  19.4722725  49.0383053  29.8120340  18.6637044
  49.1818883  29.3964859  20.1123534  42.5965271  37.6082436  32.3590566
  42.1132352  38.4082796  32.5654455  42.6826210  37.6190380  31.4058010
  35.8651230  39.4410815  20.2812386  35.8421918  39.5398503  19.3294269
  36.1751867  40.2875966  20.6029552  38.5238608  41.4986970  24.3959000
  39.4781862  41.4670913  24.3288932  38.3251132  41.0377594  25.2109226
  39.1137990  40.0688086  26.9629798  39.9330879  40.5632165  26.9864635
  39.3874798  39.1520054  26.9347365  48.8704586  32.4598839  16.3257753
  47.9830442  32.7448489  16.1077948  49.2858576  32.2992602  15.4785030
  52.2219123  32.4845360  20.0412092  52.9979513  32.9741812  20.3136709
  51.4967257  32.9103414  20.4983962  54.6591681  33.1972979  21.0986033
  55.2536172  32.9568715  20.3879341  54.7318265  32.4780109  21.7259569
  36.8788837  47.0406590  21.4129198  36.7443305  46.2806991  20.8467196
  36.4620899  47.7647490  20.9457987  48.0147800  42.2243513  10.4205773
  48.7183650  42.4293516  11.0363429  47.2910449  42.7920275  10.6854857
  48.8445610  37.9753375  16.5408043  48.7880812  38.4321926  15.7015676
  49.3973953  37.2144059  16.3630886  52.6550416  33.7643106  17.3658163
  52.3987350  33.3639742  18.1966371  52.0303284  34.4786900  17.2408302
  56.9662754  36.5039180  19.8729454  56.4062312  36.5732369  20.6461016
  56.3606257  36.3280164  19.1528951  40.0357963  47.9375907  21.6247641
  39.9190347  48.8821339  21.5226331  39.2150409  47.6349468  22.0133440
  49.9234497  42.6626043  12.4704233  50.7580101  42.2307241  12.2881708
  49.7618840  42.4908056  13.3981128  49.5780390  39.1658156  13.8360573
  49.5229193  39.0002427  12.8949017  48.9526445  39.8734189  13.9922762
  34.3672905  34.4026220  27.6621995  35.0131768  33.8925174  28.1509220
  34.1590056  35.1394902  28.2365420  46.8926297  41.4707068  33.1614135
  47.7617456  41.6447720  32.8000770  46.4133048  42.2901485  33.0389865
  42.8876515  28.6666265  13.4145891  42.8755185  29.6108105  13.5714162
  43.7799937  28.4836410  13.1205352  41.0612477  48.5904169  24.8403569
  41.9639724  48.6227779  25.1570064  40.8349847  47.6604620  24.8549905
  42.8166079  47.3435155  21.5013648  41.8661710  47.3437017  21.3878020
  43.1198565  46.5967890  20.9849682  46.7028634  25.2609041  17.6691828
  45.9361030  24.7067528  17.8148510  47.1139339  25.3330910  18.5305979
  38.7070396  31.5493837  31.7597009  39.5701857  31.1930642  31.9700334
  38.1335806  31.2107732  32.4472413  58.5518772  53.1795694  22.5659410
  59.1897182  53.0602441  21.8622750  58.4339615  54.1276538  22.6247362
  55.3608479  53.1323122  22.5020935  55.0226990  53.0164186  21.6141470
  56.2298247  52.7314287  22.4821941  51.2195294  54.9858598  18.4917826
  50.6560160  54.8948535  17.7234113  51.1047689  54.1658503  18.9720318
  48.7659726  56.4809790  21.3302046  49.5581018  56.1400614  20.9148345
  49.0056377  56.5904765  22.2504199  56.7994853  58.6529566  13.8032291
  56.1482833  59.2383646  13.4166304  57.5939216  59.1835761  13.8627328
  50.7250480  55.7418703  14.2019425  51.4981356  55.1947690  14.0632301
  51.0775879  56.6062952  14.4133886  53.4891730  54.4471934  23.9987684
  54.0855302  54.2227956  23.2844647  53.5466701  53.7056679  24.6013132
  53.0616758  51.9011369  11.8337875  53.3142279  51.3792890  11.0721338
  52.1241317  51.7377515  11.9364558  58.1060041  50.9047147  19.6412618
  58.8923130  50.4866571  19.2903035  58.3698745  51.8093240  19.8094266
  58.2770118  56.3419998  14.3401275  57.6415951  56.4154624  15.0522180
  57.9467525  56.9313597  13.6620354  63.5068468  50.8422381  20.5445597
  64.2393640  50.2721597  20.7783426  62.7507824  50.4543981  20.9852102
  52.7813047  53.8039475  14.0362250  52.6649305  53.1284378  14.7043334
  52.8915307  53.3171849  13.2194403  55.1244588  53.2649622  17.7408939
  54.7602795  52.7380243  18.4521861  55.9811704  52.8748091  17.5675424
  61.0293888  44.5543955  25.0040205  60.6977213  45.4239366  24.7801420
  60.4339502  44.2380239  25.6834236  54.7650075  48.2939522  12.7370288
  54.9324477  49.1619758  13.1040759  54.5747244  48.4566804  11.8131577
  57.5225408  56.7556501  24.4036118  57.2226131  57.6581540  24.2951925
  57.1776467  56.4888684  25.2557271  50.9737889  53.2070298  20.4372822
  50.0488386  53.0746512  20.6450514  51.2222303  53.9864517  20.9342765
  60.9222552  49.2739041  22.0833555  60.0139429  49.2054449  21.7892316
  60.8710148  49.7510986  22.9115381  54.7439296  50.7497179  13.7216954
  54.6238921  51.1954230  14.5602435  54.0491884  51.0982497  13.1630493
  48.3346700  52.8503571  21.2716611  48.4639082  53.1038050  22.1856023
  47.6544152  53.4431279  20.9521266  52.5046188  63.5200821  17.3707086
  52.4270217  64.4708646  17.4495566  51.9007831  63.1746694  18.0282012
  54.9963418  50.6928687  30.0268453  54.2196752  51.2522607  30.0171317
  55.6353981  51.1785470  30.5483323  62.7884198  47.4755479  23.8611429
  62.1458578  47.7688013  23.2151224  62.2839127  47.3608400  24.6664626
  60.4424362  51.2218653  14.5497288  61.3542218  51.4546039  14.3744986
  59.9334009  51.8055697  13.9872367  53.2509790  53.5014140  29.5886420
  53.9924474  54.0399184  29.3121243  52.5446775  54.1280429  29.7457971
  55.0796200  50.5815887  25.5592138  55.9257395  51.0055301  25.7026787
  55.0194837  49.9249511  26.2530701  59.0493944  56.2044471  21.9410870
  58.4202807  56.3690185  21.2386938  58.6619606  56.6186081  22.7121834
  62.9283176  57.1398909  19.2955234  62.2434214  57.5197810  18.7452267
  63.0127025  57.7494236  20.0287181  58.2295645  48.2420256  27.2173312
  57.9856577  48.9962316  26.6807587  58.5055575  48.6205603  28.0520559
  57.7860337  47.3976689  22.7987149  56.9244816  47.6957942  23.0903887
  57.8122771  47.6147087  21.8668182  54.6021906  55.9418879  19.2060955
  55.0660252  56.2206582  18.4165577  54.3378704  55.0402324  19.0234046
  51.4945987  55.4890361  22.1440718  52.0647344  55.9177629  21.5058203
  52.0854099  55.2072945  22.8424904  53.5390792  52.0642031  16.0150520
  54.2414835  52.5163075  16.4824446  53.2071421  51.4225850  16.6430413
  51.9871154  50.6553788  30.3901730  51.3569814  51.3370069  30.6237126
  51.8807241  50.5436870  29.4454868  47.2816126  50.3225584  21.3167654
  46.4915180  50.5783113  20.8407764  47.7727373  51.1373922  21.4219694
  61.2979936  57.6630823  24.0672935  62.1197379  57.2611011  23.7855616
  61.2942338  57.5599057  25.0189050  49.2330871  50.6870163  18.2751130
  48.4362035  50.7988858  18.7934626  49.0056464  51.0256816  17.4092021
  45.5653829  50.5756075  23.7482644  45.8161867  51.4603084  24.0140220
  46.1013377  50.3960676  22.9757736  69.3885929  54.0069572  20.4157906
  68.6349637  53.4376970  20.2601910  69.5233470  53.9732236  21.3628541
  54.7784557  58.8782974  16.0912625  54.6430231  59.7234510  16.5197473
  55.3194369  59.0802252  15.3278559  51.2651896  44.9574554  32.7526981
  50.8718842  44.4040752  33.4274625  52.0818037  45.2685132  33.1433498
  48.2313954  56.3958412  16.6640550  48.7438475  57.1901662  16.8146115
  48.8836667  55.6984703  16.5974152  50.0408839  59.5124168  18.7463304
  50.2175467  60.4342133  18.5584288  50.8365672  59.1982588  19.1757683
  54.1819857  46.3732433  30.3447237  54.9229571  46.9739586  30.2651700
  54.4137780  45.6310071  29.7865280  49.3261195  51.5588800  28.6225467
  49.2114710  50.6574058  28.9232566  48.4705713  51.8052497  28.2710283
  51.1640154  61.0302342  24.7473646  51.7147579  60.9019406  23.9750640
  50.3251630  61.3297231  24.3968539  58.1277020  42.4013536  24.6211519
  57.7841290  43.2915178  24.5450629  58.4955983  42.2115194  23.7581104
  46.1962871  54.7247066  17.4400121  47.0338093  55.1344075  17.2233829
  46.3741139  53.7846509  17.4100315  58.0927303  52.3922147  13.1283954
  57.5773926  53.1626752  13.3672341  57.8204611  51.7187283  13.7517015
  55.6774414  47.2371848  18.1869192  54.8216010  46.8478698  18.0074831
  56.0901366  47.3163809  17.3268978  57.2073561  44.7718191  22.5860752
  56.7038356  44.7348326  21.7728557  57.5004167  45.6810934  22.6457409
  53.4516447  44.8556921  21.5926934  54.3169443  44.6599730  21.2332823
  53.5193955  44.6267273  22.5196291  63.0661577  55.1454502  15.0637127
  62.2891020  54.8065661  14.6192289  63.7453058  55.1507125  14.3892092
  57.8813606  50.2649239  14.9543735  57.5763742  50.5795388  15.8053878
  58.8344048  50.3430659  14.9971068  56.3260038  56.4239462  16.6036689
  55.7981400  55.6892222  16.2909927  55.8247541  57.2014139  16.3576657
  61.3052884  54.6188483  21.7203735  60.6476558  55.3087744  21.8083864
  62.1093283  55.0084915  22.0637722  51.0578766  47.0859129  18.9643301
  51.6322517  46.8634310  18.2316494  51.6449748  47.1547823  19.7171902
  60.1158343  52.9732856  19.7707677  60.6290225  53.6062847  20.2729387
  60.7659567  52.3734051  19.4051037  51.3848353  49.1163590  12.9839186
  50.5485665  49.4538276  13.3048461  51.2453122  48.9812570  12.0466323
  53.3601433  43.9600378  17.6918370  52.7065846  43.6449395  17.0674985
  53.3181907  43.3376118  18.4178193  54.4712638  54.2419673   9.6071662
  53.5639700  54.0108926   9.8062811  54.9683670  53.4457292   9.7945644
  57.3780717  62.9517180  12.5268348  56.7042416  63.2548877  13.1353306
  57.7646539  63.7546260  12.1773805  56.5939174  50.4482311  22.0166018
  55.6761735  50.6697258  21.8587706  57.0099317  50.5228622  21.1577725
  57.3774221  51.8473727  17.1468698  58.1246040  52.3595124  16.8375820
  57.6465811  51.5257780  18.0073091  55.6500872  54.3432268  14.1295652
  54.7412091  54.0591300  14.2268122  55.6795955  54.7631346  13.2698959
  60.8820139  57.9538857  17.8986820  60.4282466  57.1129767  17.9552010
  60.2514106  58.5900255  18.2361600  59.8253059  48.8830843  19.1287487
  59.0875815  48.3708229  19.4597730  60.0779832  48.4431225  18.3170764
  59.3253078  59.7915354  18.8336638  59.6176053  60.3520411  18.1149004
  59.8351699  60.0843915  19.5889797  59.9264686  41.6607095  19.7229256
  60.2323563  40.8004459  19.4355172  60.6517291  42.2524715  19.5228250
  46.2189042  52.0637782  18.1110854  46.0213442  51.4707142  17.3861921
  45.6635706  51.7589992  18.8286793  54.1985766  51.9560888  20.2305448
  54.2534375  51.0034725  20.1547924  53.3876968  52.1120327  20.7146746
  55.3476959  55.8841011  11.4683731  54.9096389  55.1676870  11.0089368
  56.0887400  56.1117126  10.9068822  52.1378126  50.5737948  17.9895826
  51.3245991  50.8732119  18.3961019  52.6337120  50.1793637  18.7070309
  54.2886703  60.5695705  19.9230091  54.2462882  60.7956551  18.9938623
  55.2049402  60.3359079  20.0715892  57.7352337  51.0379772  26.8210720
  58.0901725  51.2651246  27.6805186  58.3824468  51.3698149  26.1987976
  63.4650074  54.1598208  17.5260049  63.3267973  54.3499804  16.5981239
  63.1086293  54.9217591  17.9828100  51.6292200  48.1456303  23.6057061
  52.2691580  48.0045063  22.9080025  50.7969731  47.8590817  23.2295663
  63.4919454  56.2274735  22.5371321  63.9255960  56.1350024  23.3854375
  64.2051034  56.2032236  21.8991337  52.4052504  57.4458734  19.7192054
  53.1993103  56.9509054  19.5174629  51.6944197  56.9176597  19.3559759
  57.2247349  59.8276829  24.0704421  57.2784371  60.3967766  24.8382137
  56.3562130  59.9978714  23.7058459  48.7135268  51.5901816  15.7951807
  47.7832856  51.5286271  16.0121769  48.8092740  51.0677768  14.9988448
  48.6320817  48.1156628  18.3830048  48.8927634  49.0301962  18.2739209
  49.4537989  47.6481071  18.5326661  50.1045742  49.5294386  25.5528873
  50.7768795  49.3211748  24.9041522  49.2775529  49.3316472  25.1134105
  56.0071314  46.1556327  27.5694534  55.3599229  46.8546276  27.4759010
  56.7772329  46.5892470  27.9370782  56.1835448  53.9937091  25.6291353
  57.1127508  54.1448251  25.4560321  55.7626478  54.0821112  24.7740000
  54.9823780  58.0187756  23.3989891  54.8434866  57.6506540  24.2715829
  54.1938376  58.5335395  23.2273849  55.5771932  63.1196852  14.7415427
  55.7523688  62.6484896  15.5561050  54.8904720  63.7462619  14.9696688
  56.5328995  57.3969359  20.7878729  56.1978828  57.3570129  21.6836379
  56.0332941  56.7314075  20.3149139  50.5073239  52.8036989  26.3131310
  50.3693037  52.0717227  26.9142849  51.4178163  52.7145889  26.0315498
  59.4688187  54.7425393  11.0615788  58.8517358  54.0172221  10.9648841
  59.0004675  55.5034753  10.7182863  53.1355540  52.5156948  25.8014990
  53.8455159  51.8750140  25.7601608  53.0924848  52.7669843  26.7241170
  51.8484474  49.5022166  27.6210629  51.3121831  49.0512904  28.2732225
  51.2601182  49.6368075  26.8781093  50.1433017  66.2686215  21.5155288
  50.3829616  66.9004739  22.1934306  49.3002214  65.9174255  21.8020647
  51.2586733  48.9610817  10.1837093  50.3816199  48.8399618   9.8199339
  51.7344486  48.1696896   9.9315981  42.7788873  53.7487977  20.2778600
  43.4659913  53.4349707  19.6899615  42.6237002  54.6529342  20.0045851
  47.5823595  48.6378174  24.7063623  47.4981784  48.0303843  23.9714033
  46.7606302  49.1287192  24.7073120  54.6560879  62.0765338  23.9196792
  54.5831051  62.8820309  24.4316096  54.2138272  62.2757303  23.0944813
  54.4450659  61.3137108  17.4299613  53.6618181  61.8558788  17.5237838
  55.1443404  61.8311087  17.8293854  57.7547309  47.1231737  20.0733819
  58.2516009  46.3701699  19.7534889  56.9834291  47.1596054  19.5077028
  65.6077066  52.8272103  21.7152110  65.5966943  53.7096818  21.3446043
  64.7394446  52.4743653  21.5206647  57.1159563  61.9752172  26.0754950
  57.8287535  62.6099636  26.0030852  56.6249591  62.0716038  25.2594952
  58.8377090  55.8803424  17.6472242  57.9033368  56.0004887  17.4776946
  59.0153758  54.9775891  17.3832252  54.3382278  49.2649120  19.8005503
  53.9680065  48.7120160  20.4886409  54.8341370  48.6607254  19.2480503
  62.2249641  51.7220744  18.1822276  62.6910093  52.5548735  18.1082579
  62.6757142  51.2565725  18.8867535  52.1671476  59.7246615  26.8960521
  52.8680936  60.3583098  27.0489915  51.6966591  60.0661347  26.1356160
  60.2925872  58.0664565  15.1808428  60.5685716  57.9521159  16.0902302
  59.4230371  57.6682050  15.1420601  60.1966304  44.0901331  22.2213177
  59.2829384  44.3205557  22.3895384  60.6259405  44.1739775  23.0727210
  59.9672762  52.2791223  24.7213071  59.3144213  52.5267130  24.0665524
  60.3453142  51.4655361  24.3875549  56.9279936  62.3150916  18.8241242
  57.1102331  61.4972572  19.2868994  57.7512922  62.5318608  18.3866132
  57.2622102  61.2419101  16.0856290  57.7909868  60.7311555  15.4726452
  57.5250321  60.9261631  16.9501823  47.7639194  59.2582970  23.8291624
  48.3492631  58.5126658  23.9619528  47.5664033  59.5686927  24.7128288
  50.6177850  62.2934217  18.8454066  49.9488225  62.7780345  18.3618106
  50.4790719  62.5403438  19.7597445  42.3556849  51.8288570  22.5496067
  42.3940949  51.2952161  23.3433185  41.8497142  51.3023776  21.9307044
  54.7583118  64.3277961  25.4436725  55.3101426  64.4909583  26.2085810
  55.0989312  64.9182399  24.7716749  49.7347611  46.6753111  26.0458609
  49.7988938  47.5367942  25.6336007  49.6714732  46.0627112  25.3130968
  49.2099884  48.7476243  29.6931643  49.8371923  48.3653321  30.3069168
  48.3527803  48.5290445  30.0587336  45.9865427  50.5552672  15.6249998
  46.2818868  49.6463351  15.5717052  45.0853463  50.5340412  15.3031001
  57.8951506  62.2759937  22.4300407  57.7702645  61.4749676  21.9211352
  58.5530597  62.7706130  21.9414377  49.5159674  48.6308669  21.6077547
  48.7946260  49.2444637  21.4685020  50.3052930  49.1666434  21.5294193
  59.9586414  60.0768957  24.0579957  59.0116749  59.9574308  23.9858283
  60.3069187  59.1891455  24.1406218  52.3185987  45.9663096  27.8818199
  52.8420389  46.2125392  28.6444508  52.0998321  46.7983130  27.4621336
  47.7153268  48.2366770  15.7489323  47.3865974  47.3564149  15.5664429
  48.0692639  48.1814439  16.6365713  56.9632847  59.8721673  20.2584309
  56.8157810  58.9438380  20.4391879  57.7886341  59.8941764  19.7741384
  50.8295092  48.5239740  16.1164801  51.1691164  49.0525661  15.3943409
  51.2767212  48.8620146  16.8923368  60.5666969  60.6950232  21.3449182
  61.4913517  60.4893093  21.2073633  60.3982272  60.4466633  22.2538523
  53.5238532  46.9076791  25.5667869  53.1835353  46.1084604  25.9688549
  52.8177539  47.2078501  24.9944702  54.1755004  43.9926103  24.0195192
  54.9981073  43.5186581  23.8974083  54.4193068  44.7716587  24.5193879
  52.8163239  47.0214362  14.3158094  53.5371601  47.3995614  13.8121811
  52.1928543  47.7403238  14.4193072  56.9594362  47.7259510  15.2516426
  57.1757976  48.6084148  14.9505254  56.4788429  47.3345724  14.5222068
  51.6993583  50.6845224  21.8287171  51.5538164  50.9985527  22.7211452
  51.2218787  51.3030124  21.2758069  53.5589966  47.6747772  21.8768060
  53.5451535  46.7788865  21.5400358  54.2762394  47.6818435  22.5106346
  55.4116097  48.1085112  23.9221188  55.1533874  49.0302183  23.9205518
  54.8801137  47.7115546  24.6121652  60.3562285  61.2135899  16.7011273
  60.5299163  60.6482322  15.9485126  60.8491176  62.0136794  16.5190763
  46.1739245  53.2250568  24.7674832  45.6292713  54.0010376  24.8995106
  47.0518595  53.5721373  24.6093953  52.9626862  46.5562152  17.1455631
  53.0842773  45.6278798  17.3446518  52.6728904  46.5700838  16.2333946
  55.8318052  44.2417062  20.2822350  55.8539749  44.3056396  19.3274330
  56.2486111  43.4021571  20.4762857  66.2101676  53.9772322  18.3201573
  66.6532822  53.2279647  17.9220696  65.3328187  53.9682458  17.9375305
  61.3437458  60.5302663  13.8008171  62.0388362  61.1509356  14.0195486
  61.6860608  59.6798015  14.0760549  46.9605267  52.3520464  27.6604989
  46.2187003  52.5003100  28.2469619  46.6398011  52.6128730  26.7971738
  63.2428881  57.9802369  15.3295502  63.7680205  58.3189642  14.6044822
  63.1551233  57.0449384  15.1458637  54.9269542  64.0474352  19.6890755
  54.4874532  63.5550731  20.3823612  55.6777659  63.5047320  19.4482831
  47.4061881  60.2385893  19.6915384  48.2319901  59.9389665  19.3114027
  47.0555933  59.4693516  20.1405172  52.3743414  59.5912361  21.7613057
  51.7523423  58.9283066  21.4615285  53.0448281  59.6173493  21.0786705
  45.6070486  58.1572220  20.6504317  44.7702394  57.7294394  20.4688318
  45.5794131  58.3504663  21.5875108  52.4467941  48.0694149  31.3545563
  52.4956097  48.9456272  30.9723333  52.9890455  47.5271542  30.7817206
  51.9356921  58.1416285  15.2371518  52.0845041  58.8251749  14.5838190
  52.7423364  58.1221375  15.7520973  54.6767230  48.8225522  28.1091922
  53.8070539  49.1159088  27.8374510  54.9126710  49.4065967  28.8299185
  65.7534541  55.4477560  20.7124021  66.5881433  55.8867364  20.8761581
  65.8893670  54.9716213  19.8932266  49.6909554  54.1681462  16.2432587
  49.4455596  53.2643792  16.4412797  49.8605468  54.1698613  15.3012065
  57.3806264  45.0405139  25.6257342  57.8988207  45.7766166  25.3003831
  57.0261396  45.3469132  26.4604101  48.9605201  49.9009820  13.7418748
  48.2674446  49.9754175  13.0858784  48.7156953  49.1370164  14.2640265
  57.6318858  41.4605421  21.1458239  57.9120611  40.7928610  21.7718665
  58.4169465  41.6534517  20.6332903  55.4352326  60.6364415  12.7083265
  54.8626293  61.2554602  12.2553737  56.0085120  61.1863777  13.2423187
  61.5027716  49.8823055  24.8929814  62.4545139  49.9821153  24.9142038
  61.3331166  49.0901324  25.4027898  59.5242096  46.9678638  25.0789215
  58.9292028  47.2483651  24.3835703  59.2391792  47.4572539  25.8505956
  58.6549586  60.9201565  13.8391847  59.5880259  60.8547127  14.0424723
  58.5672799  61.7557832  13.3806380  61.2837603  60.2367436  10.7995795
  61.2051234  59.9027299  11.6931553  62.1047269  60.7289203  10.7987267
  63.9815794  53.1029175  24.0072114  63.9492114  52.1645176  24.1931797
  64.5916417  53.1813212  23.2737938  55.8199125  51.9725228  10.0499318
  56.7658229  51.8431436  10.1187736  55.4413370  51.2339890  10.5268746
  64.1310282  49.8940218  24.0530397  63.6149331  49.1098675  23.8660326
  65.0150231  49.5658935  24.2176916  61.7921009  43.6381234  20.0126209
  61.5945830  43.3296322  20.8969541  62.4020715  44.3642873  20.1424139
  54.0042042  49.8975204   9.9854203  53.0973497  49.6008317  10.0616916
  54.2818023  49.6005022   9.1188489  44.9219982  51.2181568  20.4353249
  44.6022767  50.3646876  20.1427623  44.3753410  51.4330146  21.1911217
  48.6999890  53.9344009  24.1522756  48.9185900  54.8661116  24.1710790
  49.1125664  53.5751983  24.9377560  55.6204108  44.4412094  16.1398444
  54.8104836  44.0959179  16.5153690  56.3088525  44.1319638  16.7286056
  57.5494656  43.5190141  17.7622741  58.1025694  43.9385594  18.4212764
  57.7864742  42.5925889  17.8045697  53.5727755  49.5077214  33.5425505
  53.4724482  50.4571571  33.4737596  53.3549297  49.1795453  32.6701575
  52.7740826  46.7562139  10.1266182  53.6359990  47.0817038  10.3861999
  52.9591171  45.9693635   9.6139248  44.7908242  54.8384479  22.4046371
  44.0971714  54.4238432  21.8916325  45.5381233  54.8805016  21.8079790
  60.9273463  45.6290666  17.2701405  60.3472132  46.2875470  16.8879457
  60.6609396  44.8068011  16.8588822  59.3777029  45.0295724  19.4722725
  59.8776808  45.1412258  18.6637044  60.0212637  44.7256776  20.1123534
  53.4359025  52.9374353  32.3590566  52.9526107  53.7374713  32.5654455
  53.5219964  52.9482298  31.4058010  46.7044985  54.7702733  20.2812386
  46.6815673  54.8690420  19.3294269  47.0145621  55.6167884  20.6029552
  49.3632363  56.8278888  24.3959000  50.3175616  56.7962830  24.3288932
  49.1644886  56.3669512  25.2109226  49.9531745  55.3980004  26.9629798
  50.7724634  55.8924083  26.9864635  50.2268552  54.4811972  26.9347365
  59.7098341  47.7890756  16.3257753  58.8224196  48.0740407  16.1077948
  60.1252330  47.6284520  15.4785030  63.0612877  47.8137277  20.0412092
  63.8373267  48.3033730  20.3136709  62.3361011  48.2395331  20.4983962
  65.4985436  48.5264897  21.0986033  66.0929927  48.2860632  20.3879341
  65.5712019  47.8072027  21.7259569  47.7182591  62.3698507  21.4129198
  47.5837059  61.6098908  20.8467196  47.3014654  63.0939407  20.9457987
  58.8541554  57.5535431  10.4205773  59.5577405  57.7585433  11.0363429
  58.1304203  58.1212193  10.6854857  59.6839365  53.3045292  16.5408043
  59.6274566  53.7613844  15.7015676  60.2367707  52.5435977  16.3630886
  63.4944171  49.0935024  17.3658163  63.2381105  48.6931660  18.1966371
  62.8697039  49.8078818  17.2408302  67.8056508  51.8331097  19.8729454
  67.2456066  51.9024287  20.6461016  67.2000012  51.6572082  19.1528951
  50.8751717  63.2667824  21.6247641  50.7584101  64.2113257  21.5226331
  50.0544164  62.9641386  22.0133440  60.7628252  57.9917960  12.4704233
  61.5973856  57.5599159  12.2881708  60.6012595  57.8199974  13.3981128
  60.4174144  54.4950074  13.8360573  60.3622948  54.3294345  12.8949017
  59.7920199  55.2026106  13.9922762  45.2066659  49.7318138  27.6621995
  45.8525523  49.2217092  28.1509220  44.9983810  50.4686820  28.2365420
  53.7270269  43.9958183  13.4145891  53.7148939  44.9400022  13.5714162
  54.6193691  43.8128328  13.1205352  51.9006231  63.9196086  24.8403569
  52.8033478  63.9519697  25.1570064  51.6743602  62.9896537  24.8549905
  53.6559833  62.6727073  21.5013648  52.7055464  62.6728935  21.3878020
  53.9592320  61.9259807  20.9849682  57.5422389  40.5900959  17.6691828
  56.7754785  40.0359446  17.8148510  57.9533094  40.6622828  18.5305979
  49.5464150  46.8785755  31.7597009  50.4095612  46.5222560  31.9700334
  48.9729561  46.5399650  32.4472413  69.3912527  68.5087611  22.5659410
  70.0290937  68.3894359  21.8622750  69.2733370  69.4568455  22.6247362
  66.2002233  68.4615039  22.5020935  65.8620745  68.3456104  21.6141470
  67.0692001  68.0606204  22.4821941  62.0589049  70.3150516  18.4917826
  61.4953914  70.2240453  17.7234113  61.9441444  69.4950420  18.9720318
  59.6053481  71.8101707  21.3302046  60.3974773  71.4692532  20.9148345
  59.8450131  71.9196682  22.2504199  67.6388608  73.9821484  13.8032291
  66.9876587  74.5675564  13.4166304  68.4332970  74.5127678  13.8627328
  61.5644235  71.0710621  14.2019425  62.3375111  70.5239608  14.0632301
  61.9169634  71.9354870  14.4133886  64.3285484  69.7763851  23.9987684
  64.9249056  69.5519874  23.2844647  64.3860456  69.0348597  24.6013132
  63.9010513  67.2303287  11.8337875  64.1536033  66.7084808  11.0721338
  62.9635072  67.0669432  11.9364558  68.9453795  66.2339065  19.6412618
  69.7316885  65.8158488  19.2903035  69.2092500  67.1385157  19.8094266
  69.1163873  71.6711915  14.3401275  68.4809706  71.7446542  15.0522180
  68.7861279  72.2605514  13.6620354  74.3462223  66.1714298  20.5445597
  75.0787394  65.6013515  20.7783426  73.5901578  65.7835899  20.9852102
  63.6206801  69.1331393  14.0362250  63.5043059  68.4576296  14.7043334
  63.7309061  68.6463767  13.2194403  65.9638342  68.5941540  17.7408939
  65.5996550  68.0672161  18.4521861  66.8205458  68.2040009  17.5675424
  65.6043829  63.6231440  12.7370288  65.7718232  64.4911676  13.1040759
  65.4140998  63.7858721  11.8131577  68.3619162  72.0848418  24.4036118
  68.0619886  72.9873457  24.2951925  68.0170222  71.8180602  25.2557271
  71.7616306  64.6030959  22.0833555  70.8533184  64.5346367  21.7892316
  71.7103902  65.0802904  22.9115381  65.5833050  66.0789097  13.7216954
  65.4632675  66.5246148  14.5602435  64.8885639  66.4274415  13.1630493
  63.3439942  78.8492739  17.3707086  63.2663972  79.8000564  17.4495566
  62.7401586  78.5038611  18.0282012  73.6277953  62.8047397  23.8611429
  72.9852333  63.0979930  23.2151224  73.1232881  62.6900317  24.6664626
  71.2818116  66.5510570  14.5497288  72.1935972  66.7837957  14.3744986
  70.7727763  67.1347614  13.9872367  69.8887699  71.5336389  21.9410870
  69.2596561  71.6982103  21.2386938  69.5013361  71.9477998  22.7121834
  73.7676931  72.4690827  19.2955234  73.0827969  72.8489728  18.7452267
  73.8520780  73.0786153  20.0287181  71.0227862  70.1150786  25.8950577
  71.2344757  70.7582545  25.2184958  70.9757610  69.2813102  25.4272507
  68.6254091  62.7268606  22.7987149  67.7638570  63.0249860  23.0903887
  68.6516526  62.9439005  21.8668182  65.4415660  71.2710797  19.2060955
  65.9054006  71.5498500  18.4165577  65.1772459  70.3694241  19.0234046
  64.3784547  67.3933949  16.0150520  65.0808590  67.8454993  16.4824446
  64.0465175  66.7517768  16.6430413  58.1209880  65.6517502  21.3167654
  57.3308934  65.9075030  20.8407764  58.6121128  66.4665840  21.4219694
  72.1373690  72.9922741  24.0672935  72.9591134  72.5902928  23.7855616
  72.1336093  72.8890975  25.0189050  60.0724626  66.0162081  18.2751130
  59.2755789  66.1280775  18.7934626  59.8450218  66.3548733  17.4092021
  56.4047583  65.9047992  23.7482644  56.6555622  66.7895002  24.0140220
  56.9407132  65.7252594  22.9757736  80.2279683  69.3361489  20.4157906
  79.4743391  68.7668888  20.2601910  80.3627224  69.3024154  21.3628541
  65.6178311  74.2074892  16.0912625  65.4823986  75.0526427  16.5197473
  66.1588124  74.4094169  15.3278559  59.0707709  71.7250330  16.6640550
  59.5832229  72.5193580  16.8146115  59.7230421  71.0276620  16.5974152
  60.8802593  74.8416086  18.7463304  61.0569222  75.7634051  18.5584288
  61.6759427  74.5274505  19.1757683  62.0033909  76.3594260  24.7473646
  62.5541334  76.2311323  23.9750640  61.1645385  76.6589149  24.3968539
  69.3428026  75.1101258  28.2494369  69.3246501  75.9310139  27.7574638
  70.2647946  74.9855333  28.4744510  57.0356625  70.0538984  17.4400121
  57.8731847  70.4635992  17.2233829  57.2134893  69.1138426  17.4100315
  68.9321057  67.7214065  13.1283954  68.4167681  68.4918669  13.3672341
  68.6598366  67.0479201  13.7517015  66.5168168  62.5663766  18.1869192
  65.6609765  62.1770616  18.0074831  66.9295120  62.6455726  17.3268978
  64.2910201  60.1848839  21.5926934  65.1563198  59.9891647  21.2332823
  64.3587710  59.9559190  22.5196291  73.9055332  70.4746419  15.0637127
  73.1284774  70.1357579  14.6192289  74.5846813  70.4799043  14.3892092
  68.7207361  65.5941157  14.9543735  68.4157496  65.9087306  15.8053878
  69.6737803  65.6722577  14.9971068  67.1653792  71.7531380  16.6036689
  66.6375154  71.0184140  16.2909927  66.6641295  72.5306057  16.3576657
  72.1446638  69.9480401  21.7203735  71.4870313  70.6379662  21.8083864
  72.9487038  70.3376833  22.0637722  61.8972520  62.4151046  18.9643301
  62.4716272  62.1926228  18.2316494  62.4843503  62.4839741  19.7171902
  70.9552097  68.3024773  19.7707677  71.4683979  68.9354765  20.2729387
  71.6053321  67.7025969  19.4051037  62.2242107  64.4455507  12.9839186
  61.3879419  64.7830194  13.3048461  62.0846877  64.3104487  12.0466323
  64.1995188  59.2892295  17.6918370  63.5459600  58.9741313  17.0674985
  64.1575662  58.6668036  18.4178193  65.3106393  69.5711590   9.6071662
  64.4033454  69.3400844   9.8062811  65.8077425  68.7749210   9.7945644
  68.2174472  78.2809098  12.5268348  67.5436170  78.5840794  13.1353306
  68.6040293  79.0838178  12.1773805  67.4332928  65.7774229  22.0166018
  66.5155490  65.9989176  21.8587706  67.8493072  65.8520539  21.1577725
  68.2167976  67.1765645  17.1468698  68.9639795  67.6887042  16.8375820
  68.4859565  66.8549697  18.0073091  66.4894626  69.6724185  14.1295652
  65.5805845  69.3883218  14.2268122  66.5189710  70.0923264  13.2698959
  71.7213893  73.2830775  17.8986820  71.2676221  72.4421685  17.9552010
  71.0907860  73.9192173  18.2361600  70.6646813  64.2122761  19.1287487
  69.9269570  63.7000147  19.4597730  70.9173587  63.7723142  18.3170764
  70.1646833  75.1207271  18.8336638  70.4569807  75.6812329  18.1149004
  70.6745453  75.4135832  19.5889797  70.7658440  56.9899013  19.7229256
  71.0717317  56.1296376  19.4355172  71.4911045  57.5816633  19.5228250
  57.0582796  67.3929699  18.1110854  56.8607196  66.7999060  17.3861921
  56.5029460  67.0881910  18.8286793  65.0379520  67.2852806  20.2305448
  65.0928130  66.3326642  20.1547924  64.2270722  67.4412245  20.7146746
  66.1870714  71.2132929  11.4683731  65.7490144  70.4968788  11.0089368
  66.9281155  71.4409044  10.9068822  62.9771880  65.9029866  17.9895826
  62.1639746  66.2024036  18.3961019  63.4730874  65.5085554  18.7070309
  65.1280458  75.8987623  19.9230091  65.0856637  76.1248469  18.9938623
  66.0443157  75.6650997  20.0715892  74.3043829  69.4890126  17.5260049
  74.1661727  69.6791722  16.5981239  73.9480047  70.2509509  17.9828100
  62.4685955  63.4748221  23.6057061  63.1085334  63.3336980  22.9080025
  61.6363485  63.1882735  23.2295663  74.3313208  71.5566653  22.5371321
  74.7649715  71.4641942  23.3854375  75.0444789  71.5324153  21.8991337
  63.2446259  72.7750652  19.7192054  64.0386857  72.2800972  19.5174629
  62.5337951  72.2468515  19.3559759  68.0641103  75.1568747  24.0704421
  68.1178125  75.7259683  24.8382137  67.1955885  75.3270632  23.7058459
  59.5529022  66.9193733  15.7951807  58.6226610  66.8578189  16.0121769
  59.6486494  66.3969686  14.9988448  59.4714571  63.4448546  18.3830048
  59.7321389  64.3593879  18.2739209  60.2931744  62.9772989  18.5326661
  75.1928758  71.5990354  25.0704206  75.3864648  72.5036164  25.3163481
  75.0929376  71.1397773  25.9042791  67.0229203  69.3229009  25.6291353
  67.9521263  69.4740169  25.4560321  66.6020233  69.4113030  24.7740000
  65.8217535  73.3479674  23.3989891  65.6828620  72.9798458  24.2715829
  65.0332131  73.8627313  23.2273849  66.4165687  78.4488770  14.7415427
  66.5917442  77.9776813  15.5561050  65.7298475  79.0754536  14.9696688
  67.3722750  72.7261276  20.7878729  67.0372582  72.6862046  21.6836379
  66.8726696  72.0605992  20.3149139  70.3081941  70.0717311  11.0615788
  69.6911112  69.3464139  10.9648841  69.8398430  70.8326671  10.7182863
  71.9636073  74.7816219  28.7221569  71.9048619  74.0975439  28.0552152
  72.3655592  75.5235209  28.2702195  60.9826772  81.5978133  21.5155288
  61.2223370  82.2296657  22.1934306  60.1395968  81.2466173  21.8020647
  62.0980487  64.2902735  10.1837093  61.2209954  64.1691536   9.8199339
  62.5738240  63.4988813   9.9315981  71.9653480  72.7455803  26.9535548
  71.0780259  72.4081725  27.0761947  72.5352031  72.0138834  27.1904314
  53.6182628  69.0779895  20.2778600  54.3053667  68.7641625  19.6899615
  53.4630756  69.9821259  20.0045851  65.4954634  77.4057255  23.9196792
  65.4224805  78.2112227  24.4316096  65.0532027  77.6049221  23.0944813
  65.2844413  76.6429025  17.4299613  64.5011935  77.1850705  17.5237838
  65.9837159  77.1603005  17.8293854  68.5941064  62.4523655  20.0733819
  69.0909763  61.6993617  19.7534889  67.8228045  62.4887971  19.5077028
  76.4470821  68.1564020  21.7152110  76.4360697  69.0388736  21.3446043
  75.5788200  67.8035571  21.5206647  67.9553317  77.3044089  26.0754950
  68.6681290  77.9391554  26.0030852  67.4643346  77.4007955  25.2594952
  69.6770844  71.2095342  17.6472242  68.7427123  71.3296804  17.4776946
  69.8547513  70.3067809  17.3832252  65.1776032  64.5941038  19.8005503
  64.8073820  64.0412078  20.4886409  65.6735125  63.9899171  19.2480503
  73.0643396  67.0512661  18.1822276  73.5303848  67.8840653  18.1082579
  73.5150896  66.5857643  18.8867535  63.0065231  75.0538533  26.8960521
  63.7074690  75.6875016  27.0489915  62.5360346  75.3953264  26.1356160
  71.1319627  73.3956483  15.1808428  71.4079471  73.2813077  16.0902302
  70.2624125  72.9973967  15.1420601  71.0360058  59.4193248  22.2213177
  70.1223138  59.6497475  22.3895384  71.4653160  59.5031692  23.0727210
  70.8066517  67.6083140  24.7213071  70.1537967  67.8559048  24.0665524
  71.1846897  66.7947278  24.3875549  67.7673691  77.6442833  18.8241242
  67.9496085  76.8264489  19.2868994  68.5906677  77.8610526  18.3866132
  68.1015856  76.5711018  16.0856290  68.6303623  76.0603473  15.4726452
  68.3644076  76.2553549  16.9501823  58.6032949  74.5874888  23.8291624
  59.1886386  73.8418576  23.9619528  58.4057787  74.8978844  24.7128288
  61.4571604  77.6226135  18.8454066  60.7881979  78.1072263  18.3618106
  61.3184474  77.8695356  19.7597445  53.1950604  67.1580488  22.5496067
  53.2334703  66.6244079  23.3433185  52.6890896  66.6315694  21.9307044
  65.5976873  79.6569879  25.4436725  66.1495181  79.8201500  26.2085810
  65.9383066  80.2474317  24.7716749  56.8259181  65.8844590  15.6249998
  57.1212622  64.9755269  15.5717052  55.9247217  65.8632330  15.3031001
  68.7345260  77.6051854  22.4300407  68.6096399  76.8041594  21.9211352
  69.3924351  78.0998048  21.9414377  60.3553428  63.9600587  21.6077547
  59.6340014  64.5736554  21.4685020  61.1446684  64.4958352  21.5294193
  70.7980168  75.4060874  24.0579957  69.8510504  75.2866225  23.9858283
  71.1462942  74.5183372  24.1406218  58.5547023  63.5658688  15.7489323
  58.2259729  62.6856067  15.5664429  58.9086394  63.5106357  16.6365713
  67.8026602  75.2013591  20.2584309  67.6551564  74.2730298  20.4391879
  68.6280095  75.2233681  19.7741384  61.6688846  63.8531658  16.1164801
  62.0084918  64.3817579  15.3943409  62.1160966  64.1912064  16.8923368
  71.4060724  76.0242149  21.3449182  72.3307271  75.8185011  21.2073633
  71.2376027  75.7758550  22.2538523  63.6556993  62.3506279  14.3158094
  64.3765356  62.7287532  13.8121811  63.0322297  63.0695156  14.4193072
  67.7988116  63.0551428  15.2516426  68.0151730  63.9376066  14.9505254
  67.3182183  62.6637642  14.5222068  64.3983720  63.0039689  21.8768060
  64.3845289  62.1080783  21.5400358  65.1156148  63.0110353  22.5106346
  71.1956040  76.5427817  16.7011273  71.3692917  75.9774239  15.9485126
  71.6884931  77.3428712  16.5190763  63.8020616  61.8854070  17.1455631
  63.9236527  60.9570716  17.3446518  63.5122659  61.8992756  16.2333946
  66.6711807  59.5708980  20.2822350  66.6933503  59.6348313  19.3274330
  67.0879866  58.7313489  20.4762857  77.0495431  69.3064240  18.3201573
  77.4926577  68.5571565  17.9220696  76.1721941  69.2974376  17.9375305
  72.1831212  75.8594581  13.8008171  72.8782117  76.4801274  14.0195486
  72.5254362  75.0089932  14.0760549  74.0822635  73.3094287  15.3295502
  74.6073959  73.6481559  14.6044822  73.9944988  72.3741302  15.1458637
  65.7442684  77.2228360  27.4585379  66.0529811  76.9777507  28.3308078
  66.5418166  77.4274999  26.9704249  65.7663296  79.3766270  19.6890755
  65.3268286  78.8842649  20.3823612  66.5171413  78.8339238  19.4482831
  58.2455635  75.5677811  19.6915384  59.0713655  75.2681583  19.3114027
  57.8949687  74.7985433  20.1405172  63.2137168  74.9204279  21.7613057
  62.5917178  74.2574984  21.4615285  63.8842035  74.9465411  21.0786705
  56.4464240  73.4864137  20.6504317  55.6096148  73.0586312  20.4688318
  56.4187886  73.6796581  21.5875108  73.8914416  70.7919657  27.9479429
  73.9412421  70.6269664  28.8894952  73.7828340  69.9246916  27.5577310
  62.7750675  73.4708202  15.2371518  62.9238796  74.1543667  14.5838190
  63.5817119  73.4513292  15.7520973  75.3932613  73.2116598  28.1921450
  75.1017422  73.5746579  29.0284911  74.7804745  72.4983606  28.0134782
  76.5928296  70.7769478  20.7124021  77.4275187  71.2159282  20.8761581
  76.7287424  70.3008131  19.8932266  73.6419802  68.3349213  26.6601508
  74.1173923  68.5276859  25.8520360  72.7185367  68.3908399  26.4144892
  60.5303308  69.4973380  16.2432587  60.2849350  68.5935710  16.4412797
  60.6999223  69.4990530  15.3012065  59.7998956  65.2301738  13.7418748
  59.1068201  65.3046093  13.0858784  59.5550708  64.4662081  14.2640265
  68.4712612  56.7897339  21.1458239  68.7514366  56.1220528  21.7718665
  69.2563219  56.9826435  20.6332903  66.2746081  75.9656333  12.7083265
  65.7020048  76.5846520  12.2553737  66.8478874  76.5155694  13.2423187
  72.3421471  65.2114973  24.8929814  73.2938893  65.3113071  24.9142038
  72.1724921  64.4193241  25.4027898  69.4943340  76.2493483  13.8391847
  70.4274014  76.1839045  14.0424723  69.4066553  77.0849750  13.3806380
  72.1231357  75.5659353  10.7995795  72.0444989  75.2319217  11.6931553
  72.9441024  76.0581121  10.7987267  74.8209548  68.4321093  24.0072114
  74.7885868  67.4937093  24.1931797  75.4310172  68.5105129  23.2737938
  66.6592879  67.3017146  10.0499318  67.6051984  67.1723354  10.1187736
  66.2807124  66.5631807  10.5268746  74.9704037  65.2232136  24.0530397
  74.4543085  64.4390593  23.8660326  75.8543985  64.8950853  24.2176916
  72.6314764  58.9673152  20.0126209  72.4339585  58.6588240  20.8969541
  73.2414469  59.6934790  20.1424139  80.6386098  69.4937099  23.1478150
  81.3689487  69.2322388  23.7085854  80.0293044  68.7565821  23.1880218
  78.7201395  67.6344962  23.7452602  77.9934559  67.5000927  23.1369093
  78.3048682  67.9421791  24.5509320  64.8435796  65.2267122   9.9854203
  63.9367252  64.9300235  10.0616916  65.1211777  64.9296940   9.1188489
  55.7613737  66.5473485  20.4353249  55.4416521  65.6938794  20.1427623
  55.2147165  66.7622063  21.1911217  66.4597862  59.7704012  16.1398444
  65.6498590  59.4251097  16.5153690  67.1482279  59.4611555  16.7286056
  68.3888410  58.8482058  17.7622741  68.9419449  59.2677512  18.4212764
  68.6258497  57.9217807  17.8045697  63.6134581  62.0854057  10.1266182
  64.4753745  62.4108955  10.3861999  63.7984925  61.2985553   9.6139248
  55.6301997  70.1676397  22.4046371  54.9365468  69.7530350  21.8916325
  56.3774988  70.2096933  21.8079790  71.7667217  60.9582584  17.2701405
  71.1865886  61.6167388  16.8879457  71.5003150  60.1359928  16.8588822
  70.2170784  60.3587641  19.4722725  70.7170562  60.4704176  18.6637044
  70.8606392  60.0548694  20.1123534  57.5438739  70.0994651  20.2812386
  57.5209427  70.1982338  19.3294269  57.8539376  70.9459801  20.6029552
  60.2026117  72.1570806  24.3959000  61.1569371  72.1254748  24.3288932
  60.0038641  71.6961429  25.2109226  70.5492095  63.1182674  16.3257753
  69.6617950  63.4032325  16.1077948  70.9646085  62.9576437  15.4785030
  73.9006632  63.1429195  20.0412092  74.6767022  63.6325647  20.3136709
  73.1754766  63.5687249  20.4983962  76.3379190  63.8556814  21.0986033
  76.9323681  63.6152550  20.3879341  76.4105774  63.1363945  21.7259569
  58.5576346  77.6990425  21.4129198  58.4230814  76.9390826  20.8467196
  58.1408408  78.4231325  20.9457987  69.6935309  72.8827349  10.4205773
  70.3971159  73.0877351  11.0363429  68.9697958  73.4504111  10.6854857
  70.5233119  68.6337210  16.5408043  70.4668321  69.0905761  15.7015676
  71.0761462  67.8727895  16.3630886  74.3337925  64.4226942  17.3658163
  74.0774859  64.0223577  18.1966371  73.7090793  65.1370736  17.2408302
  78.6450263  67.1623015  19.8729454  78.0849821  67.2316204  20.6461016
  78.0393766  66.9864000  19.1528951  61.7145472  78.5959742  21.6247641
  61.5977856  79.5405175  21.5226331  60.8937918  78.2933304  22.0133440
  71.6022006  73.3209878  12.4704233  72.4367610  72.8891076  12.2881708
  71.4406349  73.1491892  13.3981128  71.2567899  69.8241991  13.8360573
  71.2016702  69.6586263  12.8949017  70.6313954  70.5318024  13.9922762
  64.5664024  59.3250100  13.4145891  64.5542694  60.2691940  13.5714162
  65.4587446  59.1420246  13.1205352  62.7399986  79.2488004  24.8403569
  63.6427233  79.2811614  25.1570064  62.5137356  78.3188455  24.8549905
  64.4953588  78.0018991  21.5013648  63.5449219  78.0020852  21.3878020
  64.7986074  77.2551725  20.9849682  68.3816143  55.9192877  17.6691828
  67.6148539  55.3651364  17.8148510  68.7926848  55.9914746  18.5305979
  80.2306281  83.8379529  22.5659410  80.8684691  83.7186276  21.8622750
  80.1127124  84.7860373  22.6247362  77.0395988  83.7906957  22.5020935
  76.7014499  83.6748022  21.6141470  77.9085756  83.3898122  22.4821941
  72.8982803  85.6442433  18.4917826  72.3347669  85.5532370  17.7234113
  72.7835198  84.8242338  18.9720318  77.5215771  84.9441809  28.4607140
  77.5104411  84.5494607  27.5887644  77.6836410  84.2107881  29.0540912
  70.4447235  87.1393625  21.3302046  71.2368527  86.7984450  20.9148345
  70.6843886  87.2488600  22.2504199  78.4782362  89.3113401  13.8032291
  77.8270342  89.8967482  13.4166304  79.2726725  89.8419596  13.8627328
  72.4037989  86.4002538  14.2019425  73.1768865  85.8531525  14.0632301
  72.7563388  87.2646788  14.4133886  74.2423032  87.7278921  27.4086324
  73.9512898  88.6324551  27.2932991  74.8780016  87.7695448  28.1230394
  75.1679239  85.1055769  23.9987684  75.7642811  84.8811792  23.2844647
  75.2254210  84.3640515  24.6013132  74.7404267  82.5595204  11.8337875
  74.9929788  82.0376726  11.0721338  73.8028826  82.3961350  11.9364558
  79.7847550  81.5630983  19.6412618  80.5710639  81.1450406  19.2903035
  80.0486254  82.4677075  19.8094266  79.9557627  87.0003833  14.3401275
  79.3203460  87.0738460  15.0522180  79.6255034  87.5897432  13.6620354
  85.1855977  81.5006216  20.5445597  85.9181149  80.9305433  20.7783426
  84.4295333  81.1127816  20.9852102  74.4600556  84.4623310  14.0362250
  74.3436814  83.7868214  14.7043334  74.5702816  83.9755684  13.2194403
  76.8032097  83.9233458  17.7408939  76.4390304  83.3964078  18.4521861
  77.6599213  83.5331927  17.5675424  82.7081397  75.2127790  25.0040205
  82.3764722  76.0823201  24.7801420  82.1127011  74.8964074  25.6834236
  76.4437584  78.9523357  12.7370288  76.6111986  79.8203594  13.1040759
  76.2534753  79.1150639  11.8131577  79.2012917  87.4140336  24.4036118
  78.9013640  88.3165375  24.2951925  78.8563976  87.1472519  25.2557271
  72.6525398  83.8654133  20.4372822  71.7275895  83.7330347  20.6450514
  72.9009812  84.6448352  20.9342765  82.6010061  79.9322876  22.0833555
  81.6926938  79.8638285  21.7892316  82.5497657  80.4094821  22.9115381
  76.4226805  81.4081015  13.7216954  76.3026430  81.8538065  14.5602435
  75.7279393  81.7566332  13.1630493  70.0134209  83.5087407  21.2716611
  70.1426591  83.7621885  22.1856023  69.3331661  84.1015115  20.9521266
  74.1833697  94.1784656  17.3707086  74.1057726  95.1292482  17.4495566
  73.5795340  93.8330529  18.0282012  76.6750926  81.3512522  30.0268453
  75.8984261  81.9106442  30.0171317  77.3141490  81.8369305  30.5483323
  84.4671707  78.1339315  23.8611429  83.8246087  78.4271848  23.2151224
  83.9626636  78.0192235  24.6664626  82.1211871  81.8802488  14.5497288
  83.0329727  82.1129875  14.3744986  81.6121518  82.4639532  13.9872367
  74.9297299  84.1597975  29.5886420  75.6711983  84.6983019  29.3121243
  74.2234284  84.7864264  29.7457971  80.4052638  86.3027116  28.1858581
  80.8135994  85.8609526  27.4413213  79.6829900  85.7279743  28.4392774
  76.7583708  81.2399722  25.5592138  77.6044904  81.6639136  25.7026787
  76.6982346  80.5833347  26.2530701  80.7281453  86.8628306  21.9410870
  80.0990316  87.0274020  21.2386938  80.3407115  87.2769916  22.7121834
  84.6070685  87.7982744  19.2955234  83.9221723  88.1781646  18.7452267
  84.6914534  88.4078071  20.0287181  79.9083154  78.9004091  27.2173312
  79.6644086  79.6546151  26.6807587  80.1843084  79.2789438  28.0520559
  81.8621617  85.4442703  25.8950577  82.0738512  86.0874463  25.2184958
  81.8151365  84.6105020  25.4272507  79.4647846  78.0560524  22.7987149
  78.6032325  78.3541777  23.0903887  79.4910280  78.2730923  21.8668182
  76.2809415  86.6002714  19.2060955  76.7447761  86.8790417  18.4165577
  76.0166213  85.6986159  19.0234046  73.1733496  86.1474196  22.1440718
  73.7434853  86.5761464  21.5058203  73.7641608  85.8656781  22.8424904
  75.2178301  82.7225867  16.0150520  75.9202344  83.1746910  16.4824446
  74.8858930  82.0809686  16.6430413  73.6658663  81.3137623  30.3901730
  73.0357323  81.9953904  30.6237126  73.5594750  81.2020705  29.4454868
  68.9603635  80.9809419  21.3167654  68.1702689  81.2366948  20.8407764
  69.4514882  81.7957757  21.4219694  82.9767445  88.3214659  24.0672935
  83.7984888  87.9194846  23.7855616  82.9729847  88.2182893  25.0189050
  70.9118380  81.3453999  18.2751130  70.1149544  81.4572693  18.7934626
  70.6843973  81.6840651  17.4092021  76.7424048  87.8698702  26.2233645
  76.8068481  88.3319109  27.0591817  76.0334972  87.2396067  26.3515955
  67.2441338  81.2339910  23.7482644  67.4949376  82.1186920  24.0140220
  67.7800886  81.0544511  22.9757736  91.0673438  84.6653407  20.4157906
  90.3137146  84.0960805  20.2601910  91.2020979  84.6316072  21.3628541
  76.4572066  89.5366809  16.0912625  76.3217740  90.3818345  16.5197473
  76.9981878  89.7386087  15.3278559  69.9101463  87.0542247  16.6640550
  70.4225984  87.8485498  16.8146115  70.5624176  86.3568538  16.5974152
  71.7196348  90.1708004  18.7463304  71.8962976  91.0925968  18.5584288
  72.5153181  89.8566423  19.1757683  71.0048704  82.2172636  28.6225467
  70.8902219  81.3157893  28.9232566  70.1493222  82.4636332  28.2710283
  78.0840542  90.1590376  30.2212967  77.6404396  89.3726755  29.9033872
  78.7457756  90.3469526  29.5556858  72.8427663  91.6886178  24.7473646
  73.3935088  91.5603241  23.9750640  72.0039139  91.9881067  24.3968539
  80.1821780  90.4393176  28.2494369  80.1640255  91.2602057  27.7574638
  81.1041700  90.3147251  28.4744510  76.6394834  87.9537305  29.0917877
  77.1723171  87.1925594  28.8617185  76.1108915  87.6610957  29.8342032
  79.8064529  73.0597371  24.6211519  79.4628799  73.9499013  24.5450629
  80.1743492  72.8699029  23.7581104  67.8750380  85.3830902  17.4400121
  68.7125602  85.7927910  17.2233829  68.0528648  84.4430344  17.4100315
  79.7714812  83.0505982  13.1283954  79.2561435  83.8210587  13.3672341
  79.4992120  82.3771119  13.7517015  77.3561923  77.8955683  18.1869192
  76.5003519  77.5062534  18.0074831  77.7688875  77.9747644  17.3268978
  78.8861070  75.4302026  22.5860752  78.3825865  75.3932162  21.7728557
  79.1791676  76.3394769  22.6457409  75.1303955  75.5140756  21.5926934
  75.9956952  75.3183565  21.2332823  75.1981464  75.2851108  22.5196291
  84.7449086  85.8038337  15.0637127  83.9678529  85.4649497  14.6192289
  85.4240567  85.8090960  14.3892092  79.5601115  80.9233075  14.9543735
  79.2551251  81.2379224  15.8053878  80.5131557  81.0014494  14.9971068
  78.0047547  87.0823298  16.6036689  77.4768909  86.3476057  16.2909927
  77.5035050  87.8597974  16.3576657  82.9840393  85.2772318  21.7203735
  82.3264067  85.9671580  21.8083864  83.7880792  85.6668750  22.0637722
  72.7366275  77.7442964  18.9643301  73.3110026  77.5218146  18.2316494
  73.3237257  77.8131659  19.7171902  81.7945852  83.6316691  19.7707677
  82.3077734  84.2646683  20.2729387  82.4447076  83.0317887  19.4051037
  73.0635862  79.7747425  12.9839186  72.2273174  80.1122112  13.3048461
  72.9240631  79.6396405  12.0466323  75.0388942  74.6184213  17.6918370
  74.3853355  74.3033230  17.0674985  74.9969416  73.9959953  18.4178193
  76.1500147  84.9003508   9.6071662  75.2427209  84.6692762   9.8062811
  76.6471179  84.1041127   9.7945644  78.2726683  81.1066147  22.0166018
  77.3549244  81.3281094  21.8587706  78.6886826  81.1812457  21.1577725
  79.0561730  82.5057562  17.1468698  79.8033549  83.0178959  16.8375820
  79.3253320  82.1841615  18.0073091  77.3288381  85.0016103  14.1295652
  76.4199600  84.7175136  14.2268122  77.3583464  85.4215182  13.2698959
  82.5607648  88.6122692  17.8986820  82.1069975  87.7713602  17.9552010
  81.9301615  89.2484091  18.2361600  81.5040568  79.5414678  19.1287487
  80.7663324  79.0292065  19.4597730  81.7567341  79.1015060  18.3170764
  81.0040587  90.4499189  18.8336638  81.2963562  91.0104246  18.1149004
  81.5139208  90.7427750  19.5889797  81.6052195  72.3190931  19.7229256
  81.9111072  71.4588294  19.4355172  82.3304800  72.9108551  19.5228250
  67.8976551  82.7221617  18.1110854  67.7000951  82.1290978  17.3861921
  67.3423215  82.4173827  18.8286793  75.8773275  82.6144724  20.2305448
  75.9321884  81.6618560  20.1547924  75.0664477  82.7704163  20.7146746
  77.0264468  86.5424847  11.4683731  76.5883898  85.8260706  11.0089368
  77.7674909  86.7700961  10.9068822  73.8165635  81.2321783  17.9895826
  73.0033500  81.5315954  18.3961019  74.3124629  80.8377472  18.7070309
  75.9674212  91.2279540  19.9230091  75.9250391  91.4540387  18.9938623
  76.8836911  90.9942915  20.0715892  79.4139846  81.6963608  26.8210720
  79.7689234  81.9235081  27.6805186  80.0611977  82.0281985  26.1987976
  85.1437583  84.8182044  17.5260049  85.0055482  85.0083640  16.5981239
  84.7873802  85.5801426  17.9828100  73.3079709  78.8040139  23.6057061
  73.9479089  78.6628898  22.9080025  72.4757240  78.5174652  23.2295663
  85.1706963  86.8858571  22.5371321  85.6043469  86.7933860  23.3854375
  85.8838543  86.8616071  21.8991337  74.0840013  88.1042569  19.7192054
  74.8780612  87.6092889  19.5174629  73.3731706  87.5760432  19.3559759
  78.9034858  90.4860665  24.0704421  78.9571880  91.0551601  24.8382137
  78.0349639  90.6562550  23.7058459  70.3922777  82.2485651  15.7951807
  69.4620365  82.1870106  16.0121769  70.4880249  81.7261604  14.9988448
  70.3108326  78.7740464  18.3830048  70.5715143  79.6885797  18.2739209
  71.1325498  78.3064906  18.5326661  71.7833251  80.1878221  25.5528873
  72.4556304  79.9795583  24.9041522  70.9563038  79.9900307  25.1134105
  86.0322512  86.9282271  25.0704206  86.2258402  87.8328082  25.3163481
  85.9323130  86.4689690  25.9042791  77.6858823  76.8140162  27.5694534
  77.0386738  77.5130112  27.4759010  78.4559838  77.2476306  27.9370782
  81.0937621  87.0789014  30.6445087  80.9423127  86.8499566  29.7275171
  81.0842300  88.0359616  30.6576432  77.8622957  84.6520927  25.6291353
  78.7915017  84.8032086  25.4560321  77.4413987  84.7404948  24.7740000
  76.6611289  88.6771591  23.3989891  76.5222375  88.3090376  24.2715829
  75.8725885  89.1919231  23.2273849  77.2559441  93.7780688  14.7415427
  77.4311197  93.3068731  15.5561050  76.5692229  94.4046454  14.9696688
  78.2116504  88.0553194  20.7878729  77.8766337  88.0153964  21.6836379
  77.7120450  87.3897910  20.3149139  72.1860748  83.4620824  26.3131310
  72.0480546  82.7301063  26.9142849  73.0965672  83.3729724  26.0315498
  81.1475696  85.4009228  11.0615788  80.5304867  84.6756056  10.9648841
  80.6792184  86.1618589  10.7182863  74.8143049  83.1740783  25.8014990
  75.5242667  82.5333975  25.7601608  74.7712357  83.4253678  26.7241170
  82.8029828  90.1108137  28.7221569  82.7442374  89.4267357  28.0552152
  83.2049346  90.8527127  28.2702195  73.5271983  80.1606001  27.6210629
  72.9909340  79.7096740  28.2732225  72.9388691  80.2951910  26.8781093
  71.8220526  96.9270050  21.5155288  72.0617125  97.5588575  22.1934306
  70.9789723  96.5758090  21.8020647  72.9374242  79.6194653  10.1837093
  72.0603708  79.4983453   9.8199339  73.4131995  78.8280731   9.9315981
  82.8047235  88.0747721  26.9535548  81.9174014  87.7373642  27.0761947
  83.3745786  87.3430752  27.1904314  64.4576382  84.4071812  20.2778600
  65.1447422  84.0933542  19.6899615  64.3024511  85.3113177  20.0045851
  69.2611104  79.2962009  24.7063623  69.1769293  78.6887678  23.9714033
  68.4393811  79.7871027  24.7073120  76.3348388  92.7349173  23.9196792
  76.2618560  93.5404144  24.4316096  75.8925781  92.9341139  23.0944813
  76.1238168  91.9720943  17.4299613  75.3405690  92.5142623  17.5237838
  76.8230913  92.4894923  17.8293854  79.4334818  77.7815572  20.0733819
  79.9303518  77.0285535  19.7534889  78.6621800  77.8179889  19.5077028
  87.2864575  83.4855938  21.7152110  87.2754452  84.3680653  21.3446043
  86.4181955  83.1327489  21.5206647  78.7947072  92.6336007  26.0754950
  79.5075044  93.2683472  26.0030852  78.3037100  92.7299873  25.2594952
  80.5164599  86.5387260  17.6472242  79.5820877  86.6588722  17.4776946
  80.6941267  85.6359726  17.3832252  76.0169787  79.9232955  19.8005503
  75.6467574  79.3703996  20.4886409  76.5128879  79.3191089  19.2480503
  83.9037150  82.3804579  18.1822276  84.3697602  83.2132570  18.1082579
  84.3544651  81.9149560  18.8867535  73.8458985  90.3830450  26.8960521
  74.5468445  91.0166933  27.0489915  73.3754100  90.7245182  26.1356160
  81.9713381  88.7248400  15.1808428  82.2473225  88.6104995  16.0902302
  81.1017880  88.3265885  15.1420601  81.8753813  74.7485166  22.2213177
  80.9616893  74.9789393  22.3895384  82.3046914  74.8323610  23.0727210
  81.6460271  82.9375058  24.7213071  80.9931722  83.1850965  24.0665524
  82.0240651  82.1239196  24.3875549  78.6067445  92.9734751  18.8241242
  78.7889840  92.1556407  19.2868994  79.4300431  93.1902443  18.3866132
  78.9409611  91.9002936  16.0856290  79.4697377  91.3895391  15.4726452
  79.2037830  91.5845466  16.9501823  77.6947844  83.6794869  31.2079109
  77.0188481  83.5788998  31.8781484  78.5175478  83.5234083  31.6715106
  69.4426703  89.9166805  23.8291624  70.0280140  89.1710493  23.9619528
  69.2451542  90.2270762  24.7128288  72.2965359  92.9518053  18.8454066
  71.6275734  93.4364180  18.3618106  72.1578228  93.1987273  19.7597445
  64.0344358  82.4872406  22.5496067  64.0728458  81.9535996  23.3433185
  63.5284651  81.9607611  21.9307044  76.4370627  94.9861796  25.4436725
  76.9888935  95.1493418  26.2085810  76.7776821  95.5766234  24.7716749
  71.4135120  77.3336946  26.0458609  71.4776447  78.1951777  25.6336007
  71.3502241  76.7210948  25.3130968  70.8887393  79.4060079  29.6931643
  71.5159432  79.0237156  30.3069168  70.0315312  79.1874281  30.0587336
  81.2881502  89.8123054  31.2985379  81.8321406  90.4253012  30.8040334
  80.7068346  90.3702632  31.8152392  67.6652936  81.2136508  15.6249998
  67.9606377  80.3047186  15.5717052  66.7640972  81.1924247  15.3031001
  79.5739015  92.9343772  22.4300407  79.4490154  92.1333512  21.9211352
  80.2318106  93.4289965  21.9414377  71.1947183  79.2892504  21.6077547
  70.4733768  79.9028472  21.4685020  71.9840439  79.8250269  21.5294193
  81.6373923  90.7352792  24.0579957  80.6904258  90.6158143  23.9858283
  81.9856696  89.8475290  24.1406218  73.9973496  76.6246931  27.8818199
  74.5207898  76.8709227  28.6444508  73.7785830  77.4566966  27.4621336
  69.3940777  78.8950605  15.7489323  69.0653483  78.0147984  15.5664429
  69.7480148  78.8398274  16.6365713  78.6420356  90.5305508  20.2584309
  78.4945319  89.6022216  20.4391879  79.4673850  90.5525599  19.7741384
  72.5082600  79.1823575  16.1164801  72.8478673  79.7109497  15.3943409
  72.9554721  79.5203981  16.8923368  82.2454478  91.3534067  21.3449182
  83.1701026  91.1476928  21.2073633  82.0769781  91.1050468  22.2538523
  75.2026041  77.5660626  25.5667869  74.8622862  76.7668439  25.9688549
  74.4965048  77.8662337  24.9944702  75.8542513  74.6509938  24.0195192
  76.6768582  74.1770417  23.8974083  76.0980577  75.4300422  24.5193879
  74.4950748  77.6798197  14.3158094  75.2159110  78.0579450  13.8121811
  73.8716052  78.3987074  14.4193072  78.6381871  78.3843346  15.2516426
  78.8545485  79.2667984  14.9505254  78.1575938  77.9929559  14.5222068
  73.3781092  81.3429059  21.8287171  73.2325673  81.6569362  22.7211452
  72.9006296  81.9613959  21.2758069  75.2377475  78.3331607  21.8768060
  75.2239044  77.4372700  21.5400358  75.9549903  78.3402271  22.5106346
  77.0903605  78.7668947  23.9221188  76.8321383  79.6886018  23.9205518
  76.5588646  78.3699382  24.6121652  82.0349794  91.8719734  16.7011273
  82.2086672  91.3066157  15.9485126  82.5278685  92.6720629  16.5190763
  67.8526754  83.8834403  24.7674832  67.3080222  84.6594211  24.8995106
  68.7306104  84.2305208  24.6093953  74.6414371  77.2145987  17.1455631
  74.7630282  76.2862634  17.3446518  74.3516413  77.2284673  16.2333946
  77.5105561  74.9000898  20.2822350  77.5327258  74.9640231  19.3274330
  77.9273620  74.0605406  20.4762857  87.8889185  84.6356157  18.3201573
  88.3320331  83.8863483  17.9220696  87.0115696  84.6266294  17.9375305
  83.0224967  91.1886499  13.8008171  83.7175871  91.8093191  14.0195486
  83.3648117  90.3381850  14.0760549  68.6392776  83.0104300  27.6604989
  67.8974512  83.1586935  28.2469619  68.3185520  83.2712565  26.7971738
  84.9216390  88.6386204  15.3295502  85.4467714  88.9773477  14.6044822
  84.8338742  87.7033220  15.1458637  76.5836439  92.5520278  27.4585379
  76.8923565  92.3069425  28.3308078  77.3811921  92.7566916  26.9704249
  76.6057051  94.7058188  19.6890755  76.1662041  94.2134566  20.3823612
  77.3565168  94.1631155  19.4482831  69.0849390  90.8969728  19.6915384
  69.9107409  90.5973500  19.3114027  68.7343442  90.1277351  20.1405172
  74.0530923  90.2496197  21.7613057  73.4310932  89.5866902  21.4615285
  74.7235790  90.2757329  21.0786705  67.2857995  88.8156055  20.6504317
  66.4489903  88.3878229  20.4688318  67.2581640  89.0088498  21.5875108
  84.6110296  89.2719108  30.6346700  83.8205840  89.2543247  30.0951200
  84.3743650  89.8107402  31.3895737  84.7308171  86.1211574  27.9479429
  84.7806176  85.9561582  28.8894952  84.6222094  85.2538833  27.5577310
  73.6144430  88.8000120  15.2371518  73.7632550  89.4835584  14.5838190
  74.4210873  88.7805210  15.7520973  82.0211933  82.1042502  29.2638735
  82.9221796  81.9648967  28.9722733  82.0959908  82.2696957  30.2036913
  76.3554739  79.4809357  28.1091922  75.4858048  79.7742923  27.8374510
  76.5914219  80.0649802  28.8299185  86.2326368  88.5408516  28.1921450
  85.9411176  88.9038496  29.0284911  85.6198499  87.8275524  28.0134782
  87.4322050  86.1061396  20.7124021  88.2668941  86.5451200  20.8761581
  87.5681179  85.6300049  19.8932266  84.4813556  83.6641130  26.6601508
  84.9567678  83.8568777  25.8520360  83.5579121  83.7200316  26.4144892
  71.3697063  84.8265298  16.2432587  71.1243105  83.9227628  16.4412797
  71.5392977  84.8282448  15.3012065  79.0593773  75.6988974  25.6257342
  79.5775716  76.4350001  25.3003831  78.7048905  76.0052967  26.4604101
  70.6392710  80.5593655  13.7418748  69.9461955  80.6338010  13.0858784
  70.3944462  79.7953999  14.2640265  79.3106367  72.1189257  21.1458239
  79.5908120  71.4512446  21.7718665  80.0956974  72.3118352  20.6332903
  77.1139835  91.2948250  12.7083265  76.5413802  91.9138438  12.2553737
  77.6872629  91.8447612  13.2423187  83.1815225  80.5406891  24.8929814
  84.1332648  80.6404988  24.9142038  83.0118675  79.7485159  25.4027898
  81.2029605  77.6262474  25.0789215  80.6079537  77.9067486  24.3835703
  80.9179301  78.1156375  25.8505956  80.3337095  91.5785401  13.8391847
  81.2667768  91.5130962  14.0424723  80.2460308  92.4141667  13.3806380
  85.6603303  83.7613010  24.0072114  85.6279623  82.8229011  24.1931797
  86.2703926  83.8397047  23.2737938  77.4986634  82.6309063  10.0499318
  78.4445738  82.5015271  10.1187736  77.1200879  81.8923725  10.5268746
  85.8097791  80.5524054  24.0530397  85.2936840  79.7682510  23.8660326
  86.6937740  80.2242770  24.2176916  83.4708518  74.2965069  20.0126209
  83.2733339  73.9880157  20.8969541  84.0808224  75.0226708  20.1424139
  91.4779853  84.8229017  23.1478150  92.2083241  84.5614305  23.7085854
  90.8686798  84.0857739  23.1880218  89.5595150  82.9636880  23.7452602
  88.8328313  82.8292845  23.1369093  89.1442437  83.2713708  24.5509320
  77.3825326  86.6826809  31.5099975  78.3028336  86.8605408  31.7040021
  77.3474909  85.7382855  31.3579674  75.6829551  80.5559040   9.9854203
  74.7761006  80.2592152  10.0616916  75.9605532  80.2588858   9.1188489
  66.6007491  81.8765403  20.4353249  66.2810276  81.0230711  20.1427623
  66.0540919  82.0913981  21.1911217  70.3787399  84.5927844  24.1522756
  70.5973409  85.5244952  24.1710790  70.7913173  84.2335818  24.9377560
  77.2991617  75.0995929  16.1398444  76.4892345  74.7543014  16.5153690
  77.9876033  74.7903473  16.7286056  79.2282165  74.1773976  17.7622741
  79.7813203  74.5969430  18.4212764  79.4652251  73.2509724  17.8045697
  74.4528335  77.4145975  10.1266182  75.3147499  77.7400873  10.3861999
  74.6378680  76.6277471   9.6139248  66.4695751  85.4968315  22.4046371
  65.7759223  85.0822267  21.8916325  67.2168742  85.5388851  21.8079790
  82.6060972  76.2874501  17.2701405  82.0259641  76.9459305  16.8879457
  82.3396905  75.4651846  16.8588822  81.0564538  75.6879559  19.4722725
  81.5564317  75.7996094  18.6637044  81.7000146  75.3840612  20.1123534
  75.1146534  83.5958189  32.3590566  74.6313616  84.3958549  32.5654455
  75.2007473  83.6066133  31.4058010  68.3832494  85.4286568  20.2812386
  68.3603182  85.5274256  19.3294269  68.6933130  86.2751719  20.6029552
  71.0419872  87.4862723  24.3959000  71.9963125  87.4546666  24.3288932
  70.8432395  87.0253347  25.2109226  71.6319254  86.0563839  26.9629798
  72.4512143  86.5507918  26.9864635  71.9056061  85.1395808  26.9347365
  81.3885850  78.4474592  16.3257753  80.5011705  78.7324242  16.1077948
  81.8039839  78.2868355  15.4785030  84.7400386  78.4721113  20.0412092
  85.5160776  78.9617565  20.3136709  84.0148520  78.8979167  20.4983962
  87.1772945  79.1848732  21.0986033  87.7717436  78.9444468  20.3879341
  87.2499528  78.4655862  21.7259569  69.3970100  93.0282343  21.4129198
  69.2624568  92.2682744  20.8467196  68.9802163  93.7523243  20.9457987
  81.3626874  83.9629128  16.5408043  81.3062075  84.4197679  15.7015676
  81.9155216  83.2019812  16.3630886  85.1731680  79.7518859  17.3658163
  84.9168614  79.3515495  18.1966371  84.5484548  80.4662653  17.2408302
  89.4844017  82.4914933  19.8729454  88.9243575  82.5608122  20.6461016
  88.8787521  82.3155917  19.1528951  72.5539226  93.9251660  21.6247641
  72.4371610  94.8697092  21.5226331  71.7331673  93.6225221  22.0133440
  82.4415761  88.6501796  12.4704233  83.2761365  88.2182994  12.2881708
  82.2800104  88.4783809  13.3981128  82.0961653  85.1533909  13.8360573
  82.0410457  84.9878180  12.8949017  81.4707708  85.8609942  13.9922762
  66.8854168  80.3901973  27.6621995  67.5313032  79.8800927  28.1509220
  66.6771319  81.1270655  28.2365420  79.4107560  87.4582821  33.1614135
  80.2798720  87.6323473  32.8000770  78.9314312  88.2777238  33.0389865
  75.4057778  74.6542018  13.4145891  75.3936448  75.5983858  13.5714162
  76.2981200  74.4712163  13.1205352  73.5793740  94.5779922  24.8403569
  74.4820987  94.6103532  25.1570064  73.3531110  93.6480373  24.8549905
  75.3347342  93.3310908  21.5013648  74.3842973  93.3312770  21.3878020
  75.6379829  92.5843643  20.9849682  79.2209898  71.2484794  17.6691828
  78.4542294  70.6943281  17.8148510  79.6320603  71.3206663  18.5305979
  91.0700036  99.1671447  22.5659410  91.7078446  99.0478194  21.8622750
  90.9520879 100.1152291  22.6247362  87.8789742  99.1198875  22.5020935
  87.5408254  99.0039939  21.6141470  88.7479510  98.7190040  22.4821941
  88.3609525 100.2733726  28.4607140  88.3498166  99.8786525  27.5887644
  88.5230165  99.5399799  29.0540912  81.2840990 102.4685543  21.3302046
  82.0762282 102.1276367  20.9148345  81.5237640 102.5780518  22.2504199
  85.0816786 103.0570838  27.4086324  84.7906652 103.9616469  27.2932991
  85.7173771 103.0987366  28.1230394  86.0072993 100.4347687  23.9987684
  86.6036565 100.2103709  23.2844647  86.0647965  99.6932432  24.6013132
  93.5475152  90.5419708  25.0040205  93.2158477  91.4115119  24.7801420
  92.9520765  90.2255992  25.6834236  90.0406671 102.7432254  24.4036118
  89.7407395 103.6457293  24.2951925  89.6957731 102.4764437  25.2557271
  83.4919153  99.1946051  20.4372822  82.5669649  99.0622265  20.6450514
  83.7403566  99.9740270  20.9342765  93.4403815  95.2614794  22.0833555
  92.5320693  95.1930202  21.7892316  93.3891411  95.7386739  22.9115381
  80.8527964  98.8379324  21.2716611  80.9820345  99.0913803  22.1856023
  80.1725415  99.4307032  20.9521266  87.5144681  96.6804440  30.0268453
  86.7378015  97.2398360  30.0171317  88.1535244  97.1661223  30.5483323
  95.3065462  93.4631232  23.8611429  94.6639842  93.7563766  23.2151224
  94.8020390  93.3484153  24.6664626  85.7691053  99.4889893  29.5886420
  86.5105738 100.0274937  29.3121243  85.0628039 100.1156182  29.7457971
  91.2446393 101.6319033  28.1858581  91.6529749 101.1901444  27.4413213
  90.5223654 101.0571661  28.4392774  87.5977463  96.5691640  25.5592138
  88.4438658  96.9931054  25.7026787  87.5376101  95.9125264  26.2530701
  90.7476908  94.2296009  27.2173312  90.5037840  94.9838069  26.6807587
  91.0236839  94.6081356  28.0520559  92.7015371 100.7734621  25.8950577
  92.9132266 101.4166381  25.2184958  92.6545119  99.9396937  25.4272507
  90.3041600  93.3852442  22.7987149  89.4426079  93.6833695  23.0903887
  90.3304035  93.6022840  21.8668182  84.0127251 101.4766114  22.1440718
  84.5828608 101.9053382  21.5058203  84.6035362 101.1948698  22.8424904
  84.5052417  96.6429541  30.3901730  83.8751078  97.3245822  30.6237126
  84.3988505  96.5312623  29.4454868  79.7997389  96.3101337  21.3167654
  79.0096443  96.5658866  20.8407764  80.2908637  97.1249675  21.4219694
  81.7512135  96.6745916  18.2751130  80.9543298  96.7864611  18.7934626
  81.5237727  97.0132569  17.4092021  87.5817802 103.1990620  26.2233645
  87.6462235 103.6611027  27.0591817  86.8728726 102.5687985  26.3515955
  78.0835092  96.5631828  23.7482644  78.3343131  97.4478838  24.0140220
  78.6194641  96.3836429  22.9757736  83.7833160  90.9450307  32.7526981
  83.3900105  90.3916506  33.4274625  84.5999300  91.2560885  33.1433498
  86.7001121  92.3608186  30.3447237  87.4410834  92.9615339  30.2651700
  86.9319044  91.6185824  29.7865280  81.8442459  97.5464553  28.6225467
  81.7295974  96.6449811  28.9232566  80.9886977  97.7928250  28.2710283
  88.9234297 105.4882294  30.2212967  88.4798151 104.7018672  29.9033872
  89.5851510 105.6761444  29.5556858  83.6821418 107.0178095  24.7473646
  84.2328843 106.8895159  23.9750640  82.8432894 107.3172984  24.3968539
  91.0215535 105.7685094  28.2494369  91.0034010 106.5893975  27.7574638
  91.9435455 105.6439169  28.4744510  87.4788589 103.2829223  29.0917877
  88.0116926 102.5217511  28.8617185  86.9502670 102.9902875  29.8342032
  90.6458284  88.3889289  24.6211519  90.3022553  89.2790931  24.5450629
  91.0137246  88.1990947  23.7581104  88.1955677  93.2247601  18.1869192
  87.3397274  92.8354451  18.0074831  88.6082629  93.3039562  17.3268978
  89.7254824  90.7593944  22.5860752  89.2219620  90.7224079  21.7728557
  90.0185431  91.6686687  22.6457409  85.9697710  90.8432674  21.5926934
  86.8350707  90.6475483  21.2332823  86.0375219  90.6143026  22.5196291
  83.5760029  93.0734882  18.9643301  84.1503781  92.8510063  18.2316494
  84.1631011  93.1423576  19.7171902  85.8782697  89.9476131  17.6918370
  85.2247109  89.6325148  17.0674985  85.8363171  89.3251871  18.4178193
  89.1120437  96.4358064  22.0166018  88.1942998  96.6573011  21.8587706
  89.5280581  96.5104375  21.1577725  92.4445949  87.6482848  19.7229256
  92.7504826  86.7880212  19.4355172  93.1698554  88.2400468  19.5228250
  78.7370305  98.0513535  18.1110854  78.5394705  97.4582895  17.3861921
  78.1816969  97.7465745  18.8286793  86.7167029  97.9436641  20.2305448
  86.7715639  96.9910478  20.1547924  85.9058231  98.0996080  20.7146746
  84.6559389  96.5613701  17.9895826  83.8427255  96.8607872  18.3961019
  85.1518383  96.1669390  18.7070309  90.2533601  97.0255525  26.8210720
  90.6082988  97.2526999  27.6805186  90.9005732  97.3573902  26.1987976
  84.1473464  94.1332057  23.6057061  84.7872843  93.9920816  22.9080025
  83.3150994  93.8466570  23.2295663  81.1502080  94.1032382  18.3830048
  81.4108898  95.0177715  18.2739209  81.9719253  93.6356824  18.5326661
  82.6227006  95.5170139  25.5528873  83.2950059  95.3087501  24.9041522
  81.7956792  95.3192225  25.1134105  88.5252578  92.1432080  27.5694534
  87.8780493  92.8422029  27.4759010  89.2953593  92.5768224  27.9370782
  91.9331375 102.4080932  30.6445087  91.7816882 102.1791483  29.7275171
  91.9236055 103.3651533  30.6576432  88.7016712  99.9812845  25.6291353
  89.6308772 100.1324004  25.4560321  88.2807742 100.0696865  24.7740000
  87.5005044 104.0063509  23.3989891  87.3616129 103.6382293  24.2715829
  86.7119640 104.5211148  23.2273849  83.0254503  98.7912742  26.3131310
  82.8874301  98.0592980  26.9142849  83.9359426  98.7021642  26.0315498
  85.6536803  98.5032701  25.8014990  86.3636422  97.8625893  25.7601608
  85.6106112  98.7545596  26.7241170  93.6423582 105.4400054  28.7221569
  93.5836128 104.7559274  28.0552152  94.0443101 106.1819044  28.2702195
  84.3665737  95.4897919  27.6210629  83.8303094  95.0388657  28.2732225
  83.7782446  95.6243828  26.8781093  93.6440989 103.4039638  26.9535548
  92.7567768 103.0665560  27.0761947  94.2139540 102.6722669  27.1904314
  75.2970137  99.7363730  20.2778600  75.9841176  99.4225460  19.6899615
  75.1418265 100.6405095  20.0045851  80.1004859  94.6253927  24.7063623
  80.0163047  94.0179596  23.9714033  79.2787565  95.1162945  24.7073120
  90.2728573  93.1107490  20.0733819  90.7697272  92.3577452  19.7534889
  89.5015554  93.1471807  19.5077028  86.8563541  95.2524873  19.8005503
  86.4861329  94.6995913  20.4886409  87.3522634  94.6483007  19.2480503
  84.6852740 105.7122368  26.8960521  85.3862199 106.3458851  27.0489915
  84.2147855 106.0537100  26.1356160  92.7147567  90.0777084  22.2213177
  91.8010647  90.3081310  22.3895384  93.1440669  90.1615528  23.0727210
  92.4854026  98.2666976  24.7213071  91.8325476  98.5142883  24.0665524
  92.8634406  97.4531114  24.3875549  88.5341599  99.0086787  31.2079109
  87.8582236  98.9080916  31.8781484  89.3569233  98.8526000  31.6715106
  80.2820458 105.2458723  23.8291624  80.8673895 104.5002411  23.9619528
  80.0845296 105.5562680  24.7128288  74.8738113  97.8164323  22.5496067
  74.9122212  97.2827914  23.3433185  74.3678405  97.2899529  21.9307044
  82.2528875  92.6628864  26.0458609  82.3170201  93.5243695  25.6336007
  82.1895995  92.0502866  25.3130968  81.7281147  94.7351996  29.6931643
  82.3553186  94.3529074  30.3069168  80.8709066  94.5166198  30.0587336
  92.1275256 105.1414972  31.2985379  92.6715160 105.7544930  30.8040334
  91.5462101 105.6994550  31.8152392  78.5046690  96.5428426  15.6249998
  78.8000131  95.6339104  15.5717052  77.6034726  96.5216165  15.3031001
  82.0340937  94.6184422  21.6077547  81.3127523  95.2320390  21.4685020
  82.8234193  95.1542187  21.5294193  84.8367251  91.9538849  27.8818199
  85.3601653  92.2001145  28.6444508  84.6179584  92.7858883  27.4621336
  80.2334532  94.2242523  15.7489323  79.9047238  93.3439902  15.5664429
  80.5873903  94.1690192  16.6365713  86.0419796  92.8952544  25.5667869
  85.7016616  92.0960357  25.9688549  85.3358802  93.1954255  24.9944702
  86.6936268  89.9801856  24.0195192  87.5162337  89.5062334  23.8974083
  86.9374331  90.7592340  24.5193879  84.2174846  96.6720977  21.8287171
  84.0719427  96.9861280  22.7211452  83.7400050  97.2905877  21.2758069
  86.0771229  93.6623525  21.8768060  86.0632798  92.7664618  21.5400358
  86.7943657  93.6694188  22.5106346  87.9297360  94.0960865  23.9221188
  87.6715138  95.0177936  23.9205518  87.3982400  93.6991299  24.6121652
  78.6920509  99.2126321  24.7674832  78.1473977  99.9886129  24.8995106
  79.5699858  99.5597126  24.6093953  85.4808125  92.5437905  17.1455631
  85.6024036  91.6154551  17.3446518  85.1910168  92.5576591  16.2333946
  88.3499316  90.2292815  20.2822350  88.3721012  90.2932149  19.3274330
  88.7667375  89.3897324  20.4762857  79.4786530  98.3396217  27.6604989
  78.7368266  98.4878853  28.2469619  79.1579275  98.6004483  26.7971738
  87.4230193 107.8812196  27.4585379  87.7317319 107.6361342  28.3308078
  88.2205675 108.0858834  26.9704249  78.1251749 104.1447973  20.6504317
  77.2883657 103.7170147  20.4688318  78.0975395 104.3380416  21.5875108
  84.9649205  94.0569902  31.3545563  85.0137360  94.9332025  30.9723333
  85.5071719  93.5147295  30.7817206  95.4504050 104.6011026  30.6346700
  94.6599594 104.5835164  30.0951200  95.2137405 105.1399319  31.3895737
  95.5701925 101.4503492  27.9479429  95.6199930 101.2853499  28.8894952
  95.4615849 100.5830751  27.5577310  92.8605688  97.4334420  29.2638735
  93.7615551  97.2940885  28.9722733  92.9353662  97.5988875  30.2036913
  87.1948493  94.8101275  28.1091922  86.3251803  95.1034841  27.8374510
  87.4307974  95.3941720  28.8299185  97.0720122 103.8700434  28.1921450
  96.7804931 104.2330414  29.0284911  96.4592254 103.1567442  28.0134782
  95.3207311  98.9933048  26.6601508  95.7961432  99.1860694  25.8520360
  94.3972876  99.0492234  26.4144892  89.8987527  91.0280892  25.6257342
  90.4169471  91.7641919  25.3003831  89.5442660  91.3344885  26.4604101
  90.1500121  87.4481174  21.1458239  90.4301875  86.7804363  21.7718665
  90.9350728  87.6410270  20.6332903  94.0208980  95.8698808  24.8929814
  94.9726402  95.9696906  24.9142038  93.8512430  95.0777077  25.4027898
  92.0423359  92.9554391  25.0789215  91.4473291  93.2359404  24.3835703
  91.7573056  93.4448292  25.8505956  96.6491546  95.8815971  24.0530397
  96.1330594  95.0974428  23.8660326  97.5331494  95.5534688  24.2176916
  94.3102273  89.6256987  20.0126209  94.1127094  89.3172075  20.8969541
  94.9201978  90.3518626  20.1424139  88.2219081 102.0118727  31.5099975
  89.1422090 102.1897326  31.7040021  88.1868664 101.0674772  31.3579674
  77.4401246  97.2057321  20.4353249  77.1204030  96.3522629  20.1427623
  76.8934674  97.4205899  21.1911217  81.2181153  99.9219762  24.1522756
  81.4367163 100.8536870  24.1710790  81.6306927  99.5627736  24.9377560
  88.1385371  90.4287847  16.1398444  87.3286099  90.0834932  16.5153690
  88.8269788  90.1195391  16.7286056  90.0675919  89.5065894  17.7622741
  90.6206958  89.9261347  18.4212764  90.3046006  88.5801642  17.8045697
  86.0909019  95.4952967  33.5425505  85.9905745  96.4447324  33.4737596
  85.8730561  95.1671206  32.6701575  77.3089506 100.8260232  22.4046371
  76.6152977 100.4114185  21.8916325  78.0562497 100.8680769  21.8079790
  91.8958293  91.0171477  19.4722725  92.3958071  91.1288011  18.6637044
  92.5393901  90.7132530  20.1123534  85.9540289  98.9250106  32.3590566
  85.4707370  99.7250466  32.5654455  86.0401228  98.9358051  31.4058010
  79.2226248 100.7578486  20.2812386  79.1996936 100.8566173  19.3294269
  79.5326885 101.6043637  20.6029552  81.8813626 102.8154641  24.3959000
  82.8356880 102.7838583  24.3288932  81.6826150 102.3545265  25.2109226
  82.4713008 101.3855757  26.9629798  83.2905897 101.8799836  26.9864635
  82.7449816 100.4687725  26.9347365  77.7247922  95.7193891  27.6621995
  78.3706786  95.2092845  28.1509220  77.5165074  96.4562573  28.2365420
  90.2501315 102.7874738  33.1614135  91.1192474 102.9615391  32.8000770
  89.7708066 103.6069155  33.0389865  84.4187495 109.9071839  24.8403569
  85.3214742 109.9395450  25.1570064  84.1924865 108.9772290  24.8549905
  90.0603652  86.5776712  17.6691828  89.2936048  86.0235199  17.8148510
  90.4714357  86.6498581  18.5305979  82.0645413  92.8661508  31.7597009
  82.9276875  92.5098313  31.9700334  81.4910824  92.5275403  32.4472413
  94.6226914 106.2742225  32.7526981  94.2293860 105.7208423  33.4274625
  95.4393055 106.5852803  33.1433498  97.5394875 107.6900104  30.3447237
  98.2804589 108.2907257  30.2651700  97.7712798 106.9477742  29.7865280
  92.5674902 110.0643914  29.6931643  93.1946941 109.6820991  30.3069168
  91.7102821 109.8458116  30.0587336  95.8042959 109.3861820  31.3545563
  95.8531115 110.2623943  30.9723333  96.3465473 108.8439213  30.7817206
  96.9302773 110.8244885  33.5425505  96.8299500 111.7739242  33.4737596
  96.7124315 110.4963124  32.6701575  88.5641677 111.0485809  27.6621995
  89.2100541 110.5384763  28.1509220  88.3558828 111.7854490  28.2365420
  92.9039168 108.1953426  31.7597009  93.7670630 107.8390231  31.9700334
  92.3304579 107.8567320  32.4472413  50.2848565  21.1294506  15.4466875
  50.2261112  20.4453726  14.7797458  50.6868084  21.8713496  14.9947501
  48.7700239  20.8309423  18.0230686  49.3140143  21.4439382  17.5285640
  48.1887084  21.3889002  18.5397699  52.0929034  20.2905478  17.3592007
  51.3024577  20.2729616  16.8196506  51.8562388  20.8293771  18.1141043
  53.7145106  19.5594885  14.9166757  53.4229914  19.9224866  15.7530218
  53.1017237  18.8461894  14.7380089  46.8926298  18.4769190  19.8859442
  47.7617458  18.6509843  19.5246077  46.4133049  19.2963607  19.7635171
  58.5518774  30.1857816   9.2904717  59.1897184  30.0664564   8.5868057
  58.4339617  31.1338660   9.3492669  55.3608480  30.1385244   9.2266241
  55.0226992  30.0226309   8.3386776  56.2298248  29.7376409   9.2067247
  55.8428263  31.2920096  15.1852447  55.8316904  30.8972894  14.3132951
  56.0048902  30.5586169  15.7786218  48.7659728  33.4871912   8.0547353
  49.5581020  33.1462737   7.6393652  49.0056378  33.5966887   8.9749506
  52.5635524  34.0757208  14.1331631  52.2725390  34.9802839  14.0178297
  53.1992508  34.1173735  14.8475700  53.4891731  31.4534056  10.7232991
  54.0855303  31.2290079  10.0089953  53.5466703  30.7118802  11.3258438
  63.5068469  27.8484503   7.2690903  64.2393641  27.2783720   7.5028733
  62.7507825  27.4606104   7.7097409  61.0293890  21.5606077  11.7285512
  60.6977214  22.4301488  11.5046727  60.4339503  21.2442361  12.4079542
  57.5225409  33.7618623  11.1281425  57.2226132  34.6643662  11.0197232
  57.1776469  33.4950807  11.9802577  60.9222553  26.2801164   8.8078862
  60.0139430  26.2116572   8.5137623  60.8710149  26.7573108   9.6360687
  52.5046189  40.5262944   4.0952392  52.4270219  41.4770769   4.1740873
  51.9007833  40.1808816   4.7527319  54.9963419  27.6990809  16.7513759
  54.2196753  28.2584729  16.7416624  55.6353982  28.1847592  17.2728629
  62.7884199  24.4817602  10.5856736  62.1458580  24.7750135   9.9396530
  62.2839128  24.3670522  11.3909932  53.2509791  30.5076263  16.3131726
  53.9924475  31.0461306  16.0366550  52.5446777  31.1342551  16.4703278
  58.7265131  32.6505403  14.9103888  59.1348487  32.2087813  14.1658520
  58.0042392  32.0758030  15.1638081  55.0796201  27.5878010  12.2837445
  55.9257396  28.0117423  12.4272094  55.0194838  26.9311634  12.9776008
  59.0493945  33.2106594   8.6656177  58.4202808  33.3752308   7.9632244
  58.6619607  33.6248203   9.4367141  62.9283177  34.1461031   6.0200540
  62.2434215  34.5259933   5.4697574  63.0127027  34.7556358   6.7532488
  58.2295646  25.2482378  13.9418618  57.9856578  26.0024439  13.4052894
  58.5055577  25.6267726  14.7765865  60.1834109  31.7920990  12.6195884
  60.3951004  32.4352750  11.9430265  60.1363857  30.9583307  12.1517814
  51.4945988  32.4952483   8.8686025  52.0647345  32.9239752   8.2303509
  52.0854100  32.2135068   9.5670211  51.9871155  27.6615911  17.1147036
  51.3569815  28.3432192  17.3482433  51.8807243  27.5498992  16.1700174
  61.2979937  34.6692946  10.7918241  62.1197381  34.2673133  10.5100923
  61.2942340  34.5661180  11.7434357  55.0636540  34.2176989  12.9478952
  55.1280973  34.6797396  13.7837123  54.3547464  33.5874354  13.0761261
  69.3885930  31.0131694   7.1403213  68.6349638  30.4439092   6.9847217
  69.5233471  30.9794359   8.0873847  51.2651898  21.9636677  19.4772287
  50.8718843  21.4102875  20.1519931  52.0818038  22.2747255  19.8678805
  50.0408840  36.5186291   5.4708610  50.2175468  37.4404256   5.2829594
  50.8365674  36.2044710   5.9002990  54.1819859  23.3794556  17.0692544
  54.9229572  23.9801709  16.9897006  54.4137781  22.6372193  16.5110586
  49.3261197  28.5650923  15.3470773  49.2114712  27.6636180  15.6477872
  48.4705714  28.8114620  14.9955590  56.4053034  36.5068663  16.9458274
  55.9616888  35.7205042  16.6279179  57.0670248  36.6947814  16.2802165
  51.1640155  38.0364465  11.4718953  51.7147581  37.9081528  10.6995947
  50.3251631  38.3359354  11.1213845  58.5034272  36.7871463  14.9739675
  58.4852748  37.6080344  14.4819945  59.4254192  36.6625538  15.1989816
  54.9607327  34.3015593  15.8163184  55.4935663  33.5403881  15.5862492
  54.4321408  34.0089244  16.5587338  61.3052885  31.6250606   8.4449042
  60.6476560  32.3149867   8.5329171  62.1093284  32.0147038   8.7883028
  60.1158344  29.9794978   6.4952984  60.6290226  30.6124970   6.9974693
  60.7659568  29.3796174   6.1296344  56.5939175  27.4544434   8.7411324
  55.6761736  27.6759381   8.5833012  57.0099319  27.5290744   7.8823032
  60.8820140  34.9600980   4.6232126  60.4282467  34.1191890   4.6797317
  60.2514107  35.5962378   4.9606907  59.3253080  36.7977476   5.5581945
  59.6176054  37.3582534   4.8394310  59.8351700  37.0906037   6.3135104
  54.2886705  37.5757827   6.6475398  54.2462883  37.8018674   5.7183930
  55.2049404  37.3421202   6.7961199  57.7352338  28.0441895  13.5456027
  58.0901726  28.2713368  14.4050493  58.3824470  28.3760272  12.9233282
  63.4650075  31.1660331   4.2505356  63.3267974  31.3561927   3.3226545
  63.1086294  31.9279714   4.7073407  63.4919455  33.2336858   9.2616627
  63.9255962  33.1412147  10.1099682  64.2051036  33.2094358   8.6236643
  57.2247350  36.8338952  10.7949728  57.2784372  37.4029888  11.5627444
  56.3562131  37.0040837  10.4303765  50.1045743  26.5356508  12.2774179
  50.7768797  26.3273870  11.6286828  49.2775530  26.3378594  11.8379412
  64.3535005  33.2760559  11.7949513  64.5470895  34.1806369  12.0408788
  64.2535623  32.8167978  12.6288098  56.0071315  23.1618449  14.2939840
  55.3599230  23.8608399  14.2004317  56.7772331  23.5954593  14.6616088
  59.4150113  33.4267301  17.3690393  59.2635620  33.1977853  16.4520477
  59.4054793  34.3837903  17.3821739  56.1835450  30.9999214  12.3536660
  57.1127510  31.1510374  12.1805627  55.7626480  31.0883235  11.4985306
  54.9823781  35.0249878  10.1235198  54.8434867  34.6568663  10.9961136
  54.1938378  35.5397518   9.9519155  55.5771933  40.1258975   1.4660734
  55.7523689  39.6547018   2.2806357  54.8904721  40.7524741   1.6941995
  56.5328997  34.4031481   7.5124035  56.1978829  34.3632251   8.4081685
  56.0332942  33.7376197   7.0394446  50.5073241  29.8099111  13.0376617
  50.3693039  29.0779350  13.6388156  51.4178164  29.7208011  12.7560804
  53.1355541  29.5219071  12.5260296  53.8455160  28.8812263  12.4846915
  53.0924849  29.7731965  13.4486477  61.1242320  36.4586424  15.4466875
  61.0654866  35.7745644  14.7797458  61.5261838  37.2005414  14.9947501
  51.8484475  26.5084288  14.3455936  51.3121832  26.0575027  14.9977532
  51.2601184  26.6430197  13.6026400  50.1433019  43.2748338   8.2400594
  50.3829617  43.9066862   8.9179613  49.3002215  42.9236378   8.5265954
  61.1259727  34.4226008  13.6780855  60.2386506  34.0851930  13.8007254
  61.6958278  33.6909039  13.9149620  54.6560881  39.0827460  10.6442098
  54.5831052  39.8882432  11.1561403  54.2138274  39.2819426   9.8190120
  54.4450660  38.3199230   4.1544920  53.6618182  38.8620910   4.2483144
  55.1443405  38.8373210   4.5539161  65.6077068  29.8334225   8.4397417
  65.5966944  30.7158941   8.0691350  64.7394447  29.4805776   8.2451954
  57.1159564  38.9814294  12.8000257  57.8287536  39.6161759  12.7276158
  56.6249593  39.0778160  11.9840259  52.1671478  36.7308738  13.6205828
  52.8680937  37.3645221  13.7735222  51.6966593  37.0723469  12.8601467
  59.9672764  29.2853345  11.4458378  59.3144214  29.5329253  10.7910831
  60.3453144  28.4717483  11.1120855  56.9279937  39.3213038   5.5486548
  57.1102332  38.5034694   6.0114301  57.7512923  39.5380731   5.1111438
  57.2622103  38.2481223   2.8101597  57.7909869  37.7373678   2.1971759
  57.5250323  37.9323754   3.6747130  56.0160337  30.0273156  17.9324415
  55.3400974  29.9267285  18.6026790  56.8387971  29.8712370  18.3960412
  47.7639196  36.2645093  10.5536930  48.3492633  35.5188781  10.6864835
  47.5664034  36.5749049  11.4373594  50.6177851  39.2996340   5.5699373
  49.9488226  39.7842468   5.0863413  50.4790721  39.5465561   6.4842751
  54.7583120  41.3340084  12.1682031  55.3101428  41.4971705  12.9331116
  55.0989313  41.9244521  11.4962056  49.2099885  25.7538366  16.4176950
  49.8371924  25.3715443  17.0314474  48.3527804  25.5352568  16.7832643
  59.6093994  36.1601341  18.0230686  60.1533898  36.7731299  17.5285640
  59.0280839  36.7180920  18.5397699  57.8951507  39.2822059   9.1545713
  57.7702646  38.4811799   8.6456659  58.5530598  39.7768253   8.6659683
  59.9586415  37.0831079  10.7825263  59.0116751  36.9636430  10.7103590
  60.3069188  36.1953577  10.8651525  52.3185989  22.9725218  14.6063505
  52.8420390  23.2187515  15.3689815  52.0998322  23.8045253  14.1866643
  56.9632848  36.8783795   6.9829616  56.8157811  35.9500503   7.1637186
  57.7886342  36.9003886   6.4986691  60.5666970  37.7012354   8.0694488
  61.4913518  37.4955216   7.9318940  60.3982274  37.4528755   8.9783830
  53.5238534  23.9138913  12.2913176  53.1835354  23.1146726  12.6933856
  52.8177540  24.2140624  11.7190009  55.4116098  25.1147235  10.6466494
  55.1533876  26.0364305  10.6450825  54.8801138  24.7177669  11.3366959
  60.3562287  38.2198022   3.4256580  60.5299164  37.6544444   2.6730432
  60.8491178  39.0198917   3.2436070  46.1739246  30.2312691  11.4920139
  45.6292714  31.0072499  11.6240413  47.0518596  30.5783495  11.3339260
  66.2101678  30.9834445   5.0446880  66.6532824  30.2341770   4.6466003
  65.3328188  30.9744581   4.6620612  61.3437459  37.5364786   0.5253478
  62.0388364  38.1571479   0.7440793  61.6860609  36.6860137   0.8005856
  46.9605268  29.3582587  14.3850296  46.2187004  29.5065222  14.9714926
  46.6398012  29.6190853  13.5217045  63.2428882  34.9864492   2.0540809
  63.7680206  35.3251764   1.3290129  63.1551235  34.0511507   1.8703944
  54.9048931  38.8998565  14.1830686  55.2136057  38.6547712  15.0553385
  55.7024413  39.1045204  13.6949556  54.9269543  41.0536475   6.4136062
  54.4874533  40.5612854   7.1068919  55.6777660  40.5109443   6.1728137
  47.4061882  37.2448016   6.4160690  48.2319902  36.9451788   6.0359334
  47.0555934  36.4755638   6.8650479  52.3743415  36.5974484   8.4858364
  51.7523424  35.9345189   8.1860592  53.0448282  36.6235616   7.8032012
  52.4467943  25.0756272  18.0790870  52.4956098  25.9518395  17.6968639
  52.9890457  24.5333665  17.5062513  62.9322788  35.6197395  17.3592007
  62.1418332  35.6021534  16.8196506  62.6956143  36.1585689  18.1141043
  63.0520663  32.4689862  14.6724735  63.1018668  32.3039869  15.6140258
  62.9434587  31.6017121  14.2822616  60.3424426  28.4520790  15.9884042
  61.2434288  28.3127254  15.6968040  60.4172400  28.6175244  16.9282220
  54.6767231  25.8287644  14.8337228  53.8070540  26.1221210  14.5619817
  54.9126711  26.4128089  15.5544492  64.5538860  34.8886803  14.9166757
  64.2623668  35.2516784  15.7530218  63.9410991  34.1753811  14.7380089
  65.7534542  32.4539683   7.4369327  66.5881434  32.8929487   7.6006888
  65.8893671  31.9778336   6.6177573  62.8026048  30.0119418  13.3846815
  63.2780170  30.2047064  12.5765666  61.8791614  30.0678604  13.1390199
  57.3806265  22.0467261  12.3502649  57.8988209  22.7828288  12.0249137
  57.0261398  22.3531255  13.1849408  61.5027717  26.8885178  11.6175121
  62.4545140  26.9883275  11.6387345  61.3331168  26.0963446  12.1273205
  59.5242097  23.9740761  11.8034521  58.9292029  24.2545774  11.1081010
  59.2391793  24.4634662  12.5751263  63.9815795  30.1091297  10.7317420
  63.9492115  29.1707298  10.9177104  64.5916419  30.1875334   9.9983245
  64.1310284  26.9002341  10.7775703  63.6149332  26.1160798  10.5905632
  65.0150232  26.5721058  10.9422223  69.7992345  31.1707304   9.8723457
  70.5295733  30.9092592  10.4331160  69.1899290  30.4336026   9.9125525
  67.8807642  29.3115167  10.4697908  67.1540806  29.1771132   9.8614400
  67.4654929  29.6191996  11.2754626  55.7037818  33.0305097  18.2345281
  56.6240828  33.2083696  18.4285328  55.6687402  32.0861142  18.0824980
  48.6999891  30.9406131  10.8768062  48.9185901  31.8723239  10.8956096
  49.1125665  30.5814106  11.6622866  53.5727756  26.5139337  20.2670811
  53.4724483  27.4633694  20.1982902  53.3549298  26.1857576  19.3946881
  53.4359026  29.9436476  19.0835873  52.9526108  30.7436836  19.2899762
  53.5219965  29.9544421  18.1303317  49.3632364  33.8341011  11.1204307
  50.3175617  33.8024953  11.0534238  49.1644887  33.3731634  11.9354533
  49.9531746  32.4042127  13.6875104  50.7724635  32.8986205  13.7109942
  50.2268554  31.4874095  13.6592672  65.4985437  25.5327019   7.8231340
  66.0929928  25.2922755   7.1124648  65.5712021  24.8134150   8.4504876
  47.7182593  39.3760630   8.1374505  47.5837061  38.6161031   7.5712503
  47.3014655  40.1001530   7.6703293  67.8056510  28.8393220   6.5974761
  67.2456068  28.9086409   7.3706323  67.2000013  28.6634205   5.8774257
  50.8751719  40.2729947   8.3492947  50.7584103  41.2175380   8.2471637
  50.0544165  39.9703509   8.7378746  45.2066660  26.7380260  14.3867301
  45.8525524  26.2279214  14.8754527  44.9983811  27.4748942  14.9610727
  57.7320052  33.8061108  19.8859442  58.6011212  33.9801760  19.5246077
  57.2526804  34.6255525  19.7635171  51.9006233  40.9258209  11.5648876
  52.8033479  40.9581819  11.8815371  51.6743603  39.9958660  11.5795211
  53.6559835  39.6789196   8.2258954  52.7055466  39.6791057   8.1123327
  53.9592321  38.9321930   7.7094989  49.5464151  23.8847878  18.4842316
  50.4095613  23.5284682  18.6945640  48.9729562  23.5461772  19.1717720
  69.3912528  45.5149734   9.2904717  70.0290938  45.3956481   8.5868057
  69.2733371  46.4630578   9.3492669  66.2002234  45.4677162   9.2266241
  65.8620746  45.3518227   8.3386776  67.0692003  45.0668327   9.2067247
  62.0589050  47.3212638   5.2163132  61.4953915  47.2302575   4.4479420
  61.9441445  46.5012543   5.6965625  66.6822017  46.6212014  15.1852447
  66.6710658  46.2264812  14.3132951  66.8442657  45.8878086  15.7786218
  59.6053482  48.8163830   8.0547353  60.3974774  48.4754655   7.6393652
  59.8450132  48.9258805   8.9749506  67.6388609  50.9883606   0.5277597
  66.9876589  51.5737687   0.1411611  68.4332972  51.5189801   0.5872635
  61.5644236  48.0772743   0.9264732  62.3375112  47.5301730   0.7877607
  61.9169635  48.9416993   1.1379193  63.4029279  49.4049126  14.1331631
  63.1119145  50.3094756  14.0178297  64.0386263  49.4465653  14.8475700
  64.3285485  46.7825974  10.7232991  64.9249058  46.5581996  10.0089953
  64.3860457  46.0410720  11.3258438  63.9010514  44.2365409  -1.4416819
  64.1536035  43.7146931  -2.2033356  62.9635073  44.0731555  -1.3390135
  68.9453797  43.2401188   6.3657925  69.7316886  42.8220611   6.0148342
  69.2092501  44.1447280   6.5339573  69.1163874  48.6774038   1.0646582
  68.4809707  48.7508665   1.7767486  68.7861280  49.2667637   0.3865661
  74.3462224  43.1776421   7.2690903  75.0787396  42.6075638   7.5028733
  73.5901580  42.7898021   7.7097409  63.6206803  46.1393515   0.7607556
  63.5043061  45.4638419   1.4288641  63.7309062  45.6525889  -0.0560291
  65.9638344  45.6003662   4.4654246  65.5996551  45.0734283   5.1767167
  66.8205459  45.2102132   4.2920731  71.8687644  36.8897995  11.7285512
  71.5370969  37.7593406  11.5046727  71.2733258  36.5734279  12.4079542
  65.6043831  40.6293562  -0.5384406  65.7718233  41.4973799  -0.1713935
  65.4141000  40.7920844  -1.4623117  68.3619164  49.0910541  11.1281425
  68.0619887  49.9935580  11.0197232  68.0170223  48.8242724  11.9802577
  61.8131645  45.5424338   7.1618129  60.8882142  45.4100552   7.3695821
  62.0616058  46.3218557   7.6588071  71.7616307  41.6093081   8.8078862
  70.8533185  41.5408490   8.5137623  71.7103903  42.0865026   9.6360687
  65.5833051  43.0851220   0.4462261  65.4632677  43.5308270   1.2847741
  64.8885640  43.4336537  -0.1124201  59.1740456  45.1857611   7.9961918
  59.3032837  45.4392090   8.9101330  58.4937908  45.7785319   7.6766573
  63.3439944  55.8554861   4.0952392  63.2663973  56.8062686   4.1740873
  62.7401587  55.5100734   4.7527319  65.8357173  43.0282727  16.7513759
  65.0590507  43.5876647  16.7416624  66.4747736  43.5139510  17.2728629
  73.6277954  39.8109520  10.5856736  72.9852334  40.1042053   9.9396530
  73.1232882  39.6962440  11.3909932  71.2818118  43.5572693   1.2742595
  72.1935974  43.7900080   1.0990293  70.7727765  44.1409737   0.7117674
  64.0903546  45.8368180  16.3131726  64.8318230  46.3753224  16.0366550
  63.3840531  46.4634469  16.4703278  69.5658885  47.9797321  14.9103888
  69.9742241  47.5379731  14.1658520  68.8436147  47.4049948  15.1638081
  65.9189955  42.9169927  12.2837445  66.7651150  43.3409341  12.4272094
  65.8588593  42.2603552  12.9776008  69.8887700  48.5398511   8.6656177
  69.2596562  48.7044225   7.9632244  69.5013362  48.9540121   9.4367141
  73.7676932  49.4752949   6.0200540  73.0827970  49.8551850   5.4697574
  73.8520781  50.0848276   6.7532488  69.0689401  40.5774296  13.9418618
  68.8250332  41.3316356  13.4052894  69.3449331  40.9559643  14.7765865
  71.0227863  47.1212908  12.6195884  71.2344759  47.7644668  11.9430265
  70.9757612  46.2875225  12.1517814  68.6254092  39.7330729   9.5232456
  67.7638571  40.0311982   9.8149194  68.6516527  39.9501128   8.5913489
  65.4415662  48.2772919   5.9306262  65.9054007  48.5560622   5.1410884
  65.1772460  47.3756364   5.7479352  62.3339743  47.8244401   8.8686025
  62.9041100  48.2531669   8.2303509  62.9247855  47.5426986   9.5670211
  64.3784548  44.3996072   2.7395827  65.0808591  44.8517115   3.2069753
  64.0465176  43.7579891   3.3675720  62.8264909  42.9907828  17.1147036
  62.1963570  43.6724109  17.3482433  62.7200997  42.8790910  16.1700174
  58.1209882  42.6579624   8.0412960  57.3308936  42.9137153   7.5653071
  58.6121129  43.4727962   8.1465001  72.1373691  49.9984864  10.7918241
  72.9591135  49.5965051  10.5100923  72.1336094  49.8953098  11.7434357
  60.0724627  43.0224204   4.9996437  59.2755790  43.1342898   5.5179933
  59.8450219  43.3610856   4.1337328  65.9030295  49.5468907  12.9478952
  65.9674727  50.0089314  13.7837123  65.1941219  48.9166272  13.0761261
  56.4047585  42.9110115  10.4727951  56.6555623  43.7957125  10.7385527
  56.9407133  42.7314716   9.7003043  80.2279684  46.3423612   7.1403213
  79.4743393  45.7731010   6.9847217  80.3627226  46.3086277   8.0873847
  65.6178312  51.2137014   2.8157932  65.4823987  52.0588550   3.2442780
  66.1588125  51.4156292   2.0523866  62.1045652  37.2928594  19.4772287
  61.7112598  36.7394793  20.1519931  62.9211792  37.6039173  19.8678805
  59.0707710  48.7312452   3.3885857  59.5832230  49.5255703   3.5391422
  59.7230423  48.0338743   3.3219459  60.8802595  51.8478209   5.4708610
  61.0569223  52.7696173   5.2829594  61.6759428  51.5336628   5.9002990
  65.0213613  38.7086473  17.0692544  65.7623326  39.3093626  16.9897006
  65.2531536  37.9664111  16.5110586  60.1654951  43.8942841  15.3470773
  60.0508466  42.9928098  15.6477872  59.3099469  44.1406537  14.9955590
  67.2446789  51.8360581  16.9458274  66.8010643  51.0496959  16.6279179
  67.9064002  52.0239731  16.2802165  62.0033910  53.3656382  11.4718953
  62.5541335  53.2373446  10.6995947  61.1645386  53.6651271  11.1213845
  69.3428027  52.1163381  14.9739675  69.3246502  52.9372262  14.4819945
  70.2647947  51.9917456  15.1989816  65.8001081  49.6307510  15.8163184
  66.3329418  48.8695798  15.5862492  65.2715162  49.3381162  16.5587338
  68.9670776  34.7367576  11.3456825  68.6235045  35.6269218  11.2695936
  69.3349739  34.5469234  10.4826410  57.0356627  47.0601107   4.1645428
  57.8731849  47.4698115   3.9479135  57.2134894  46.1200549   4.1345621
  68.9321059  44.7276187  -0.1470739  68.4167682  45.4980792   0.0917648
  68.6598367  44.0541323   0.4762322  66.5168170  39.5725888   4.9114499
  65.6609766  39.1832739   4.7320138  66.9295122  39.6517849   4.0514284
  68.0467316  37.1072231   9.3106059  67.5432112  37.0702367   8.4973864
  68.3397923  38.0164974   9.3702715  64.2910202  37.1910961   8.3172240
  65.1563199  36.9953770   7.9578130  64.3587711  36.9621313   9.2441597
  73.9055333  47.4808542   1.7882434  73.1284776  47.1419701   1.3437596
  74.5846814  47.4861165   1.1137399  68.7207362  42.6003279   1.6789042
  68.4157497  42.9149429   2.5299185  69.6737804  42.6784699   1.7216375
  67.1653794  48.7593503   3.3281996  66.6375155  48.0246262   3.0155233
  66.6641296  49.5368179   3.0821964  72.1446640  46.9542523   8.4449042
  71.4870314  47.6441785   8.5329171  72.9487039  47.3438955   8.7883028
  61.8972521  39.4213169   5.6888607  62.4716273  39.1988351   4.9561800
  62.4843504  39.4901864   6.4417209  70.9552099  45.3086896   6.4952984
  71.4683980  45.9416888   6.9974693  71.6053322  44.7088091   6.1296344
  62.2242108  41.4517630  -0.2915507  61.3879421  41.7892317   0.0293767
  62.0846878  41.3166610  -1.2288371  64.1995189  36.2954418   4.4163677
  63.5459601  35.9803435   3.7920291  64.1575663  35.6730158   5.1423500
  65.3106394  46.5773713  -3.6683031  64.4033456  46.3462966  -3.4691882
  65.8077426  45.7811332  -3.4809050  68.2174473  55.2871220  -0.7486345
  67.5436172  55.5902917  -0.1401387  68.6040295  56.0900301  -1.0980888
  67.4332929  42.7836351   8.7411324  66.5155491  43.0051298   8.5833012
  67.8493073  42.8582662   7.8823032  68.2167977  44.1827767   3.8714005
  68.9639796  44.6949164   3.5621127  68.4859567  43.8611820   4.7318398
  66.4894627  46.6786308   0.8540959  65.5805847  46.3945341   0.9513429
  66.5189711  47.0985386  -0.0055734  71.7213895  50.2892897   4.6232126
  71.2676222  49.4483807   4.6797317  71.0907861  50.9254296   4.9606907
  70.6646814  41.2184883   5.8532794  69.9269571  40.7062270   6.1843036
  70.9173588  40.7785265   5.0416071  70.1646834  52.1269394   5.5581945
  70.4569808  52.6874451   4.8394310  70.6745455  52.4197955   6.3135104
  70.7658442  33.9961135   6.4474563  71.0717318  33.1358499   6.1600478
  71.4911046  34.5878756   6.2473557  57.0582798  44.3991822   4.8356161
  56.8607198  43.8061183   4.1107228  56.5029462  44.0944032   5.5532100
  65.0379521  44.2914928   6.9550754  65.0928131  43.3388765   6.8793231
  64.2270723  44.4474368   7.4392053  66.1870715  48.2195052  -1.8070963
  65.7490145  47.5030910  -2.2665325  66.9281156  48.4471166  -2.3685871
  62.9771881  42.9091988   4.7141133  62.1639747  43.2086159   5.1206325
  63.4730875  42.5147677   5.4315615  65.1280459  52.9049745   6.6475398
  65.0856638  53.1310591   5.7183930  66.0443158  52.6713120   6.7961199
  68.5746093  43.3733813  13.5456027  68.9295481  43.6005286  14.4050493
  69.2218224  43.7052189  12.9233282  74.3043830  46.4952249   4.2505356
  74.1661729  46.6853845   3.3226545  73.9480049  47.2571631   4.7073407
  62.4685956  40.4810344  10.3302368  63.1085335  40.3399103   9.6325331
  61.6363487  40.1944857   9.9540970  74.3313210  48.5628776   9.2616627
  74.7649716  48.4704065  10.1099682  75.0444790  48.5386276   8.6236643
  63.2446260  49.7812774   6.4437360  64.0386858  49.2863094   6.2419935
  62.5337952  49.2530637   6.0805066  68.0641104  52.1630870  10.7949728
  68.1178127  52.7321806  11.5627444  67.1955886  52.3332755  10.4303765
  59.5529023  43.9255856   2.5197113  58.6226612  43.8640311   2.7367075
  59.6486495  43.4031809   1.7233754  59.4714572  40.4510669   5.1075355
  59.7321390  41.3656002   4.9984515  60.2931745  39.9835111   5.2571968
  60.9439498  41.8648426  12.2774179  61.6162551  41.6565788  11.6286828
  60.1169284  41.6670512  11.8379412  75.1928759  48.6052476  11.7949513
  75.3864649  49.5098287  12.0408788  75.0929377  48.1459895  12.6288098
  66.8465070  38.4910367  14.2939840  66.1992985  39.1900316  14.2004317
  67.6166085  38.9246511  14.6616088  70.2543868  48.7559219  17.3690393
  70.1029374  48.5269771  16.4520477  70.2448547  49.7129820  17.3821739
  67.0229204  46.3291132  12.3536660  67.9521264  46.4802291  12.1805627
  66.6020234  46.4175153  11.4985306  65.8217536  50.3541796  10.1235198
  65.6828622  49.9860581  10.9961136  65.0332132  50.8689436   9.9519155
  66.4165688  55.4550893   1.4660734  66.5917444  54.9838936   2.2806357
  65.7298476  56.0816659   1.6941995  67.3722751  49.7323399   7.5124035
  67.0372584  49.6924169   8.4081685  66.8726697  49.0668115   7.0394446
  61.3466995  45.1391029  13.0376617  61.2086793  44.4071268  13.6388156
  62.2571919  45.0499929  12.7560804  70.3081943  47.0779433  -2.2138905
  69.6911113  46.3526261  -2.3105852  69.8398431  47.8388793  -2.5571831
  63.9749296  44.8510988  12.5260296  64.6848914  44.2104180  12.4846915
  63.9318604  45.1023883  13.4486477  71.9636074  51.7878342  15.4466875
  71.9048621  51.1037562  14.7797458  72.3655593  52.5297332  14.9947501
  62.6878230  41.8376206  14.3455936  62.1515587  41.3866945  14.9977532
  62.0994938  41.9722115  13.6026400  60.9826773  58.6040255   8.2400594
  61.2223371  59.2358780   8.9179613  60.1395970  58.2528295   8.5265954
  71.9653482  49.7517925  13.6780855  71.0780260  49.4143847  13.8007254
  72.5352033  49.0200957  13.9149620  53.6182629  46.0842017   7.0023906
  54.3053669  45.7703747   6.4144922  53.4630757  46.9883382   6.7291158
  58.4217351  40.9732214  11.4308930  58.3375540  40.3657883  10.6959340
  57.6000057  41.4641232  11.4318426  65.4954635  54.4119378  10.6442098
  65.4224807  55.2174349  11.1561403  65.0532028  54.6111344   9.8190120
  65.2844415  53.6491148   4.1544920  64.5011937  54.1912828   4.2483144
  65.9837160  54.1665128   4.5539161  68.5941065  39.4585777   6.7979125
  69.0909764  38.7055740   6.4780195  67.8228046  39.4950094   6.2322335
  76.4470822  45.1626143   8.4397417  76.4360698  46.0450858   8.0691350
  75.5788202  44.8097694   8.2451954  67.9553319  54.3106212  12.8000257
  68.6681291  54.9453677  12.7276158  67.4643347  54.4070078  11.9840259
  69.6770846  48.2157465   4.3717549  68.7427124  48.3358927   4.2022253
  69.8547514  47.3129931   4.1077558  65.1776034  41.6003160   6.5250810
  64.8073821  41.0474201   7.2131715  65.6735126  40.9961294   5.9725810
  73.0643397  44.0574784   4.9067583  73.5303849  44.8902775   4.8327885
  73.5150897  43.5919765   5.6112841  63.0065232  52.0600655  13.6205828
  63.7074692  52.6937138  13.7735222  62.5360347  52.4015387  12.8601467
  71.1319628  50.4018605   1.9053735  71.4079472  50.2875200   2.8147609
  70.2624127  50.0036090   1.8665908  71.0360060  36.4255371   8.9458484
  70.1223139  36.6559598   9.1140691  71.4653161  36.5093815   9.7972516
  70.8066518  44.6145263  11.4458378  70.1537968  44.8621170  10.7910831
  71.1846898  43.8009401  11.1120855  67.7673692  54.6504956   5.5486548
  67.9496087  53.8326612   6.0114301  68.5906678  54.8672648   5.1111438
  68.1015857  53.5773141   2.8101597  68.6303624  53.0665596   2.1971759
  68.3644077  53.2615671   3.6747130  66.8554091  45.3565074  17.9324415
  66.1794728  45.2559203  18.6026790  67.6781725  45.2004288  18.3960412
  58.6032950  51.5937010  10.5536930  59.1886387  50.8480698  10.6864835
  58.4057789  51.9040967  11.4373594  61.4571605  54.6288258   5.5699373
  60.7881981  55.1134385   5.0863413  61.3184475  54.8757478   6.4842751
  53.1950605  44.1642611   9.2741374  53.2334704  43.6306201  10.0678492
  52.6890898  43.6377816   8.6552351  65.5976874  56.6632001  12.1682031
  66.1495182  56.8263623  12.9331116  65.9383067  57.2536439  11.4962056
  60.5741367  39.0107151  12.7703916  60.6382694  39.8721982  12.3581314
  60.5108487  38.3981153  12.0376274  60.0493640  41.0830284  16.4176950
  60.6765679  40.7007361  17.0314474  59.1921559  40.8644486  16.7832643
  70.4487748  51.4893259  18.0230686  70.9927652  52.1023217  17.5285640
  69.8674593  52.0472837  18.5397699  56.8259183  42.8906713   2.3495305
  57.1212624  41.9817391   2.2962359  55.9247218  42.8694452   2.0276307
  68.7345261  54.6113977   9.1545713  68.6096401  53.8103717   8.6456659
  69.3924352  55.1060170   8.6659683  60.3553430  40.9662709   8.3322854
  59.6340015  41.5798677   8.1930327  61.1446685  41.5020474   8.2539499
  70.7980170  52.4122997  10.7825263  69.8510505  52.2928348  10.7103590
  71.1462943  51.5245495  10.8651525  63.1579743  38.3017136  14.6063505
  63.6814145  38.5479432  15.3689815  62.9392076  39.1337171  14.1866643
  58.5547024  40.5720810   2.4734630  58.2259730  39.6918189   2.2909736
  58.9086395  40.5168479   3.3611019  67.8026603  52.2075713   6.9829616
  67.6551565  51.2792421   7.1637186  68.6280096  52.2295804   6.4986691
  61.6688847  40.8593780   2.8410108  62.0084920  41.3879701   2.1188716
  62.1160968  41.1974186   3.6168674  71.4060725  53.0304272   8.0694488
  72.3307272  52.8247133   7.9318940  71.2376028  52.7820673   8.9783830
  64.3632288  39.2430831  12.2913176  64.0229108  38.4438644  12.6933856
  63.6571294  39.5432542  11.7190009  65.0148760  36.3280143  10.7440499
  65.8374829  35.8540622  10.6219389  65.2586823  37.1070627  11.2439185
  63.6556994  39.3568402   1.0403401  64.3765357  39.7349655   0.5367117
  63.0322299  40.0757279   1.1438378  67.7988117  40.0613551   1.9761733
  68.0151732  40.9438189   1.6750561  67.3182184  39.6699764   1.2467375
  62.5387339  43.0199264   8.5532477  62.3931919  43.3339567   9.4456759
  62.0612542  43.6384164   8.0003376  64.3983722  40.0101812   8.6013367
  64.3845290  39.1142905   8.2645665  65.1156150  40.0172476   9.2351653
  66.2509852  40.4439152  10.6466494  65.9927630  41.3656223  10.6450825
  65.7194893  40.0469587  11.3366959  71.1956041  53.5489939   3.4256580
  71.3692919  52.9836362   2.6730432  71.6884932  54.3490834   3.2436070
  57.0133001  45.5604608  11.4920139  56.4686469  46.3364416  11.6240413
  57.8912351  45.9075413  11.3339260  63.8020617  38.8916192   3.8700937
  63.9236529  37.9632838   4.0691825  63.5122660  38.9054878   2.9579253
  66.6711808  36.5771103   7.0067657  66.6933505  36.6410436   6.0519637
  67.0879867  35.7375611   7.2008163  77.0495432  46.3126362   5.0446880
  77.4926578  45.5633687   4.6466003  76.1721942  46.3036499   4.6620612
  72.1831214  52.8656704   0.5253478  72.8782118  53.4863396   0.7440793
  72.5254364  52.0152055   0.8005856  57.7999023  44.6874505  14.3850296
  57.0580759  44.8357140  14.9714926  57.4791767  44.9482770  13.5217045
  74.0822637  50.3156409   2.0540809  74.6073961  50.6543682   1.3290129
  73.9944989  49.3803425   1.8703944  65.7442685  54.2290483  14.1830686
  66.0529812  53.9839630  15.0553385  66.5418167  54.4337121  13.6949556
  65.7663297  56.3828393   6.4136062  65.3268288  55.8904771   7.1068919
  66.5171414  55.8401360   6.1728137  58.2455636  52.5739933   6.4160690
  59.0713656  52.2743705   6.0359334  57.8949688  51.8047556   6.8650479
  63.2137170  51.9266402   8.4858364  62.5917179  51.2637107   8.1860592
  63.8842036  51.9527533   7.8032012  56.4464241  50.4926260   7.3749624
  55.6096150  50.0648434   7.1933625  56.4187887  50.6858703   8.3120415
  63.2861697  40.4048190  18.0790870  63.3349852  41.2810312  17.6968639
  63.8284211  39.8625583  17.5062513  73.7716543  50.9489313  17.3592007
  72.9812086  50.9313452  16.8196506  73.5349897  51.4877607  18.1141043
  73.8914418  47.7981779  14.6724735  73.9412423  47.6331787  15.6140258
  73.7828341  46.9309038  14.2822616  62.7750676  50.4770325   1.9616824
  62.9238797  51.1605789   1.3083497  63.5817120  50.4575415   2.4766280
  71.1818180  43.7812707  15.9884042  72.0828043  43.6419172  15.6968040
  71.2566155  43.9467162  16.9282220  65.5160985  41.1579562  14.8337228
  64.6464295  41.4513128  14.5619817  65.7520466  41.7420007  15.5544492
  75.3932615  50.2178721  14.9166757  75.1017423  50.5808701  15.7530218
  74.7804746  49.5045729  14.7380089  76.5928297  47.7831601   7.4369327
  77.4275188  48.2221405   7.6006888  76.7287426  47.3070254   6.6177573
  73.6419803  45.3411335  13.3846815  74.1173924  45.5338982  12.5765666
  72.7185368  45.3970521  13.1390199  60.5303309  46.5035503   2.9677893
  60.2849351  45.5997833   3.1658103  60.6999224  46.5052653   2.0257371
  68.2200019  37.3759179  12.3502649  68.7381963  38.1120206  12.0249137
  67.8655152  37.6823172  13.1849408  59.7998957  42.2363860   0.4664055
  59.1068202  42.3108215  -0.1895909  59.5550709  41.4724204   0.9885572
  68.4712613  33.7959461   7.8703545  68.7514367  33.1282651   8.4963972
  69.2563220  33.9888557   7.3578209  66.2746082  52.9718455  -0.5671428
  65.7020049  53.5908643  -1.0200956  66.8478876  53.5217817  -0.0331506
  72.3421472  42.2177095  11.6175121  73.2938895  42.3175193  11.6387345
  72.1724922  41.4255364  12.1273205  70.3635851  39.3032679  11.8034521
  69.7685783  39.5837691  11.1081010  70.0785548  39.7926580  12.5751263
  69.4943342  53.2555606   0.5637154  70.4274015  53.1901167   0.7670029
  69.4066555  54.0911872   0.1051687  72.1231358  52.5721476  -2.4758898
  72.0444990  52.2381339  -1.5823141  72.9441025  53.0643244  -2.4767426
  74.8209550  45.4383215  10.7317420  74.7885870  44.4999216  10.9177104
  75.4310173  45.5167252   9.9983245  66.6592880  44.3079268  -3.2255376
  67.6051985  44.1785476  -3.1566958  66.2807125  43.5693930  -2.7485948
  74.9704038  42.2294259  10.7775703  74.4543087  41.4452715  10.5905632
  75.8543987  41.9012975  10.9422223  72.6314765  35.9735274   6.7371516
  72.4339586  35.6650362   7.6214848  73.2414471  36.6996913   6.8669446
  80.6386099  46.4999222   9.8723457  81.3689488  46.2384510  10.4331160
  80.0293045  45.7627944   9.9125525  78.7201397  44.6407085  10.4697908
  77.9934560  44.5063050   9.8614400  78.3048683  44.9483913  11.2754626
  66.5431573  48.3597014  18.2345281  67.4634582  48.5375613  18.4285328
  66.5081156  47.4153060  18.0824980  55.7613738  43.5535608   7.1598556
  55.4416522  42.7000916   6.8672930  55.2147166  43.7684186   7.9156523
  59.5393646  46.2698049  10.8768062  59.7579655  47.2015157  10.8956096
  59.9519419  45.9106023  11.6622866  66.4597863  36.7766134   2.8643751
  65.6498592  36.4313219   3.2398997  67.1482280  36.4673678   3.4531362
  68.3888412  35.8544181   4.4868047  68.9419450  36.2739634   5.1458070
  68.6258498  34.9279929   4.5291003  64.4121511  41.8431255  20.2670811
  64.3118238  42.7925612  20.1982902  64.1943053  41.5149494  19.3946881
  55.6301998  47.1738519   9.1291677  54.9365469  46.7592472   8.6161632
  56.3774989  47.2159056   8.5325096  71.7667219  37.9644706   3.9946712
  71.1865888  38.6229510   3.6124764  71.5003151  37.1422051   3.5834129
  70.2170785  37.3649764   6.1968032  70.7170563  37.4766298   5.3882351
  70.8606393  37.0610817   6.8368840  64.2752781  45.2728394  19.0835873
  63.7919863  46.0728754  19.2899762  64.3613720  45.2836338  18.1303317
  57.5438741  47.1056773   7.0057692  57.5209429  47.2044460   6.0539575
  57.8539377  47.9521924   7.3274858  60.2026118  49.1632928  11.1204307
  61.1569372  49.1316871  11.0534238  60.0038642  48.7023552  11.9354533
  60.7925501  47.7334044  13.6875104  61.6118390  48.2278123  13.7109942
  61.0662308  46.8166012  13.6592672  70.5492097  40.1244797   3.0503060
  69.6617952  40.4094447   2.8323255  70.9646086  39.9638560   2.2030337
  73.9006633  40.1491318   6.7657399  74.6767023  40.6387770   7.0382016
  73.1754767  40.5749372   7.2229269  76.3379191  40.8618937   7.8231340
  76.9323682  40.6214673   7.1124648  76.4105775  40.1426067   8.4504876
  58.5576347  54.7052548   8.1374505  58.4230815  53.9452949   7.5712503
  58.1408409  55.4293448   7.6703293  69.6935310  49.8889471  -2.8548920
  70.3971160  50.0939474  -2.2391265  68.9697959  50.4566233  -2.5899837
  70.5233120  45.6399333   3.2653350  70.4668322  46.0967884   2.4260982
  71.0761463  44.8790017   3.0876193  74.3337926  41.4289064   4.0903470
  74.0774861  41.0285700   4.9211677  73.7090794  42.1432858   3.9653609
  78.6450264  44.1685138   6.5974761  78.0849822  44.2378327   7.3706323
  78.0393768  43.9926122   5.8774257  61.7145473  55.6021865   8.3492947
  61.5977857  56.5467297   8.2471637  60.8937919  55.2995426   8.7378746
  71.6022008  50.3272000  -0.8050460  72.4367612  49.8953199  -0.9872985
  71.4406351  50.1554014   0.1226434  71.2567900  46.8304114   0.5605879
  71.2016704  46.6648385  -0.3805677  70.6313955  47.5380147   0.7168069
  56.0460415  42.0672178  14.3867301  56.6919278  41.5571132  14.8754527
  55.8377566  42.8040860  14.9610727  68.5713807  49.1353026  19.8859442
  69.4404967  49.3093678  19.5246077  68.0920558  49.9547442  19.7635171
  64.5664025  36.3312223   0.1391198  64.5542695  37.2754063   0.2959468
  65.4587447  36.1482368  -0.1549341  62.7399987  56.2550127  11.5648876
  63.6427234  56.2873737  11.8815371  62.5137357  55.3250578  11.5795211
  64.4953589  55.0081113   8.2258954  63.5449220  55.0082975   8.1123327
  64.7986075  54.2613848   7.7094989  68.3816145  32.9254999   4.3937134
  67.6148541  32.3713486   4.5393817  68.7926850  32.9976868   5.2551286
  60.3857906  39.2139795  18.4842316  61.2489367  38.8576600  18.6945640
  59.8123316  38.8753690  19.1717720  80.2306283  60.8441652   9.2904717
  80.8684693  60.7248399   8.5868057  80.1127126  61.7922496   9.3492669
  77.0395989  60.7969080   9.2266241  76.7014500  60.6810144   8.3386776
  77.9085757  60.3960245   9.2067247  72.8982805  62.6504556   5.2163132
  72.3347670  62.5594493   4.4479420  72.7835200  61.8304461   5.6965625
  77.5215772  61.9503931  15.1852447  77.5104413  61.5556730  14.3132951
  77.6836411  61.2170004  15.7786218  70.4447237  64.1455748   8.0547353
  71.2368529  63.8046572   7.6393652  70.6843887  64.2550723   8.9749506
  78.4782363  66.3175524   0.5277597  77.8270343  66.9029604   0.1411611
  79.2726726  66.8481719   0.5872635  72.4037991  63.4064661   0.9264732
  73.1768867  62.8593648   0.7877607  72.7563389  64.2708910   1.1379193
  74.2423033  64.7341043  14.1331631  73.9512899  65.6386674  14.0178297
  74.8780017  64.7757571  14.8475700  75.1679240  62.1117892  10.7232991
  75.7642812  61.8873914  10.0089953  75.2254211  61.3702637  11.3258438
  74.7404268  59.5657327  -1.4416819  74.9929789  59.0438848  -2.2033356
  73.8028827  59.4023473  -1.3390135  79.7847551  58.5693105   6.3657925
  80.5710640  58.1512529   6.0148342  80.0486256  59.4739198   6.5339573
  79.9557629  64.0065956   1.0646582  79.3203462  64.0800582   1.7767486
  79.6255035  64.5959555   0.3865661  85.1855978  58.5068339   7.2690903
  85.9181150  57.9367555   7.5028733  84.4295334  58.1189939   7.7097409
  74.4600557  61.4685433   0.7607556  74.3436815  60.7930336   1.4288641
  74.5702817  60.9817807  -0.0560291  76.8032098  60.9295580   4.4654246
  76.4390305  60.4026201   5.1767167  77.6599214  60.5394049   4.2920731
  82.7081399  52.2189913  11.7285512  82.3764723  53.0885324  11.5046727
  82.1127012  51.9026197  12.4079542  76.4437585  55.9585480  -0.5384406
  76.6111987  56.8265716  -0.1713935  76.2534754  56.1212762  -1.4623117
  79.2012918  64.4202459  11.1281425  78.9013641  65.3227498  11.0197232
  78.8563978  64.1534642  11.9802577  72.6525400  60.8716256   7.1618129
  71.7275896  60.7392470   7.3695821  72.9009813  61.6510475   7.6588071
  82.6010062  56.9384999   8.8078862  81.6926939  56.8700407   8.5137623
  82.5497658  57.4156944   9.6360687  76.4226806  58.4143137   0.4462261
  76.3026431  58.8600188   1.2847741  75.7279394  58.7628455  -0.1124201
  70.0134211  60.5149529   7.9961918  70.1426592  60.7684008   8.9101330
  69.3331662  61.1077237   7.6766573  74.1833698  71.1846779   4.0952392
  74.1057728  72.1354604   4.1740873  73.5795342  70.8392652   4.7527319
  76.6750928  58.3574644  16.7513759  75.8984262  58.9168565  16.7416624
  77.3141491  58.8431427  17.2728629  84.4671708  55.1401437  10.5856736
  83.8246089  55.4333970   9.9396530  83.9626637  55.0254358  11.3909932
  82.1211872  58.8864611   1.2742595  83.0329728  59.1191997   1.0990293
  81.6121519  59.4701655   0.7117674  74.9297300  61.1660098  16.3131726
  75.6711984  61.7045142  16.0366550  74.2234286  61.7926387  16.4703278
  80.4052640  63.3089238  14.9103888  80.8135996  62.8671649  14.1658520
  79.6829901  62.7341866  15.1638081  76.7583710  58.2461845  12.2837445
  77.6044905  58.6701259  12.4272094  76.6982347  57.5895469  12.9776008
  80.7281454  63.8690429   8.6656177  80.0990317  64.0336143   7.9632244
  80.3407116  64.2832039   9.4367141  84.6070686  64.8044867   6.0200540
  83.9221724  65.1843768   5.4697574  84.6914536  65.4140193   6.7532488
  79.9083155  55.9066213  13.9418618  79.6644087  56.6608274  13.4052894
  80.1843086  56.2851561  14.7765865  81.8621618  62.4504826  12.6195884
  82.0738513  63.0936586  11.9430265  81.8151366  61.6167142  12.1517814
  79.4647847  55.0622646   9.5232456  78.6032326  55.3603900   9.8149194
  79.4910281  55.2793045   8.5913489  76.2809416  63.6064837   5.9306262
  76.7447762  63.8852540   5.1410884  76.0166214  62.7048282   5.7479352
  73.1733497  63.1536319   8.8686025  73.7434854  63.5823587   8.2303509
  73.7641609  62.8718903   9.5670211  75.2178302  59.7287989   2.7395827
  75.9202346  60.1809033   3.2069753  74.8858931  59.0871808   3.3675720
  73.6658664  58.3199746  17.1147036  73.0357324  59.0016027  17.3482433
  73.5594752  58.2082828  16.1700174  68.9603636  57.9871542   8.0412960
  68.1702690  58.2429071   7.5653071  69.4514884  58.8019880   8.1465001
  82.9767446  65.3276781  10.7918241  83.7984890  64.9256969  10.5100923
  82.9729849  65.2245015  11.7434357  70.9118382  58.3516121   4.9996437
  70.1149545  58.4634816   5.5179933  70.6843974  58.6902774   4.1337328
  76.7424049  64.8760825  12.9478952  76.8068482  65.3381232  13.7837123
  76.0334973  64.2458189  13.0761261  67.2441339  58.2402033  10.4727951
  67.4949378  59.1249042  10.7385527  67.7800888  58.0606634   9.7003043
  91.0673439  61.6715530   7.1403213  90.3137147  61.1022928   6.9847217
  91.2020980  61.6378194   8.0873847  76.4572067  66.5428932   2.8157932
  76.3217742  67.3880468   3.2442780  76.9981879  66.7448210   2.0523866
  72.9439407  52.6220512  19.4772287  72.5506352  52.0686710  20.1519931
  73.7605547  52.9331090  19.8678805  69.9101464  64.0604370   3.3885857
  70.4225985  64.8547620   3.5391422  70.5624177  63.3630661   3.3219459
  71.7196349  67.1770126   5.4708610  71.8962977  68.0988091   5.2829594
  72.5153183  66.8628546   5.9002990  75.8607368  54.0378391  17.0692544
  76.6017081  54.6385544  16.9897006  76.0925290  53.2956029  16.5110586
  71.0048706  59.2234758  15.3470773  70.8902221  58.3220015  15.6477872
  70.1493223  59.4698455  14.9955590  78.0840543  67.1652499  16.9458274
  77.6404397  66.3788877  16.6279179  78.7457757  67.3531649  16.2802165
  72.8427664  68.6948300  11.4718953  73.3935090  68.5665363  10.6995947
  72.0039140  68.9943189  11.1213845  80.1821781  67.4455298  14.9739675
  80.1640257  68.2664180  14.4819945  81.1041701  67.3209374  15.1989816
  76.6394836  64.9599428  15.8163184  77.1723172  64.1987716  15.5862492
  76.1108917  64.6673080  16.5587338  79.8064530  50.0659494  11.3456825
  79.4628800  50.9561136  11.2695936  80.1743493  49.8761152  10.4826410
  67.8750381  62.3893024   4.1645428  68.7125603  62.7990033   3.9479135
  68.0528649  61.4492467   4.1345621  79.7714813  60.0568105  -0.1470739
  79.2561437  60.8272710   0.0917648  79.4992122  59.3833241   0.4762322
  77.3561924  54.9017806   4.9114499  76.5003521  54.5124656   4.7320138
  77.7688876  54.9809767   4.0514284  78.8861071  52.4364149   9.3106059
  78.3825866  52.3994284   8.4973864  79.1791678  53.3456892   9.3702715
  75.1303957  52.5202879   8.3172240  75.9956954  52.3245687   7.9578130
  75.1981466  52.2913231   9.2441597  84.7449087  62.8100460   1.7882434
  83.9678530  62.4711619   1.3437596  85.4240568  62.8153083   1.1137399
  79.5601116  57.9295197   1.6789042  79.2551252  58.2441346   2.5299185
  80.5131558  58.0076617   1.7216375  78.0047548  64.0885420   3.3281996
  77.4768910  63.3538180   3.0155233  77.5035051  64.8660097   3.0821964
  82.9840394  62.2834441   8.4449042  82.3264069  62.9733702   8.5329171
  83.7880793  62.6730873   8.7883028  72.7366276  54.7505087   5.6888607
  73.3110028  54.5280268   4.9561800  73.3237258  54.8193781   6.4417209
  81.7945853  60.6378814   6.4952984  82.3077735  61.2708805   6.9974693
  82.4447077  60.0380009   6.1296344  73.0635863  56.7809548  -0.2915507
  72.2273175  57.1184234   0.0293767  72.9240633  56.6458528  -1.2288371
  75.0388944  51.6246336   4.4163677  74.3853356  51.3095353   3.7920291
  74.9969418  51.0022076   5.1423500  76.1500148  61.9065631  -3.6683031
  75.2427210  61.6754884  -3.4691882  76.6471180  61.1103250  -3.4809050
  78.2726684  58.1128269   8.7411324  77.3549245  58.3343216   8.5833012
  78.6886828  58.1874580   7.8823032  79.0561732  59.5119685   3.8714005
  79.8033551  60.0241082   3.5621127  79.3253321  59.1903738   4.7318398
  77.3288382  62.0078226   0.8540959  76.4199601  61.7237258   0.9513429
  77.3583466  62.4277304  -0.0055734  82.5607649  65.6184815   4.6232126
  82.1069976  64.7775725   4.6797317  81.9301616  66.2546213   4.9606907
  81.5040569  56.5476801   5.8532794  80.7663326  56.0354187   6.1843036
  81.7567342  56.1077183   5.0416071  81.0040588  67.4561312   5.5581945
  81.2963563  68.0166369   4.8394310  81.5139209  67.7489873   6.3135104
  81.6052196  49.3253053   6.4474563  81.9111073  48.4650417   6.1600478
  82.3304801  49.9170673   6.2473557  67.8976552  59.7283740   4.8356161
  67.7000952  59.1353100   4.1107228  67.3423216  59.4235950   5.5532100
  75.8773276  59.6206846   6.9550754  75.9321886  58.6680683   6.8793231
  75.0664478  59.7766285   7.4392053  77.0264470  63.5486969  -1.8070963
  76.5883900  62.8322828  -2.2665325  77.7674910  63.7763084  -2.3685871
  73.8165636  58.2383906   4.7141133  73.0033501  58.5378076   5.1206325
  74.3124630  57.8439595   5.4315615  75.9674214  68.2341663   6.6475398
  75.9250392  68.4602509   5.7183930  76.8836913  68.0005037   6.7961199
  79.4139847  58.7025730  13.5456027  79.7689235  58.9297204  14.4050493
  80.0611979  59.0344107  12.9233282  85.1437584  61.8244166   4.2505356
  85.0055483  62.0145762   3.3226545  84.7873803  62.5863549   4.7073407
  73.3079711  55.8102261  10.3302368  73.9479090  55.6691021   9.6325331
  72.4757241  55.5236775   9.9540970  85.1706964  63.8920693   9.2616627
  85.6043471  63.7995982  10.1099682  85.8838545  63.8678194   8.6236643
  74.0840014  65.1104692   6.4437360  74.8780613  64.6155012   6.2419935
  73.3731707  64.5822555   6.0805066  78.9034859  67.4922787  10.7949728
  78.9571881  68.0613724  11.5627444  78.0349640  67.6624672  10.4303765
  70.3922778  59.2547774   2.5197113  69.4620366  59.1932229   2.7367075
  70.4880250  58.7323726   1.7233754  70.3108327  55.7802586   5.1075355
  70.5715144  56.6947920   4.9984515  71.1325499  55.3127029   5.2571968
  71.7833252  57.1940344  12.2774179  72.4556306  56.9857706  11.6286828
  70.9563039  56.9962430  11.8379412  86.0322514  63.9344394  11.7949513
  86.2258404  64.8390204  12.0408788  85.9323132  63.4751813  12.6288098
  77.6858824  53.8202285  14.2939840  77.0386739  54.5192234  14.2004317
  78.4559840  54.2538428  14.6616088  81.0937622  64.0851137  17.3690393
  80.9423129  63.8561688  16.4520477  81.0842302  65.0421738  17.3821739
  77.8622959  61.6583049  12.3536660  78.7915019  61.8094209  12.1805627
  77.4413989  61.7467070  11.4985306  76.6611290  65.6833714  10.1235198
  76.5222376  65.3152498  10.9961136  75.8725887  66.1981353   9.9519155
  77.2559442  70.7842810   1.4660734  77.4311198  70.3130853   2.2806357
  76.5692230  71.4108577   1.6941995  78.2116506  65.0615317   7.5124035
  77.8766338  65.0216087   8.4081685  77.7120451  64.3960032   7.0394446
  72.1860750  60.4682947  13.0376617  72.0480547  59.7363185  13.6388156
  73.0965673  60.3791847  12.7560804  81.1475697  62.4071351  -2.2138905
  80.5304868  61.6818179  -2.3105852  80.6792186  63.1680711  -2.5571831
  74.8143050  60.1802906  12.5260296  75.5242669  59.5396098  12.4846915
  74.7712358  60.4315801  13.4486477  82.8029829  67.1170259  15.4466875
  82.7442375  66.4329479  14.7797458  83.2049347  67.8589249  14.9947501
  73.5271984  57.1668124  14.3455936  72.9909341  56.7158862  14.9977532
  72.9388693  57.3014033  13.6026400  71.8220528  73.9332173   8.2400594
  72.0617126  74.5650697   8.9179613  70.9789724  73.5820213   8.5265954
  72.9374243  56.6256775  -3.0917601  72.0603709  56.5045576  -3.4555354
  73.4131996  55.8342853  -3.3438712  82.8047236  65.0809843  13.6780855
  81.9174015  64.7435765  13.8007254  83.3745787  64.3492874  13.9149620
  64.4576383  61.4133935   7.0023906  65.1447423  61.0995665   6.4144922
  64.3024512  62.3175300   6.7291158  69.2611105  56.3024131  11.4308930
  69.1769294  55.6949801  10.6959340  68.4393812  56.7933150  11.4318426
  76.3348390  69.7411296  10.6442098  76.2618561  70.5466267  11.1561403
  75.8925783  69.9403261   9.8190120  76.1238169  68.9783066   4.1544920
  75.3405691  69.5204746   4.2483144  76.8230914  69.4957045   4.5539161
  79.4334819  54.7877695   6.7979125  79.9303519  54.0347657   6.4780195
  78.6621801  54.8242012   6.2322335  87.2864577  60.4918061   8.4397417
  87.2754453  61.3742776   8.0691350  86.4181956  60.1389611   8.2451954
  78.7947073  69.6398130  12.8000257  79.5075045  70.2745594  12.7276158
  78.3037102  69.7361996  11.9840259  80.5164600  63.5449382   4.3717549
  79.5820879  63.6650845   4.2022253  80.6941268  62.6421849   4.1077558
  76.0169788  56.9295078   6.5250810  75.6467576  56.3766118   7.2131715
  76.5128881  56.3253211   5.9725810  83.9037151  59.3866702   4.9067583
  84.3697604  60.2194693   4.8327885  84.3544652  58.9211683   5.6112841
  73.8458987  67.3892573  13.6205828  74.5468446  68.0229056  13.7735222
  73.3754102  67.7307305  12.8601467  81.9713382  65.7310523   1.9053735
  82.2473226  65.6167117   2.8147609  81.1017881  65.3328008   1.8665908
  81.8753814  51.7547288   8.9458484  80.9616894  51.9851515   9.1140691
  82.3046916  51.8385733   9.7972516  81.6460273  59.9437180  11.4458378
  80.9931723  60.1913088  10.7910831  82.0240652  59.1301319  11.1120855
  78.6067446  69.9796874   5.5486548  78.7889841  69.1618530   6.0114301
  79.4300432  70.1964566   5.1111438  78.9409612  68.9065059   2.8101597
  79.4697378  68.3957513   2.1971759  79.2037832  68.5907589   3.6747130
  77.6947846  60.6856992  17.9324415  77.0188483  60.5851121  18.6026790
  78.5175479  60.5296205  18.3960412  69.4426705  66.9228928  10.5536930
  70.0280142  66.1772616  10.6864835  69.2451543  67.2332885  11.4373594
  72.2965360  69.9580175   5.5699373  71.6275735  70.4426303   5.0863413
  72.1578230  70.2049396   6.4842751  64.0344359  59.4934528   9.2741374
  64.0728459  58.9598119  10.0678492  63.5284652  58.9669734   8.6552351
  76.4370628  71.9923919  12.1682031  76.9888937  72.1555540  12.9331116
  76.7776822  72.5828357  11.4962056  71.4135122  54.3399069  12.7703916
  71.4776448  55.2013900  12.3581314  71.3502242  53.7273070  12.0376274
  70.8887394  56.4122201  16.4176950  71.5159433  56.0299279  17.0314474
  70.0315313  56.1936403  16.7832643  81.2881503  66.8185176  18.0230686
  81.8321407  67.4315135  17.5285640  80.7068348  67.3764755  18.5397699
  67.6652937  58.2198630   2.3495305  67.9606378  57.3109309   2.2962359
  66.7640973  58.1986370   2.0276307  79.5739016  69.9405894   9.1545713
  79.4490155  69.1395634   8.6456659  80.2318107  70.4352088   8.6659683
  71.1947184  56.2954627   8.3322854  70.4733770  56.9090595   8.1930327
  71.9840440  56.8312392   8.2539499  81.6373924  67.7414915  10.7825263
  80.6904260  67.6220266  10.7103590  81.9856697  66.8537413  10.8651525
  73.9973498  53.6309053  14.6063505  74.5207899  53.8771350  15.3689815
  73.7785831  54.4629088  14.1866643  69.3940779  55.9012728   2.4734630
  69.0653485  55.0210107   2.2909736  69.7480149  55.8460397   3.3611019
  78.6420357  67.5367631   6.9829616  78.4945320  66.6084338   7.1637186
  79.4673851  67.5587722   6.4986691  72.5082602  56.1885698   2.8410108
  72.8478674  56.7171619   2.1188716  72.9554722  56.5266104   3.6168674
  82.2454479  68.3596190   8.0694488  83.1701027  68.1539051   7.9318940
  82.0769783  68.1112591   8.9783830  75.2026043  54.5722749  12.2913176
  74.8622863  53.7730562  12.6933856  74.4965049  54.8724459  11.7190009
  75.8542514  51.6572061  10.7440499  76.6768584  51.1832539  10.6219389
  76.0980578  52.4362545  11.2439185  74.4950749  54.6860319   1.0403401
  75.2159111  55.0641572   0.5367117  73.8716053  55.4049196   1.1438378
  78.6381872  55.3905468   1.9761733  78.8545486  56.2730106   1.6750561
  78.1575939  54.9991682   1.2467375  73.3781093  58.3491182   8.5532477
  73.2325674  58.6631485   9.4456759  72.9006297  58.9676082   8.0003376
  75.2377476  55.3393730   8.6013367  75.2239045  54.4434823   8.2645665
  75.9549904  55.3464393   9.2351653  77.0903607  55.7731070  10.6466494
  76.8321385  56.6948141  10.6450825  76.5588647  55.3761504  11.3366959
  82.0349796  68.8781857   3.4256580  82.2086673  68.3128279   2.6730432
  82.5278687  69.6782752   3.2436070  67.8526755  60.8896526  11.4920139
  67.3080223  61.6656334  11.6240413  68.7306105  61.2367331  11.3339260
  74.6414372  54.2208110   3.8700937  74.7630283  53.2924756   4.0691825
  74.3516414  54.2346796   2.9579253  77.5105562  51.9063020   7.0067657
  77.5327259  51.9702353   6.0519637  77.9273621  51.0667529   7.2008163
  87.8889187  61.6418280   5.0446880  88.3320333  60.8925605   4.6466003
  87.0115697  61.6328416   4.6620612  83.0224968  68.1948621   0.5253478
  83.7175873  68.8155314   0.7440793  83.3648118  67.3443973   0.8005856
  68.6392777  60.0166422  14.3850296  67.8974513  60.1649058  14.9714926
  68.3185521  60.2774688  13.5217045  84.9216391  65.6448327   2.0540809
  85.4467715  65.9835600   1.3290129  84.8338744  64.7095342   1.8703944
  76.5836440  69.5582401  14.1830686  76.8923566  69.3131547  15.0553385
  77.3811922  69.7629039  13.6949556  76.6057052  71.7120310   6.4136062
  76.1662042  71.2196689   7.1068919  77.3565169  71.1693278   6.1728137
  69.0849391  67.9031851   6.4160690  69.9107411  67.6035623   6.0359334
  68.7343443  67.1339473   6.8650479  74.0530924  67.2558319   8.4858364
  73.4310933  66.5929024   8.1860592  74.7235791  67.2819451   7.8032012
  67.2857996  65.8218178   7.3749624  66.4489904  65.3940352   7.1933625
  67.2581641  66.0150621   8.3120415  74.1255452  55.7340107  18.0790870
  74.1743607  56.6102230  17.6968639  74.6677966  55.1917500  17.5062513
  84.6110297  66.2781231  17.3592007  83.8205841  66.2605369  16.8196506
  84.3743652  66.8169524  18.1141043  84.7308172  63.1273697  14.6724735
  84.7806177  62.9623704  15.6140258  84.6222096  62.2600956  14.2822616
  73.6144431  65.8062243   1.9616824  73.7632551  66.4897707   1.3083497
  74.4210874  65.7867333   2.4766280  82.0211935  59.1104625  15.9884042
  82.9221797  58.9711090  15.6968040  82.0959909  59.2759080  16.9282220
  76.3554740  56.4871480  14.8337228  75.4858049  56.7805046  14.5619817
  76.5914220  57.0711925  15.5544492  86.2326369  65.5470638  14.9166757
  85.9411177  65.9100619  15.7530218  85.6198500  64.8337647  14.7380089
  87.4322051  63.1123518   7.4369327  88.2668943  63.5513322   7.6006888
  87.5681180  62.6362171   6.6177573  84.4813557  60.6703253  13.3846815
  84.9567679  60.8630899  12.5765666  83.5579123  60.7262439  13.1390199
  71.3697064  61.8327420   2.9677893  71.1243106  60.9289750   3.1658103
  71.5392978  61.8344571   2.0257371  79.0593774  52.7051097  12.3502649
  79.5775718  53.4412124  12.0249137  78.7048907  53.0115090  13.1849408
  70.6392711  57.5655778   0.4664055  69.9461956  57.6400133  -0.1895909
  70.3944463  56.8016121   0.9885572  79.3106368  49.1251379   7.8703545
  79.5908122  48.4574568   8.4963972  80.0956975  49.3180475   7.3578209
  77.1139836  68.3010373  -0.5671428  76.5413804  68.9200560  -1.0200956
  77.6872630  68.8509735  -0.0331506  83.1815226  57.5469013  11.6175121
  84.1332649  57.6467111  11.6387345  83.0118677  56.7547282  12.1273205
  81.2029606  54.6324596  11.8034521  80.6079538  54.9129609  11.1081010
  80.9179302  55.1218497  12.5751263  80.3337096  68.5847523   0.5637154
  81.2667769  68.5193085   0.7670029  80.2460309  69.4203790   0.1051687
  85.6603304  60.7675133  10.7317420  85.6279624  59.8291134  10.9177104
  86.2703928  60.8459170   9.9983245  77.4986635  59.6371186  -3.2255376
  78.4445740  59.5077394  -3.1566958  77.1200880  58.8985848  -2.7485948
  85.8097793  57.5586176  10.7775703  85.2936841  56.7744633  10.5905632
  86.6937741  57.2304893  10.9422223  83.4708519  51.3027192   6.7371516
  83.2733341  50.9942280   7.6214848  84.0808225  52.0288831   6.8669446
  91.4779854  61.8291140   9.8723457  92.2083242  61.5676428  10.4331160
  90.8686799  61.0919862   9.9125525  89.5595151  59.9699002  10.4697908
  88.8328315  59.8354967   9.8614400  89.1442438  60.2775831  11.2754626
  77.3825327  63.6888932  18.2345281  78.3028337  63.8667531  18.4285328
  77.3474911  62.7444977  18.0824980  75.6829552  57.5621162  -3.2900491
  74.7761007  57.2654275  -3.2137777  75.9605533  57.2650980  -4.1566204
  66.6007492  58.8827526   7.1598556  66.2810277  58.0292834   6.8672930
  66.0540921  59.0976104   7.9156523  70.3787400  61.5989967  10.8768062
  70.5973410  62.5307074  10.8956096  70.7913174  61.2397941  11.6622866
  77.2991618  52.1058052   2.8643751  76.4892346  51.7605137   3.2398997
  77.9876035  51.7965596   3.4531362  79.2282166  51.1836099   4.4868047
  79.7813205  51.6031552   5.1458070  79.4652252  50.2571847   4.5291003
  75.2515265  57.1723172  20.2670811  75.1511992  58.1217529  20.1982902
  75.0336807  56.8441411  19.3946881  74.4528337  54.4208097  -3.1488511
  75.3147501  54.7462996  -2.8892694  74.6378681  53.6339593  -3.6615446
  66.4695752  62.5030437   9.1291677  65.7759224  62.0884390   8.6161632
  67.2168743  62.5450974   8.5325096  82.6060973  53.2936624   3.9946712
  82.0259642  53.9521428   3.6124764  82.3396906  52.4713968   3.5834129
  81.0564540  52.6941682   6.1968032  81.5564318  52.8058216   5.3882351
  81.7000147  52.3902734   6.8368840  75.1146535  60.6020311  19.0835873
  74.6313617  61.4020671  19.2899762  75.2007474  60.6128256  18.1303317
  68.3832495  62.4348691   7.0057692  68.3603183  62.5336378   6.0539575
  68.6933132  63.2813842   7.3274858  71.0419873  64.4924846  11.1204307
  71.9963126  64.4608788  11.0534238  70.8432396  64.0315470  11.9354533
  71.6319255  63.0625962  13.6875104  72.4512144  63.5570041  13.7109942
  71.9056063  62.1457930  13.6592672  81.3885851  55.4536714   3.0503060
  80.5011706  55.7386365   2.8323255  81.8039840  55.2930478   2.2030337
  84.7400387  55.4783235   6.7657399  85.5160777  55.9679688   7.0382016
  84.0148522  55.9041289   7.2229269  87.1772946  56.1910854   7.8231340
  87.7717437  55.9506590   7.1124648  87.2499530  55.4717985   8.4504876
  69.3970102  70.0344465   8.1374505  69.2624570  69.2744866   7.5712503
  68.9802164  70.7585365   7.6703293  81.3626875  60.9691250   3.2653350
  81.3062076  61.4259802   2.4260982  81.9155217  60.2081935   3.0876193
  85.1731681  56.7580982   4.0903470  84.9168615  56.3577618   4.9211677
  84.5484549  57.4724776   3.9653609  89.4844019  59.4977055   6.5974761
  88.9243577  59.5670245   7.3706323  88.8787522  59.3218040   5.8774257
  72.5539228  70.9313782   8.3492947  72.4371612  71.8759215   8.2471637
  71.7331674  70.6287344   8.7378746  82.4415762  65.6563918  -0.8050460
  83.2761366  65.2245117  -0.9872985  82.2800105  65.4845932   0.1226434
  82.0961654  62.1596031   0.5605879  82.0410458  61.9940303  -0.3805677
  81.4707710  62.8672064   0.7168069  66.8854169  57.3964096  14.3867301
  67.5313033  56.8863050  14.8754527  66.6771320  58.1332777  14.9610727
  79.4107561  64.4644943  19.8859442  80.2798721  64.6385596  19.5246077
  78.9314313  65.2839360  19.7635171  75.4057780  51.6604140   0.1391198
  75.3936450  52.6045980   0.2959468  76.2981202  51.4774286  -0.1549341
  73.5793742  71.5842044  11.5648876  74.4820988  71.6165655  11.8815371
  73.3531112  70.6542495  11.5795211  75.3347344  70.3373031   8.2258954
  74.3842975  70.3374892   8.1123327  75.6379830  69.5905765   7.7094989
  79.2209899  48.2546917   4.3937134  78.4542295  47.7005404   4.5393817
  79.6320604  48.3268786   5.2551286  71.2251660  54.5431713  18.4842316
  72.0883122  54.1868518  18.6945640  70.6517071  54.2045608  19.1717720
  91.0700037  76.1733569   9.2904717  91.7078447  76.0540317   8.5868057
  90.9520880  77.1214413   9.3492669  87.8789743  76.1260997   9.2266241
  87.5408255  76.0102062   8.3386776  88.7479512  75.7252162   9.2067247
  88.3609526  77.2795849  15.1852447  88.3498167  76.8848647  14.3132951
  88.5230166  76.5461922  15.7786218  81.2840991  79.4747665   8.0547353
  82.0762283  79.1338490   7.6393652  81.5237641  79.5842640   8.9749506
  85.0816788  80.0632961  14.1331631  84.7906654  80.9678592  14.0178297
  85.7173772  80.1049488  14.8475700  86.0072994  77.4409809  10.7232991
  86.6036567  77.2165832  10.0089953  86.0647966  76.6994555  11.3258438
  93.5475153  67.5481830  11.7285512  93.2158478  68.4177241  11.5046727
  92.9520767  67.2318114  12.4079542  90.0406673  79.7494376  11.1281425
  89.7407396  80.6519415  11.0197232  89.6957732  79.4826560  11.9802577
  83.4919154  76.2008173   7.1618129  82.5669651  76.0684387   7.3695821
  83.7403567  76.9802392   7.6588071  93.4403816  72.2676917   8.8078862
  92.5320694  72.1992325   8.5137623  93.3891412  72.7448862   9.6360687
  80.8527965  75.8441447   7.9961918  80.9820346  76.0975926   8.9101330
  80.1725417  76.4369155   7.6766573  87.5144682  73.6866562  16.7513759
  86.7378016  74.2460482  16.7416624  88.1535245  74.1723345  17.2728629
  95.3065463  70.4693355  10.5856736  94.6639843  70.7625888   9.9396530
  94.8020391  70.3546275  11.3909932  85.7691055  76.4952016  16.3131726
  86.5105739  77.0337060  16.0366550  85.0628040  77.1218304  16.4703278
  91.2446394  78.6381156  14.9103888  91.6529750  78.1963567  14.1658520
  90.5223656  78.0633784  15.1638081  87.5977464  73.5753763  12.2837445
  88.4438659  73.9993176  12.4272094  87.5376102  72.9187387  12.9776008
  90.7476910  71.2358131  13.9418618  90.5037841  71.9900192  13.4052894
  91.0236840  71.6143479  14.7765865  92.7015372  77.7796743  12.6195884
  92.9132268  78.4228503  11.9430265  92.6545121  76.9459060  12.1517814
  90.3041601  70.3914564   9.5232456  89.4426080  70.6895818   9.8149194
  90.3304036  70.6084963   8.5913489  84.0127252  78.4828236   8.8686025
  84.5828609  78.9115505   8.2303509  84.6035364  78.2010821   9.5670211
  84.5052418  73.6491664  17.1147036  83.8751079  74.3307945  17.3482433
  84.3988506  73.5374745  16.1700174  79.7997391  73.3163460   8.0412960
  79.0096445  73.5720988   7.5653071  80.2908638  74.1311798   8.1465001
  81.7512136  73.6808039   4.9996437  80.9543299  73.7926733   5.5179933
  81.5237728  74.0194691   4.1337328  87.5817804  80.2052742  12.9478952
  87.6462236  80.6673149  13.7837123  86.8728728  79.5750107  13.0761261
  78.0835094  73.5693950  10.4727951  78.3343132  74.4540960  10.7385527
  78.6194642  73.3898552   9.7003043  83.7833161  67.9512430  19.4772287
  83.3900107  67.3978628  20.1519931  84.5999301  68.2623008  19.8678805
  86.7001122  69.3670309  17.0692544  87.4410835  69.9677462  16.9897006
  86.9319045  68.6247946  16.5110586  81.8442460  74.5526676  15.3470773
  81.7295975  73.6511933  15.6477872  80.9886978  74.7990373  14.9955590
  88.9234298  82.4944416  16.9458274  88.4798152  81.7080795  16.6279179
  89.5851511  82.6823567  16.2802165  83.6821419  84.0240218  11.4718953
  84.2328844  83.8957281  10.6995947  82.8432895  84.3235107  11.1213845
  91.0215536  82.7747216  14.9739675  91.0034011  83.5956097  14.4819945
  91.9435456  82.6501291  15.1989816  87.4788590  80.2891346  15.8163184
  88.0116927  79.5279634  15.5862492  86.9502671  79.9964997  16.5587338
  90.6458285  65.3951412  11.3456825  90.3022554  66.2853053  11.2695936
  91.0137248  65.2053069  10.4826410  88.1955679  70.2309723   4.9114499
  87.3397275  69.8416574   4.7320138  88.6082630  70.3101684   4.0514284
  89.7254825  67.7656067   9.3106059  89.2219621  67.7286202   8.4973864
  90.0185432  68.6748809   9.3702715  85.9697711  67.8494796   8.3172240
  86.8350708  67.6537605   7.9578130  86.0375220  67.6205148   9.2441597
  83.5760030  70.0797004   5.6888607  84.1503782  69.8572186   4.9561800
  84.1631013  70.1485699   6.4417209  85.8782698  66.9538253   4.4163677
  85.2247110  66.6387270   3.7920291  85.8363172  66.3313994   5.1423500
  89.1120438  73.4420187   8.7411324  88.1943000  73.6635134   8.5833012
  89.5280582  73.5166497   7.8823032  92.4445951  64.6544971   6.4474563
  92.7504827  63.7942334   6.1600478  93.1698555  65.2462591   6.2473557
  78.7370307  75.0575657   4.8356161  78.5394707  74.4645018   4.1107228
  78.1816971  74.7527868   5.5532100  86.7167030  74.9498764   6.9550754
  86.7715640  73.9972600   6.8793231  85.9058232  75.1058203   7.4392053
  84.6559390  73.5675824   4.7141133  83.8427256  73.8669994   5.1206325
  85.1518384  73.1731512   5.4315615  90.2533602  74.0317648  13.5456027
  90.6082990  74.2589121  14.4050493  90.9005733  74.3636025  12.9233282
  84.1473465  71.1394179  10.3302368  84.7872844  70.9982938   9.6325331
  83.3150996  70.8528692   9.9540970  81.1502081  71.1094504   5.1075355
  81.4108899  72.0239837   4.9984515  81.9719254  70.6418947   5.2571968
  82.6227007  72.5232261  12.2774179  83.2950060  72.3149623  11.6286828
  81.7956793  72.3254347  11.8379412  88.5252579  69.1494202  14.2939840
  87.8780494  69.8484152  14.2004317  89.2953594  69.5830346  14.6616088
  91.9331377  79.4143054  17.3690393  91.7816883  79.1853606  16.4520477
  91.9236056  80.3713656  17.3821739  88.7016713  76.9874967  12.3536660
  89.6308773  77.1386127  12.1805627  88.2807743  77.0758988  11.4985306
  87.5005045  81.0125632  10.1235198  87.3616131  80.6444416  10.9961136
  86.7119641  81.5273271   9.9519155  83.0254504  75.7974864  13.0376617
  82.8874302  75.0655103  13.6388156  83.9359428  75.7083764  12.7560804
  85.6536805  75.5094824  12.5260296  86.3636423  74.8688016  12.4846915
  85.6106113  75.7607718  13.4486477  93.6423583  82.4462177  15.4466875
  93.5836130  81.7621397  14.7797458  94.0443102  83.1881167  14.9947501
  84.3665739  72.4960041  14.3455936  83.8303096  72.0450780  14.9977532
  83.7782447  72.6305950  13.6026400  93.6440991  80.4101761  13.6780855
  92.7567769  80.0727683  13.8007254  94.2139542  79.6784792  13.9149620
  75.2970138  76.7425853   7.0023906  75.9841178  76.4287583   6.4144922
  75.1418266  77.6467217   6.7291158  80.1004860  71.6316049  11.4308930
  80.0163049  71.0241719  10.6959340  79.2787566  72.1225067  11.4318426
  90.2728574  70.1169613   6.7979125  90.7697273  69.3639575   6.4780195
  89.5015555  70.1533929   6.2322335  86.8563543  72.2586996   6.5250810
  86.4861330  71.7058036   7.2131715  87.3522635  71.6545129   5.9725810
  84.6852741  82.7184491  13.6205828  85.3862201  83.3520974  13.7735222
  84.2147856  83.0599222  12.8601467  92.7147569  67.0839206   8.9458484
  91.8010648  67.3143433   9.1140691  93.1440670  67.1677650   9.7972516
  92.4854027  75.2729098  11.4458378  91.8325477  75.5205006  10.7910831
  92.8634407  74.4593236  11.1120855  88.5341600  76.0148909  17.9324415
  87.8582237  75.9143039  18.6026790  89.3569234  75.8588123  18.3960412
  80.2820459  82.2520846  10.5536930  80.8673896  81.5064534  10.6864835
  80.0845298  82.5624802  11.4373594  74.8738114  74.8226446   9.2741374
  74.9122213  74.2890037  10.0678492  74.3678407  74.2961651   8.6552351
  82.2528876  69.6690986  12.7703916  82.3170203  70.5305817  12.3581314
  82.1895996  69.0564988  12.0376274  81.7281149  71.7414119  16.4176950
  82.3553188  71.3591196  17.0314474  80.8709068  71.5228321  16.7832643
  92.1275257  82.1477094  18.0230686  92.6715161  82.7607052  17.5285640
  91.5462102  82.7056673  18.5397699  78.5046691  73.5490548   2.3495305
  78.8000133  72.6401227   2.2962359  77.6034727  73.5278288   2.0276307
  82.0340938  71.6246545   8.3322854  81.3127524  72.2382512   8.1930327
  82.8234194  72.1604309   8.2539499  84.8367252  68.9600971  14.6063505
  85.3601654  69.2063268  15.3689815  84.6179585  69.7921006  14.1866643
  80.2334533  71.2304646   2.4734630  79.9047239  70.3502025   2.2909736
  80.5873904  71.1752314   3.3611019  86.0419797  69.9014666  12.2913176
  85.7016617  69.1022479  12.6933856  85.3358803  70.2016377  11.7190009
  86.6936269  66.9863979  10.7440499  87.5162338  66.5124457  10.6219389
  86.9374332  67.7654462  11.2439185  84.2174848  73.6783099   8.5532477
  84.0719428  73.9923402   9.4456759  83.7400051  74.2968000   8.0003376
  86.0771231  70.6685647   8.6013367  86.0632799  69.7726741   8.2645665
  86.7943659  70.6756311   9.2351653  87.9297361  71.1022988  10.6466494
  87.6715139  72.0240058  10.6450825  87.3982402  70.7053422  11.3366959
  78.6920510  76.2188444  11.4920139  78.1473978  76.9948252  11.6240413
  79.5699860  76.5659248  11.3339260  85.4808126  69.5500028   3.8700937
  85.6024038  68.6216674   4.0691825  85.1910169  69.5638714   2.9579253
  88.3499317  67.2354938   7.0067657  88.3721014  67.2994271   6.0519637
  88.7667376  66.3959447   7.2008163  79.4786532  75.3458340  14.3850296
  78.7368268  75.4940975  14.9714926  79.1579276  75.6066606  13.5217045
  87.4230194  84.8874318  14.1830686  87.7317321  84.6423465  15.0553385
  88.2205676  85.0920957  13.6949556  78.1251750  81.1510095   7.3749624
  77.2883659  80.7232270   7.1933625  78.0975396  81.3442539   8.3120415
  84.9649206  71.0632025  18.0790870  85.0137361  71.9394148  17.6968639
  85.5071720  70.5209418  17.5062513  95.4504052  81.6073148  17.3592007
  94.6599595  81.5897287  16.8196506  95.2137406  82.1461442  18.1141043
  95.5701927  78.4565615  14.6724735  95.6199932  78.2915622  15.6140258
  95.4615850  77.5892874  14.2822616  92.8605689  74.4396543  15.9884042
  93.7615552  74.3003007  15.6968040  92.9353664  74.6050997  16.9282220
  87.1948494  71.8163397  14.8337228  86.3251804  72.1096963  14.5619817
  87.4307975  72.4003842  15.5544492  97.0720124  80.8762556  14.9166757
  96.7804932  81.2392537  15.7530218  96.4592255  80.1629564  14.7380089
  95.3207312  75.9995171  13.3846815  95.7961433  76.1922817  12.5765666
  94.3972877  76.0554357  13.1390199  89.8987528  68.0343014  12.3502649
  90.4169472  68.7704041  12.0249137  89.5442661  68.3407008  13.1849408
  90.1500122  64.4543297   7.8703545  90.4301876  63.7866486   8.4963972
  90.9350729  64.6472392   7.3578209  94.0208981  72.8760931  11.6175121
  94.9726404  72.9759028  11.6387345  93.8512431  72.0839199  12.1273205
  92.0423360  69.9616514  11.8034521  91.4473292  70.2421527  11.1081010
  91.7573057  70.4510415  12.5751263  96.6491547  72.8878094  10.7775703
  96.1330596  72.1036551  10.5905632  97.5331496  72.5596811  10.9422223
  94.3102274  66.6319110   6.7371516  94.1127095  66.3234198   7.6214848
  94.9201980  67.3580748   6.8669446  88.2219082  79.0180850  18.2345281
  89.1422091  79.1959449  18.4285328  88.1868665  78.0736895  18.0824980
  77.4401247  74.2119443   7.1598556  77.1204031  73.3584751   6.8672930
  76.8934675  74.4268021   7.9156523  81.2181155  76.9281884  10.8768062
  81.4367164  77.8598992  10.8956096  81.6306928  76.5689859  11.6622866
  88.1385372  67.4349970   2.8643751  87.3286101  67.0897055   3.2398997
  88.8269789  67.1257513   3.4531362  90.0675921  66.5128016   4.4868047
  90.6206959  66.9323470   5.1458070  90.3046007  65.5863765   4.5291003
  86.0909020  72.5015090  20.2670811  85.9905747  73.4509447  20.1982902
  85.8730562  72.1733329  19.3946881  77.3089507  77.8322355   9.1291677
  76.6152978  77.4176308   8.6161632  78.0562498  77.8742891   8.5325096
  91.8958294  68.0233599   6.1968032  92.3958072  68.1350134   5.3882351
  92.5393902  67.7194652   6.8368840  85.9540290  75.9312229  19.0835873
  85.4707372  76.7312589  19.2899762  86.0401229  75.9420174  18.1303317
  79.2226249  77.7640609   7.0057692  79.1996938  77.8628296   6.0539575
  79.5326886  78.6105759   7.3274858  81.8813627  79.8216764  11.1204307
  82.8356881  79.7900706  11.0534238  81.6826151  79.3607387  11.9354533
  82.4713010  78.3917880  13.6875104  83.2905898  78.8861958  13.7109942
  82.7449817  77.4749848  13.6592672  77.7247924  72.7256014  14.3867301
  78.3706787  72.2154967  14.8754527  77.5165075  73.4624695  14.9610727
  90.2501316  79.7936861  19.8859442  91.1192476  79.9677513  19.5246077
  89.7708067  80.6131278  19.7635171  84.4187496  86.9133962  11.5648876
  85.3214743  86.9457572  11.8815371  84.1924866  85.9834413  11.5795211
  90.0603654  63.5838835   4.3937134  89.2936049  63.0297321   4.5393817
  90.4714359  63.6560704   5.2551286  82.0645415  69.8723631  18.4842316
  82.9276876  69.5160435  18.6945640  81.4910825  69.5337525  19.1717720
  94.6226916  83.2804347  19.4772287  94.2293861  82.7270546  20.1519931
  95.4393056  83.5914926  19.8678805  97.5394877  84.6962226  17.0692544
  98.2804590  85.2969379  16.9897006  97.7712799  83.9539864  16.5110586
  92.5674903  87.0706037  16.4176950  93.1946942  86.6883114  17.0314474
  91.7102822  86.8520239  16.7832643  95.8042960  86.3923943  18.0790870
  95.8531116  87.2686065  17.6968639  96.3465475  85.8501336  17.5062513
  96.9302774  87.8307008  20.2670811  96.8299501  88.7801365  20.1982902
  96.7124316  87.5025247  19.3946881  88.5641678  88.0547931  14.3867301
  89.2100542  87.5446885  14.8754527  88.3558829  88.7916613  14.9610727
  92.9039169  85.2015548  18.4842316  93.7670631  84.8452353  18.6945640
  92.3304580  84.8629443  19.1717720  71.9636076  28.7940464   2.1712182
  71.9048622  28.1099684   1.5042765  72.3655594  29.5359454   1.7192808
  70.4487750  28.4955381   4.7475992  70.9927654  29.1085340   4.2530947
  69.8674594  29.0534960   5.2643005  73.7716544  27.9551435   4.0837313
  72.9812088  27.9375574   3.5441813  73.5349899  28.4939729   4.8386350
  75.3932616  27.2240843   1.6412064  75.1017424  27.5870824   2.4775525
  74.7804747  26.5107852   1.4625396  68.5713808  26.1415148   6.6104749
  69.4404968  26.3155801   6.2491384  68.0920560  26.9609565   6.4880478
  80.2306284  37.8503774  -3.9849977  80.8684694  37.7310522  -4.6886637
  80.1127127  38.7984618  -3.9262025  77.0395990  37.8031202  -4.0488452
  76.7014502  37.6872267  -4.9367917  77.9085758  37.4022367  -4.0687446
  77.5215773  38.9566054   1.9097754  77.5104414  38.5618852   1.0378257
  77.6836413  38.2232127   2.5031525  70.4447238  41.1517870  -5.2207341
  71.2368530  40.8108695  -5.6361041  70.6843888  41.2612845  -4.3005187
  74.2423034  41.7403166   0.8576938  73.9512900  42.6448797   0.7423604
  74.8780019  41.7819693   1.5721007  75.1679241  39.1180014  -2.5521703
  75.7642813  38.8936037  -3.2664740  75.2254213  38.3764760  -1.9496255
  82.7081400  29.2252035  -1.5469182  82.3764725  30.0947446  -1.7707967
  82.1127013  28.9088319  -0.8675151  79.2012919  41.4264581  -2.1473269
  78.9013643  42.3289620  -2.2557462  78.8563979  41.1596765  -1.2952116
  82.6010063  33.9447122  -4.4675831  81.6926941  33.8762530  -4.7617071
  82.5497659  34.4219066  -3.6394006  74.1833699  48.1908902  -9.1802301
  74.1057729  49.1416727  -9.1013821  73.5795343  47.8454774  -8.5227375
  76.6750929  35.3636767   3.4759066  75.8984263  35.9230687   3.4661930
  77.3141492  35.8493550   3.9973936  74.9297301  38.1722220   3.0377033
  75.6711986  38.7107264   2.7611856  74.2234287  38.7988509   3.1948585
  80.4052641  40.3151361   1.6349194  80.8135997  39.8733771   0.8903827
  79.6829902  39.7403988   1.8883387  76.7583711  35.2523968  -0.9917249
  77.6044906  35.6763381  -0.8482600  76.6982349  34.5957592  -0.2978686
  80.7281456  40.8752552  -4.6098517  80.0990318  41.0398266  -5.3122449
  80.3407118  41.2894161  -3.8387553  84.6070688  41.8106989  -7.2554153
  83.9221726  42.1905891  -7.8057120  84.6914537  42.4202316  -6.5222205
  79.9083156  32.9128336   0.6663925  79.6644088  33.6670397   0.1298201
  80.1843087  33.2913684   1.5011172  81.8621619  39.4566948  -0.6558810
  82.0738514  40.0998708  -1.3324428  81.8151367  38.6229265  -1.1236879
  73.1733499  40.1598441  -4.4068668  73.7434856  40.5885710  -5.0451184
  73.7641610  39.8781026  -3.7084483  73.6658665  35.3261869   3.8392343
  73.0357326  36.0078149   4.0727740  73.5594753  35.2144950   2.8945481
  82.9767447  42.3338904  -2.4836452  83.7984891  41.9319091  -2.7653771
  82.9729850  42.2307138  -1.5320336  76.7424051  41.8822947  -0.3275742
  76.8068483  42.3443354   0.5082430  76.0334974  41.2520312  -0.1993432
  72.9439408  29.6282634   6.2017594  72.5506353  29.0748833   6.8765238
  73.7605548  29.9393213   6.5924111  71.7196350  44.1832249  -7.8046083
  71.8962979  45.1050214  -7.9925099  72.5153184  43.8690668  -7.3751703
  75.8607369  31.0440514   3.7937850  76.6017082  31.6447667   3.7142313
  76.0925292  30.3018151   3.2355893  71.0048707  36.2296881   2.0716080
  70.8902222  35.3282138   2.3723179  70.1493225  36.4760578   1.7200897
  78.0840545  44.1714621   3.6703581  77.6404399  43.3851000   3.3524485
  78.7457758  44.3593772   3.0047471  72.8427666  45.7010423  -1.8035741
  73.3935091  45.5727486  -2.5758747  72.0039142  46.0005312  -2.1540848
  80.1821783  44.4517421   1.6984982  80.1640258  45.2726302   1.2065251
  81.1041703  44.3271496   1.9235123  76.6394837  41.9661551   2.5408490
  77.1723174  41.2049839   2.3107798  76.1108918  41.6735202   3.2832645
  82.9840395  39.2896564  -4.8305651  82.3264070  39.9795825  -4.7425523
  83.7880795  39.6792995  -4.4871665  78.2726685  35.1190392  -4.5343369
  77.3549247  35.3405339  -4.6921681  78.6886829  35.1936702  -5.3931662
  82.5607650  42.6246938  -8.6522567  82.1069978  41.7837848  -8.5957376
  81.9301617  43.2608336  -8.3147787  81.0040590  44.4623434  -7.7172749
  81.2963564  45.0228491  -8.4360383  81.5139210  44.7551995  -6.9619590
  75.9674215  45.2403785  -6.6279296  75.9250394  45.4664632  -7.5570764
  76.8836914  45.0067160  -6.4793494  79.4139849  35.7087853   0.2701334
  79.7689236  35.9359326   1.1295799  80.0611980  36.0406230  -0.3521411
  85.1706965  40.8982816  -4.0138066  85.6043472  40.8058105  -3.1655012
  85.8838546  40.8740316  -4.6518050  78.9034860  44.4984910  -2.4804965
  78.9571882  45.0675846  -1.7127249  78.0349642  44.6686795  -2.8450928
  71.7833254  34.2002466  -0.9980514  72.4556307  33.9919828  -1.6467865
  70.9563040  34.0024552  -1.4375282  86.0322515  40.9406517  -1.4805180
  86.2258405  41.8452327  -1.2345906  85.9323133  40.4813936  -0.6466595
  77.6858826  30.8264407   1.0185147  77.0386741  31.5254357   0.9249623
  78.4559841  31.2600551   1.3861395  81.0937624  41.0913259   4.0935700
  80.9423130  40.8623811   3.1765784  81.0842303  42.0483861   4.1067045
  77.8622960  38.6645172  -0.9218033  78.7915020  38.8156332  -1.0949066
  77.4413990  38.7529193  -1.7769387  76.6611292  42.6895836  -3.1519496
  76.5222377  42.3214621  -2.2793558  75.8725888  43.2043476  -3.3235538
  77.2559444  47.7904933 -11.8093959  77.4311199  47.3192976 -10.9948337
  76.5692232  48.4170699 -11.5812699  78.2116507  42.0677439  -5.7630658
  77.8766339  42.0278209  -4.8673008  77.7120453  41.4022155  -6.2360248
  72.1860751  37.4745069  -0.2378077  72.0480549  36.7425308   0.3633462
  73.0965674  37.3853969  -0.5193889  74.8143051  37.1865028  -0.7494397
  75.5242670  36.5458221  -0.7907779  74.7712360  37.4377923   0.1731784
  82.8029830  44.1232382   2.1712182  82.7442376  43.4391602   1.5042765
  83.2049349  44.8651372   1.7192808  73.5271985  34.1730246   1.0701242
  72.9909342  33.7220985   1.7222839  72.9388694  34.3076155   0.3271707
  71.8220529  50.9394296  -5.0354099  72.0617127  51.5712820  -4.3575081
  70.9789725  50.5882336  -4.7488740  82.8047237  42.0871966   0.4026162
  81.9174016  41.7497888   0.5252561  83.3745788  41.3554997   0.6394927
  76.3348391  46.7473418  -2.6312595  76.2618562  47.5528390  -2.1193291
  75.8925784  46.9465384  -3.4564574  76.1238170  45.9845188  -9.1209774
  75.3405692  46.5266868  -9.0271549  76.8230916  46.5019168  -8.7215532
  78.7947074  46.6460252  -0.4754436  79.5075047  47.2807717  -0.5478535
  78.3037103  46.7424118  -1.2914435  73.8458988  44.3954696   0.3451134
  74.5468447  45.0291179   0.4980529  73.3754103  44.7369427  -0.4153226
  81.6460274  36.9499303  -1.8296315  80.9931724  37.1975211  -2.4843863
  82.0240654  36.1363441  -2.1633838  78.6067448  46.9858996  -7.7268145
  78.7889842  46.1680652  -7.2640393  79.4300434  47.2026688  -8.1643255
  78.9409613  45.9127181 -10.4653097  79.4697380  45.4019636 -11.0782934
  79.2037833  45.5969712  -9.6007563  77.6947847  37.6919114   4.6569722
  77.0188484  37.5913243   5.3272097  78.5175481  37.5358328   5.1205719
  69.4426706  43.9291051  -2.7217763  70.0280143  43.1834739  -2.5889859
  69.2451544  44.2395007  -1.8381099  72.2965361  46.9642298  -7.7055321
  71.6275736  47.4488426  -8.1891281  72.1578231  47.2111518  -6.7911942
  76.4370630  48.9986042  -1.1072662  76.9888938  49.1617663  -0.3423577
  76.7776823  49.5890479  -1.7792637  70.8887395  33.4184324   3.1422257
  71.5159434  33.0361401   3.7559781  70.0315314  33.1998526   3.5077949
  81.2881504  43.8247299   4.7475992  81.8321408  44.4377257   4.2530947
  80.7068349  44.3826877   5.2643005  79.5739017  46.9468017  -4.1208980
  79.4490156  46.1457757  -4.6298035  80.2318108  47.4414210  -4.6095010
  81.6373925  44.7477037  -2.4929430  80.6904261  44.6282388  -2.5651103
  81.9856699  43.8599535  -2.4103169  73.9973499  30.6371176   1.3308812
  74.5207901  30.8833473   2.0935121  73.7785832  31.4691211   0.9111949
  78.6420359  44.5429753  -6.2925078  78.4945321  43.6146461  -6.1117508
  79.4673852  44.5649844  -6.7768003  82.2454481  45.3658312  -5.2060205
  83.1701028  45.1601173  -5.3435754  82.0769784  45.1174713  -4.2970863
  75.2026044  31.5784871  -0.9841518  74.8622864  30.7792684  -0.5820838
  74.4965050  31.8786582  -1.5564684  77.0903608  32.7793192  -2.6288199
  76.8321386  33.7010263  -2.6303868  76.5588648  32.3823627  -1.9387735
  82.0349797  45.8843980  -9.8498114  82.2086674  45.3190402 -10.6024261
  82.5278688  46.6844874 -10.0318624  67.8526757  37.8958649  -1.7834555
  67.3080225  38.6718457  -1.6514280  68.7306106  38.2429453  -1.9415433
  68.6392778  37.0228545   1.1095602  67.8974514  37.1711180   1.6960233
  68.3185523  37.2836811   0.2462352  76.5836441  46.5644523   0.9075992
  76.8923568  46.3193670   1.7798692  77.3811923  46.7691162   0.4194862
  76.6057053  48.7182433  -6.8618631  76.1662043  48.2258811  -6.1685775
  77.3565170  48.1755400  -7.1026556  69.0849392  44.9093974  -6.8594003
  69.9107412  44.6097746  -7.2395360  68.7343444  44.1401596  -6.4104215
  74.0530925  44.2620442  -4.7896330  73.4310935  43.5991147  -5.0894102
  74.7235792  44.2881574  -5.4722682  74.1255453  32.7402230   4.8036176
  74.1743608  33.6164353   4.4213946  74.6677967  32.1979623   4.2307820
  84.6110298  43.2843353   4.0837313  83.8205842  43.2667492   3.5441813
  84.3743653  43.8231647   4.8386350  84.7308173  40.1335820   1.3970042
  84.7806178  39.9685827   2.3385565  84.6222097  39.2663079   1.0067923
  82.0211936  36.1166748   2.7129349  82.9221799  35.9773212   2.4213347
  82.0959910  36.2821202   3.6527526  76.3554741  33.4933602   1.5582535
  75.4858051  33.7867168   1.2865124  76.5914222  34.0774047   2.2789799
  86.2326370  42.5532761   1.6412064  85.9411179  42.9162742   2.4775525
  85.6198502  41.8399769   1.4625396  84.4813559  37.6765376   0.1092122
  84.9567680  37.8693022  -0.6989027  83.5579124  37.7324561  -0.1364495
  79.0593775  29.7113219  -0.9252045  79.5775719  30.4474246  -1.2505556
  78.7048908  30.0177213  -0.0905285  83.1815228  34.5531136  -1.6579573
  84.1332650  34.6529233  -1.6367349  83.0118678  33.7609404  -1.1481488
  81.2029607  31.6386719  -1.4720172  80.6079539  31.9191732  -2.1673683
  80.9179304  32.1280620  -0.7003431  85.6603305  37.7737255  -2.5437273
  85.6279625  36.8353256  -2.3577589  86.2703929  37.8521292  -3.2771448
  77.3825329  40.6951055   4.9590588  78.3028338  40.8729654   5.1530634
  77.3474912  39.7507100   4.8070287  70.3787401  38.6052089  -2.3986631
  70.5973411  39.5369197  -2.3798597  70.7913175  38.2460064  -1.6131827
  75.2515267  34.1785295   6.9916118  75.1511993  35.1279652   6.9228209
  75.0336809  33.8503534   6.1192188  75.1146537  37.6082434   5.8081180
  74.6313618  38.4082794   6.0145069  75.2007476  37.6190379   4.8548624
  71.0419874  41.4986969  -2.1550387  71.9963128  41.4670911  -2.2220455
  70.8432398  41.0377592  -1.3400161  71.6319256  40.0688085   0.4120411
  72.4512145  40.5632163   0.4355248  71.9056064  39.1520053   0.3837979
  69.3970103  47.0406588  -5.1380189  69.2624571  46.2806989  -5.7042191
  68.9802165  47.7647488  -5.6051400  72.5539229  47.9375905  -4.9261746
  72.4371613  48.8821338  -5.0283056  71.7331675  47.6349467  -4.5375947
  66.8854171  34.4026218   1.1112608  67.5313034  33.8925172   1.5999833
  66.6771322  35.1394900   1.6856033  79.4107563  41.4707066   6.6104749
  80.2798722  41.6447718   6.2491384  78.9314314  42.2901483   6.4880478
  73.5793743  48.5904167  -1.7105818  74.4820990  48.6227777  -1.3939323
  73.3531113  47.6604618  -1.6959482  75.3347345  47.3435153  -5.0495739
  74.3842976  47.3437015  -5.1631367  75.6379831  46.5967888  -5.5659704
  71.2251662  31.5493835   5.2087622  72.0883123  31.1930640   5.4190947
  70.6517072  31.2107730   5.8963027  91.0700038  53.1795692  -3.9849977
  91.7078448  53.0602439  -4.6886637  90.9520881  54.1276536  -3.9262025
  87.8789745  53.1323120  -4.0488452  87.5408256  53.0164185  -4.9367917
  88.7479513  52.7314285  -4.0687446  88.3609528  54.2857972   1.9097754
  88.3498168  53.8910770   1.0378257  88.5230167  53.5524044   2.5031525
  81.2840992  56.4809788  -5.2207341  82.0762284  56.1400613  -5.6361041
  81.5237643  56.5904763  -4.3005187  85.0816789  57.0695083   0.8576938
  84.7906655  57.9740714   0.7423604  85.7173773  57.1111611   1.5721007
  86.0072996  54.4471932  -2.5521703  86.6036568  54.2227954  -3.2664740
  86.0647967  53.7056677  -1.9496255  93.5475154  44.5543953  -1.5469182
  93.2158479  45.4239364  -1.7707967  92.9520768  44.2380237  -0.8675151
  90.0406674  56.7556499  -2.1473269  89.7407397  57.6581538  -2.2557462
  89.6957733  56.4888682  -1.2952116  83.4919155  53.2070296  -6.1136564
  82.5669652  53.0746510  -5.9058873  83.7403569  53.9864515  -5.6166622
  93.4403818  49.2739039  -4.4675831  92.5320695  49.2054448  -4.7617071
  93.3891414  49.7510984  -3.6394006  80.8527966  52.8503569  -5.2792775
  80.9820348  53.1038048  -4.3653364  80.1725418  53.4431277  -5.5988120
  87.5144683  50.6928685   3.4759066  86.7378018  51.2522605   3.4661930
  88.1535247  51.1785468   3.9973936  85.7691056  53.5014138   3.0377033
  86.5105740  54.0399182   2.7611856  85.0628041  54.1280427   3.1948585
  91.2446395  55.6443279   1.6349194  91.6529751  55.2025689   0.8903827
  90.5223657  55.0695906   1.8883387  87.5977465  50.5815885  -0.9917249
  88.4438661  51.0055299  -0.8482600  87.5376103  49.9249510  -0.2978686
  90.7476911  48.2420254   0.6663925  90.5037843  48.9962314   0.1298201
  91.0236841  48.6205601   1.5011172  92.7015374  54.7858866  -0.6558810
  92.9132269  55.4290626  -1.3324428  92.6545122  53.9521183  -1.1236879
  90.3041603  47.3976687  -3.7522237  89.4426082  47.6957940  -3.4605500
  90.3304037  47.6147086  -4.6841205  84.0127253  55.4890359  -4.4068668
  84.5828610  55.9177627  -5.0451184  84.6035365  55.2072944  -3.7084483
  84.5052420  50.6553786   3.8392343  83.8751080  51.3370067   4.0727740
  84.3988507  50.5436868   2.8945481  79.7997392  50.3225582  -5.2341733
  79.0096446  50.5783111  -5.7101622  80.2908639  51.1373920  -5.1289692
  81.7512137  50.6870162  -8.2758256  80.9543301  50.7988856  -7.7574761
  81.5237730  51.0256814  -9.1417366  87.5817805  57.2114865  -0.3275742
  87.6462238  57.6735272   0.5082430  86.8728729  56.5812230  -0.1993432
  78.0835095  50.5756073  -2.8026742  78.3343133  51.4603083  -2.5369166
  78.6194643  50.3960674  -3.5751650  83.7833162  44.9574552   6.2017594
  83.3900108  44.4040751   6.8765238  84.5999303  45.2685131   6.5924111
  86.7001123  46.3732431   3.7937850  87.4410837  46.9739584   3.7142313
  86.9319046  45.6310069   3.2355893  81.8442461  51.5588799   2.0716080
  81.7295976  50.6574056   2.3723179  80.9886979  51.8052495   1.7200897
  88.9234299  59.5006539   3.6703581  88.4798153  58.7142917   3.3524485
  89.5851513  59.6885689   3.0047471  83.6821420  61.0302340  -1.8035741
  84.2328845  60.9019404  -2.5758747  82.8432896  61.3297229  -2.1540848
  91.0215537  59.7809339   1.6984982  91.0034012  60.6018220   1.2065251
  91.9435457  59.6563414   1.9235123  87.4788591  57.2953468   2.5408490
  88.0116928  56.5341756   2.3107798  86.9502672  57.0027120   3.2832645
  89.7254827  44.7718189  -3.9648635  89.2219622  44.7348325  -4.7780829
  90.0185433  45.6810932  -3.9051978  85.9697712  44.8556919  -4.9582453
  86.8350709  44.6599728  -5.3176563  86.0375221  44.6267271  -4.0313096
  83.5760032  47.0859127  -7.5866086  84.1503783  46.8634308  -8.3192893
  84.1631014  47.1547821  -6.8337485  89.1120440  50.4482309  -4.5343369
  88.1943001  50.6697256  -4.6921681  89.5280583  50.5228620  -5.3931662
  78.7370308  52.0637780  -8.4398532  78.5394708  51.4707141  -9.1647466
  78.1816972  51.7589990  -7.7222594  86.7167032  51.9560886  -6.3203939
  86.7715641  51.0034723  -6.3961463  85.9058234  52.1120326  -5.8362641
  84.6559392  50.5737946  -8.5613560  83.8427257  50.8732117  -8.1548368
  85.1518386  50.1793635  -7.8439078  90.2533603  51.0379771   0.2701334
  90.6082991  51.2651244   1.1295799  90.9005734  51.3698147  -0.3521411
  84.1473466  48.1456302  -2.9452325  84.7872846  48.0045061  -3.6429362
  83.3150997  47.8590815  -3.3213723  81.1502083  48.1156627  -8.1679339
  81.4108900  49.0301960  -8.2770178  81.9719255  47.6481069  -8.0182726
  82.6227008  49.5294384  -0.9980514  83.2950061  49.3211746  -1.6467865
  81.7956795  49.3316470  -1.4375282  88.5252580  46.1556325   1.0185147
  87.8780495  46.8546274   0.9249623  89.2953595  46.5892469   1.3861395
  91.9331378  56.4205177   4.0935700  91.7816884  56.1915729   3.1765784
  91.9236057  57.3775778   4.1067045  88.7016714  53.9937090  -0.9218033
  89.6308774  54.1448249  -1.0949066  88.2807744  54.0821110  -1.7769387
  87.5005046  58.0187754  -3.1519496  87.3616132  57.6506539  -2.2793558
  86.7119642  58.5335394  -3.3235538  83.0254505  52.8036987  -0.2378077
  82.8874303  52.0717226   0.3633462  83.9359429  52.7145887  -0.5193889
  85.6536806  52.5156946  -0.7494397  86.3636424  51.8750138  -0.7907779
  85.6106114  52.7669841   0.1731784  93.6423585  59.4524299   2.1712182
  93.5836131  58.7683520   1.5042765  94.0443103  60.1943290   1.7192808
  84.3665740  49.5022164   1.0701242  83.8303097  49.0512903   1.7222839
  83.7782448  49.6368073   0.3271707  93.6440992  57.4163883   0.4026162
  92.7567771  57.0789805   0.5252561  94.2139543  56.6846915   0.6394927
  75.2970139  53.7487975  -6.2730787  75.9841179  53.4349705  -6.8609772
  75.1418268  54.6529340  -6.5463536  80.1004861  48.6378172  -1.8445763
  80.0163050  48.0303841  -2.5795353  79.2787568  49.1287190  -1.8436267
  86.8563544  49.2649118  -6.7503884  86.4861331  48.7120159  -6.0622978
  87.3522636  48.6607252  -7.3028884  84.6852742  59.7246613   0.3451134
  85.3862202  60.3583096   0.4980529  84.2147857  60.0661345  -0.4153226
  92.4854028  52.2791221  -1.8296315  91.8325479  52.5267128  -2.4843863
  92.8634408  51.4655359  -2.1633838  88.5341601  53.0211032   4.6569722
  87.8582238  52.9205161   5.3272097  89.3569235  52.8650246   5.1205719
  80.2820460  59.2582968  -2.7217763  80.8673897  58.5126656  -2.5889859
  80.0845299  59.5686925  -1.8381099  74.8738115  51.8288569  -4.0013320
  74.9122215  51.2952159  -3.2076202  74.3678408  51.3023774  -4.6202343
  82.2528877  46.6753109  -0.5050778  82.3170204  47.5367940  -0.9173380
  82.1895998  46.0627111  -1.2378419  81.7281150  48.7476242   3.1422257
  82.3553189  48.3653319   3.7559781  80.8709069  48.5290444   3.5077949
  92.1275259  59.1539217   4.7475992  92.6715163  59.7669175   4.2530947
  91.5462103  59.7118795   5.2643005  78.5046693  50.5552671 -10.9259388
  78.8000134  49.6463349 -10.9792335  77.6034729  50.5340410 -11.2478386
  82.0340940  48.6308667  -4.9431840  81.3127525  49.2444635  -5.0824367
  82.8234196  49.1666432  -5.0215194  84.8367253  45.9663094   1.3308812
  85.3601655  46.2125390   2.0935121  84.6179587  46.7983129   0.9111949
  80.2334534  48.2366768 -10.8020063  79.9047240  47.3564147 -10.9844957
  80.5873905  48.1814437  -9.9143674  86.0419798  46.9076789  -0.9841518
  85.7016619  46.1084602  -0.5820838  85.3358805  47.2078500  -1.5564684
  86.6936270  43.9926101  -2.5314195  87.5162339  43.5186579  -2.6535304
  86.9374334  44.7716585  -2.0315508  84.2174849  50.6845222  -4.7222216
  84.0719430  50.9985525  -3.8297934  83.7400053  51.3030122  -5.2751317
  86.0771232  47.6747770  -4.6741326  86.0632801  46.7788863  -5.0109028
  86.7943660  47.6818434  -4.0403040  87.9297362  48.1085110  -2.6288199
  87.6715140  49.0302181  -2.6303868  87.3982403  47.7115545  -1.9387735
  78.6920511  53.2250566  -1.7834555  78.1473979  54.0010374  -1.6514280
  79.5699861  53.5721371  -1.9415433  79.4786533  52.3520463   1.1095602
  78.7368269  52.5003098   1.6960233  79.1579277  52.6128728   0.2462352
  87.4230196  61.8936441   0.9075992  87.7317322  61.6485588   1.7798692
  88.2205678  62.0983079   0.4194862  78.1251752  58.1572218  -5.9005070
  77.2883660  57.7294392  -6.0821068  78.0975397  58.3504661  -4.9634278
  84.9649207  48.0694148   4.8036176  85.0137363  48.9456270   4.4213946
  85.5071721  47.5271541   4.2307820  95.4504053  58.6135271   4.0837313
  94.6599597  58.5959410   3.5441813  95.2137407  59.1523565   4.8386350
  95.5701928  55.4627737   1.3970042  95.6199933  55.2977745   2.3385565
  95.4615851  54.5954996   1.0067923  92.8605690  51.4458665   2.7129349
  93.7615553  51.3065130   2.4213347  92.9353665  51.6113120   3.6527526
  87.1948496  48.8225520   1.5582535  86.3251805  49.1159086   1.2865124
  87.4307976  49.4065965   2.2789799  97.0720125  57.8824679   1.6412064
  96.7804933  58.2454659   2.4775525  96.4592256  57.1691687   1.4625396
  95.3207313  53.0057293   0.1092122  95.7961435  53.1984940  -0.6989027
  94.3972878  53.0616479  -0.1364495  89.8987530  45.0405137  -0.9252045
  90.4169473  45.7766164  -1.2505556  89.5442662  45.3469130  -0.0905285
  94.0208982  49.8823053  -1.6579573  94.9726405  49.9821151  -1.6367349
  93.8512432  49.0901322  -1.1481488  92.0423362  46.9678637  -1.4720172
  91.4473294  47.2483649  -2.1673683  91.7573058  47.4572538  -0.7003431
  88.2219083  56.0242972   4.9590588  89.1422093  56.2021571   5.1530634
  88.1868666  55.0799018   4.8070287  77.4401248  51.2181566  -6.1156138
  77.1204033  50.3646874  -6.4081764  76.8934676  51.4330144  -5.3598170
  81.2181156  53.9344007  -2.3986631  81.4367166  54.8661115  -2.3798597
  81.6306930  53.5751981  -1.6131827  86.0909021  49.5077213   6.9916118
  85.9905748  50.4571570   6.9228209  85.8730563  49.1795452   6.1192188
  77.3089508  54.8384477  -4.1463016  76.6152980  54.4238430  -4.6593062
  78.0562499  54.8805014  -4.7429597  85.9540291  52.9374351   5.8081180
  85.4707373  53.7374712   6.0145069  86.0401230  52.9482296   4.8548624
  79.2226251  54.7702731  -6.2697001  79.1996939  54.8690418  -7.2215118
  79.5326887  55.6167882  -5.9479835  81.8813629  56.8278886  -2.1550387
  82.8356882  56.7962829  -2.2220455  81.6826152  56.3669510  -1.3400161
  82.4713011  55.3980002   0.4120411  83.2905900  55.8924081   0.4355248
  82.7449818  54.4811970   0.3837979  77.7247925  49.7318136   1.1112608
  78.3706789  49.2217090   1.5999833  77.5165076  50.4686818   1.6856033
  90.2501317  56.7998984   6.6104749  91.1192477  56.9739636   6.2491384
  89.7708069  57.6193400   6.4880478  84.4187497  63.9196085  -1.7105818
  85.3214744  63.9519695  -1.3939323  84.1924867  62.9896536  -1.6959482
  82.0645416  46.8785753   5.2087622  82.9276878  46.5222558   5.4190947
  81.4910827  46.5399648   5.8963027  94.6226917  60.2866470   6.2017594
  94.2293862  59.7332668   6.8765238  95.4393057  60.5977048   6.5924111
  97.5394878  61.7024349   3.7937850  98.2804591  62.3031502   3.7142313
  97.7712801  60.9601987   3.2355893  92.5674904  64.0768159   3.1422257
  93.1946943  63.6945237   3.7559781  91.7102823  63.8582361   3.5077949
  95.8042962  63.3986065   4.8036176  95.8531117  64.2748188   4.4213946
  96.3465476  62.8563458   4.2307820  96.9302776  64.8369130   6.9916118
  96.8299502  65.7863487   6.9228209  96.7124318  64.5087369   6.1192188
  88.5641679  65.0610054   1.1112608  89.2100543  64.5509008   1.5999833
  88.3558831  65.7978735   1.6856033  92.9039170  62.2077671   5.2087622
  93.7670632  61.8514476   5.4190947  92.3304581  61.8691566   5.8963027
   4.3523397  99.9945328  73.5176676   3.5987105  99.4252726  73.3620681
   4.4870938  99.9607993  74.4647311   0.7172009 101.4353317  73.8142791
   1.5518901 101.8743121  73.9780351   0.8531138 100.9591970  72.9951037
   4.7629812 100.1520938  76.2496921   5.4933200  99.8906226  76.8104624
   4.1536757  99.4149660  76.2898989   2.8445109  98.2928801  76.8471372
   2.1178272  98.1584766  76.2387863   2.4292396  98.6005630  77.6528090
   0.4622904  94.5140653  74.2004803   1.0567395  94.2736389  73.4898112
   0.5349487  93.7947784  74.8278340   2.7693977  97.8206854  72.9748225
   2.2093534  97.8900043  73.7479787   2.1637480  97.6447839  72.2547721
   3.9308243 103.7181210  77.7230289   3.5872512 104.6082852  77.6469400
   4.2987205 103.5282868  76.8599874   5.7295908 102.9774769  72.8248027
   6.0354785 102.1172133  72.5373942   6.4548513 103.5692390  72.6247021
   3.4350080 102.7773095  74.2477009   3.7151834 102.1096285  74.8737436
   4.2200687 102.9702191  73.7351673   7.5952232 104.9548908  73.1144980
   7.3977053 104.6463996  73.9988312   8.2051937 105.6810547  73.2442910
   3.3453611 101.9068633  70.7710598   2.5786007 101.3527120  70.9167281
   3.7564316 101.9790502  71.6324750   4.3523398  77.0007451  60.2421983
   3.5987106  76.4314849  60.0865987   4.4870939  76.9670115  61.1892618
   0.7172010  78.4415439  60.5388098   1.5518902  78.8805244  60.7025658
   0.8531139  77.9654093  59.7196343   4.7629813  77.1583061  62.9742227
   5.4933201  76.8968349  63.5349931   4.1536758  76.4211783  63.0144295
   2.8445110  75.2990924  63.5716679   2.1178274  75.1646888  62.9633170
   2.4292397  75.6067752  64.3773397   0.4622905  71.5202776  60.9250110
   1.0567396  71.2798512  60.2143418   0.5349489  70.8009906  61.5523646
   2.7693978  74.8268977  59.6993531   2.2093536  74.8962166  60.4725093
   2.1637481  74.6509961  58.9793028   4.3549996  91.5025490  62.3923487
   4.9928406  91.3832238  61.6886827   4.2370839  92.4506334  62.4511439
   1.1639703  91.4552919  62.3285012   0.8258214  91.3393983  61.4405547
   2.0329471  91.0544084  62.3086018   1.6459486  92.6087770  68.2871217
   1.6348126  92.2140569  67.4151721   1.8080125  91.8753843  68.8804989
   2.6026077  96.9759363  53.6296368   1.9514057  97.5613443  53.2430381
   3.3970440  97.5065558  53.6891405   3.9091265  89.2276944  59.4676695
   4.6954354  88.8096368  59.1167112   4.1729969  90.1323037  59.6358343
   4.0801342  94.6649795  54.1665352   3.4447175  94.7384421  54.8786257
   3.7498748  95.2543393  53.4884431   9.3099692  89.1652178  60.3709674
  10.0424864  88.5951394  60.6047503   8.5539048  88.7773778  60.8116179
   0.9275812  91.5879419  57.5673016   0.5634019  91.0610040  58.2785938
   1.7842927  91.1977888  57.3939501   6.8325112  82.8773752  64.8304282
   6.5008437  83.7469163  64.6065497   6.2370726  82.5610036  65.5098313
   3.3256632  95.0786298  64.2300195   3.0257355  95.9811336  64.1216002
   2.9807691  94.8118481  65.0821348   6.7253776  87.5968838  61.9097632
   5.8170653  87.5284246  61.6156393   6.6741371  88.0740783  62.7379458
   8.5915422  85.7985276  63.6875506   7.9489802  86.0917809  63.0415301
   8.0870350  85.6838197  64.4928703   6.2455586  89.5448449  54.3761365
   7.1573442  89.7775836  54.2009063   5.7365233  90.1285494  53.8136444
   4.5296353  93.9673077  68.0122658   4.9379709  93.5255488  67.2677290
   3.8073615  93.3925705  68.2656851   0.8827423  88.9045684  65.3856215
   1.7288618  89.3285098  65.5290864   0.8226061  88.2479308  66.0794778
   4.8525168  94.5274268  61.7674947   4.2234030  94.6919982  61.0651015
   4.4650830  94.9415877  62.5385911   8.7314400  95.4628706  59.1219311
   8.0465438  95.8427607  58.5716344   8.8158249  96.0724032  59.8551258
   4.0326869  86.5650052  67.0437389   3.7887800  87.3192113  66.5071664
   4.3086799  86.9435400  67.8784636   5.9865331  93.1088665  65.7214654
   6.1982227  93.7520425  65.0449035   5.9395080  92.2750981  65.2536584
   3.5891560  85.7206485  62.6251226   2.7276039  86.0187739  62.9167964
   3.6153995  85.9376884  61.6932259   7.1011159  95.9860620  63.8937012
   7.9228603  95.5840807  63.6119693   7.0973562  95.8828854  64.8453127
  15.1917152  92.3299369  60.2421983  14.4380861  91.7606767  60.0865987
  15.3264694  92.2962033  61.1892618   0.5815780  97.2012771  55.9176702
   0.4461455  98.0464307  56.3461550   1.1225593  97.4032049  55.1542636
   2.2084257  97.8236337  70.0477044   1.7648111  97.0372716  69.7297949
   2.8701470  98.0115488  69.3820935   4.3065495  98.1039137  68.0758446
   4.2883970  98.9248018  67.5838715   5.2285415  97.9793213  68.3008587
   3.9308244  80.7243333  64.4475596   3.5872513  81.6144975  64.3714706
   4.2987207  80.5344990  63.5845181   3.8958527  90.7151944  52.9548031
   3.3805150  91.4856549  53.1936418   3.6235835  90.0417080  53.5781092
   1.4805638  85.5601645  58.0133269   0.6247234  85.1708495  57.8338908
   1.8932590  85.6393606  57.1533055   3.0104784  83.0947988  62.4124829
   2.5069580  83.0578123  61.5992634   3.3035391  84.0040731  62.4721486
   8.8692801  93.4684299  54.8901204   8.0922244  93.1295458  54.4456366
   9.5484282  93.4736922  54.2156169   3.6844830  88.5879036  54.7807812
   3.3794965  88.9025185  55.6317955   4.6375272  88.6660456  54.8235145
   2.1291262  94.7469259  56.4300766   1.6012623  94.0122019  56.1174004
   1.6278764  95.5243936  56.1840734   7.1084108  92.9418280  61.5467812
   6.4507782  93.6317541  61.6347941   7.9124507  93.3314712  61.8901799
   5.9189567  91.2962653  59.5971754   6.4321448  91.9292644  60.0993464
   6.5690790  90.6963848  59.2315114   3.1811941 101.2746977  52.3532425
   2.5073640 101.5778674  52.9617383   3.5677763 102.0776057  52.0037882
   2.3970397  88.7712108  61.8430095   1.4792959  88.9927055  61.6851783
   2.8130541  88.8458419  60.9841802   3.1805445  90.1703524  56.9732775
   3.9277264  90.6824921  56.6639897   3.4497035  89.8487576  57.8337168
   1.4532095  92.6662064  53.9559729   0.5443315  92.3821097  54.0532199
   1.4827179  93.0861143  53.0963036   6.6851363  96.2768654  57.7250897
   6.2313690  95.4359564  57.7816087   6.0545329  96.9130052  58.0625677
   5.6284282  87.2060640  58.9551564   4.8907039  86.6938026  59.2861807
   5.8811056  86.7661022  58.1434841   5.1284302  98.1145151  58.6600715
   5.4207276  98.6750208  57.9413081   5.6382923  98.4073712  59.4153874
   5.7295910  79.9836892  59.5493333   6.0354786  79.1234255  59.2619249
   6.4548514  80.5754512  59.3492327   1.1508183  94.2070808  51.2947808
   0.7127613  93.4906667  50.8353445   1.8918624  94.4346923  50.7332899
   3.5383561  89.3609569  66.6474797   3.8932949  89.5881042  67.5069263
   4.1855692  89.6927946  66.0252053   9.2681298  92.4828005  57.3524126
   9.1299197  92.6729601  56.4245316   8.9117517  93.2447388  57.8092177
   9.2950678  94.5504532  62.3635398   9.7287184  94.4579821  63.2118452
  10.0082258  94.5262033  61.7255414   3.0278572  98.1506626  63.8968498
   3.0815595  98.7197563  64.6646214   2.1593354  98.3208511  63.5322536
  10.1566227  94.5928233  64.8968283  10.3502117  95.4974043  65.1427558
  10.0566845  94.1335652  65.7306868   1.8102538  84.4786123  67.3958611
   1.1630453  85.1776073  67.3023087   2.5803553  84.9122267  67.7634859
   5.2181336  94.7434976  70.4709164   5.0666842  94.5145527  69.5539248
   5.2086015  95.7005577  70.4840509   1.9866672  92.3166888  65.4555430
   2.9158732  92.4678048  65.2824398   1.5657702  92.4050909  64.6004077
   1.3803156 101.4426649  54.5679504   1.5554912 100.9714692  55.3825127
   0.6935944 102.0692415  54.7960765   2.3360219  95.7199155  60.6142806
   2.0010052  95.6799925  61.5100456   1.8364165  95.0543871  60.1413216
   5.2719411  93.0655190  50.8879865   4.6548581  92.3402018  50.7912918
   4.8035899  93.8264550  50.5446940   6.9273542  97.7754098  68.5485646
   6.8686089  97.0913318  67.8816229   7.3293061  98.5173088  68.0966272
   6.9290950  95.7393682  66.7799625   6.0417728  95.4019604  66.9026024
   7.4989501  95.0076713  67.0168391   3.5578533  85.4461534  59.8997896
   4.0547232  84.6931496  59.5798966   2.7865514  85.4825851  59.3341105
  11.4108290  91.1501899  61.5416187  11.3998166  92.0326615  61.1710120
  10.5425670  90.7973450  61.3470724   2.9190787 100.2981968  65.9019027
   3.6318759 100.9329433  65.8294929   2.4280815 100.3945834  65.0859029
   4.6408314  94.2033221  57.4736319   3.7064592  94.3234684  57.3041023
   4.8184982  93.3005688  57.2096329   8.0280865  90.0450540  58.0086353
   8.4941317  90.8778532  57.9346656   8.4788365  89.5795522  58.7131612
   6.0957096  96.3894362  55.0072505   6.3716940  96.2750956  55.9166379
   5.2261595  95.9911847  54.9684678   5.9997528  82.4131127  62.0477254
   5.0860607  82.6435354  62.2159461   6.4290629  82.4969571  62.8991287
   5.7703986  90.6021019  64.5477148   5.1175436  90.8496927  63.8929601
   6.1484366  89.7885158  64.2139626   2.7311160 100.6380713  58.6505319
   2.9133555  99.8202368  59.1133071   3.5544146 100.8548405  58.2130209
   3.0653326  99.5648898  55.9120367   3.5941092  99.0541352  55.2990529
   3.3281545  99.2491428  56.7765900   1.8191559  91.3440830  71.0343186
   1.1432196  91.2434960  71.7045561   2.6419193  91.1880044  71.4979183
   0.5614342 102.6507758  65.2700802   1.1132650 102.8139379  66.0349887
   0.9020535 103.2412196  64.5980826   5.4125216  97.4769015  71.1249456
   5.9565120  98.0898974  70.6304411   4.8312061  98.0348594  71.6416469
   3.6982729 100.5989733  62.2564484   3.5733869  99.7979473  61.7475429
   4.3561820 101.0935927  61.7678454   5.7617638  98.3998753  63.8844034
   4.8147973  98.2804105  63.8122361   6.1100411  97.5121252  63.9670295
   2.7664071  98.1951470  60.0848386   2.6189033  97.2668177  60.2655956
   3.5917564  98.2171560  59.6005461   6.3698193  99.0180028  61.1713259
   7.2944740  98.8122890  61.0337710   6.2013496  98.7696430  62.0802600
   2.7625585  86.0489307  55.0780503   2.9789200  86.9313945  54.7769331
   2.2819652  85.6575521  54.3486145   1.2147320  86.4314909  63.7485265
   0.9565098  87.3531979  63.7469595   0.6832361  86.0345343  64.4385729
   6.1593509  99.5365696  56.5275350   6.3330387  98.9712118  55.7749203
   6.6522400 100.3366591  56.3454840   1.6349276  82.5646859  60.1086427
   1.6570973  82.6286192  59.1538407   2.0517335  81.7251368  60.3026934
  12.0132900  92.3002119  58.1465650  12.4564046  91.5509444  57.7484773
  11.1359410  92.2912255  57.7639382   7.1468682  98.8532460  53.6272248
   7.8419586  99.4739153  53.8459563   7.4891832  98.0027812  53.9024626
   9.0460105  96.3032166  55.1559579   9.5711429  96.6419439  54.4308899
   8.9582457  95.3679181  54.9722714   0.7080153 100.2166239  67.2849456
   1.0167280  99.9715386  68.1572155   1.5055635 100.4212878  66.7968326
   8.7354011  96.9365069  70.4610777   7.9449554  96.9189208  69.9215277
   8.4987365  97.4753363  71.2159814   8.8551886  93.7857536  67.7743506
   8.9049891  93.6207543  68.7159029   8.7465809  92.9184795  67.3841387
   6.1455648  89.7688464  69.0902812   7.0465511  89.6294929  68.7986810
   6.2203623  89.9342919  70.0300990  10.3570083  96.2054477  68.0185527
  10.0654891  96.5684458  68.8548988   9.7442214  95.4921486  67.8398859
  11.5565765  93.7707357  60.5388098  12.3912656  94.2097161  60.7025658
  11.6924894  93.2946010  59.7196343   8.6057271  91.3287092  66.4865585
   9.0811392  91.5214738  65.6784437   7.6822836  91.3846278  66.2408969
   3.1837487  83.3634936  65.4521419   3.7019431  84.0995962  65.1267908
   2.8292620  83.6698929  66.2868178   3.4350081  79.7835218  60.9722316
   3.7151835  79.1158407  61.5982742   4.2200688  79.9764314  60.4596980
   1.2383550  98.9594212  52.5347342   0.6657517  99.5784399  52.0817814
   1.8116344  99.5093574  53.0687264   7.3058940  88.2052852  64.7193891
   8.2576363  88.3050950  64.7406115   7.1362390  87.4131121  65.2291975
   5.3273319  85.2908435  64.9053292   4.7323251  85.5713448  64.2099780
   5.0423016  85.7802336  65.6770033   4.4580810  99.2431362  53.6655924
   5.3911483  99.1776924  53.8688800   4.3704023 100.0787629  53.2070457
   7.0868826  98.5597232  50.6259872   7.0082458  98.2257096  51.5195630
   7.9078493  99.0519000  50.6251344   9.7847018  91.4258972  63.8336191
   9.7523338  90.4874972  64.0195874  10.3947641  91.5043008  63.1002015
   1.6230348  90.2955025  49.8763395   2.5689453  90.1661233  49.9451813
   1.2444593  89.5569687  50.3532823   9.9341506  88.2170015  63.8794474
   9.4180555  87.4328472  63.6924403  10.8181455  87.8888732  64.0440993
   7.5952233  81.9611031  59.8390286   7.3977054  81.6526119  60.7233618
   8.2051939  82.6872670  59.9688216  15.6023567  92.4874979  62.9742227
  16.3326956  92.2260267  63.5349931  14.9930513  91.7503701  63.0144295
  13.6838865  90.6282841  63.5716679  12.9572028  90.4938806  62.9633170
  13.2686151  90.9359670  64.3773397   1.5069041  94.3472771  71.3364052
   2.4272050  94.5251370  71.5304098   1.4718624  93.4028816  71.1843751
   1.4235331  82.7641891  55.9662521   0.6136060  82.4188976  56.3417767
   2.1119748  82.4549435  56.5550133   3.3525880  81.8419938  57.5886818
   3.9056918  82.2615391  58.2476841   3.5895966  80.9155686  57.6309774
   6.7304687  83.9520463  57.0965482   6.1503356  84.6105267  56.7143534
   6.4640619  83.1297807  56.6852899   5.1808253  83.3525521  59.2986802
   5.6808031  83.4642055  58.4901121   5.8243861  83.0486573  59.9387611
   5.5129565  86.1120553  56.1521830   4.6255420  86.3970204  55.9342025
   5.9283554  85.9514317  55.3049107   8.8644101  86.1367074  59.8676169
   9.6404491  86.6263527  60.1400786   8.1392235  86.5625128  60.3248039
  11.3016660  86.8494693  60.9250110  11.8961150  86.6090429  60.2143418
  11.3743243  86.1301824  61.5523646   4.6572778  95.8765228  50.2469850
   5.3608628  96.0815230  50.8627506   3.9335427  96.4441990  50.5118934
   5.4870588  91.6275089  56.3672120   5.4305790  92.0843641  55.5279753
   6.0398931  90.8665774  56.1894963   9.2975394  87.4164821  57.1922240
   9.0412329  87.0161457  58.0230448   8.6728262  88.1308615  57.0672379
  13.6087732  90.1560894  59.6993531  13.0487290  90.2254084  60.4725093
  13.0031236  89.9801879  58.9793028   6.5659476  96.3147757  52.2968310
   7.4005080  95.8828956  52.1145785   6.4043819  96.1429771  53.2245205
   6.2205368  92.8179870  53.6624650   6.1654172  92.6524142  52.7213094
   5.5951423  93.5255903  53.8186839   3.5351275  95.1228782  72.9878212
   4.4042435  95.2969435  72.6264847   3.0558026  95.9423199  72.8653942
   3.3453613  78.9130756  57.4955905   2.5786009  78.3589243  57.6412587
   3.7564318  78.9852625  58.3570056  15.1943751 106.8317408  62.3923487
  15.8322161 106.7124156  61.6886827  15.0764594 107.7798252  62.4511439
  12.0033457 106.7844836  62.3285012  11.6651969 106.6685901  61.4405547
  12.8723225 106.3836001  62.3086018  12.4853240 107.9379688  68.2871217
  12.4741881 107.5432486  67.4151721  12.6473879 107.2045761  68.8804989
   9.7041736 105.5533084  51.6601952   9.9567257 105.0314605  50.8985415
   8.7666295 105.3899229  51.7628635  14.7485019 104.5568862  59.4676695
  15.5348108 104.1388285  59.1167112  15.0123724 105.4614954  59.6358343
  20.1493446 104.4944095  60.3709674  20.8818618 103.9243312  60.6047503
  19.3932802 104.1065696  60.8116179  11.7669566 106.9171337  57.5673016
  11.4027773 106.3901958  58.2785938  12.6236682 106.5269806  57.3939501
  17.6718867  98.2065669  64.8304282  17.3402191  99.0761080  64.6065497
  17.0764480  97.8901953  65.5098313  11.4075053 101.9461236  52.5634365
  11.5749455 102.8141473  52.9304836  11.2172222 102.1088518  51.6395654
  17.5647530 102.9260756  61.9097632  16.6564407 102.8576164  61.6156393
  17.5135126 103.4032700  62.7379458  11.3864274 104.4018894  53.5481031
  11.2663899 104.8475945  54.3866512  10.6916862 104.7504212  52.9894570
  11.6388396 104.3450401  69.8532530  10.8621730 104.9044321  69.8435394
  12.2778959 104.8307184  70.3747400  19.4309176 101.1277194  63.6875506
  18.7883557 101.4209727  63.0415301  18.9264105 101.0130114  64.4928703
  17.0849340 104.8740367  54.3761365  17.9967196 105.1067754  54.2009063
  16.5758987 105.4577411  53.8136444  11.7221178 104.2337602  65.3856215
  12.5682373 104.6577015  65.5290864  11.6619815 103.5771226  66.0794778
  14.8720623 101.8941970  67.0437389  14.6281555 102.6484031  66.5071664
  15.1480554 102.2727318  67.8784636  16.8259086 108.4380582  65.7214654
  17.0375981 109.0812342  65.0449035  16.7788834 107.6042899  65.2536584
  14.4285315 101.0498403  62.6251226  13.5669794 101.3479657  62.9167964
  14.4547749 101.2668802  61.6932259  10.1815770 105.7163746  55.8414597
  10.8839814 106.1684790  56.3088523   9.8496399 105.0747565  56.4694490
   8.6296132 104.3075503  70.2165807   7.9994792 104.9891783  70.4501203
   8.5232220 104.1958584  69.2718945   3.9241104 103.9747299  61.1431731
   3.1340158 104.2304827  60.6671841   4.4152352 104.7895637  61.2483771
   5.8755850 104.3391878  58.1015207   5.0787013 104.4510572  58.6198703
   5.6481442 104.6778530  57.2356098  26.0310907 107.6591286  60.2421983
  25.2774615 107.0898684  60.0865987  26.1658448 107.6253951  61.1892618
   7.9076875  98.6096268  72.5791058   7.5143820  98.0562467  73.2538702
   8.7243015  98.9206847  72.9697575  10.8244836 100.0254148  70.1711314
  11.5654549 100.6261301  70.0915777  11.0562758  99.2831785  69.6129357
  14.7701999  96.0535250  64.4475596  14.4266268  96.9436892  64.3714706
  15.1380961  95.8636908  63.5845181  14.7352281 106.0443862  52.9548031
  14.2198905 106.8148466  53.1936418  14.4629590 105.3708998  53.5781092
  12.3199392 100.8893562  58.0133269  11.4640989 100.5000413  57.8338908
  12.7326344 100.9685523  57.1533055  13.8498539  98.4239906  62.4124829
  13.3463334  98.3870041  61.5992634  14.1429146  99.3332648  62.4721486
  10.0941425  98.5078635  61.4191011  10.9594422  98.3121444  61.0596900
  10.1618934  98.2788987  62.3460368  19.7086555 108.7976216  54.8901204
  18.9315998 108.4587376  54.4456366  20.3878036 108.8028839  54.2156169
  14.5238584 103.9170954  54.7807812  14.2188720 104.2317103  55.6317955
  15.4769027 103.9952374  54.8235145  17.9477862 108.2710198  61.5467812
  17.2901537 108.9609459  61.6347941  18.7518261 108.6606629  61.8901799
   7.7003744 100.7380843  58.7907378   8.2747496 100.5156025  58.0580571
   8.2874726 100.8069538  59.5435979  16.7583321 106.6254570  59.5971754
  17.2715203 107.2584562  60.0993464  17.4084545 106.0255766  59.2315114
   8.0273331 102.7685304  52.8103263   7.1910643 103.1059991  53.1312538
   7.8878101 102.6334284  51.8730400  10.0026412  97.6122092  57.5182447
   9.3490824  97.2971109  56.8939062   9.9606886  96.9897833  58.2442270
  13.2364152 104.1004026  61.8430095  12.3186713 104.3218973  61.6851783
  13.6524296 104.1750336  60.9841802  14.0199200 105.4995441  56.9732775
  14.7671019 106.0116839  56.6639897  14.2890789 105.1779494  57.8337168
  16.4678037 102.5352558  58.9551564  15.7300794 102.0229944  59.2861807
  16.7204810 102.0952939  58.1434841  16.5689664  95.3128810  59.5493333
  16.8748541  94.4526173  59.2619249  17.2942269  95.9046430  59.3492327
  10.8410744 105.6082603  60.0569525  10.8959354 104.6556439  59.9812001
  10.0301946 105.7642042  60.5410823   8.7803104 104.2259662  57.8159903
   7.9670969 104.5253833  58.2225096   9.2762098 103.8315351  58.5334386
  14.3777316 104.6901487  66.6474797  14.7326703 104.9172960  67.5069263
  15.0249447 105.0219864  66.0252053  20.1075052 107.8119923  57.3524126
  19.9692951 108.0021519  56.4245316  19.7511271 108.5739306  57.8092177
   8.2717179 101.7978018  63.4321138   8.9116558 101.6566777  62.7344102
   7.4394709 101.5112531  63.0559740  20.1344432 109.8796450  62.3635398
  20.5680939 109.7871739  63.2118452  20.8476013 109.8553950  61.7255414
   5.3560246 105.2423530  55.6215884   4.4257834 105.1807986  55.8385846
   5.4517718 104.7199483  54.8252525   5.2745795 101.7678343  58.2094125
   5.5352612 102.6823676  58.1003286   6.0962967 101.3002786  58.3590738
   6.7470720 103.1816100  65.3792950   7.4193774 102.9733462  64.7305599
   5.9200507 102.9838186  64.9398182  20.9959982 109.9220151  64.8968283
  21.1895872 110.8265961  65.1427558  20.8960600 109.4627570  65.7306868
  12.6496292  99.8078041  67.3958611  12.0024207 100.5067991  67.3023087
  13.4197308 100.2414185  67.7634859  12.8260427 107.6458806  65.4555430
  13.7552487 107.7969966  65.2824398  12.4051457 107.7342827  64.6004077
  16.1113165 108.3947107  50.8879865  15.4942336 107.6693936  50.7912918
  15.6429654 109.1556468  50.5446940   9.7780518 106.1678662  65.6279067
  10.4880137 105.5271855  65.5865685   9.7349826 106.4191557  66.5505247
   8.4909452 103.1543880  67.4474706   7.9546809 102.7034619  68.0996302
   7.9026161 103.2889789  66.7045170   7.9011711 102.6132532  50.0101170
   7.0241178 102.4921333  49.6463416   8.3769464 101.8218610  49.7580058
   4.2248573 102.2899888  64.5327700   4.1406762 101.6825558  63.7978110
   3.4031280 102.7808906  64.5337197  14.3972287 100.7753452  59.8997896
  14.8940987 100.0223414  59.5798966  13.6259269 100.8117768  59.3341105
  22.2502045 106.4793817  61.5416187  22.2391921 107.3618533  61.1710120
  21.3819424 106.1265368  61.3470724  10.9807256 102.9170835  59.6269580
  10.6105044 102.3641875  60.3150486  11.4766349 102.3128968  59.0744580
  18.8674619 105.3742458  58.0086353  19.3335072 106.2070450  57.9346656
  19.3182120 104.9087440  58.7131612  16.8391282  97.7423045  62.0477254
  15.9254362  97.9727272  62.2159461  17.2684384  97.8261489  62.8991287
  16.6097741 105.9312937  64.5477148  15.9569191 106.1788844  63.8929601
  16.9878121 105.1177075  64.2139626  12.6585314 106.6732748  71.0343186
  11.9825951 106.5726877  71.7045561  13.4812948 106.5171962  71.4979183
   6.3772590 100.3274825  65.8722686   6.4413916 101.1889656  65.4600084
   6.3139710  99.7148827  65.1395045   5.8524862 102.3997958  69.5195720
   6.4796901 102.0175035  70.1333245   4.9952781 102.1812160  69.8851413
   2.6290405 104.2074387  55.4514075   2.9243846 103.2985065  55.3981129
   1.7278441 104.1862126  55.1295078   6.1584652 102.2830384  61.4341624
   5.4371238 102.8966351  61.2949097   6.9477908 102.8188148  61.3558270
   8.9610966  99.6184810  67.7082276   9.4845367  99.8647107  68.4708585
   8.7423299 100.4504845  67.2885413   4.3578247 101.8888485  55.5753400
   4.0290953 101.0085864  55.3928506   4.7117617 101.8336153  56.4629790
   7.4720070 102.1761454  55.9428878   7.8116142 102.7047376  55.2207487
   7.9192190 102.5141861  56.7187445  10.1663511 100.5598505  65.3931946
   9.8260331  99.7606318  65.7952626   9.4602517 100.8600216  64.8208779
  10.8179982  97.6447818  63.8459269  11.6406052  97.1708296  63.7238160
  11.0618046  98.4238301  64.3457956   9.4588217 100.6736076  54.1422171
  10.1796579 101.0517329  53.6385888   8.8353521 101.3924953  54.2457149
  13.6019340 101.3781225  55.0780503  13.8182954 102.2605863  54.7769331
  13.1213407 100.9867438  54.3486145   8.3418561 104.3366938  61.6551248
   8.1963142 104.6507241  62.5475529   7.8643765 104.9551839  61.1022146
  10.2014944 101.3269486  61.7032137  10.1876513 100.4310580  61.3664435
  10.9187372 101.3340150  62.3370423  12.0541075 101.7606826  63.7485265
  11.7958853 102.6823897  63.7469595  11.5226115 101.3637261  64.4385729
   9.6051840 100.2083867  56.9719708   9.7267751  99.2800513  57.1710595
   9.3153882 100.2222552  56.0598023  12.4743030  97.8938777  60.1086427
  12.4964727  97.9578110  59.1538407  12.8911089  97.0543286  60.3026934
  22.8526655 107.6294037  58.1465650  23.2957801 106.8801362  57.7484773
  21.9753165 107.6204173  57.7639382   9.0892920 101.7215864  71.1809640
   9.1381075 102.5977987  70.7987410   9.6315434 101.1793257  70.6081283
  19.6945640 109.1149454  67.7743506  19.7443645 108.9499461  68.7159029
  19.5859564 108.2476713  67.3841387  16.9849403 105.0980382  69.0902812
  17.8859265 104.9586846  68.7986810  17.0597377 105.2634836  70.0300990
  11.3192208 102.4747236  67.9355999  10.4495517 102.7680802  67.6638587
  11.5551688 103.0587681  68.6563262  22.3959519 109.0999275  60.5388098
  23.2306411 109.5389079  60.7025658  22.5318648 108.6237928  59.7196343
  19.4451025 106.6579010  66.4865585  19.9205147 106.8506656  65.6784437
  18.5216591 106.7138195  66.2408969  14.0231242  98.6926853  65.4521419
  14.5413186  99.4287880  65.1267908  13.6686375  98.9990847  66.2868178
   5.6030179 103.5531534  53.5682825   4.9099424 103.6275889  52.9122861
   5.3581931 102.7891878  54.0904342  14.2743836  95.1127136  60.9722316
  14.5545590  94.4450325  61.5982742  15.0594443  95.3056231  60.4596980
  18.1452694 103.5344770  64.7193891  19.0970117 103.6342867  64.7406115
  17.9756145 102.7423038  65.2291975  16.1667074 100.6200353  64.9053292
  15.5717006 100.9005366  64.2099780  15.8816770 101.1094254  65.6770033
  20.6240772 106.7550889  63.8336191  20.5917092 105.8166890  64.0195874
  21.2341396 106.8334926  63.1002015  12.4624103 105.6246942  49.8763395
  13.4083208 105.4953151  49.9451813  12.0838348 104.8861604  50.3532823
  20.7735261 103.5461933  63.8794474  20.2574309 102.7620389  63.6924403
  21.6575209 103.2180649  64.0440993  18.4345988  97.2902948  59.8390286
  18.2370809  96.9818037  60.7233618  19.0445693  98.0164587  59.9688216
  26.4417322 107.8166896  62.9742227  27.1720710 107.5552184  63.5349931
  25.8324267 107.0795618  63.0144295  24.5232619 105.9574759  63.5716679
  23.7965783 105.8230724  62.9633170  24.1079906 106.2651587  64.3773397
  10.6467020 103.5496919  49.8118280   9.7398476 103.2530032  49.8880993
  10.9243001 103.2526737  48.9452566  12.2629086  98.0933809  55.9662521
  11.4529814  97.7480893  56.3417767  12.9513503  97.7841352  56.5550133
  14.1919634  97.1711855  57.5886818  14.7450673  97.5907309  58.2476841
  14.4289720  96.2447603  57.6309774  10.2152733 103.1598929  73.3689582
  10.1149460 104.1093286  73.3001673   9.9974275 102.8317168  72.4965652
   9.4165805 100.4083854  49.9530259  10.2784969 100.7338752  50.2126076
   9.6016149  99.6215350  49.4403325  17.5698441  99.2812380  57.0965482
  16.9897110  99.9397185  56.7143534  17.3034374  98.4589725  56.6852899
  16.0202008  98.6817438  59.2986802  16.5201786  98.7933973  58.4901121
  16.6637616  98.3778491  59.9387611  16.3523319 101.4412471  56.1521830
  15.4649174 101.7262121  55.9342025  16.7677308 101.2806234  55.3049107
  19.7037855 101.4658992  59.8676169  20.4798245 101.9555444  60.1400786
  18.9785990 101.8917046  60.3248039  22.1410414 102.1786611  60.9250110
  22.7354905 101.9382347  60.2143418  22.2136998 101.4593742  61.5523646
  16.3264343 106.9567007  56.3672120  16.2699544 107.4135558  55.5279753
  16.8792685 106.1957691  56.1894963  20.1369149 102.7456739  57.1922240
  19.8806083 102.3453374  58.0230448  19.5122017 103.4600533  57.0672379
  24.4481487 105.4852812  59.6993531  23.8881045 105.5546001  60.4725093
  23.8424990 105.3093797  58.9793028  17.0599122 108.1471788  53.6624650
  17.0047926 107.9816059  52.7213094  16.4345178 108.8547821  53.8186839
   1.8491637 103.3839852  67.4886072   2.4950501 102.8738806  67.9773297
   1.6408788 104.1208534  68.0629497  10.3695248  97.6479897  53.2409968
  10.3573918  98.5921737  53.3978239  11.2618670  97.4650042  52.9469429
  14.1847367  94.2422674  57.4955905  13.4179763  93.6881160  57.6412587
  14.5958072  94.3144542  58.3570056   6.1889128 100.5307469  71.5861086
   7.0520590 100.1744274  71.7964411   5.6154539 100.1921364  72.2736490
  25.6095753 111.3827168  64.4475596  25.2660022 112.2728810  64.3714706
  25.9774716 111.1928826  63.5845181  27.4083419 110.6420727  59.5493333
  27.7142295 109.7818091  59.2619249  28.1336023 111.2338348  59.3492327
  25.1137590 110.4419053  60.9722316  25.3939344 109.7742242  61.5982742
  25.8988197 110.6348149  60.4596980  29.2739742 112.6194866  59.8390286
  29.0764563 112.3109954  60.7233618  29.8839448 113.3456505  59.9688216
  25.0241122 109.5714591  57.4955905  24.2573518 109.0173078  57.6412587
  25.4351827 109.6436460  58.3570056   4.3523399  54.0069574  46.9667290
   3.5987108  53.4376972  46.8111294   4.4870940  53.9732238  47.9137924
   0.7172012  55.4477562  47.2633404   1.5518903  55.8867366  47.4270965
   0.8531140  54.9716215  46.4441650   4.7629814  54.1645184  49.6987534
   5.4933203  53.9030472  50.2595237   4.1536760  53.4273905  49.7389602
   2.8445111  52.3053046  50.2961985   2.1178275  52.1709011  49.6878477
   2.4292398  52.6129875  51.1018703   0.4622906  48.5264898  47.6495417
   1.0567397  48.2860634  46.9388725   0.5349490  47.8072029  48.2768953
   2.7693979  51.8331099  46.4238838   2.2093537  51.9024288  47.1970400
   2.1637482  51.6572084  45.7038334   4.3549997  68.5087613  49.1168794
   4.9928407  68.3894360  48.4132134   4.2370840  69.4568457  49.1756746
   1.1639704  68.4615041  49.0530318   0.8258215  68.3456106  48.1650853
   2.0329472  68.0606206  49.0331325   1.6459487  69.6149893  55.0116524
   1.6348128  69.2202691  54.1397028   1.8080126  68.8815966  55.6050295
   2.6026078  73.9821485  40.3541674   1.9514058  74.5675566  39.9675688
   3.3970441  74.5127680  40.4136712   3.9091266  66.2339067  46.1922002
   4.6954355  65.8158490  45.8412419   4.1729970  67.1385159  46.3603650
   4.0801343  71.6711917  40.8910659   3.4447176  71.7446544  41.6031563
   3.7498750  72.2605516  40.2129738   9.3099693  66.1714300  47.0954980
  10.0424865  65.6013517  47.3292810   8.5539049  65.7835901  47.5361486
   0.9275813  68.5941542  44.2918323   0.5634020  68.0672163  45.0031244
   1.7842929  68.2040011  44.1184808   6.8325113  59.8835874  51.5549589
   6.5008438  60.7531285  51.3310804   6.2370727  59.5672158  52.2343619
   3.3256633  72.0848420  50.9545502   3.0257356  72.9873459  50.8461309
   2.9807692  71.8180603  51.8066654   6.7253777  64.6030960  48.6342939
   5.8170654  64.5346369  48.3401700   6.6741373  65.0802905  49.4624764
   8.5915423  62.8047399  50.4120813   7.9489803  63.0979932  49.7660607
   8.0870352  62.6900319  51.2174009   6.2455587  66.5510572  41.1006672
   7.1573443  66.7837959  40.9254370   5.7365234  67.1347616  40.5381751
   4.5296354  70.9735200  54.7367965   4.9379711  70.5317610  53.9922597
   3.8073616  70.3987827  54.9902158   0.8827425  65.9107807  52.1101522
   1.7288620  66.3347220  52.2536171   0.8226062  65.2541431  52.8040085
   4.8525169  71.5336390  48.4920254   4.2234032  71.6982105  47.7896321
   4.4650831  71.9478000  49.2631218   8.7314401  72.4690828  45.8464617
   8.0465439  72.8489730  45.2961651   8.8158250  73.0786155  46.5796565
   4.0326870  63.5712175  53.7682695   3.7887802  64.3254235  53.2316971
   4.3086800  63.9497523  54.6029942   5.9865333  70.1150787  52.4459961
   6.1982228  70.7582547  51.7694342   5.9395081  69.2813104  51.9781891
   3.5891562  62.7268608  49.3496533   2.7276041  63.0249862  49.6413271
   3.6153996  62.9439007  48.4177566   7.1011161  72.9922743  50.6182318
   7.9228604  72.5902930  50.3365000   7.0973563  72.8890977  51.5698434
  15.1917154  69.3361491  46.9667290  14.4380862  68.7668889  46.8111294
  15.3264695  69.3024156  47.9137924   0.5815782  74.2074894  42.6422009
   0.4461456  75.0526429  43.0706857   1.1225594  74.4094171  41.8787943
   2.2084258  74.8298460  56.7722351   1.7648112  74.0434839  56.4543256
   2.8701472  75.0177611  56.1066242   4.3065496  75.1101260  54.8003752
   4.2883971  75.9310141  54.3084022   5.2285416  74.9855335  55.0253894
   3.9308245  57.7305455  51.1720902   3.5872515  58.6207097  51.0960013
   4.2987208  57.5407113  50.3090487   3.8958528  67.7214067  39.6793338
   3.3805151  68.4918671  39.9181725   3.6235836  67.0479203  40.3026399
   1.4805639  62.5663767  44.7378576   0.6247235  62.1770618  44.5584215
   1.8932591  62.6455728  43.8778361   3.0104786  60.1010111  49.1370136
   2.5069581  60.0640246  48.3237941   3.3035393  61.0102853  49.1966792
   8.8692802  70.4746421  41.6146511   8.0922245  70.1357581  41.1701673
   9.5484283  70.4799044  40.9401476   3.6844831  65.5941159  41.5053119
   3.3794967  65.9087308  42.3563262   4.6375273  65.6722579  41.5480452
   2.1291263  71.7531382  43.1546073   1.6012625  71.0184142  42.8419310
   1.6278766  72.5306058  42.9086041   7.1084109  69.9480402  48.2713119
   6.4507783  70.6379664  48.3593248   7.9124508  70.3376834  48.6147105
   5.9189568  68.3024775  46.3217061   6.4321450  68.9354767  46.8238771
   6.5690792  67.7025971  45.9560421   3.1811942  78.2809099  39.0777732
   2.5073641  78.5840796  39.6862690   3.5677764  79.0838180  38.7283189
   2.3970399  65.7774231  48.5675401   1.4792960  65.9989178  48.4097089
   2.8130542  65.8520541  47.7087109   3.1805446  67.1765646  43.6978082
   3.9277265  67.6887044  43.3885204   3.4497036  66.8549699  44.5582475
   1.4532097  69.6724187  40.6805036   0.5443316  69.3883220  40.7777506
   1.4827180  70.0923266  39.8208343   6.6851364  73.2830777  44.4496203
   6.2313691  72.4421686  44.5061394   6.0545331  73.9192175  44.7870984
   5.6284284  64.2122763  45.6796871   4.8907040  63.7000149  46.0107113
   5.8811057  63.7723144  44.8680148   5.1284303  75.1207273  45.3846022
   5.4207278  75.6812330  44.6658387   5.6382924  75.4135834  46.1399181
   5.7295911  56.9899015  46.2738640   6.0354788  56.1296378  45.9864555
   6.4548516  57.5816635  46.0737634   1.1508184  71.2132931  38.0193114
   0.7127614  70.4968790  37.5598752   1.8918625  71.4409046  37.4578206
   3.5383562  66.3671692  53.3720104   3.8932950  66.5943165  54.2314570
   4.1855693  66.6990069  52.7497359   9.2681299  69.4890128  44.0769433
   9.1299198  69.6791724  43.1490622   8.9117518  70.2509511  44.5337484
   9.2950679  71.5566655  49.0880704   9.7287185  71.4641944  49.9363759
  10.0082260  71.5324155  48.4500720   3.0278574  75.1568749  50.6213805
   3.0815596  75.7259685  51.3891521   2.1593355  75.3270634  50.2567842
  10.1566228  71.5990355  51.6213590  10.3502118  72.5036166  51.8672865
  10.0566847  71.1397775  52.4552175   1.8102539  61.4848246  54.1203917
   1.1630454  62.1838196  54.0268394   2.5803555  61.9184390  54.4880165
   5.2181337  71.7497098  57.1954471   5.0666843  71.5207650  56.2784554
   5.2086017  72.7067700  57.2085816   1.9866673  69.3229011  52.1800737
   2.9158733  69.4740171  52.0069704   1.5657703  69.4113032  51.3249383
   1.3803157  78.4488772  41.2924811   1.5554913  77.9776815  42.1070434
   0.6935945  79.0754538  41.5206072   2.3360220  72.7261278  47.3388112
   2.0010053  72.6862048  48.2345762   1.8364166  72.0605994  46.8658523
   5.2719412  70.0717312  37.6125172   4.6548583  69.3464141  37.5158225
   4.8035900  70.8326673  37.2692246   6.9273544  74.7816221  55.2730952
   6.8686090  74.0975441  54.6061535   7.3293062  75.5235211  54.8211578
   6.9290951  72.7455805  53.5044932   6.0417730  72.4081726  53.6271331
   7.4989502  72.0138836  53.7413697   3.5578534  62.4523657  46.6243202
   4.0547234  61.6993619  46.3044272   2.7865516  62.4887973  46.0586412
  11.4108292  68.1564022  48.2661494  11.3998168  69.0388737  47.8955427
  10.5425671  67.8035573  48.0716031   2.9190788  77.3044091  52.6264334
   3.6318760  77.9391556  52.5540235   2.4280817  77.4007957  51.8104336
   4.6408315  71.2095344  44.1981626   3.7064594  71.3296806  44.0286330
   4.8184983  70.3067811  43.9341635   8.0280866  67.0512663  44.7331660
   8.4941318  67.8840655  44.6591962   8.4788367  66.5857645  45.4376918
   6.0957097  73.3956484  41.7317812   6.3716941  73.2813079  42.6411686
   5.2261596  72.9973969  41.6929985   5.9997529  59.4193250  48.7722561
   5.0860609  59.6497477  48.9404768   6.4290630  59.5031694  49.6236593
   5.7703987  67.6083142  51.2722455   5.1175438  67.8559049  50.6174908
   6.1484367  66.7947280  50.9384932   2.7311161  77.6442835  45.3750625
   2.9133556  76.8264491  45.8378378   3.5544147  77.8610527  44.9375515
   3.0653327  76.5711020  42.6365674   3.5941093  76.0603475  42.0235836
   3.3281546  76.2553550  43.5011207   1.8191560  68.3502953  57.7588492
   1.1432197  68.2497082  58.4290867   2.6419194  68.1942167  58.2224489
   0.5614343  79.6569880  51.9946108   1.1132651  79.8201502  52.7595193
   0.9020537  80.2474318  51.3226133   5.4125218  74.4831138  57.8494763
   5.9565122  75.0961096  57.3549717   4.8312062  75.0410716  58.3661776
   3.6982731  77.6051856  48.9809790   3.5733870  76.8041596  48.4720736
   4.3561822  78.0998049  48.4923760   5.7617639  75.4060876  50.6089340
   4.8147974  75.2866227  50.5367667   6.1100412  74.5183374  50.6915602
   2.7664072  75.2013592  46.8093693   2.6189035  74.2730300  46.9901263
   3.5917566  75.2233683  46.3250768   6.3698194  76.0242151  47.8958565
   7.2944742  75.8185012  47.7583017   6.2013497  75.7758552  48.8047907
   2.7625587  63.0551430  41.8025810   2.9789201  63.9376068  41.5014638
   2.2819654  62.6637643  41.0731452   1.2147322  63.4377031  50.4730571
   0.9565099  64.3594102  50.4714902   0.6832362  63.0407466  51.1631036
   6.1593510  76.5427818  43.2520657   6.3330388  75.9774241  42.4994509
   6.6522402  77.3428713  43.0700147   1.6349277  59.5708982  46.8331734
   1.6570974  59.6348315  45.8783714   2.0517336  58.7313491  47.0272240
  12.0132901  69.3064241  44.8710957  12.4564047  68.5571567  44.4730080
  11.1359412  69.2974378  44.4884689   7.1468683  75.8594583  40.3517555
   7.8419587  76.4801276  40.5704870   7.4891833  75.0089934  40.6269933
   9.0460106  73.3094288  41.8804886   9.5711430  73.6481561  41.1554206
   8.9582458  72.3741304  41.6968021   0.7080155  77.2228362  54.0094763
   1.0167281  76.9777509  54.8817462   1.5055637  77.4275001  53.5213633
   8.7354012  73.9427192  57.1856084   7.9449556  73.9251331  56.6460583
   8.4987367  74.4815486  57.9405120   8.8551887  70.7919658  54.4988812
   8.9049892  70.6269666  55.4404335   8.7465810  69.9246917  54.1086693
   6.1455649  66.7750586  55.8148119   7.0465512  66.6357051  55.5232117
   6.2203624  66.9405041  56.7546297  10.3570084  73.2116600  54.7430834
  10.0654892  73.5746580  55.5794295   9.7442215  72.4983608  54.5644166
  11.5565766  70.7769480  47.2633404  12.3912658  71.2159284  47.4270965
  11.6924895  70.3008133  46.4441650   8.6057272  68.3349215  53.2110892
   9.0811394  68.5276861  52.4029743   7.6822837  68.3908400  52.9654276
   3.1837489  60.3697058  52.1766726   3.7019432  61.1058085  51.8513214
   2.8292621  60.6761051  53.0113485   3.4350083  56.7897341  47.6967622
   3.7151837  56.1220530  48.3228049   4.2200690  56.9826436  47.1842286
   1.2383551  75.9656335  39.2592649   0.6657518  76.5846522  38.8063121
   1.8116345  76.5155696  39.7932571   7.3058941  65.2114975  51.4439198
   8.2576364  65.3113072  51.4651422   7.1362392  64.4193243  51.9537282
   5.3273321  62.2970558  51.6298598   4.7323253  62.5775571  50.9345087
   5.0423017  62.7864459  52.4015340   4.4580811  76.2493485  40.3901231
   5.3911484  76.1839046  40.5934107   4.3704024  77.0849752  39.9315764
   7.0868828  75.5659355  37.3505179   7.0082459  75.2319219  38.2440936
   7.9078494  76.0581123  37.3496651   9.7847019  68.4321094  50.5581497
   9.7523339  67.4937095  50.7441181  10.3947643  68.5105131  49.8247322
   1.6230350  67.3017147  36.6008701   2.5689454  67.1723355  36.6697119
   1.2444595  66.5631809  37.0778129   9.9341507  65.2232138  50.6039780
   9.4180556  64.4390594  50.4169709  10.8181456  64.8950854  50.7686300
   7.5952234  58.9673153  46.5635593   7.3977055  58.6588242  47.4478925
   8.2051940  59.6934792  46.6933523  15.6023569  69.4937101  49.6987534
  16.3326957  69.2322389  50.2595237  14.9930514  68.7565823  49.7389602
  13.6838866  67.6344964  50.2961985  12.9572029  67.5000929  49.6878477
  13.2686153  67.9421792  51.1018703   1.5069042  71.3534893  58.0609358
   2.4272052  71.5313492  58.2549405   1.4718625  70.4090939  57.9089057
   1.4235333  59.7704013  42.6907828   0.6136061  59.4251098  43.0663074
   2.1119750  59.4611557  43.2795439   3.3525881  58.8482060  44.3132124
   3.9056920  59.2677514  44.9722147   3.5895967  57.9217808  44.3555080
   6.7304688  60.9582585  43.8210789   6.1503357  61.6167389  43.4388841
   6.4640621  60.1359930  43.4098206   5.1808254  60.3587643  46.0232109
   5.6808033  60.4704178  45.2146428   5.8243862  60.0548696  46.6632917
   5.5129566  63.1182676  42.8767137   4.6255421  63.4032326  42.6587332
   5.9283555  62.9576439  42.0294414   8.8644102  63.1429197  46.5921476
   9.6404492  63.6325649  46.8646093   8.1392236  63.5687251  47.0493346
  11.3016661  63.8556816  47.6495417  11.8961152  63.6152552  46.9388725
  11.3743244  63.1363947  48.2768953   4.6572779  72.8827350  36.9715157
   5.3608630  73.0877353  37.5872812   3.9335428  73.4504112  37.2364240
   5.4870590  68.6337212  43.0917427   5.4305791  69.0905763  42.2525059
   6.0398932  67.8727896  42.9140270   9.2975396  64.4226944  43.9167547
   9.0412330  64.0223579  44.7475754   8.6728264  65.1370738  43.7917686
  13.6087734  67.1623017  46.4238838  13.0487291  67.2316206  47.1970400
  13.0031237  66.9864001  45.7038334   6.5659477  73.3209880  39.0213617
   7.4005081  72.8891078  38.8391092   6.4043820  73.1491893  39.9490511
   6.2205369  69.8241993  40.3869956   6.1654173  69.6586264  39.4458400
   5.5951424  70.5318026  40.5432146   3.5351276  72.1290905  59.7123519
   4.4042436  72.3031557  59.3510154   3.0558028  72.9485322  59.5899248
   3.3453614  55.9192879  44.2201211   2.5786010  55.3651365  44.3657894
   3.7564319  55.9914747  45.0815363  15.1943752  83.8379531  49.1168794
  15.8322162  83.7186278  48.4132134  15.0764595  84.7860375  49.1756746
  12.0033458  83.7906959  49.0530318  11.6651970  83.6748024  48.1650853
  12.8723226  83.3898124  49.0331325   7.8620274  85.6442435  45.0427209
   7.2985139  85.5532372  44.2743497   7.7472669  84.8242340  45.5229702
  12.4853241  84.9441811  55.0116524  12.4741882  84.5494609  54.1397028
  12.6473881  84.2107883  55.6050295   5.4084706  87.1393627  47.8811430
   6.2005998  86.7984452  47.4657729   5.6481356  87.2488602  48.8013583
  13.4419833  89.3113403  40.3541674  12.7907812  89.8967483  39.9675688
  14.2364195  89.8419598  40.4136712   7.3675460  86.4002540  40.7528809
   8.1406336  85.8531527  40.6141684   7.7200859  87.2646789  40.9643270
   9.2060502  87.7278922  53.9595708   8.9150368  88.6324553  53.8442374
   9.8417487  87.7695450  54.6739777  10.1316709  85.1055771  50.5497068
  10.7280281  84.8811793  49.8354030  10.1891681  84.3640516  51.1522515
   9.7041738  82.5595206  38.3847258   9.9567258  82.0376728  37.6230721
   8.7666297  82.3961352  38.4873942  14.7485020  81.5630985  46.1922002
  15.5348110  81.1450408  45.8412419  15.0123725  82.4677077  46.3603650
  14.9195098  87.0003835  40.8910659  14.2840931  87.0738461  41.6031563
  14.5892504  87.5897434  40.2129738  20.1493448  81.5006218  47.0954980
  20.8818620  80.9305435  47.3292810  19.3932803  81.1127818  47.5361486
   9.4238026  84.4623312  40.5871633   9.3074284  83.7868216  41.2552718
   9.5340286  83.9755686  39.7703786  11.7669567  83.9233459  44.2918323
  11.4027775  83.3964080  45.0031244  12.6236683  83.5331928  44.1184808
  17.6718868  75.2127792  51.5549589  17.3402193  76.0823203  51.3310804
  17.0764481  74.8964076  52.2343619  11.4075054  78.9523359  39.2879671
  11.5749457  79.8203595  39.6550142  11.2172223  79.1150641  38.3640960
  14.1650387  87.4140338  50.9545502  13.8651111  88.3165377  50.8461309
  13.8201447  87.1472521  51.8066654   7.6162869  83.8654135  46.9882206
   6.6913365  83.7330349  47.1959898   7.8647282  84.6448354  47.4852148
  17.5647531  79.9322878  48.6342939  16.6564409  79.8638287  48.3401700
  17.5135127  80.4094823  49.4624764  11.3864275  81.4081016  40.2726338
  11.2663900  81.8538067  41.1111818  10.6916864  81.7566334  39.7139876
   4.9771680  83.5087408  47.8225995   5.1064061  83.7621887  48.7365407
   4.2969131  84.1015116  47.5030650   9.1471167  94.1784658  43.9216469
   9.0695197  95.1292483  44.0004950   8.5432811  93.8330531  44.5791396
  11.6388397  81.3512524  56.5777836  10.8621731  81.9106444  56.5680701
  12.2778960  81.8369307  57.0992706  19.4309178  78.1339316  50.4120813
  18.7883558  78.4271850  49.7660607  18.9264106  78.0192237  51.2174009
  17.0849341  81.8802490  41.1006672  17.9967197  82.1129876  40.9254370
  16.5758988  82.4639534  40.5381751   9.8934769  84.1597977  56.1395803
  10.6349454  84.6983021  55.8630627   9.1871755  84.7864266  56.2967355
  15.3690109  86.3027118  54.7367965  15.7773465  85.8609528  53.9922597
  14.6467370  85.7279745  54.9902158  11.7221179  81.2399724  52.1101522
  12.5682374  81.6639138  52.2536171  11.6619817  80.5833349  52.8040085
  15.6918924  86.8628308  48.4920254  15.0627786  87.0274022  47.7896321
  15.3044586  87.2769918  49.2631218  19.5708156  87.7982746  45.8464617
  18.8859194  88.1781647  45.2961651  19.6552005  88.4078073  46.5796565
  14.8720624  78.9004093  53.7682695  14.6281556  79.6546153  53.2316971
  15.1480555  79.2789440  54.6029942  16.8259087  85.4442705  52.4459961
  17.0375982  86.0874465  51.7694342  16.7788835  84.6105022  51.9781891
  14.4285316  78.0560526  49.3496533  13.5669795  78.3541779  49.6413271
  14.4547751  78.2730925  48.4177566  11.2446886  86.6002716  45.7570339
  11.7085231  86.8790419  44.9674961  10.9803684  85.6986161  45.5743429
   8.1370967  86.1474198  48.6950102   8.7072324  86.5761466  48.0567586
   8.7279078  85.8656782  49.3934288  10.1815772  82.7225869  42.5659904
  10.8839815  83.1746912  43.0333830   9.8496400  82.0809687  43.1939797
   8.6296133  81.3137625  56.9411113   7.9994794  81.9953906  57.1746510
   8.5232221  81.2020707  55.9964251   3.9241106  80.9809421  47.8677037
   3.1340160  81.2366950  47.3917148   4.4152353  81.7957759  47.9729078
  17.9404915  88.3214660  50.6182318  18.7622359  87.9194848  50.3365000
  17.9367318  88.2182895  51.5698434   5.8755851  81.3454001  44.8260514
   5.0787014  81.4572695  45.3444010   5.6481443  81.6840653  43.9601405
  11.7061519  87.8698704  52.7743029  11.7705951  88.3319111  53.6101201
  10.9972442  87.2396069  52.9025339   2.2078809  81.2339912  50.2992028
   2.4586847  82.1186922  50.5649604   2.7438357  81.0544513  49.5267120
  26.0310908  84.6653409  46.9667290  25.2774617  84.0960807  46.8111294
  26.1658449  84.6316073  47.9137924  11.4209536  89.5366811  42.6422009
  11.2855211  90.3818347  43.0706857  11.9619349  89.7386089  41.8787943
   7.9076876  75.6158391  59.3036364   7.5143821  75.0624590  59.9784008
   8.7243016  75.9268970  59.6942882   4.8738934  87.0542249  43.2149934
   5.3863454  87.8485500  43.3655499   5.5261646  86.3568540  43.1483536
   6.6833818  90.1708006  45.2972687   6.8600447  91.0925970  45.1093671
   7.4790652  89.8566425  45.7267067  10.8244837  77.0316270  56.8956621
  11.5654550  77.6323423  56.8161083  11.0562760  76.2893908  56.3374663
   5.9686175  82.2172637  55.1734850   5.8539690  81.3157895  55.4741949
   5.1130693  82.4636334  54.8219667  13.0478013  90.1590378  56.7722351
  12.6041867  89.3726756  56.4543256  13.7095226  90.3469528  56.1066242
   7.8065134  91.6886179  51.2983030   8.3572559  91.5603243  50.5260024
   6.9676610  91.9881068  50.9477922  15.1459251  90.4393178  54.8003752
  15.1277726  91.2602059  54.3084022  16.0679171  90.3147253  55.0253894
  11.6032305  87.9537307  55.6427261  12.1360642  87.1925595  55.4126569
  11.0746386  87.6610959  56.3851415  14.7702000  73.0597373  51.1720902
  14.4266269  73.9499015  51.0960013  15.1380962  72.8699031  50.3090487
   2.8387850  85.3830904  43.9909505   3.6763072  85.7927912  43.7743212
   3.0166118  84.4430346  43.9609698  14.7352282  83.0505984  39.6793338
  14.2198906  83.8210589  39.9181725  14.4629591  82.3771120  40.3026399
  12.3199394  77.8955685  44.7378576  11.4640990  77.5062535  44.5584215
  12.7326345  77.9747646  43.8778361  13.8498540  75.4302028  49.1370136
  13.3463336  75.3932163  48.3237941  14.1429147  76.3394771  49.1966792
  10.0941426  75.5140758  48.1436317  10.9594423  75.3183567  47.7842207
  10.1618935  75.2851110  49.0705674  19.7086557  85.8038339  41.6146511
  18.9315999  85.4649498  41.1701673  20.3878038  85.8090962  40.9401476
  14.5238586  80.9233076  41.5053119  14.2188721  81.2379225  42.3563262
  15.4769028  81.0014496  41.5480452  12.9685017  87.0823300  43.1546073
  12.4406379  86.3476059  42.8419310  12.4672520  87.8597976  42.9086041
  17.9477864  85.2772320  48.2713119  17.2901538  85.9671581  48.3593248
  18.7518263  85.6668752  48.6147105   7.7003745  77.7442966  45.5152684
   8.2747497  77.5218147  44.7825877   8.2874728  77.8131660  46.2681286
  16.7583322  83.6316693  46.3217061  17.2715204  84.2646685  46.8238771
  17.4084546  83.0317888  45.9560421   8.0273332  79.7747427  39.5348570
   7.1910644  80.1122113  39.8557844   7.8878102  79.6396407  38.5975706
  10.0026413  74.6184215  44.2427754   9.3490825  74.3033232  43.6184368
   9.9606887  73.9959955  44.9687577  11.1137618  84.9003510  36.1581046
  10.2064679  84.6692763  36.3572195  11.6108650  84.1041129  36.3455027
  14.0205697  93.6101017  39.0777732  13.3467395  93.9132714  39.6862690
  14.4071519  94.4130097  38.7283189  13.2364153  81.1066148  48.5675401
  12.3186715  81.3281095  48.4097089  13.6524297  81.1812459  47.7087109
  14.0199201  82.5057564  43.6978082  14.7671020  83.0178961  43.3885204
  14.2890790  82.1841617  44.5582475  12.2925851  85.0016105  40.6805036
  11.3837070  84.7175138  40.7777506  12.3220935  85.4215183  39.8208343
  17.5245119  88.6122694  44.4496203  17.0707446  87.7713604  44.5061394
  16.8939085  89.2484093  44.7870984  16.4678038  79.5414680  45.6796871
  15.7300795  79.0292066  46.0107113  16.7204812  79.1015062  44.8680148
  15.9678058  90.4499191  45.3846022  16.2601032  91.0104248  44.6658387
  16.4776678  90.7427752  46.1399181  16.5689665  72.3190932  46.2738640
  16.8748542  71.4588296  45.9864555  17.2942270  72.9108552  46.0737634
   2.8614021  82.7221619  44.6620238   2.6638421  82.1290980  43.9371305
   2.3060685  82.4173829  45.3796177  10.8410745  82.6144725  46.7814831
  10.8959355  81.6618562  46.7057308  10.0301947  82.7704164  47.2656130
  11.9901939  86.5424848  38.0193114  11.5521369  85.8260707  37.5598752
  12.7312380  86.7700963  37.4578206   8.7803105  81.2321785  44.5405210
   7.9670971  81.5315956  44.9470402   9.2762099  80.8377474  45.2579692
  10.9311683  91.2279542  46.4739475  10.8887862  91.4540388  45.5448007
  11.8474382  90.9942917  46.6225276  14.3777317  81.6963610  53.3720104
  14.7326704  81.9235083  54.2314570  15.0249448  82.0281986  52.7497359
  20.1075054  84.8182045  44.0769433  19.9692952  85.0083641  43.1490622
  19.7511273  85.5801428  44.5337484   8.2717180  78.8040141  50.1566445
   8.9116559  78.6628900  49.4589408   7.4394710  78.5174654  49.7805047
  20.1344433  86.8858572  49.0880704  20.5680940  86.7933862  49.9363759
  20.8476014  86.8616073  48.4500720   9.0477484  88.1042571  46.2701437
   9.8418082  87.6092891  46.0684012   8.3369176  87.5760434  45.9069143
  13.8672328  90.4860667  50.6213805  13.9209350  91.0551603  51.3891521
  12.9987110  90.6562552  50.2567842   5.3560247  82.2485653  42.3461190
   4.4257835  82.1870108  42.5631152   5.4517719  81.7261606  41.5497831
   5.2745796  78.7740466  44.9339432   5.5352614  79.6885799  44.8248592
   6.0962969  78.3064908  45.0836045   6.7470722  80.1878223  52.1038256
   7.4193775  79.9795585  51.4550905   5.9200508  79.9900309  51.6643489
  20.9959983  86.9282273  51.6213590  21.1895873  87.8328084  51.8672865
  20.8960601  86.4689692  52.4552175  12.6496294  76.8140164  54.1203917
  12.0024209  77.5130113  54.0268394  13.4197309  77.2476308  54.4880165
  16.0575092  87.0789016  57.1954471  15.9060598  86.8499568  56.2784554
  16.0479771  88.0359617  57.2085816  12.8260428  84.6520929  52.1800737
  13.7552488  84.8032088  52.0069704  12.4051458  84.7404949  51.3249383
  11.6248760  88.6771593  49.9499275  11.4859845  88.3090377  50.8225213
  10.8363356  89.1919232  49.7783232  12.2196912  93.7780689  41.2924811
  12.3948667  93.3068733  42.1070434  11.5329700  94.4046456  41.5206072
  13.1753975  88.0553196  47.3388112  12.8403807  88.0153966  48.2345762
  12.6757921  87.3897912  46.8658523   7.1498219  83.4620826  52.8640694
   7.0118017  82.7301065  53.4652233   8.0603142  83.3729726  52.5824881
  16.1113167  85.4009230  37.6125172  15.4942337  84.6756058  37.5158225
  15.6429655  86.1618590  37.2692246   9.7780520  83.1740785  52.3524373
  10.4880138  82.5333977  52.3110992   9.7349828  83.4253680  53.2750554
  17.7667298  90.1108138  55.2730952  17.7079844  89.4267359  54.6061535
  18.1686817  90.8527128  54.8211578   8.4909453  80.1606003  54.1720013
   7.9546811  79.7096741  54.8241609   7.9026162  80.2951912  53.4290477
   6.7857997  96.9270052  48.0664671   7.0254595  97.5588576  48.7443690
   5.9427193  96.5758092  48.3530031   7.9011712  79.6194654  36.7346476
   7.0241179  79.4983455  36.3708723   8.3769466  78.8280733  36.4825365
  17.7684705  88.0747722  53.5044932  16.8811484  87.7373644  53.6271331
  18.3383257  87.3430754  53.7413697   4.2248575  79.2962011  51.2573007
   4.1406763  78.6887680  50.5223417   3.4031281  79.7871029  51.2582503
  11.2985859  92.7349175  50.4706175  11.2256030  93.5404146  50.9825480
  10.8563252  92.9341141  49.6454197  11.0875638  91.9720945  43.9808997
  10.3043160  92.5142625  44.0747221  11.7868384  92.4894924  44.3803238
  14.3972289  77.7815574  46.6243202  14.8940988  77.0285537  46.3044272
  13.6259270  77.8179891  46.0586412  22.2502046  83.4855940  48.2661494
  22.2391922  84.3680655  47.8955427  21.3819425  83.1327491  48.0716031
  13.7584542  92.6336009  52.6264334  14.4712515  93.2683474  52.5540235
  13.2674571  92.7299875  51.8104336  15.4802069  86.5387261  44.1981626
  14.5458348  86.6588724  44.0286330  15.6578738  85.6359728  43.9341635
  10.9807257  79.9232957  46.3514887  10.6105045  79.3703998  47.0395792
  11.4766350  79.3191091  45.7989887  18.8674621  82.3804581  44.7331660
  19.3335073  83.2132572  44.6591962  19.3182121  81.9149562  45.4376918
   8.8096456  90.3830452  53.4469905   9.5105915  91.0166935  53.5999299
   8.3391571  90.7245184  52.6865544  16.9350852  88.7248402  41.7317812
  17.2110696  88.6104997  42.6411686  16.0655350  88.3265887  41.6929985
  16.8391283  74.7485168  48.7722561  15.9254363  74.9789395  48.9404768
  17.2684385  74.8323612  49.6236593  16.6097742  82.9375060  51.2722455
  15.9569192  83.1850967  50.6174908  16.9878122  82.1239198  50.9384932
  13.5704916  92.9734753  45.3750625  13.7527310  92.1556409  45.8378378
  14.3937902  93.1902445  44.9375515  13.9047081  91.9002938  42.6365674
  14.4334848  91.3895393  42.0235836  14.1675301  91.5845468  43.5011207
  12.6585315  83.6794871  57.7588492  11.9825952  83.5789000  58.4290867
  13.4812949  83.5234084  58.2224489   4.4064174  89.9166807  50.3801007
   4.9917611  89.1710495  50.5128912   4.2089012  90.2270764  51.2637671
   7.2602829  92.9518055  45.3963450   6.5913204  93.4364182  44.9127490
   7.1215699  93.1987275  46.3106828  11.4008098  94.9861798  51.9946108
  11.9526406  95.1493420  52.7595193  11.7414291  95.5766236  51.3226133
   6.3772591  77.3336948  52.5967993   6.4413917  78.1951779  52.1845391
   6.3139711  76.7210950  51.8640351   5.8524864  79.4060080  56.2441027
   6.4796902  79.0237158  56.8578551   4.9952782  79.1874282  56.6096720
  16.2518972  89.8123056  57.8494763  16.7958876  90.4253014  57.3549717
  15.6705817  90.3702634  58.3661776   2.6290406  81.2136510  42.1759382
   2.9243847  80.3047188  42.1226436   1.7278442  81.1924249  41.8540384
  14.5376485  92.9343774  48.9809790  14.4127625  92.1333514  48.4720736
  15.1955576  93.4289967  48.4923760   6.1584653  79.2892506  48.1586931
   5.4371239  79.9028474  48.0194404   6.9477909  79.8250271  48.0803576
  16.6011393  90.7352794  50.6089340  15.6541729  90.6158145  50.5367667
  16.9494167  89.8475292  50.6915602   8.9610967  76.6246933  54.4327582
   9.4845369  76.8709229  55.1953892   8.7423300  77.4566967  54.0130720
   4.3578248  78.8950607  42.2998707   4.0290954  78.0147986  42.1173813
   4.7117619  78.8398276  43.1875096  13.6057827  90.5305510  46.8093693
  13.4582789  89.6022217  46.9901263  14.4311320  90.5525601  46.3250768
   7.4720071  79.1823577  42.6674185   7.8116144  79.7109498  41.9452793
   7.9192191  79.5203983  43.4432751  17.2091949  91.3534069  47.8958565
  18.1338496  91.1476930  47.7583017  17.0407252  91.1050470  48.8047907
  10.1663512  77.5660628  52.1177253   9.8260332  76.7668441  52.5197933
   9.4602518  77.8662339  51.5454086  10.8179984  74.6509940  50.5704576
  11.6406053  74.1770418  50.4483466  11.0618047  75.4300424  51.0703262
   9.4588218  77.6798199  40.8667478  10.1796581  78.0579451  40.3631194
   8.8353522  78.3987075  40.9702455  13.6019341  78.3843348  41.8025810
  13.8182955  79.2667985  41.5014638  13.1213408  77.9929561  41.0731452
   8.3418562  81.3429061  48.3796554   8.1963143  81.6569364  49.2720836
   7.8643766  81.9613961  47.8267453  10.2014945  78.3331609  48.4277444
  10.1876514  77.4372702  48.0909742  10.9187373  78.3402273  49.0615730
  12.0541076  78.7668949  50.4730571  11.7958854  79.6886020  50.4714902
  11.5226116  78.3699384  51.1631036  16.9987265  91.8719736  43.2520657
  17.1724142  91.3066159  42.4994509  17.4916156  92.6720631  43.0700147
   2.8164225  83.8834405  51.3184216   2.2717693  84.6594213  51.4504490
   3.6943574  84.2305210  51.1603337   9.6051841  77.2145989  43.6965014
   9.7267752  76.2862635  43.8955902   9.3153884  77.2284675  42.7843330
  12.4743032  74.9000900  46.8331734  12.4964728  74.9640233  45.8783714
  12.8911091  74.0605408  47.0272240  22.8526656  84.6356159  44.8710957
  23.2957802  83.8863484  44.4730080  21.9753166  84.6266295  44.4884689
  17.9862437  91.1886501  40.3517555  18.6813342  91.8093193  40.5704870
  18.3285587  90.3381852  40.6269933   3.6030246  83.0104302  54.2114373
   2.8611982  83.1586937  54.7979003   3.2822991  83.2712567  53.3481122
  19.8853860  88.6386206  41.8804886  20.4105184  88.9773479  41.1554206
  19.7976213  87.7033221  41.6968021  11.5473909  92.5520280  54.0094763
  11.8561036  92.3069427  54.8817462  12.3449391  92.7566918  53.5213633
  11.5694521  94.7058189  46.2400139  11.1299511  94.2134568  46.9332996
  12.3202638  94.1631157  45.9992214   4.0486860  90.8969730  46.2424767
   4.8744880  90.5973502  45.8623411   3.6980912  90.1277353  46.6914556
   9.0168393  90.2496198  48.3122441   8.3948403  89.5866903  48.0124669
   9.6873260  90.2757330  47.6296089   2.2495465  88.8156057  47.2013701
   1.4127373  88.3878231  47.0197702   2.2219111  89.0088500  48.1384492
   9.0892921  78.7277986  57.9054947   9.1381076  79.6040109  57.5232716
   9.6315435  78.1855380  57.3326590  19.5747766  89.2719110  57.1856084
  18.7843310  89.2543249  56.6460583  19.3381121  89.8107403  57.9405120
  19.6945642  86.1211576  54.4988812  19.7443646  85.9561584  55.4404335
  19.5859565  85.2538835  54.1086693   8.5781900  88.8000122  41.7880901
   8.7270021  89.4835586  41.1347574   9.3848344  88.7805212  42.3030357
  16.9849404  82.1042504  55.8148119  17.8859267  81.9648969  55.5232117
  17.0597378  82.2696959  56.7546297  11.3192209  79.4809359  54.6601305
  10.4495519  79.7742925  54.3883894  11.5551690  80.0649804  55.3808569
  21.1963838  88.5408518  54.7430834  20.9048647  88.9038498  55.5794295
  20.5835970  87.8275526  54.5644166  22.3959521  86.1061397  47.2633404
  23.2306412  86.5451201  47.4270965  22.5318649  85.6300051  46.4441650
  19.4451027  83.6641132  53.2110892  19.9205148  83.8568779  52.4029743
  18.5216592  83.7200318  52.9654276   6.3334533  84.8265299  42.7941970
   6.0880575  83.9227629  42.9922180   6.5030448  84.8282450  41.8521448
  14.0231243  75.6988976  52.1766726  14.5413187  76.4350003  51.8513214
  13.6686376  76.0052969  53.0113485   5.6030181  80.5593657  40.2928132
   4.9099426  80.6338012  39.6368168   5.3581933  79.7954001  40.8149649
  14.2743837  72.1189258  47.6967622  14.5545591  71.4512447  48.3228049
  15.0594444  72.3118354  47.1842286  12.0777306  91.2948252  39.2592649
  11.5051273  91.9138439  38.8063121  12.6510099  91.8447614  39.7932571
  18.1452696  80.5406892  51.4439198  19.0970118  80.6404990  51.4651422
  17.9756146  79.7485161  51.9537282  16.1667075  77.6262476  51.6298598
  15.5717007  77.9067488  50.9345087  15.8816772  78.1156376  52.4015340
  15.2974566  91.5785402  40.3901231  16.2305239  91.5130964  40.5934107
  15.2097778  92.4141669  39.9315764  17.9262582  90.8951273  37.3505179
  17.8476214  90.5611136  38.2440936  18.7472249  91.3873041  37.3496651
  20.6240773  83.7613012  50.5581497  20.5917093  82.8229013  50.7441181
  21.2341397  83.8397049  49.8247322  12.4624104  82.6309065  36.6008701
  13.4083209  82.5015273  36.6697119  12.0838349  81.8923727  37.0778129
  20.7735262  80.5524055  50.6039780  20.2574310  79.7682512  50.4169709
  21.6575210  80.2242772  50.7686300  18.4345989  74.2965071  46.5635593
  18.2370810  73.9880159  47.4478925  19.0445694  75.0226710  46.6933523
  26.4417323  84.8229019  49.6987534  27.1720712  84.5614307  50.2595237
  25.8324269  84.0857741  49.7389602  24.5232620  82.9636881  50.2961985
  23.7965784  82.8292846  49.6878477  24.1079907  83.2713710  51.1018703
  12.3462797  86.6826811  58.0609358  13.2665806  86.8605410  58.2549405
  12.3112380  85.7382856  57.9089057  10.6467021  80.5559041  36.5363586
   9.7398477  80.2592154  36.6126300  10.9243002  80.2588859  35.6697873
   1.5644962  81.8765405  46.9862633   1.2447746  81.0230713  46.6937007
   1.0178390  82.0913983  47.7420600   5.3424869  84.5927846  50.7032139
   5.5610879  85.5244954  50.7220173   5.7550643  84.2335820  51.4886943
  12.2629087  75.0995931  42.6907828  11.4529815  74.7543016  43.0663074
  12.9513504  74.7903475  43.2795439  14.1919635  74.1773978  44.3132124
  14.7450674  74.5969431  44.9722147  14.4289722  73.2509726  44.3555080
  10.2152735  80.1661052  60.0934888  10.1149462  81.1155409  60.0246979
   9.9974277  79.8379290  59.2210958   9.4165806  77.4145977  36.6775566
  10.2784970  77.7400875  36.9371383   9.6016150  76.6277473  36.1648631
   1.4333222  85.4968316  48.9555754   0.7396693  85.0822269  48.4425709
   2.1806213  85.5388853  48.3589173  17.5698442  76.2874503  43.8210789
  16.9897112  76.9459307  43.4388841  17.3034375  75.4651848  43.4098206
  16.0202009  75.6879561  46.0232109  16.5201787  75.7996095  45.2146428
  16.6637617  75.3840614  46.6632917  10.0784005  83.5958190  58.9099950
   9.5951086  84.3958551  59.1163839  10.1644944  83.6066135  57.9567394
   3.3469964  85.4286570  46.8321769   3.3240652  85.5274257  45.8803652
   3.6570601  86.2751721  47.1538935   6.0057342  87.4862725  50.9468384
   6.9600596  87.4546667  50.8798315   5.8069866  87.0253349  51.7618610
   6.5956724  86.0563841  53.5139181   7.4149613  86.5507920  53.5374019
   6.8693532  85.1395809  53.4856749  16.3523320  78.4474593  42.8767137
  15.4649176  78.7324244  42.6587332  16.7677310  78.2868357  42.0294414
  19.7037857  78.4721114  46.5921476  20.4798247  78.9617567  46.8646093
  18.9785991  78.8979169  47.0493346  22.1410415  79.1848734  47.6495417
  22.7354906  78.9444470  46.9388725  22.2136999  78.4655864  48.2768953
   4.3607571  93.0282345  47.9638582   4.2262039  92.2682745  47.3976580
   3.9439633  93.7523244  47.4967370  15.4966534  88.2119268  36.9715157
  16.2002384  88.4169271  37.5872812  14.7729183  88.7796030  37.2364240
  16.3264344  83.9629129  43.0917427  16.2699546  84.4197681  42.2525059
  16.8792687  83.2019814  42.9140270  20.1369150  79.7518861  43.9167547
  19.8806084  79.3515497  44.7475754  19.5122018  80.4662655  43.7917686
  24.4481488  82.4914934  46.4238838  23.8881046  82.5608124  47.1970400
  23.8424991  82.3155919  45.7038334   7.5176697  93.9251662  48.1757024
   7.4009081  94.8697094  48.0735714   6.6969143  93.6225223  48.5642823
  17.4053231  88.6501797  39.0213617  18.2398835  88.2182996  38.8391092
  17.2437574  88.4783811  39.9490511  17.0599124  85.1533911  40.3869956
  17.0047927  84.9878182  39.4458400  16.4345179  85.8609944  40.5432146
   1.8491639  80.3901975  54.2131378   2.4950502  79.8800929  54.7018604
   1.6408790  81.1270657  54.7874804  14.3745031  87.4582822  59.7123519
  15.2436190  87.6323475  59.3510154  13.8951782  88.2777239  59.5899248
  10.3695249  74.6542020  39.9655275  10.3573919  75.5983860  40.1223545
  11.2618671  74.4712165  39.6714736   8.5431211  94.5779923  51.3912953
   9.4458458  94.6103534  51.7079448   8.3168581  93.6480374  51.4059288
  10.2984813  93.3310910  48.0523031   9.3480444  93.3312772  47.9387404
  10.6017299  92.5843645  47.5359066  14.1847368  71.2484796  44.2201211
  13.4179764  70.6943283  44.3657894  14.5958073  71.3206665  45.0815363
   6.1889130  77.5369592  58.3106393   7.0520591  77.1806397  58.5209717
   5.6154540  77.1983487  58.9981797  26.0337506  99.1671448  49.1168794
  26.6715916  99.0478196  48.4132134  25.9158349 100.1152292  49.1756746
  22.8427213  99.1198877  49.0530318  22.5045724  99.0039941  48.1650853
  23.7116981  98.7190042  49.0331325  18.7014028 100.9734353  45.0427209
  18.1378894 100.8824290  44.2743497  18.5866423 100.1534257  45.5229702
  23.3246996 100.2733728  55.0116524  23.3135637  99.8786527  54.1397028
  23.4867635  99.5399801  55.6050295  16.2478460 102.4685545  47.8811430
  17.0399752 102.1276369  47.4657729  16.4875111 102.5780520  48.8013583
  24.2813587 104.6405321  40.3541674  23.6301567 105.2259401  39.9675688
  25.0757950 105.1711516  40.4136712  18.2069214 101.7294458  40.7528809
  18.9800090 101.1823445  40.6141684  18.5594613 102.5938707  40.9643270
  20.0454257 103.0570840  53.9595708  19.7544123 103.9616471  53.8442374
  20.6811241 103.0987368  54.6739777  20.9710464 100.4347689  50.5497068
  21.5674036 100.2103711  49.8354030  21.0285435  99.6932434  51.1522515
  20.5435492  97.8887124  38.3847258  20.7961013  97.3668645  37.6230721
  19.6060051  97.7253269  38.4873942  25.5878775  96.8922902  46.1922002
  26.3741864  96.4742325  45.8412419  25.8517479  97.7968994  46.3603650
  25.7588852 102.3295753  40.8910659  25.1234685 102.4030379  41.6031563
  25.4286259 102.9189351  40.2129738  30.9887202  96.8298135  47.0954980
  31.7212374  96.2597352  47.3292810  30.2326558  96.4419736  47.5361486
  20.2631781  99.7915230  40.5871633  20.1468039  99.1160133  41.2552718
  20.3734041  99.3047604  39.7703786  22.6063322  99.2525377  44.2918323
  22.2421529  98.7255998  45.0031244  23.4630438  98.8623846  44.1184808
  28.5112622  90.5419710  51.5549589  28.1795947  91.4115121  51.3310804
  27.9158236  90.2255994  52.2343619  22.2468809  94.2815277  39.2879671
  22.4143211  95.1495513  39.6550142  22.0565978  94.4442558  38.3640960
  25.0044142 102.7432256  50.9545502  24.7044865 103.6457294  50.8461309
  24.6595201 102.4764439  51.8066654  18.4556623  99.1946052  46.9882206
  17.5307120  99.0622267  47.1959898  18.7041037  99.9740272  47.4852148
  28.4041286  95.2614796  48.6342939  27.4958163  95.1930204  48.3401700
  28.3528882  95.7386741  49.4624764  22.2258030  96.7372934  40.2726338
  22.1057655  97.1829985  41.1111818  21.5310618  97.0858252  39.7139876
  15.8165434  98.8379326  47.8225995  15.9457816  99.0913805  48.7365407
  15.1362886  99.4307034  47.5030650  19.9864922 109.5076576  43.9216469
  19.9088951 110.4584401  44.0004950  19.3826565 109.1622448  44.5791396
  22.4782152  96.6804441  56.5777836  21.7015486  97.2398361  56.5680701
  23.1172715  97.1661224  57.0992706  30.2702932  93.4631234  50.4120813
  29.6277312  93.7563767  49.7660607  29.7657861  93.3484155  51.2174009
  27.9243096  97.2094407  41.1006672  28.8360952  97.4421794  40.9254370
  27.4152743  97.7931452  40.5381751  20.7328524  99.4889895  56.1395803
  21.4743208 100.0274939  55.8630627  20.0265509 100.1156183  56.2967355
  26.2083863 101.6319035  54.7367965  26.6167220 101.1901446  53.9922597
  25.4861125 101.0571663  54.9902158  22.5614934  96.5691642  52.1101522
  23.4076129  96.9931056  52.2536171  22.5013571  95.9125266  52.8040085
  26.5312678 102.1920226  48.4920254  25.9021541 102.3565940  47.7896321
  26.1438340 102.6061835  49.2631218  30.4101910 103.1274664  45.8464617
  29.7252948 103.5073565  45.2961651  30.4945759 103.7369990  46.5796565
  25.7114379  94.2296010  53.7682695  25.4675311  94.9838071  53.2316971
  25.9874309  94.6081358  54.6029942  27.6652842 100.7734623  52.4459961
  27.8769737 101.4166383  51.7694342  27.6182590  99.9396939  51.9781891
  25.2679071  93.3852443  49.3496533  24.4063550  93.6833697  49.6413271
  25.2941505  93.6022842  48.4177566  22.0840640 101.9294634  45.7570339
  22.5478986 102.2082337  44.9674961  21.8197438 101.0278078  45.5743429
  18.9764721 101.4766115  48.6950102  19.5466078 101.9053384  48.0567586
  19.5672833 101.1948700  49.3934288  21.0209526  98.0517786  42.5659904
  21.7233569  98.5038830  43.0333830  20.6890155  97.4101605  43.1939797
  19.4689888  96.6429543  56.9411113  18.8388548  97.3245824  57.1746510
  19.3625975  96.5312624  55.9964251  14.7634860  96.3101339  47.8677037
  13.9733914  96.5658867  47.3917148  15.2546107  97.1249677  47.9729078
  28.7798670 103.6506578  50.6182318  29.6016113 103.2486765  50.3365000
  28.7761072 103.5474812  51.5698434  16.7149605  96.6745918  44.8260514
  15.9180769  96.7864612  45.3444010  16.4875198  97.0132570  43.9601405
  22.5455273 103.1990621  52.7743029  22.6099706 103.6611029  53.6101201
  21.8366197 102.5687986  52.9025339  13.0472563  96.5631829  50.2992028
  13.2980601  97.4478839  50.5649604  13.5832111  96.3836431  49.5267120
  36.8704663  99.9945327  46.9667290  36.1168371  99.4252725  46.8111294
  37.0052204  99.9607991  47.9137924  22.2603291 104.8658729  42.6422009
  22.1248965 105.7110265  43.0706857  22.8013103 105.0678007  41.8787943
  18.7470630  90.9450309  59.3036364  18.3537576  90.3916507  59.9784008
  19.5636771  91.2560887  59.6942882  15.7132688 102.3834167  43.2149934
  16.2257209 103.1777417  43.3655499  16.3655401 101.6860457  43.1483536
  17.5227573 105.4999923  45.2972687  17.6994201 106.4217888  45.1093671
  18.3184406 105.1858342  45.7267067  21.6638591  92.3608188  56.8956621
  22.4048305  92.9615341  56.8161083  21.8956514  91.6185826  56.3374663
  16.8079929  97.5464555  55.1734850  16.6933444  96.6449812  55.4741949
  15.9524447  97.7928252  54.8219667  23.8871767 105.4882295  56.7722351
  23.4435621 104.7018674  56.4543256  24.5488981 105.6761446  56.1066242
  18.6458888 107.0178097  51.2983030  19.1966313 106.8895160  50.5260024
  17.8070364 107.3172986  50.9477922  25.9853005 105.7685095  54.8003752
  25.9671480 106.5893976  54.3084022  26.9072925 105.6439171  55.0253894
  22.4426059 103.2829225  55.6427261  22.9754396 102.5217513  55.4126569
  21.9140140 102.9902877  56.3851415  25.6095754  88.3889291  51.1720902
  25.2660024  89.2790932  51.0960013  25.9774717  88.1990948  50.3090487
  13.6781605 100.7122821  43.9909505  14.5156827 101.1219830  43.7743212
  13.8559873  99.7722263  43.9609698  25.5746037  98.3797902  39.6793338
  25.0592660  99.1502507  39.9181725  25.3023345  97.7063038  40.3026399
  23.1593148  93.2247603  44.7378576  22.3034744  92.8354453  44.5584215
  23.5720100  93.3039563  43.8778361  24.6892295  90.7593946  49.1370136
  24.1857090  90.7224081  48.3237941  24.9822901  91.6686689  49.1966792
  20.9335181  90.8432676  48.1436317  21.7988177  90.6475484  47.7842207
  21.0012689  90.6143027  49.0705674  30.5480311 101.1330257  41.6146511
  29.7709754 100.7941416  41.1701673  31.2271792 101.1382880  40.9401476
  25.3632340  96.2524994  41.5053119  25.0582476  96.5671143  42.3563262
  26.3162782  96.3306414  41.5480452  23.8078772 102.4115217  43.1546073
  23.2800134 101.6767977  42.8419310  23.3066275 103.1889894  42.9086041
  28.7871618 100.6064238  48.2713119  28.1295292 101.2963499  48.3593248
  29.5912017 100.9960670  48.6147105  18.5397500  93.0734884  45.5152684
  19.1141251  92.8510065  44.7825877  19.1268482  93.1423578  46.2681286
  27.5977077  98.9608610  46.3217061  28.1108959  99.5938602  46.8238771
  28.2478301  98.3609806  45.9560421  18.8667087  95.1039345  39.5348570
  18.0304399  95.4414031  39.8557844  18.7271856  94.9688324  38.5975706
  20.8420167  89.9476132  44.2427754  20.1884580  89.6325150  43.6184368
  20.8000641  89.3251873  44.9687577  21.9531372 100.2295428  36.1581046
  21.0458434  99.9984681  36.3572195  22.4502404  99.4333047  36.3455027
  24.8599451 108.9392935  39.0777732  24.1861150 109.2424631  39.6862690
  25.2465273 109.7422015  38.7283189  24.0757908  96.4358066  48.5675401
  23.1580469  96.6573013  48.4097089  24.4918051  96.5104376  47.7087109
  24.8592955  97.8349482  43.6978082  25.6064774  98.3470879  43.3885204
  25.1284545  97.5133534  44.5582475  23.1319606 100.3308022  40.6805036
  22.2230825 100.0467055  40.7777506  23.1614689 100.7507101  39.8208343
  28.3638873 103.9414612  44.4496203  27.9101200 103.1005522  44.5061394
  27.7332840 104.5776010  44.7870984  27.3071793  94.8706598  45.6796871
  26.5694549  94.3583984  46.0107113  27.5598566  94.4306980  44.8680148
  26.8071812 105.7791109  45.3846022  27.0994787 106.3396166  44.6658387
  27.3170433 106.0719670  46.1399181  27.4083420  87.6482850  46.2738640
  27.7142297  86.7880213  45.9864555  28.1336025  88.2400470  46.0737634
  13.7007776  98.0513537  44.6620238  13.5032176  97.4582897  43.9371305
  13.1454440  97.7465747  45.3796177  21.6804500  97.9436643  46.7814831
  21.7353109  96.9910479  46.7057308  20.8695702  98.0996082  47.2656130
  22.8295693 101.8716766  38.0193114  22.3915123 101.1552625  37.5598752
  23.5706134 102.0992881  37.4578206  19.6196860  96.5613703  44.5405210
  18.8064725  96.8607873  44.9470402  20.1155854  96.1669392  45.2579692
  21.7705437 106.5571460  46.4739475  21.7281616 106.7832306  45.5448007
  22.6868136 106.3234834  46.6225276  25.2171071  97.0255527  53.3720104
  25.5720459  97.2527000  54.2314570  25.8643202  97.3573904  52.7497359
  30.9468808 100.1473963  44.0769433  30.8086707 100.3375559  43.1490622
  30.5905027 100.9093346  44.5337484  19.1110934  94.1332058  50.1566445
  19.7510314  93.9920817  49.4589408  18.2788465  93.8466572  49.7805047
  30.9738188 102.2150490  49.0880704  31.4074694 102.1225779  49.9363759
  31.6869768 102.1907991  48.4500720  19.8871238 103.4334489  46.2701437
  20.6811837 102.9384809  46.0684012  19.1762931 102.9052352  45.9069143
  24.7066083 105.8152584  50.6213805  24.7603105 106.3843521  51.3891521
  23.8380864 105.9854469  50.2567842  16.1954002  97.5777570  42.3461190
  15.2651590  97.5162026  42.5631152  16.2911474  97.0553523  41.5497831
  16.1139551  94.1032383  44.9339432  16.3746368  95.0177717  44.8248592
  16.9356723  93.6356826  45.0836045  17.5864476  95.5170140  52.1038256
  18.2587529  95.3087503  51.4550905  16.7594263  95.3192226  51.6643489
  31.8353737 102.2574191  51.6213590  32.0289627 103.1620001  51.8672865
  31.7354356 101.7981610  52.4552175  23.4890048  92.1432081  54.1203917
  22.8417963  92.8422031  54.0268394  24.2591063  92.5768225  54.4880165
  26.8968846 102.4080934  57.1954471  26.7454352 102.1791485  56.2784554
  26.8873526 103.3651535  57.2085816  23.6654182  99.9812846  52.1800737
  24.5946242 100.1324006  52.0069704  23.2445212 100.0696867  51.3249383
  22.4642514 104.0063511  49.9499275  22.3253600 103.6382295  50.8225213
  21.6757110 104.5211150  49.7783232  23.0590666 109.1072607  41.2924811
  23.2342422 108.6360650  42.1070434  22.3723454 109.7338373  41.5206072
  24.0147729 103.3845113  47.3388112  23.6797562 103.3445883  48.2345762
  23.5151675 102.7189829  46.8658523  17.9891973  98.7912743  52.8640694
  17.8511771  98.0592982  53.4652233  18.8996897  98.7021644  52.5824881
  26.9506921 100.7301148  37.6125172  26.3336092 100.0047976  37.5158225
  26.4823409 101.4910508  37.2692246  20.6174274  98.5032703  52.3524373
  21.3273893  97.8625895  52.3110992  20.5743582  98.7545598  53.2750554
  28.6061053 105.4400056  55.2730952  28.5473599 104.7559276  54.6061535
  29.0080571 106.1819046  54.8211578  19.3303208  95.4897921  54.1720013
  18.7940565  95.0388659  54.8241609  18.7419916  95.6243829  53.4290477
  18.7405467  94.9486572  36.7346476  17.8634933  94.8275373  36.3708723
  19.2163220  94.1572650  36.4825365  28.6078460 103.4039640  53.5044932
  27.7205239 103.0665562  53.6271331  29.1777011 102.6722671  53.7413697
  10.2607607  99.7363732  46.8287983  10.9478647  99.4225462  46.2408999
  10.1055736 100.6405096  46.5555235  15.0642329  94.6253928  51.2573007
  14.9800518  94.0179598  50.5223417  14.2425036  95.1162947  51.2582503
  22.1379613 108.0641092  50.4706175  22.0649785 108.8696064  50.9825480
  21.6957006 108.2633058  49.6454197  21.9269393 107.3012862  43.9808997
  21.1436915 107.8434543  44.0747221  22.6262138 107.8186842  44.3803238
  25.2366043  93.1107492  46.6243202  25.7334743  92.3577454  46.3044272
  24.4653025  93.1471809  46.0586412  33.0895800  98.8147857  48.2661494
  33.0785677  99.6972573  47.8955427  32.2213180  98.4619408  48.0716031
  24.5978297 107.9627926  52.6264334  25.3106269 108.5975391  52.5540235
  24.1068326 108.0591792  51.8104336  26.3195824 101.8679179  44.1981626
  25.3852103 101.9880642  44.0286330  26.4972492 100.9651646  43.9341635
  21.8201012  95.2524875  46.3514887  21.4498799  94.6995915  47.0395792
  22.3160104  94.6483008  45.7989887  29.7068375  97.7096498  44.7331660
  30.1728827  98.5424490  44.6591962  30.1575876  97.2441480  45.4376918
  19.6490210 105.7122370  53.4469905  20.3499670 106.3458853  53.5999299
  19.1785325 106.0537101  52.6865544  27.7744606 104.0540320  41.7317812
  28.0504450 103.9396914  42.6411686  26.9049105 103.6557805  41.6929985
  27.6785038  90.0777085  48.7722561  26.7648118  90.3081312  48.9404768
  28.1078139  90.1615529  49.6236593  27.4491496  98.2666977  51.2722455
  26.7962947  98.5142885  50.6174908  27.8271876  97.4531116  50.9384932
  24.4098670 108.3026670  45.3750625  24.5921065 107.4848326  45.8378378
  25.2331656 108.5194363  44.9375515  24.7440836 107.2294856  42.6365674
  25.2728602 106.7187310  42.0235836  25.0069055 106.9137386  43.5011207
  23.4979069  99.0086788  57.7588492  22.8219706  98.9080918  58.4290867
  24.3206703  98.8526002  58.2224489  15.2457928 105.2458725  50.3801007
  15.8311365 104.5002413  50.5128912  15.0482767 105.5562682  51.2637671
  18.0996584 108.2809972  45.3963450  17.4306959 108.7656100  44.9127490
  17.9609453 108.5279193  46.3106828   9.8375583  97.8164325  49.1005451
   9.8759683  97.2827916  49.8942569   9.3315876  97.2899531  48.4816428
  22.2401852 110.3153716  51.9946108  22.7920160 110.4785337  52.7595193
  22.5808046 110.9058154  51.3226133  17.2166345  92.6628866  52.5967993
  17.2807672  93.5243697  52.1845391  17.1533466  92.0502867  51.8640351
  16.6918618  94.7351998  56.2441027  17.3190657  94.3529075  56.8578551
  15.8346537  94.5166200  56.6096720  27.0912727 105.1414973  57.8494763
  27.6352631 105.7544932  57.3549717  26.5099571 105.6994552  58.3661776
  13.4684161  96.5428427  42.1759382  13.7637602  95.6339106  42.1226436
  12.5672197  96.5216167  41.8540384  25.3770240 108.2635691  48.9809790
  25.2521379 107.4625431  48.4720736  26.0349331 108.7581885  48.4923760
  16.9978408  94.6184424  48.1586931  16.2764994  95.2320392  48.0194404
  17.7871664  95.1542189  48.0803576  27.4405148 106.0644711  50.6089340
  26.4935483 105.9450063  50.5367667  27.7887921 105.1767209  50.6915602
  19.8004721  91.9538850  54.4327582  20.3239123  92.2001147  55.1953892
  19.5817055  92.7858885  54.0130720  15.1972002  94.2242525  42.2998707
  14.8684709  93.3439904  42.1173813  15.5511373  94.1690194  43.1875096
  24.4451581 105.8597428  46.8093693  24.2976544 104.9314135  46.9901263
  25.2705075 105.8817518  46.3250768  18.3113826  94.5115495  42.6674185
  18.6509898  95.0401416  41.9452793  18.7585946  94.8495901  43.4432751
  28.0485703 106.6825986  47.8958565  28.9732251 106.4768848  47.7583017
  27.8801006 106.4342388  48.8047907  21.0057266  92.8952545  52.1177253
  20.6654087  92.0960359  52.5197933  20.2996273  93.1954256  51.5454086
  21.6573738  89.9801858  50.5704576  22.4799807  89.5062336  50.4483466
  21.9011802  90.7592342  51.0703262  20.2981973  93.0090116  40.8667478
  21.0190335  93.3871369  40.3631194  19.6747277  93.7278993  40.9702455
  24.4413096  93.7135265  41.8025810  24.6576710  94.5959903  41.5014638
  23.9607163  93.3221479  41.0731452  19.1812317  96.6720979  48.3796554
  19.0356898  96.9861282  49.2720836  18.7037521  97.2905879  47.8267453
  21.0408700  93.6623527  48.4277444  21.0270269  92.7664620  48.0909742
  21.7581128  93.6694190  49.0615730  22.8934831  94.0960867  50.4730571
  22.6352608  95.0177937  50.4714902  22.3619871  93.6991301  51.1631036
  27.8381019 107.2011654  43.2520657  28.0117897 106.6358076  42.4994509
  28.3309911 108.0012549  43.0700147  13.6557979  99.2126323  51.3184216
  13.1111447  99.9886131  51.4504490  14.5337329  99.5597127  51.1603337
  20.4445596  92.5437907  43.6965014  20.5661507  91.6154553  43.8955902
  20.1547638  92.5576593  42.7843330  23.3136786  90.2292817  46.8331734
  23.3358483  90.2932150  45.8783714  23.7304845  89.3897326  47.0272240
  33.6920410  99.9648077  44.8710957  34.1351556  99.2155402  44.4730080
  32.8146921  99.9558213  44.4884689  28.8256192 106.5178418  40.3517555
  29.5207096 107.1385111  40.5704870  29.1679342 105.6673769  40.6269933
  14.4424001  98.3396219  54.2114373  13.7005737  98.4878855  54.7979003
  14.1216745  98.6004485  53.3481122  30.7247615 103.9678124  41.8804886
  31.2498939 104.3065397  41.1554206  30.6369967 103.0325139  41.6968021
  22.3867664 107.8812197  54.0094763  22.6954790 107.6361344  54.8817462
  23.1843146 108.0858836  53.5213633  22.4088276 110.0350107  46.2400139
  21.9693266 109.5426486  46.9332996  23.1596393 109.4923075  45.9992214
  14.8880615 106.2261648  46.2424767  15.7138635 105.9265420  45.8623411
  14.5374667 105.4569270  46.6914556  19.8562148 105.5788116  48.3122441
  19.2342157 104.9158821  48.0124669  20.5267015 105.6049248  47.6296089
  13.0889220 104.1447974  47.2013701  12.2521128 103.7170149  47.0197702
  13.0612865 104.3380418  48.1384492  19.9286675  94.0569904  57.9054947
  19.9774831  94.9332027  57.5232716  20.4709189  93.5147297  57.3326590
  30.4141521 104.6011027  57.1856084  29.6237065 104.5835166  56.6460583
  30.1774876 105.1399321  57.9405120  30.5339396 101.4503494  54.4988812
  30.5837401 101.2853501  55.4404335  30.4253319 100.5830753  54.1086693
  19.4175655 104.1292039  41.7880901  19.5663775 104.8127504  41.1347574
  20.2242098 104.1097130  42.3030357  27.8243158  97.4334422  55.8148119
  28.7253021  97.2940887  55.5232117  27.8991133  97.5988877  56.7546297
  22.1585964  94.8101277  54.6601305  21.2889273  95.1034843  54.3883894
  22.3945444  95.3941722  55.3808569  32.0357593 103.8700435  54.7430834
  31.7442401 104.2330416  55.5794295  31.4229724 103.1567444  54.5644166
  33.2353275 101.4353315  47.2633404  34.0700167 101.8743119  47.4270965
  33.3712404 100.9591968  46.4441650  30.2844781  98.9933050  53.2110892
  30.7598903  99.1860696  52.4029743  29.3610346  99.0492236  52.9654276
  17.1728288 100.1557217  42.7941970  16.9274330  99.2519547  42.9922180
  17.3424202 100.1574368  41.8521448  24.8624998  91.0280893  52.1766726
  25.3806941  91.7641920  51.8513214  24.5080130  91.3344887  53.0113485
  16.4423935  95.8885575  40.2928132  15.7493180  95.9629930  39.6368168
  16.1975687  95.1245918  40.8149649  25.1137592  87.4481176  47.6967622
  25.3939345  86.7804365  48.3228049  25.8988199  87.6410272  47.1842286
  22.9171060 106.6240170  39.2592649  22.3445027 107.2430357  38.8063121
  23.4903854 107.1739532  39.7932571  28.9846450  95.8698810  51.4439198
  29.9363873  95.9696908  51.4651422  28.8149900  95.0777079  51.9537282
  27.0060830  92.9554393  51.6298598  26.4110762  93.2359406  50.9345087
  26.7210526  93.4448294  52.4015340  26.1368320 106.9077320  40.3901231
  27.0698993 106.8422882  40.5934107  26.0491533 107.7433587  39.9315764
  28.7656337 106.2243190  37.3505179  28.6869968 105.8903054  38.2440936
  29.5866003 106.7164958  37.3496651  31.4634528  99.0904930  50.5581497
  31.4310848  98.1520930  50.7441181  32.0735152  99.1688966  49.8247322
  23.3017859  97.9600983  36.6008701  24.2476963  97.8307191  36.6697119
  22.9232104  97.2215645  37.0778129  31.6129016  95.8815973  50.6039780
  31.0968065  95.0974430  50.4169709  32.4968965  95.5534690  50.7686300
  29.2739743  89.6256989  46.5635593  29.0764564  89.3172077  47.4478925
  29.8839449  90.3518628  46.6933523  37.2811078 100.1520937  49.6987534
  38.0114466  99.8906225  50.2595237  36.6718023  99.4149658  49.7389602
  35.3626375  98.2928799  50.2961985  34.6359538  98.1584764  49.6878477
  34.9473662  98.6005628  51.1018703  23.1856551 102.0118729  58.0609358
  24.1059561 102.1897328  58.2549405  23.1506134 101.0674774  57.9089057
  21.4860776  95.8850959  36.5363586  20.5792231  95.5884072  36.6126300
  21.7636757  95.5880777  35.6697873  12.4038716  97.2057322  46.9862633
  12.0841501  96.3522631  46.6937007  11.8572144  97.4205901  47.7420600
  16.1818624  99.9219763  50.7032139  16.4004634 100.8536871  50.7220173
  16.5944398  99.5627738  51.4886943  23.1022842  90.4287849  42.6907828
  22.2923570  90.0834934  43.0663074  23.7907259  90.1195393  43.2795439
  25.0313390  89.5065896  44.3132124  25.5844428  89.9261349  44.9722147
  25.2683476  88.5801644  44.3555080  21.0546489  95.4952969  60.0934888
  20.9543216  96.4447326  60.0246979  20.8368031  95.1671208  59.2210958
  20.2559561  92.7437894  36.6775566  21.1178724  93.0692793  36.9371383
  20.4409905  91.9569390  36.1648631  12.2726976 100.8260234  48.9555754
  11.5790448 100.4114187  48.4425709  13.0199967 100.8680770  48.3589173
  28.4092197  91.6166421  43.8210789  27.8290866  92.2751225  43.4388841
  28.1428130  90.7943765  43.4098206  26.8595763  91.0171478  46.0232109
  27.3595542  91.1288013  45.2146428  27.5031371  90.7132531  46.6632917
  20.9177759  98.9250108  58.9099950  20.4344841  99.7250468  59.1163839
  21.0038698  98.9358053  57.9567394  14.1863719 100.7578488  46.8321769
  14.1634407 100.8566175  45.8803652  14.4964355 101.6043639  47.1538935
  16.8451097 102.8154643  50.9468384  17.7994350 102.7838585  50.8798315
  16.6463620 102.3545267  51.7618610  17.4350479 101.3855759  53.5139181
  18.2543368 101.8799837  53.5374019  17.7087286 100.4687727  53.4856749
  27.1917075  93.7766511  42.8767137  26.3042930  94.0616162  42.6587332
  27.6071064  93.6160275  42.0294414  30.5431611  93.8013032  46.5921476
  31.3192001  94.2909485  46.8646093  29.8179745  94.2271086  47.0493346
  32.9804170  94.5140651  47.6495417  33.5748661  94.2736387  46.9388725
  33.0530753  93.7947782  48.2768953  26.3360288 103.5411186  36.9715157
  27.0396139 103.7461188  37.5872812  25.6122937 104.1087948  37.2364240
  27.1658099  99.2921047  43.0917427  27.1093300  99.7489598  42.2525059
  27.7186441  98.5311732  42.9140270  30.9762905  95.0810779  43.9167547
  30.7199839  94.6807415  44.7475754  30.3515773  95.7954573  43.7917686
  35.2875243  97.8206852  46.4238838  34.7274800  97.8900041  47.1970400
  34.6818746  97.6447837  45.7038334  28.2446986 103.9793715  39.0213617
  29.0792590 103.5474913  38.8391092  28.0831329 103.8075729  39.9490511
  27.8992878 100.4825828  40.3869956  27.8441682 100.3170100  39.4458400
  27.2738933 101.1901861  40.5432146  12.6885393  95.7193893  54.2131378
  13.3344257  95.2092847  54.7018604  12.4802544  96.4562574  54.7874804
  25.2138785 102.7874740  59.7123519  26.0829945 102.9615392  59.3510154
  24.7345537 103.6069157  59.5899248  21.2089004  89.9833937  39.9655275
  21.1967673  90.9275777  40.1223545  22.1012425  89.8004083  39.6714736
  19.3824965 109.9071841  51.3912953  20.2852212 109.9395451  51.7079448
  19.1562336 108.9772292  51.4059288  21.1378567 108.6602828  48.0523031
  20.1874198 108.6604689  47.9387404  21.4411054 107.9135562  47.5359066
  25.0241123  86.5776714  44.2201211  24.2573519  86.0235201  44.3657894
  25.4351828  86.6498583  45.0815363  17.0282884  92.8661510  58.3106393
  17.8914346  92.5098315  58.5209717  16.4548295  92.5275405  58.9981797
  36.8731261 114.4963366  49.1168794  37.5109671 114.3770113  48.4132134
  36.7552104 115.4444210  49.1756746  33.6820967 114.4490794  49.0530318
  33.3439479 114.3331859  48.1650853  34.5510735 114.0481959  49.0331325
  34.1640750 115.6025646  55.0116524  34.1529391 115.2078444  54.1397028
  34.3261390 114.8691719  55.6050295  31.3829247 113.2179042  38.3847258
  31.6354767 112.6960563  37.6230721  30.4453806 113.0545187  38.4873942
  36.4272529 112.2214820  46.1922002  37.2135619 111.8034243  45.8412419
  36.6911234 113.1260912  46.3603650  41.8280957 112.1590053  47.0954980
  42.5606129 111.5889270  47.3292810  41.0720312 111.7711654  47.5361486
  33.4457076 114.5817295  44.2918323  33.0815284 114.0547916  45.0031244
  34.3024192 114.1915764  44.1184808  39.3506377 105.8711627  51.5549589
  39.0189702 106.7407038  51.3310804  38.7551990 105.5547911  52.2343619
  33.0862563 109.6107194  39.2879671  33.2536966 110.4787431  39.6550142
  32.8959732 109.7734476  38.3640960  39.2435040 110.5906713  48.6342939
  38.3351918 110.5222122  48.3401700  39.1922636 111.0678658  49.4624764
  33.0651784 112.0664852  40.2726338  32.9451409 112.5121903  41.1111818
  32.3704373 112.4150170  39.7139876  33.3175906 112.0096359  56.5777836
  32.5409240 112.5690279  56.5680701  33.9566469 112.4953142  57.0992706
  41.1096687 108.7923152  50.4120813  40.4671067 109.0855685  49.7660607
  40.6051615 108.6776072  51.2174009  38.7636850 112.5386325  41.1006672
  39.6754706 112.7713712  40.9254370  38.2546497 113.1223369  40.5381751
  33.4008688 111.8983560  52.1101522  34.2469883 112.3222973  52.2536171
  33.3407326 111.2417184  52.8040085  36.5508133 109.5587928  53.7682695
  36.3069065 110.3129989  53.2316971  36.8268064 109.9373276  54.6029942
  38.5046596 116.1026540  52.4459961  38.7163491 116.7458300  51.7694342
  38.4576344 115.2688857  51.9781891  36.1072825 108.7144361  49.3496533
  35.2457304 109.0125615  49.6413271  36.1335260 108.9314760  48.4177566
  31.8603281 113.3809704  42.5659904  32.5627324 113.8330748  43.0333830
  31.5283909 112.7393523  43.1939797  30.3083642 111.9721461  56.9411113
  29.6782303 112.6537741  57.1746510  30.2019730 111.8604542  55.9964251
  25.6028615 111.6393257  47.8677037  24.8127668 111.8950785  47.3917148
  26.0939862 112.4541594  47.9729078  27.5543360 112.0037836  44.8260514
  26.7574523 112.1156530  45.3444010  27.3268952 112.3424488  43.9601405
  47.7098417 115.3237244  46.9667290  46.9562126 114.7544642  46.8111294
  47.8445958 115.2899909  47.9137924  29.5864385 106.2742226  59.3036364
  29.1931330 105.7208425  59.9784008  30.4030525 106.5852805  59.6942882
  32.5032346 107.6900106  56.8956621  33.2442059 108.2907259  56.8161083
  32.7350269 106.9477743  56.3374663  36.4489509 103.7181208  51.1720902
  36.1053778 104.6082850  51.0960013  36.8168471 103.5282866  50.3090487
  36.4139791 113.7089820  39.6793338  35.8986415 114.4794424  39.9181725
  36.1417100 113.0354956  40.3026399  33.9986902 108.5539520  44.7378576
  33.1428499 108.1646371  44.5584215  34.4113854 108.6331481  43.8778361
  35.5286049 106.0885864  49.1370136  35.0250845 106.0515999  48.3237941
  35.8216656 106.9978606  49.1966792  31.7728935 106.1724593  48.1436317
  32.6381932 105.9767402  47.7842207  31.8406444 105.9434945  49.0705674
  41.3874066 116.4622174  41.6146511  40.6103508 116.1233334  41.1701673
  42.0665547 116.4674797  40.9401476  36.2026095 111.5816912  41.5053119
  35.8976230 111.8963061  42.3563262  37.1556537 111.6598332  41.5480452
  39.6265372 115.9356155  48.2713119  38.9689047 116.6255417  48.3593248
  40.4305772 116.3252587  48.6147105  29.3791254 108.4026801  45.5152684
  29.9535006 108.1801983  44.7825877  29.9662237 108.4715496  46.2681286
  38.4370831 114.2900528  46.3217061  38.9502713 114.9230520  46.8238771
  39.0872055 113.6901724  45.9560421  29.7060841 110.4331262  39.5348570
  28.8698153 110.7705949  39.8557844  29.5665611 110.2980242  38.5975706
  31.6813922 105.2768050  44.2427754  31.0278334 104.9617067  43.6184368
  31.6394396 104.6543791  44.9687577  34.9151662 111.7649984  48.5675401
  33.9974224 111.9864931  48.4097089  35.3311806 111.8396294  47.7087109
  35.6986710 113.1641399  43.6978082  36.4458529 113.6762797  43.3885204
  35.9678299 112.8425452  44.5582475  38.1465547 110.1998516  45.6796871
  37.4088304 109.6875902  46.0107113  38.3992321 109.7598897  44.8680148
  38.2477174 102.9774768  46.2738640  38.5536051 102.1172131  45.9864555
  38.9729779 103.5692388  46.0737634  32.5198254 113.2728561  46.7814831
  32.5746864 112.3202397  46.7057308  31.7089456 113.4288000  47.2656130
  30.4590614 111.8905620  44.5405210  29.6458480 112.1899791  44.9470402
  30.9549608 111.4961309  45.2579692  36.0564826 112.3547445  53.3720104
  36.4114213 112.5818918  54.2314570  36.7036957 112.6865822  52.7497359
  41.7862563 115.4765881  44.0769433  41.6480461 115.6667477  43.1490622
  41.4298781 116.2385264  44.5337484  29.9504689 109.4623976  50.1566445
  30.5904068 109.3212735  49.4589408  29.1182219 109.1758489  49.7805047
  41.8131942 117.5442408  49.0880704  42.2468449 117.4517697  49.9363759
  42.5263523 117.5199908  48.4500720  27.0347756 112.9069488  42.3461190
  26.1045344 112.8453944  42.5631152  27.1305228 112.3845441  41.5497831
  26.9533305 109.4324301  44.9339432  27.2140123 110.3469634  44.8248592
  27.7750478 108.9648744  45.0836045  28.4258231 110.8462058  52.1038256
  29.0981284 110.6379420  51.4550905  27.5988017 110.6484144  51.6643489
  42.6747492 117.5866108  51.6213590  42.8683382 118.4911919  51.8672865
  42.5748110 117.1273528  52.4552175  34.3283803 107.4723999  54.1203917
  33.6811718 108.1713949  54.0268394  35.0984818 107.9060143  54.4880165
  34.5047937 115.3104764  52.1800737  35.4339997 115.4615924  52.0069704
  34.0838967 115.3988785  51.3249383  37.7900676 116.0593065  37.6125172
  37.1729846 115.3339894  37.5158225  37.3217164 116.8202426  37.2692246
  31.4568028 113.8324620  52.3524373  32.1667647 113.1917813  52.3110992
  31.4137337 114.0837515  53.2750554  30.1696962 110.8189838  54.1720013
  29.6334319 110.3680577  54.8241609  29.5813671 110.9535747  53.4290477
  29.5799221 110.2778490  36.7346476  28.7028688 110.1567291  36.3708723
  30.0556974 109.4864568  36.4825365  25.9036084 109.9545846  51.2573007
  25.8194272 109.3471516  50.5223417  25.0818790 110.4454864  51.2582503
  36.0759798 108.4399410  46.6243202  36.5728497 107.6869372  46.3044272
  35.3046779 108.4763726  46.0586412  43.9289555 114.1439775  48.2661494
  43.9179431 115.0264490  47.8955427  43.0606934 113.7911326  48.0716031
  32.6594766 110.5816793  46.3514887  32.2892554 110.0287833  47.0395792
  33.1553859 109.9774926  45.7989887  40.5462130 113.0388416  44.7331660
  41.0122582 113.8716408  44.6591962  40.9969630 112.5733398  45.4376918
  38.5178792 105.4069003  48.7722561  37.6041872 105.6373230  48.9404768
  38.9471894 105.4907447  49.6236593  38.2885251 113.5958895  51.2722455
  37.6356701 113.8434802  50.6174908  38.6665631 112.7823033  50.9384932
  34.3372824 114.3378706  57.7588492  33.6613461 114.2372835  58.4290867
  35.1600458 114.1817920  58.2224489  28.0560100 107.9920783  52.5967993
  28.1201426 108.8535614  52.1845391  27.9927220 107.3794785  51.8640351
  27.5312373 110.0643916  56.2441027  28.1584411 109.6820993  56.8578551
  26.6740291 109.8458118  56.6096720  24.3077915 111.8720345  42.1759382
  24.6031356 110.9631023  42.1226436  23.4065951 111.8508084  41.8540384
  27.8372162 109.9476342  48.1586931  27.1158748 110.5612309  48.0194404
  28.6265418 110.4834106  48.0803576  30.6398476 107.2830768  54.4327582
  31.1632878 107.5293065  55.1953892  30.4210809 108.1150803  54.0130720
  26.0365757 109.5534443  42.2998707  25.7078463 108.6731822  42.1173813
  26.3905128 109.4982111  43.1875096  29.1507580 109.8407412  42.6674185
  29.4903653 110.3693334  41.9452793  29.5979700 110.1787819  43.4432751
  31.8451021 108.2244463  52.1177253  31.5047841 107.4252276  52.5197933
  31.1390027 108.5246174  51.5454086  32.4967493 105.3093776  50.5704576
  33.3193562 104.8354254  50.4483466  32.7405556 106.0884259  51.0703262
  31.1375727 108.3382034  40.8667478  31.8584090 108.7163287  40.3631194
  30.5141031 109.0570911  40.9702455  35.2806850 109.0427183  41.8025810
  35.4970464 109.9251821  41.5014638  34.8000917 108.6513396  41.0731452
  30.0206071 112.0012896  48.3796554  29.8750652 112.3153199  49.2720836
  29.5431275 112.6197797  47.8267453  31.8802454 108.9915444  48.4277444
  31.8664023 108.0956537  48.0909742  32.5974882 108.9986108  49.0615730
  33.7328585 109.4252784  50.4730571  33.4746363 110.3469855  50.4714902
  33.2013625 109.0283219  51.1631036  31.2839350 107.8729824  43.6965014
  31.4055261 106.9446471  43.8955902  30.9941393 107.8868510  42.7843330
  34.1530541 105.5584735  46.8331734  34.1752237 105.6224068  45.8783714
  34.5698600 104.7189244  47.0272240  44.5314165 115.2939994  44.8710957
  44.9745311 114.5447320  44.4730080  43.6540675 115.2850131  44.4884689
  30.7680430 109.3861822  57.9054947  30.8168585 110.2623945  57.5232716
  31.3102944 108.8439215  57.3326590  41.3733150 116.7795411  54.4988812
  41.4231155 116.6145419  55.4404335  41.2647074 115.9122670  54.1086693
  38.6636913 112.7626339  55.8148119  39.5646776 112.6232804  55.5232117
  38.7384887 112.9280794  56.7546297  32.9979718 110.1393194  54.6601305
  32.1283028 110.4326760  54.3883894  33.2339199 110.7233639  55.3808569
  44.0747030 116.7645233  47.2633404  44.9093921 117.2035037  47.4270965
  44.2106158 116.2883886  46.4441650  41.1238536 114.3224968  53.2110892
  41.5992657 114.5152614  52.4029743  40.2004101 114.3784153  52.9654276
  35.7018752 106.3572811  52.1766726  36.2200696 107.0933838  51.8513214
  35.3473885 106.6636804  53.0113485  27.2817690 111.2177492  40.2928132
  26.5886935 111.2921847  39.6368168  27.0369442 110.4537836  40.8149649
  35.9531346 102.7773094  47.6967622  36.2333100 102.1096283  48.3228049
  36.7381953 102.9702189  47.1842286  39.8240205 111.1990728  51.4439198
  40.7757627 111.2988825  51.4651422  39.6543655 110.4068996  51.9537282
  37.8454584 108.2846311  51.6298598  37.2504516 108.5651324  50.9345087
  37.5604281 108.7740212  52.4015340  42.3028282 114.4196847  50.5581497
  42.2704602 113.4812848  50.7441181  42.9128906 114.4980884  49.8247322
  34.1411613 113.2892900  36.6008701  35.0870718 113.1599108  36.6697119
  33.7625858 112.5507562  37.0778129  42.4522771 111.2107891  50.6039780
  41.9361819 110.4266347  50.4169709  43.3362719 110.8826607  50.7686300
  40.1133498 104.9548906  46.5635593  39.9158319 104.6463995  47.4478925
  40.7233203 105.6810545  46.6933523  48.1204832 115.4812854  49.6987534
  48.8508221 115.2198142  50.2595237  47.5111778 114.7441576  49.7389602
  46.2020129 113.6220717  50.2961985  45.4753293 113.4876682  49.6878477
  45.7867416 113.9297545  51.1018703  32.3254530 111.2142877  36.5363586
  31.4185986 110.9175989  36.6126300  32.6030511 110.9172695  35.6697873
  33.9416596 105.7579766  42.6907828  33.1317324 105.4126851  43.0663074
  34.6301013 105.4487310  43.2795439  35.8707144 104.8357813  44.3132124
  36.4238183 105.2553267  44.9722147  36.1077231 103.9093561  44.3555080
  31.8940244 110.8244887  60.0934888  31.7936971 111.7739244  60.0246979
  31.6761786 110.4963126  59.2210958  31.0953315 108.0729812  36.6775566
  31.9572479 108.3984710  36.9371383  31.2803659 107.2861308  36.1648631
  39.2485951 106.9458338  43.8210789  38.6684621 107.6043142  43.4388841
  38.9821884 106.1235683  43.4098206  37.6989518 106.3463396  46.0232109
  38.1989296 106.4579931  45.2146428  38.3425126 106.0424449  46.6632917
  38.0310829 109.1058429  42.8767137  37.1436685 109.3908079  42.6587332
  38.4464819 108.9452192  42.0294414  41.3825366 109.1304950  46.5921476
  42.1585756 109.6201402  46.8646093  40.6573500 109.5563004  47.0493346
  43.8197924 109.8432569  47.6495417  44.4142415 109.6028305  46.9388725
  43.8924508 109.1239700  48.2768953  38.0051853 114.6212965  43.0917427
  37.9487055 115.0781516  42.2525059  38.5580196 113.8603649  42.9140270
  41.8156659 110.4102697  43.9167547  41.5593593 110.0099332  44.7475754
  41.1909527 111.1246491  43.7917686  46.1268997 113.1498770  46.4238838
  45.5668555 113.2191959  47.1970400  45.5212500 112.9739754  45.7038334
  38.7386633 115.8117746  40.3869956  38.6835436 115.6462017  39.4458400
  38.1132688 116.5193779  40.5432146  23.5279148 111.0485810  54.2131378
  24.1738011 110.5384764  54.7018604  23.3196299 111.7854492  54.7874804
  32.0482758 105.3125855  39.9655275  32.0361428 106.2567695  40.1223545
  32.9406180 105.1296000  39.6714736  35.8634877 101.9068632  44.2201211
  35.0967273 101.3527118  44.3657894  36.2745582 101.9790500  45.0815363
  27.8676639 108.1953427  58.3106393  28.7308100 107.8390232  58.5209717
  27.2942049 107.8567322  58.9981797  47.2883263 119.0473126  51.1720902
  46.9447533 119.9374768  51.0960013  47.6562226 118.8574784  50.3090487
  49.0870929 118.3066685  46.2738640  49.3929806 117.4464049  45.9864555
  49.8123534 118.8984306  46.0737634  46.7925101 118.1065011  47.6967622
  47.0726854 117.4388200  48.3228049  47.5775708 118.2994107  47.1842286
  50.9527252 120.2840824  46.5635593  50.7552073 119.9755912  47.4478925
  51.5626958 121.0102463  46.6933523  46.7028632 117.2360549  44.2201211
  45.9361028 116.6819036  44.3657894  47.1139337 117.3082418  45.0815363
   4.3523400  31.0131696  33.6912596   3.5987109  30.4439094  33.5356601
   4.4870942  30.9794361  34.6383231   0.7172013  32.4539685  33.9878711
   1.5518904  32.8929489  34.1516271   0.8531142  31.9778338  33.1686957
   4.7629815  31.1707306  36.4232841   5.4933204  30.9092594  36.9840544
   4.1536761  30.4336028  36.4634909   2.8445113  29.3115169  37.0207292
   2.1178276  29.1771134  36.4123783   2.4292399  29.6191997  37.8264010
   0.4622908  25.5327021  34.3740723   1.0567398  25.2922757  33.6634032
   0.5349491  24.8134151  35.0014260   2.7693980  28.8393222  33.1484145
   2.2093538  28.9086411  33.9215707   2.1637484  28.6634206  32.4283641
   4.3549999  45.5149736  35.8414100   4.9928409  45.3956483  35.1377440
   4.2370842  46.4630580  35.9002052   1.1639705  45.4677164  35.7775625
   0.8258217  45.3518228  34.8896160   2.0329473  45.0668329  35.7576631
   1.6459488  46.6212016  41.7361831   1.6348129  46.2264814  40.8642334
   1.8080127  45.8878088  42.3295602   2.6026079  50.9883608  27.0786981
   1.9514059  51.5737688  26.6920995   3.3970442  51.5189803  27.1382018
   3.9091267  43.2401190  32.9167308   4.6954356  42.8220613  32.5657725
   4.1729972  44.1447282  33.0848957   4.0801345  48.6774040  27.6155965
   3.4447178  48.7508666  28.3276870   3.7498751  49.2667639  26.9375044
   9.3099694  43.1776423  33.8200287  10.0424866  42.6075640  34.0538116
   8.5539050  42.7898023  34.2606792   0.9275814  45.6003664  31.0163629
   0.5634021  45.0734285  31.7276551   1.7842930  45.2102133  30.8430115
   6.8325115  36.8897997  38.2794895   6.5008439  37.7593408  38.0556110
   6.2370728  36.5734281  38.9588926   3.3256634  49.0910543  37.6790808
   3.0257357  49.9935582  37.5706615   2.9807694  48.8242726  38.5311961
   6.7253778  41.6093083  35.3588246   5.8170655  41.5408491  35.0647006
   6.6741374  42.0865028  36.1870071   8.5915424  39.8109521  37.1366119
   7.9489805  40.1042055  36.4905914   8.0870353  39.6962442  37.9419316
   6.2455588  43.5572695  27.8251979   7.1573444  43.7900081  27.6499676
   5.7365235  44.1409739  27.2627057   4.5296356  47.9797322  41.4613271
   4.9379712  47.5379733  40.7167904   3.8073617  47.4049950  41.7147464
   0.8827426  42.9169929  38.8346828   1.7288621  43.3409343  38.9781477
   0.8226063  42.2603554  39.5285391   4.8525170  48.5398513  35.2165560
   4.2234033  48.7044227  34.5141628   4.4650832  48.9540123  35.9876524
   8.7314402  49.4752951  32.5709924   8.0465440  49.8551852  32.0206957
   8.8158252  50.0848278  33.3041872   4.0326871  40.5774298  40.4928002
   3.7887803  41.3316358  39.9562278   4.3086802  40.9559645  41.3275249
   5.9865334  47.1212910  39.1705267   6.1982229  47.7644670  38.4939649
   5.9395082  46.2875226  38.7027198   3.5891563  39.7330731  36.0741840
   2.7276042  40.0311984  36.3658577   3.6153998  39.9501129  35.1422872
   7.1011162  49.9984865  37.3427625   7.9228606  49.5965053  37.0610306
   7.0973565  49.8953100  38.2943741  15.1917155  46.3423614  33.6912596
  14.4380863  45.7731012  33.5356601  15.3264696  46.3086278  34.6383231
   0.5815783  51.2137016  29.3667316   0.4461458  52.0588552  29.7952163
   1.1225595  51.4156294  28.6033249   2.2084259  51.8360583  43.4967658
   1.7648114  51.0496961  43.1788562   2.8701473  52.0239733  42.8311548
   4.3065497  52.1163383  41.5249059   4.2883973  52.9372264  41.0329328
   5.2285417  51.9917458  41.7499200   3.9308247  34.7367578  37.8966209
   3.5872516  35.6269220  37.8205320   4.2987209  34.5469236  37.0335794
   3.8958529  44.7276189  26.4038644   3.3805153  45.4980794  26.6427032
   3.6235838  44.0541325  27.0271706   1.4805640  39.5725890  31.4623883
   0.6247237  39.1832740  31.2829521   1.8932592  39.6517851  30.6023668
   3.0104787  37.1072233  35.8615442   2.5069582  37.0702368  35.0483248
   3.3035394  38.0164976  35.9212099   8.8692803  47.4808544  28.3391818
   8.0922246  47.1419703  27.8946980   9.5484284  47.4861167  27.6646783
   3.6844832  42.6003281  28.2298425   3.3794968  42.9149430  29.0808569
   4.6375275  42.6784701  28.2725758   2.1291264  48.7593505  29.8791379
   1.6012626  48.0246264  29.5664617   1.6278767  49.5368181  29.6331348
   7.1084110  46.9542525  34.9958426   6.4507785  47.6441786  35.0838554
   7.9124509  47.3438957  35.3392412   5.9189569  45.3086898  33.0462367
   6.4321451  45.9416890  33.5484077   6.5690793  44.7088093  32.6805727
   3.1811943  55.2871222  25.8023039   2.5073642  55.5902919  26.4107996
   3.5677765  56.0900302  25.4528496   2.3970400  42.7836353  35.2920708
   1.4792961  43.0051300  35.1342396   2.8130544  42.8582664  34.4332415
   3.1805448  44.1827769  30.4223388   3.9277267  44.6949166  30.1130510
   3.4497037  43.8611822  31.2827782   1.4532098  46.6786310  27.4050342
   0.5443317  46.3945342  27.5022812   1.4827182  47.0985388  26.5453649
   6.6851365  50.2892899  31.1741510   6.2313692  49.4483809  31.2306701
   6.0545332  50.9254298  31.5116290   5.6284285  41.2184885  32.4042177
   4.8907042  40.7062271  32.7352420   5.8811058  40.7785267  31.5925454
   5.1284305  52.1269396  32.1091328   5.4207279  52.6874453  31.3903694
   5.6382925  52.4197957  32.8644487   5.7295912  33.9961137  32.9983947
   6.0354789  33.1358501  32.7109862   6.4548517  34.5878757  32.7982941
   1.1508186  48.2195053  24.7438421   0.7127616  47.5030912  24.2844058
   1.8918627  48.4471168  24.1823512   3.5383564  43.3733814  40.0965411
   3.8932951  43.6005288  40.9559876   4.1855695  43.7052191  39.4742666
   9.2681300  46.4952250  30.8014740   9.1299199  46.6853846  29.8735929
   8.9117519  47.2571633  31.2582791   9.2950680  48.5628777  35.8126011
   9.7287187  48.4704066  36.6609065  10.0082261  48.5386278  35.1746027
   3.0278575  52.1630871  37.3459112   3.0815597  52.7321808  38.1136828
   2.1593356  52.3332757  36.9813149  10.1566230  48.6052478  38.3458897
  10.3502120  49.5098289  38.5918171  10.0566848  48.1459897  39.1797482
   1.8102540  38.4910369  40.8449224   1.1630455  39.1900318  40.7513700
   2.5803556  38.9246513  41.2125472   5.2181338  48.7559221  43.9199777
   5.0666845  48.5269772  43.0029861   5.2086018  49.7129822  43.9331122
   1.9866675  46.3291134  38.9046044   2.9158735  46.4802293  38.7315011
   1.5657705  46.4175154  38.0494690   1.3803158  55.4550894  28.0170118
   1.5554914  54.9838938  28.8315740   0.6935946  56.0816661  28.2451378
   2.3360222  49.7323401  34.0633419   2.0010054  49.6924171  34.9591069
   1.8364167  49.0668117  33.5903829   5.2719413  47.0779435  24.3370479
   4.6548584  46.3526263  24.2403531   4.8035902  47.8388795  23.9937553
   6.9273545  51.7878343  41.9976259   6.8686091  51.1037563  41.3306842
   7.3293063  52.5297333  41.5456885   6.9290952  49.7517927  40.2290239
   6.0417731  49.4143849  40.3516638   7.4989503  49.0200958  40.4659004
   3.5578535  39.4585779  33.3488509   4.0547235  38.7055741  33.0289579
   2.7865517  39.4950096  32.7831718  11.4108293  45.1626145  34.9906800
  11.3998169  46.0450860  34.6200733  10.5425672  44.8097695  34.7961337
   2.9190789  54.3106214  39.3509641   3.6318761  54.9453678  39.2785542
   2.4280818  54.4070080  38.5349642   4.6408316  48.2157466  30.9226932
   3.7064595  48.3358929  30.7531637   4.8184985  47.3129933  30.6586942
   8.0280867  44.0574786  31.4576966   8.4941320  44.8902777  31.3837269
   8.4788368  43.5919767  32.1622225   6.0957099  50.4018607  28.4563118
   6.3716942  50.2875201  29.3656992   5.2261597  50.0036092  28.4175291
   5.9997530  36.4255373  35.4967868   5.0860610  36.6559599  35.6650075
   6.4290632  36.5093817  36.3481900   5.7703989  44.6145265  37.9967762
   5.1175439  44.8621172  37.3420214   6.1484369  43.8009403  37.6630239
   2.7311163  54.6504958  32.0995932   2.9133557  53.8326614  32.5623684
   3.5544149  54.8672650  31.6620822   3.0653328  53.5773143  29.3610980
   3.5941094  53.0665597  28.7481143   3.3281548  53.2615673  30.2256514
   1.8191562  45.3565076  44.4833799   1.1432199  45.2559205  45.1536174
   2.6419196  45.2004289  44.9469796   0.5614345  56.6632003  38.7191415
   1.1132653  56.8263625  39.4840500   0.9020538  57.2536441  38.0471440
   5.4125219  51.4893261  44.5740069   5.9565123  52.1023219  44.0795024
   4.8312064  52.0472839  45.0907082   3.6982732  54.6113979  35.7055097
   3.5733871  53.8103718  35.1966042   4.3561823  55.1060172  35.2169067
   5.7617640  52.4122999  37.3334647   4.8147976  52.2928350  37.2612974
   6.1100413  51.5245497  37.4160908   2.7664074  52.2075715  33.5338999
   2.6189036  51.2792422  33.7146569   3.5917567  52.2295806  33.0496075
   6.3698195  53.0304274  34.6203872   7.2944743  52.8247135  34.4828323
   6.2013499  52.7820675  35.5293214   2.7625588  40.0613553  28.5271117
   2.9789202  40.9438190  28.2259945   2.2819655  39.6699766  27.7976758
   1.2147323  40.4439154  37.1975878   0.9565101  41.3656225  37.1960209
   0.6832363  40.0469588  37.8876342   6.1593512  53.5489941  29.9765963
   6.3330389  52.9836364  29.2239816   6.6522403  54.3490836  29.7945453
   1.6349278  36.5771104  33.5577041   1.6570975  36.6410438  32.6029020
   2.0517337  35.7375613  33.7517547  12.0132903  46.3126364  31.5956263
  12.4564049  45.5633689  31.1975386  11.1359413  46.3036500  31.2129995
   7.1468684  52.8656705  27.0762862   7.8419589  53.4863398  27.2950176
   7.4891834  52.0152057  27.3515240   9.0460107  50.3156411  28.6050193
   9.5711431  50.6543684  27.8799513   8.9582460  49.3803426  28.4213327
   0.7080156  54.2290485  40.7340069   1.0167282  53.9839631  41.6062769
   1.5055638  54.4337123  40.2458939   8.7354013  50.9489315  43.9101390
   7.9449557  50.9313454  43.3705890   8.4987368  51.4877608  44.6650427
   8.8551888  47.7981781  41.2234119   8.9049893  47.6331788  42.1649642
   8.7465812  46.9309040  40.8332000   6.1455651  43.7812709  42.5393426
   7.0465513  43.6419174  42.2477424   6.2203625  43.9467164  43.4791603
  10.3570085  50.2178723  41.4676141  10.0654893  50.5808703  42.3039602
   9.7442216  49.5045731  41.2889473  11.5565767  47.7831602  33.9878711
  12.3912659  48.2221406  34.1516271  11.6924896  47.3070256  33.1686957
   8.6057273  45.3411337  39.9356199   9.0811395  45.5338983  39.1275050
   7.6822839  45.3970523  39.6899582   3.1837490  37.3759181  38.9012032
   3.7019434  38.1120208  38.5758521   2.8292623  37.6823174  39.7358792
   3.4350084  33.7959463  34.4212929   3.7151838  33.1282652  35.0473356
   4.2200691  33.9888559  33.9087593   1.2383552  52.9718457  25.9837955
   0.6657520  53.5908644  25.5308427   1.8116346  53.5217819  26.5177877
   7.3058942  42.2177097  38.1684504   8.2576365  42.3175195  38.1896728
   7.1362393  41.4255366  38.6782589   5.3273322  39.3032680  38.3543905
   4.7323254  39.5837693  37.6590394   5.0423019  39.7926581  39.1260646
   4.4580812  53.2555607  27.1146538   5.3911485  53.1901169  27.3179413
   4.3704025  54.0911874  26.6561070   7.0868829  52.5721478  24.0750485
   7.0082460  52.2381341  24.9686243   7.9078496  53.0643246  24.0741958
   9.7847020  45.4383217  37.2826804   9.7523340  44.4999218  37.4686488
  10.3947644  45.5167254  36.5492629   1.6230351  44.3079270  23.3254008
   2.5689456  44.1785478  23.3942426   1.2444596  43.5693932  23.8023436
   9.9341509  42.2294260  37.3285087   9.4180557  41.4452717  37.1415016
  10.8181457  41.9012977  37.4931606   7.5952236  35.9735276  33.2880900
   7.3977057  35.6650364  34.1724232   8.2051941  36.6996915  33.4178830
  15.6023570  46.4999224  36.4232841  16.3326958  46.2384512  36.9840544
  14.9930515  45.7627946  36.4634909  13.6838867  44.6407086  37.0207292
  12.9572031  44.5063051  36.4123783  13.2686154  44.9483915  37.8264010
   1.5069044  48.3597016  44.7854665   2.4272053  48.5375615  44.9794711
   1.4718627  47.4153061  44.6334364   1.4235334  36.7766136  29.4153134
   0.6136062  36.4313221  29.7908380   2.1119751  36.4673680  30.0040746
   3.3525882  35.8544183  31.0377431   3.9056921  36.2739636  31.6967454
   3.5895969  34.9279931  31.0800387   6.7304689  37.9644708  30.5456095
   6.1503358  38.6229512  30.1634148   6.4640622  37.1422053  30.1343513
   5.1808256  37.3649766  32.7477416   5.6808034  37.4766300  31.9391734
   5.8243864  37.0610819  33.3878224   5.5129567  40.1244798  29.6012444
   4.6255422  40.4094449  29.3832638   5.9283556  39.9638562  28.7539720
   8.8644103  40.1491319  33.3166783   9.6404494  40.6387772  33.5891400
   8.1392238  40.5749374  33.7738652  11.3016662  40.8618939  34.3740723
  11.8961153  40.6214675  33.6634032  11.3743246  40.1426069  35.0014260
   4.6572781  49.8889473  23.6960464   5.3608631  50.0939476  24.3118119
   3.9335430  50.4566235  23.9609547   5.4870591  45.6399334  29.8162734
   5.4305792  46.0967886  28.9770366   6.0398933  44.8790019  29.6385576
   9.2975397  41.4289066  30.6412853   9.0412331  41.0285702  31.4721061
   8.6728265  42.1432860  30.5162992  13.6087735  44.1685139  33.1484145
  13.0487293  44.2378329  33.9215707  13.0031238  43.9926124  32.4283641
   6.5659478  50.3272002  25.7458924   7.4005082  49.8953201  25.5636398
   6.4043821  50.1554016  26.6735818   6.2205370  46.8304116  27.1115263
   6.1654174  46.6648387  26.1703707   5.5951426  47.5380148  27.2677453
   3.5351278  49.1353027  46.4368826   4.4042437  49.3093680  46.0755461
   3.0558029  49.9547444  46.3144555   3.3453615  32.9255001  30.9446518
   2.5786011  32.3713488  31.0903200   3.7564320  32.9976870  31.8060670
  15.1943753  60.8441653  35.8414100  15.8322163  60.7248401  35.1377440
  15.0764596  61.7922497  35.9002052  12.0033460  60.7969081  35.7775625
  11.6651971  60.6810146  34.8896160  12.8723228  60.3960247  35.7576631
   7.8620275  62.6504558  31.7672516   7.2985140  62.5594495  30.9988804
   7.7472670  61.8304462  32.2475008  12.4853243  61.9503933  41.7361831
  12.4741883  61.5556731  40.8642334  12.6473882  61.2170006  42.3295602
   5.4084707  64.1455749  34.6056736   6.2005999  63.8046574  34.1903036
   5.6481357  64.2550725  35.5258890  13.4419834  66.3175526  27.0786981
  12.7907814  66.9029606  26.6920995  14.2364197  66.8481720  27.1382018
   7.3675461  63.4064663  27.4774115   8.1406337  62.8593650  27.3386991
   7.7200860  64.2708912  27.6888577   9.2060504  64.7341045  40.6841015
   8.9150370  65.6386676  40.5687681   9.8417488  64.7757573  41.3985084
  10.1316711  62.1117894  37.2742374  10.7280283  61.8873916  36.5599337
  10.1891682  61.3702639  37.8767822   9.7041739  59.5657329  25.1092565
   9.9567260  59.0438850  24.3476028   8.7666298  59.4023474  25.2119249
  14.7485022  58.5693107  32.9167308  15.5348111  58.1512530  32.5657725
  15.0123726  59.4739199  33.0848957  14.9195099  64.0065958  27.6155965
  14.2840932  64.0800584  28.3276870  14.5892505  64.5959556  26.9375044
  20.1493449  58.5068340  33.8200287  20.8818621  57.9367557  34.0538116
  19.3932805  58.1189941  34.2606792   9.4238028  61.4685435  27.3116940
   9.3074286  60.7930338  27.9798024   9.5340288  60.9817809  26.4949093
  11.7669569  60.9295582  31.0163629  11.4027776  60.4026203  31.7276551
  12.6236684  60.5394051  30.8430115  17.6718869  52.2189915  38.2794895
  17.3402194  53.0885325  38.0556110  17.0764483  51.9026199  38.9588926
  11.4075056  55.9585482  26.0124978  11.5749458  56.8265718  26.3795449
  11.2172225  56.1212763  25.0886267  14.1650389  64.4202461  37.6790808
  13.8651112  65.3227499  37.5706615  13.8201448  64.1534644  38.5311961
   7.6162870  60.8716257  33.7127513   6.6913367  60.7392471  33.9205204
   7.8647283  61.6510477  34.2097455  17.5647533  56.9385001  35.3588246
  16.6564410  56.8700409  35.0647006  17.5135128  57.4156946  36.1870071
  11.3864276  58.4143139  26.9971645  11.2663902  58.8600190  27.8357125
  10.6916865  58.7628457  26.4385183   4.9771681  60.5149531  34.5471302
   5.1064062  60.7684010  35.4610713   4.2969133  61.1077239  34.2275957
   9.1471169  71.1846781  30.6461776   9.0695198  72.1354606  30.7250256
   8.5432812  70.8392653  31.3036702  11.6388398  58.3574646  43.3023143
  10.8621732  58.9168566  43.2926007  12.2778961  58.8431429  43.8238013
  19.4309179  55.1401439  37.1366119  18.7883559  55.4333972  36.4905914
  18.9264107  55.0254359  37.9419316  17.0849343  58.8864612  27.8251979
  17.9967199  59.1191999  27.6499676  16.5758990  59.4701656  27.2627057
   9.8934771  61.1660100  42.8641110  10.6349455  61.7045144  42.5875933
   9.1871756  61.7926388  43.0212662  15.3690110  63.3089240  41.4613271
  15.7773466  62.8671651  40.7167904  14.6467372  62.7341868  41.7147464
  11.7221180  58.2461847  38.8346828  12.5682375  58.6701260  38.9781477
  11.6619818  57.5895471  39.5285391  15.6918925  63.8690431  35.2165560
  15.0627787  64.0336145  34.5141628  15.3044587  64.2832040  35.9876524
  19.5708157  64.8044869  32.5709924  18.8859195  65.1843770  32.0206957
  19.6552006  65.4140195  33.3041872  14.8720626  55.9066215  40.4928002
  14.6281558  56.6608276  39.9562278  15.1480556  56.2851563  41.3275249
  16.8259088  62.4504828  39.1705267  17.0375984  63.0936587  38.4939649
  16.7788837  61.6167144  38.7027198  14.4285317  55.0622648  36.0741840
  13.5669796  55.3603902  36.3658577  14.4547752  55.2793047  35.1422872
  11.2446887  63.6064839  32.4815645  11.7085232  63.8852542  31.6920268
  10.9803685  62.7048283  32.2988736   8.1370968  63.1536320  35.4195409
   8.7072325  63.5823589  34.7812893   8.7279080  62.8718905  36.1179594
  10.1815773  59.7287991  29.2905210  10.8839816  60.1809035  29.7579137
   9.8496401  59.0871810  29.9185104   8.6296134  58.3199748  43.6656420
   7.9994795  59.0016029  43.8991817   8.5232222  58.2082829  42.7209558
   3.9241107  57.9871544  34.5922344   3.1340161  58.2429072  34.1162455
   4.4152354  58.8019882  34.6974385  17.9404916  65.3276783  37.3427625
  18.7622360  64.9256970  37.0610306  17.9367319  65.2245017  38.2943741
   5.8755852  58.3516123  31.5505821   5.0787015  58.4634817  32.0689316
   5.6481444  58.6902775  30.6846711  11.7061520  64.8760826  39.4988335
  11.7705952  65.3381234  40.3346507  10.9972444  64.2458191  39.6270645
   2.2078810  58.2402034  37.0237335   2.4586848  59.1249044  37.2894911
   2.7438358  58.0606636  36.2512427  26.0310909  61.6715532  33.6912596
  25.2774618  61.1022930  33.5356601  26.1658451  61.6378196  34.6383231
  11.4209537  66.5428934  29.3667316  11.2855212  67.3880470  29.7952163
  11.9619350  66.7448211  28.6033249   7.9076877  52.6220514  46.0281671
   7.5143823  52.0686712  46.7029315   8.7243017  52.9331092  46.4188188
   4.8738935  64.0604372  29.9395241   5.3863455  64.8547622  30.0900805
   5.5261648  63.3630662  29.8728842   6.6833820  67.1770128  32.0217994
   6.8600448  68.0988093  31.8338978   7.4790653  66.8628547  32.4512374
  10.8244838  54.0378393  43.6201927  11.5654551  54.6385546  43.5406390
  11.0562761  53.2956031  43.0619970   5.9686176  59.2234760  41.8980157
   5.8539691  58.3220017  42.1987256   5.1130694  59.4698457  41.5464974
  13.0478014  67.1652500  43.4967658  12.6041868  66.3788879  43.1788562
  13.7095227  67.3531651  42.8311548   7.8065135  68.6948302  38.0228336
   8.3572560  68.5665365  37.2505330   6.9676611  68.9943191  37.6723229
  15.1459252  67.4455300  41.5249059  15.1277727  68.2664181  41.0329328
  16.0679172  67.3209375  41.7499200  11.6032306  64.9599430  42.3672567
  12.1360643  64.1987718  42.1371875  11.0746387  64.6673082  43.1096722
  14.7702001  50.0659496  37.8966209  14.4266270  50.9561137  37.8205320
  15.1380964  49.8761153  37.0335794   2.8387852  62.3893026  30.7154811
   3.6763074  62.7990035  30.4988519   3.0166119  61.4492468  30.6855005
  14.7352284  60.0568107  26.4038644  14.2198907  60.8272711  26.6427032
  14.4629592  59.3833243  27.0271706  12.3199395  54.9017808  31.4623883
  11.4640991  54.5124658  31.2829521  12.7326347  54.9809768  30.6023668
  13.8498541  52.4364151  35.8615442  13.3463337  52.3994286  35.0483248
  14.1429148  53.3456894  35.9212099  10.0941427  52.5202881  34.8681624
  10.9594424  52.3245689  34.5087514  10.1618936  52.2913232  35.7950981
  19.7086558  62.8100461  28.3391818  18.9316001  62.4711621  27.8946980
  20.3878039  62.8153085  27.6646783  14.5238587  57.9295199  28.2298425
  14.2188722  58.2441348  29.0808569  15.4769029  58.0076619  28.2725758
  12.9685019  64.0885422  29.8791379  12.4406380  63.3538182  29.5664617
  12.4672521  64.8660099  29.6331348  17.9477865  62.2834443  34.9958426
  17.2901539  62.9733704  35.0838554  18.7518264  62.6730875  35.3392412
   7.7003746  54.7505088  32.2397991   8.2747498  54.5280270  31.5071184
   8.2874729  54.8193783  32.9926592  16.7583324  60.6378815  33.0462367
  17.2715205  61.2708807  33.5484077  17.4084547  60.0380011  32.6805727
   8.0273333  56.7809550  26.2593876   7.1910646  57.1184236  26.5803151
   7.8878103  56.6458529  25.3221013  10.0026414  51.6246337  30.9673060
   9.3490826  51.3095355  30.3429675   9.9606888  51.0022078  31.6932883
  11.1137619  61.9065632  22.8826352  10.2064681  61.6754886  23.0817501
  11.6108651  61.1103252  23.0700334  14.0205698  70.6163140  25.8023039
  13.3467397  70.9194836  26.4107996  14.4071520  71.4192220  25.4528496
  13.2364154  58.1128271  35.2920708  12.3186716  58.3343218  35.1342396
  13.6524298  58.1874581  34.4332415  14.0199202  59.5119687  30.4223388
  14.7671021  60.0241084  30.1130510  14.2890792  59.1903739  31.2827782
  12.2925852  62.0078227  27.4050342  11.3837072  61.7237260  27.5022812
  12.3220936  62.4277306  26.5453649  17.5245120  65.6184817  31.1741510
  17.0707447  64.7775727  31.2306701  16.8939086  66.2546215  31.5116290
  16.4678039  56.5476803  32.4042177  15.7300796  56.0354189  32.7352420
  16.7204813  56.1077184  31.5925454  15.9678059  67.4561314  32.1091328
  16.2601033  68.0166371  31.3903694  16.4776680  67.7489875  32.8644487
  16.5689667  49.3253055  32.9983947  16.8748543  48.4650418  32.7109862
  17.2942271  49.9170675  32.7982941   2.8614023  59.7283741  31.3865545
   2.6638423  59.1353102  30.6616611   2.3060687  59.4235952  32.1041483
  10.8410746  59.6206848  33.5060138  10.8959356  58.6680684  33.4302614
  10.0301948  59.7766287  33.9901436  11.9901940  63.5486971  24.7438421
  11.5521370  62.8322830  24.2844058  12.7312381  63.7763086  24.1823512
   8.7803106  58.2383908  31.2650517   7.9670972  58.5378078  31.6715709
   9.2762101  57.8439596  31.9824999  10.9311684  68.2341665  33.1984781
  10.8887863  68.4602511  32.2693313  11.8474383  68.0005039  33.3470583
  14.3777318  58.7025732  40.0965411  14.7326706  58.9297205  40.9559876
  15.0249449  59.0344109  39.4742666  20.1075055  61.8244168  30.8014740
  19.9692954  62.0145764  29.8735929  19.7511274  62.5863551  31.2582791
   8.2717181  55.8102263  36.8811752   8.9116560  55.6691022  36.1834715
   7.4394712  55.5236777  36.5050354  20.1344435  63.8920695  35.8126011
  20.5680941  63.7995984  36.6609065  20.8476015  63.8678196  35.1746027
   9.0477485  65.1104694  32.9946744   9.8418083  64.6155014  32.7929319
   8.3369177  64.5822557  32.6314450  13.8672329  67.4922789  37.3459112
  13.9209352  68.0613725  38.1136828  12.9987111  67.6624674  36.9813149
   5.3560248  59.2547775  29.0706497   4.4257837  59.1932231  29.2876459
   5.4517720  58.7323728  28.2743138   5.2745798  55.7802588  31.6584738
   5.5352615  56.6947921  31.5493899   6.0962970  55.3127031  31.8081351
   6.7470723  57.1940345  38.8283563   7.4193776  56.9857707  38.1796212
   5.9200509  56.9962431  38.3888795  20.9959984  63.9344396  38.3458897
  21.1895874  64.8390206  38.5918171  20.8960602  63.4751815  39.1797482
  12.6496295  53.8202286  40.8449224  12.0024210  54.5192236  40.7513700
  13.4197310  54.2538430  41.2125472  16.0575093  64.0851138  43.9199777
  15.9060599  63.8561690  43.0029861  16.0479772  65.0421740  43.9331122
  12.8260429  61.6583051  38.9046044  13.7552489  61.8094211  38.7315011
  12.4051459  61.7467072  38.0494690  11.6248761  65.6833716  36.6744581
  11.4859847  65.3152500  37.5470519  10.8363357  66.1981355  36.5028539
  12.2196913  70.7842812  28.0170118  12.3948669  70.3130855  28.8315740
  11.5329701  71.4108578  28.2451378  13.1753976  65.0615318  34.0633419
  12.8403809  65.0216088  34.9591069  12.6757922  64.3960034  33.5903829
   7.1498220  60.4682948  39.5886000   7.0118018  59.7363187  40.1897539
   8.0603144  60.3791848  39.3070188  16.1113168  62.4071353  24.3370479
  15.4942338  61.6818181  24.2403531  15.6429656  63.1680713  23.9937553
   9.7780521  60.1802908  39.0769680  10.4880139  59.5396100  39.0356298
   9.7349829  60.4315803  39.9995861  17.7667299  67.1170261  41.9976259
  17.7079846  66.4329481  41.3306842  18.1686818  67.8589251  41.5456885
   8.4909455  57.1668126  40.8965319   7.9546812  56.7158864  41.5486916
   7.9026163  57.3014034  40.1535784   6.7857998  73.9332175  34.7909978
   7.0254596  74.5650699  35.4688996   5.9427195  73.5820215  35.0775337
   7.9011714  56.6256777  23.4591783   7.0241180  56.5045578  23.0954030
   8.3769467  55.8342855  23.2070672  17.7684707  65.0809845  40.2290239
  16.8811485  64.7435767  40.3516638  18.3383258  64.3492876  40.4659004
   4.2248576  56.3024133  37.9818314   4.1406765  55.6949803  37.2468724
   3.4031282  56.7933152  37.9827810  11.2985860  69.7411297  37.1951482
  11.2256032  70.5466269  37.7070786  10.8563253  69.9403263  36.3699503
  11.0875640  68.9783067  30.7054303  10.3043162  69.5204748  30.7992528
  11.7868385  69.4957047  31.1048545  14.3972290  54.7877697  33.3488509
  14.8940989  54.0347659  33.0289579  13.6259271  54.8242013  32.7831718
  22.2502047  60.4918062  34.9906800  22.2391923  61.3742778  34.6200733
  21.3819427  60.1389613  34.7961337  13.7584544  69.6398131  39.3509641
  14.4712516  70.2745596  39.2785542  13.2674572  69.7361997  38.5349642
  15.4802071  63.5449384  30.9226932  14.5458349  63.6650846  30.7531637
  15.6578739  62.6421851  30.6586942  10.9807259  56.9295080  33.0760193
  10.6105046  56.3766120  33.7641099  11.4766351  56.3253213  32.5235193
  18.8674622  59.3866703  31.4576966  19.3335074  60.2194695  31.3837269
  19.3182122  58.9211685  32.1622225   8.8096457  67.3892575  40.1715211
   9.5105917  68.0229058  40.3244606   8.3391572  67.7307306  39.4110851
  16.9350853  65.7310525  28.4563118  17.2110697  65.6167119  29.3656992
  16.0655352  65.3328009  28.4175291  16.8391285  51.7547290  35.4967868
  15.9254364  51.9851517  35.6650075  17.2684386  51.8385734  36.3481900
  16.6097743  59.9437182  37.9967762  15.9569193  60.1913090  37.3420214
  16.9878123  59.1301320  37.6630239  13.5704917  69.9796875  32.0995932
  13.7527312  69.1618531  32.5623684  14.3937903  70.1964568  31.6620822
  13.9047083  68.9065061  29.3610980  14.4334849  68.3957515  28.7481143
  14.1675302  68.5907591  30.2256514  12.6585316  60.6856993  44.4833799
  11.9825953  60.5851123  45.1536174  13.4812950  60.5296207  44.9469796
   4.4064175  66.9228930  37.1046314   4.9917612  66.1772618  37.2374218
   4.2089014  67.2332887  37.9882978   7.2602830  69.9580177  32.1208756
   6.5913206  70.4426305  31.6372796   7.1215700  70.2049398  33.0352135
  11.4008099  71.9923921  38.7191415  11.9526407  72.1555542  39.4840500
  11.7414292  72.5828359  38.0471440   6.3772592  54.3399071  39.3213299
   6.4413919  55.2013901  38.9090697   6.3139713  53.7273072  38.5885658
   5.8524865  56.4122203  42.9686334   6.4796904  56.0299280  43.5823858
   4.9952784  56.1936405  43.3342026  16.2518973  66.8185178  44.5740069
  16.7958877  67.4315137  44.0795024  15.6705818  67.3764757  45.0907082
   2.6290408  58.2198632  28.9004689   2.9243849  57.3109311  28.8471742
   1.7278443  58.1986372  28.5785691  14.5376486  69.9405896  35.7055097
  14.4127626  69.1395636  35.1966042  15.1955577  70.4352090  35.2169067
   6.1584655  56.2954629  34.8832237   5.4371240  56.9090596  34.7439710
   6.9477910  56.8312394  34.8048883  16.6011395  67.7414916  37.3334647
  15.6541730  67.6220268  37.2612974  16.9494168  66.8537414  37.4160908
   8.9610968  53.6309055  41.1572889   9.4845370  53.8771352  41.9199198
   8.7423301  54.4629090  40.7376026   4.3578249  55.9012730  29.0244014
   4.0290955  55.0210109  28.8419120   4.7117620  55.8460399  29.9120403
  13.6057828  67.5367633  33.5338999  13.4582790  66.6084340  33.7146569
  14.4311321  67.5587723  33.0496075   7.4720072  56.1885700  29.3919491
   7.8116145  56.7171621  28.6698100   7.9192193  56.5266106  30.1678058
  17.2091950  68.3596191  34.6203872  18.1338497  68.1539053  34.4828323
  17.0407253  68.1112592  35.5293214  10.1663513  54.5722750  38.8422559
   9.8260333  53.7730563  39.2443239   9.4602519  54.8724461  38.2699393
  10.8179985  51.6572063  37.2949882  11.6406054  51.1832541  37.1728773
  11.0618048  52.4362547  37.7948569   9.4588219  54.6860321  27.5912784
  10.1796582  55.0641574  27.0876501   8.8353524  55.4049198  27.6947762
  13.6019342  55.3905470  28.5271117  13.8182957  56.2730108  28.2259945
  13.1213409  54.9991684  27.7976758   8.3418564  58.3491183  35.1041861
   8.1963144  58.6631487  35.9966143   7.8643767  58.9676084  34.5512760
  10.2014947  55.3393731  35.1522751  10.1876515  54.4434825  34.8155049
  10.9187375  55.3464395  35.7861037  12.0541077  55.7731072  37.1975878
  11.7958855  56.6948142  37.1960209  11.5226118  55.3761506  37.8876342
  16.9987266  68.8781859  29.9765963  17.1724144  68.3128281  29.2239816
  17.4916157  69.6782754  29.7945453   2.8164226  60.8896528  38.0429522
   2.2717694  61.6656336  38.1749797   3.6943576  61.2367332  37.8848644
   9.6051843  54.2208112  30.4210321   9.7267754  53.2924758  30.6201208
   9.3153885  54.2346798  29.5088636  12.4743033  51.9063022  33.5577041
  12.4964730  51.9702355  32.6029020  12.8911092  51.0667531  33.7517547
  22.8526657  61.6418282  31.5956263  23.2957803  60.8925607  31.1975386
  21.9753168  61.6328418  31.2129995  17.9862439  68.1948623  27.0762862
  18.6813343  68.8155316  27.2950176  18.3285589  67.3443974  27.3515240
   3.6030248  60.0166424  40.9359679   2.8611984  60.1649059  41.5224310
   3.2822992  60.2774690  40.0726429  19.8853862  65.6448329  28.6050193
  20.4105186  65.9835601  27.8799513  19.7976214  64.7095344  28.4213327
  11.5473910  69.5582402  40.7340069  11.8561037  69.3131549  41.6062769
  12.3449392  69.7629041  40.2458939  11.5694522  71.7120312  32.9645446
  11.1299513  71.2196691  33.6578302  12.3202639  71.1693280  32.7237521
   4.0486861  67.9031853  32.9670074   4.8744881  67.6035625  32.5868717
   3.6980913  67.1339475  33.4159862   9.0168395  67.2558321  35.0367747
   8.3948404  66.5929026  34.7369975   9.6873261  67.2819453  34.3541395
   2.2495466  65.8218179  33.9259007   1.4127375  65.3940354  33.7443009
   2.2219112  66.0150623  34.8629799   9.0892922  55.7340109  44.6300253
   9.1381078  56.6102232  44.2478023   9.6315436  55.1917502  44.0571897
  19.5747768  66.2781232  43.9101390  18.7843311  66.2605371  43.3705890
  19.3381122  66.8169526  44.6650427  19.6945643  63.1273699  41.2234119
  19.7443648  62.9623706  42.1649642  19.5859566  62.2600958  40.8332000
   8.5781901  65.8062244  28.5126208   8.7270022  66.4897709  27.8592881
   9.3848345  65.7867334  29.0275664  16.9849405  59.1104627  42.5393426
  17.8859268  58.9711092  42.2477424  17.0597380  59.2759082  43.4791603
  11.3192210  56.4871481  41.3846612  10.4495520  56.7805048  41.1129201
  11.5551691  57.0711926  42.1053876  21.1963840  65.5470640  41.4676141
  20.9048648  65.9100621  42.3039602  20.5835971  64.8337649  41.2889473
  22.3959522  63.1123520  33.9878711  23.2306413  63.5513324  34.1516271
  22.5318651  62.6362173  33.1686957  19.4451028  60.6703255  39.9356199
  19.9205149  60.8630901  39.1275050  18.5216593  60.7262441  39.6899582
   6.3334534  61.8327422  29.5187277   6.0880576  60.9289752  29.7167487
   6.5030449  61.8344572  28.5766755  14.0231244  52.7051098  38.9012032
  14.5413188  53.4412125  38.5758521  13.6686377  53.0115092  39.7358792
   5.6030182  57.5655780  27.0173438   4.9099427  57.6400135  26.3613474
   5.3581934  56.8016123  27.5394955  14.2743838  49.1251381  34.4212929
  14.5545592  48.4574570  35.0473356  15.0594445  49.3180477  33.9087593
  12.0777307  68.3010375  25.9837955  11.5051274  68.9200562  25.5308427
  12.6510101  68.8509737  26.5177877  18.1452697  57.5469015  38.1684504
  19.0970120  57.6467113  38.1896728  17.9756147  56.7547283  38.6782589
  16.1667076  54.6324598  38.3543905  15.5717008  54.9129611  37.6590394
  15.8816773  55.1218499  39.1260646  15.2974567  68.5847525  27.1146538
  16.2305240  68.5193087  27.3179413  15.2097780  69.4203792  26.6561070
  17.9262583  67.9013395  24.0750485  17.8476215  67.5673259  24.9686243
  18.7472250  68.3935163  24.0741958  20.6240775  60.7675135  37.2826804
  20.5917095  59.8291135  37.4686488  21.2341398  60.8459171  36.5492629
  12.4624105  59.6371188  23.3254008  13.4083210  59.5077396  23.3942426
  12.0838350  58.8985850  23.8023436  20.7735263  57.5586178  37.3285087
  20.2574312  56.7744635  37.1415016  21.6575212  57.2304895  37.4931606
  18.4345990  51.3027194  33.2880900  18.2370811  50.9942282  34.1724232
  19.0445696  52.0288833  33.4178830  26.4417324  61.8291141  36.4232841
  27.1720713  61.5676430  36.9840544  25.8324270  61.0919863  36.4634909
  24.5232622  59.9699004  37.0207292  23.7965785  59.8354969  36.4123783
  24.1079908  60.2775833  37.8264010  12.3462798  63.6888934  44.7854665
  13.2665807  63.8667533  44.9794711  12.3112381  62.7444979  44.6334364
  10.6467023  57.5621164  23.2608893   9.7398478  57.2654277  23.3371607
  10.9243004  57.2650982  22.3943179   1.5644963  58.8827527  33.7107939
   1.2447747  58.0292836  33.4182313   1.0178391  59.0976106  34.4665907
   5.3424871  61.5989968  37.4277446   5.5610880  62.5307076  37.4465480
   5.7550644  61.2397943  38.2132250  12.2629088  52.1058054  29.4153134
  11.4529817  51.7605139  29.7908380  12.9513505  51.7965597  30.0040746
  14.1919637  51.1836101  31.0377431  14.7450675  51.6031554  31.6967454
  14.4289723  50.2571849  31.0800387  10.2152736  57.1723174  46.8180195
  10.1149463  58.1217531  46.7492286   9.9974278  56.8441413  45.9456265
   9.4165807  54.4208099  23.4020872  10.2784971  54.7462998  23.6616690
   9.6016151  53.6339595  22.8893938   1.4333223  62.5030439  35.6801061
   0.7396694  62.0884392  35.1671015   2.1806214  62.5450975  35.0834480
  17.5698444  53.2936626  30.5456095  16.9897113  53.9521430  30.1634148
  17.3034376  52.4713970  30.1343513  16.0202010  52.6941683  32.7477416
  16.5201788  52.8058218  31.9391734  16.6637618  52.3902736  33.3878224
  10.0784006  60.6020313  45.6345257   9.5951088  61.4020673  45.8409146
  10.1644945  60.6128258  44.6812701   3.3469966  62.4348693  33.5567076
   3.3240654  62.5336380  32.6048959   3.6570602  63.2813843  33.8784242
   6.0057343  64.4924848  37.6713690   6.9600597  64.4608790  37.6043622
   5.8069867  64.0315471  38.4863916   6.5956726  63.0625964  40.2384488
   7.4149615  63.5570042  40.2619325   6.8693533  62.1457932  40.2102056
  16.3523322  55.4536716  29.6012444  15.4649177  55.7386367  29.3832638
  16.7677311  55.2930479  28.7539720  19.7037858  55.4783237  33.3166783
  20.4798248  55.9679689  33.5891400  18.9785992  55.9041291  33.7738652
  22.1410417  56.1910856  34.3740723  22.7354907  55.9506592  33.6634032
  22.2137000  55.4717987  35.0014260   4.3607572  70.0344467  34.6883888
   4.2262040  69.2744868  34.1221886   3.9439634  70.7585367  34.2212677
  15.4966535  65.2181391  23.6960464  16.2002385  65.4231393  24.3118119
  14.7729184  65.7858153  23.9609547  16.3264346  60.9691252  29.8162734
  16.2699547  61.4259803  28.9770366  16.8792688  60.2081937  29.6385576
  20.1369151  56.7580984  30.6412853  19.8806086  56.3577620  31.4721061
  19.5122019  57.4724778  30.5162992  24.4481489  59.4977057  33.1484145
  23.8881047  59.5670246  33.9215707  23.8424993  59.3218042  32.4283641
   7.5176698  70.9313784  34.9002331   7.4009082  71.8759217  34.7981021
   6.6969144  70.6287346  35.2888130  17.4053233  65.6563920  25.7458924
  18.2398837  65.2245118  25.5636398  17.2437576  65.4845934  26.6735818
  17.0599125  62.1596033  27.1115263  17.0047929  61.9940305  26.1703707
  16.4345180  62.8672066  27.2677453   1.8491640  57.3964098  40.9376685
   2.4950503  56.8863052  41.4263910   1.6408791  58.1332779  41.5120110
  14.3745032  64.4644945  46.4368826  15.2436192  64.6385597  46.0755461
  13.8951783  65.2839362  46.3144555  10.3695250  51.6604142  26.6900581
  10.3573920  52.6045982  26.8468852  11.2618672  51.4774288  26.3960042
   8.5431212  71.5842046  38.1158259   9.4458459  71.6165656  38.4324754
   8.3168582  70.6542497  38.1304595  10.2984814  70.3373033  34.7768338
   9.3480445  70.3374894  34.6632710  10.6017300  69.5905767  34.2604373
  14.1847370  48.2546919  30.9446518  13.4179766  47.7005406  31.0903200
  14.5958075  48.3268788  31.8060670   6.1889131  54.5431715  45.0351699
   7.0520592  54.1868520  45.2455024   5.6154541  54.2045610  45.7227104
  26.0337508  76.1733571  35.8414100  26.6715918  76.0540318  35.1377440
  25.9158351  77.1214415  35.9002052  22.8427214  76.1260999  35.7775625
  22.5045726  76.0102064  34.8896160  23.7116982  75.7252164  35.7576631
  18.7014030  77.9796476  31.7672516  18.1378895  77.8886412  30.9988804
  18.5866425  77.1596380  32.2475008  23.3246997  77.2795851  41.7361831
  23.3135638  76.8848649  40.8642334  23.4867636  76.5461923  42.3295602
  16.2478462  79.4747667  34.6056736  17.0399754  79.1338492  34.1903036
  16.4875112  79.5842642  35.5258890  24.2813588  81.6467443  27.0786981
  23.6301568  82.2321524  26.6920995  25.0757951  82.1773638  27.1382018
  18.2069216  78.7356580  27.4774115  18.9800092  78.1885567  27.3386991
  18.5594614  79.6000830  27.6888577  20.0454258  80.0632963  40.6841015
  19.7544124  80.9678594  40.5687681  20.6811242  80.1049490  41.3985084
  20.9710465  77.4409811  37.2742374  21.5674037  77.2165834  36.5599337
  21.0285437  76.6994557  37.8767822  20.5435493  74.8949247  25.1092565
  20.7961014  74.3730768  24.3476028  19.6060052  74.7315392  25.2119249
  25.5878776  73.8985025  32.9167308  26.3741865  73.4804448  32.5657725
  25.8517481  74.8031117  33.0848957  25.7588854  79.3357875  27.6155965
  25.1234687  79.4092502  28.3276870  25.4286260  79.9251474  26.9375044
  30.9887203  73.8360258  33.8200287  31.7212375  73.2659475  34.0538116
  30.2326559  73.4481859  34.2606792  20.2631782  76.7977352  27.3116940
  20.1468040  76.1222256  27.9798024  20.3734042  76.3109726  26.4949093
  22.6063323  76.2587500  31.0163629  22.2421530  75.7318121  31.7276551
  23.4630439  75.8685969  30.8430115  28.5112624  67.5481832  38.2794895
  28.1795948  68.4177243  38.0556110  27.9158237  67.2318116  38.9588926
  22.2468810  71.2877399  26.0124978  22.4143212  72.1557636  26.3795449
  22.0565979  71.4504681  25.0886267  25.0044143  79.7494378  37.6790808
  24.7044866  80.6519417  37.5706615  24.6595203  79.4826561  38.5311961
  18.4556625  76.2008175  33.7127513  17.5307121  76.0684389  33.9205204
  18.7041038  76.9802394  34.2097455  28.4041287  72.2676918  35.3588246
  27.4958164  72.1992327  35.0647006  28.3528883  72.7448863  36.1870071
  22.2258031  73.7435057  26.9971645  22.1057656  74.1892108  27.8357125
  21.5310619  74.0920374  26.4385183  15.8165436  75.8441449  34.5471302
  15.9457817  76.0975928  35.4610713  15.1362887  76.4369157  34.2275957
  19.9864923  86.5138699  30.6461776  19.9088953  87.4646524  30.7250256
  19.3826567  86.1684571  31.3036702  22.4782153  73.6866564  43.3023143
  21.7015487  74.2460484  43.2926007  23.1172716  74.1723347  43.8238013
  30.2702933  70.4693357  37.1366119  29.6277314  70.7625890  36.4905914
  29.7657862  70.3546277  37.9419316  27.9243097  74.2156530  27.8251979
  28.8360953  74.4483917  27.6499676  27.4152744  74.7993574  27.2627057
  20.7328525  76.4952017  42.8641110  21.4743209  77.0337061  42.5875933
  20.0265511  77.1218306  43.0212662  26.2083865  78.6381158  41.4613271
  26.6167221  78.1963568  40.7167904  25.4861126  78.0633785  41.7147464
  22.5614935  73.5753765  38.8346828  23.4076130  73.9993178  38.9781477
  22.5013572  72.9187389  39.5285391  26.5312679  79.1982348  35.2165560
  25.9021542  79.3628063  34.5141628  26.1438341  79.6123958  35.9876524
  30.4101911  80.1336786  32.5709924  29.7252949  80.5135688  32.0206957
  30.4945761  80.7432113  33.3041872  25.7114380  71.2358133  40.4928002
  25.4675312  71.9900193  39.9562278  25.9874311  71.6143481  41.3275249
  27.6652843  77.7796745  39.1705267  27.8769738  78.4228505  38.4939649
  27.6182591  76.9459062  38.7027198  25.2679072  70.3914566  36.0741840
  24.4063551  70.6895819  36.3658577  25.2941506  70.6084965  35.1422872
  22.0840641  78.9356756  32.4815645  22.5478987  79.2144459  31.6920268
  21.8197439  78.0340201  32.2988736  18.9764722  78.4828238  35.4195409
  19.5466079  78.9115506  34.7812893  19.5672834  78.2010823  36.1179594
  21.0209527  75.0579909  29.2905210  21.7233571  75.5100953  29.7579137
  20.6890156  74.4163728  29.9185104  19.4689889  73.6491665  43.6656420
  18.8388549  74.3307946  43.8991817  19.3625977  73.5374747  42.7209558
  14.7634861  73.3163462  34.5922344  13.9733915  73.5720990  34.1162455
  15.2546109  74.1311799  34.6974385  28.7798671  80.6568701  37.3427625
  29.6016115  80.2548888  37.0610306  28.7761074  80.5536935  38.2943741
  16.7149607  73.6808041  31.5505821  15.9180770  73.7926735  32.0689316
  16.4875199  74.0194693  30.6846711  22.5455274  80.2052744  39.4988335
  22.6099707  80.6673151  40.3346507  21.8366198  79.5750109  39.6270645
  13.0472564  73.5693952  37.0237335  13.2980603  74.4540962  37.2894911
  13.5832113  73.3898554  36.2512427  36.8704664  77.0007449  33.6912596
  36.1168372  76.4314847  33.5356601  37.0052205  76.9670114  34.6383231
  22.2603292  81.8720851  29.3667316  22.1248967  82.7172387  29.7952163
  22.8013104  82.0740129  28.6033249  18.7470632  67.9512431  46.0281671
  18.3537577  67.3978630  46.7029315  19.5636772  68.2623010  46.4188188
  15.7132689  79.3896290  29.9395241  16.2257210  80.1839540  30.0900805
  16.3655402  78.6922580  29.8728842  17.5227574  82.5062046  32.0217994
  17.6994202  83.4280010  31.8338978  18.3184408  82.1920465  32.4512374
  21.6638593  69.3670310  43.6201927  22.4048306  69.9677464  43.5406390
  21.8956515  68.6247948  43.0619970  16.8079931  74.5526678  41.8980157
  16.6933446  73.6511935  42.1987256  15.9524448  74.7990374  41.5464974
  23.8871768  82.4944418  43.4967658  23.4435623  81.7080797  43.1788562
  24.5488982  82.6823568  42.8311548  18.6458889  84.0240220  38.0228336
  19.1966315  83.8957283  37.2505330  17.8070365  84.3235109  37.6723229
  25.9853006  82.7747218  41.5249059  25.9671482  83.5956099  41.0329328
  26.9072926  82.6501293  41.7499200  22.4426061  80.2891347  42.3672567
  22.9754397  79.5279636  42.1371875  21.9140142  79.9964999  43.1096722
  25.6095756  65.3951413  37.8966209  25.2660025  66.2853055  37.8205320
  25.9774718  65.2053071  37.0335794  13.6781606  77.7184944  30.7154811
  14.5156828  78.1281952  30.4988519  13.8559874  76.7784386  30.6855005
  25.5746038  75.3860024  26.4038644  25.0592662  76.1564629  26.6427032
  25.3023347  74.7125161  27.0271706  23.1593149  70.2309725  31.4623883
  22.3034746  69.8416576  31.2829521  23.5720101  70.3101686  30.6023668
  24.6892296  67.7656069  35.8615442  24.1857091  67.7286204  35.0483248
  24.9822903  68.6748811  35.9212099  20.9335182  67.8494798  34.8681624
  21.7988179  67.6537607  34.5087514  21.0012691  67.6205150  35.7950981
  30.5480312  78.1392379  28.3391818  29.7709755  77.8003539  27.8946980
  31.2271793  78.1445002  27.6646783  25.3632341  73.2587117  28.2298425
  25.0582477  73.5733266  29.0808569  26.3162784  73.3368536  28.2725758
  23.8078773  79.4177340  29.8791379  23.2800135  78.6830099  29.5664617
  23.3066276  80.1952016  29.6331348  28.7871619  77.6126360  34.9958426
  28.1295294  78.3025622  35.0838554  29.5912018  78.0022792  35.3392412
  18.5397501  70.0797006  32.2397991  19.1141253  69.8572188  31.5071184
  19.1268483  70.1485701  32.9926592  27.5977078  75.9670733  33.0462367
  28.1108960  76.6000725  33.5484077  28.2478302  75.3671929  32.6805727
  18.8667088  72.1101467  26.2593876  18.0304400  72.4476154  26.5803151
  18.7271858  71.9750447  25.3221013  20.8420169  66.9538255  30.9673060
  20.1884581  66.6387272  30.3429675  20.8000643  66.3313996  31.6932883
  21.9531373  77.2357550  22.8826352  21.0458435  77.0046804  23.0817501
  22.4502405  76.4395169  23.0700334  24.8599452  85.9455057  25.8023039
  24.1861151  86.2486754  26.4107996  25.2465274  86.7484138  25.4528496
  24.0757909  73.4420189  35.2920708  23.1580470  73.6635136  35.1342396
  24.4918053  73.5166499  34.4332415  24.8592957  74.8411604  30.4223388
  25.6064776  75.3533002  30.1130510  25.1284546  74.5195657  31.2827782
  23.1319607  77.3370145  27.4050342  22.2230826  77.0529178  27.5022812
  23.1614691  77.7569224  26.5453649  28.3638874  80.9476735  31.1741510
  27.9101201  80.1067644  31.2306701  27.7332841  81.5838133  31.5116290
  27.3071794  71.8768721  32.4042177  26.5694551  71.3646107  32.7352420
  27.5598567  71.4369102  31.5925454  26.8071814  82.7853231  32.1091328
  27.0994788  83.3458288  31.3903694  27.3170434  83.0781792  32.8644487
  27.4083421  64.6544973  32.9983947  27.7142298  63.7942336  32.7109862
  28.1336026  65.2462593  32.7982941  13.7007777  75.0575659  31.3865545
  13.5032177  74.4645020  30.6616611  13.1454441  74.7527869  32.1041483
  21.6804501  74.9498766  33.5060138  21.7353111  73.9972602  33.4302614
  20.8695703  75.1058205  33.9901436  22.8295695  78.8778889  24.7438421
  22.3915125  78.1614748  24.2844058  23.5706136  79.1055004  24.1823512
  19.6196861  73.5675825  31.2650517  18.8064726  73.8669996  31.6715709
  20.1155855  73.1731514  31.9824999  21.7705439  83.5633582  33.1984781
  21.7281618  83.7894429  32.2693313  22.6868138  83.3296957  33.3470583
  25.2171073  74.0317650  40.0965411  25.5720460  74.2589123  40.9559876
  25.8643204  74.3636027  39.4742666  30.9468809  77.1536086  30.8014740
  30.8086708  77.3437682  29.8735929  30.5905028  77.9155469  31.2582791
  19.1110936  71.1394181  36.8811752  19.7510315  70.9982940  36.1834715
  18.2788466  70.8528694  36.5050354  30.9738189  79.2212613  35.8126011
  31.4074696  79.1287902  36.6609065  31.6869770  79.1970113  35.1746027
  19.8871239  80.4396611  32.9946744  20.6811838  79.9446931  32.7929319
  19.1762932  79.9114474  32.6314450  24.7066084  82.8214707  37.3459112
  24.7603106  83.3905643  38.1136828  23.8380865  82.9916592  36.9813149
  16.1954003  74.5839693  29.0706497  15.2651591  74.5224149  29.2876459
  16.2911475  74.0615646  28.2743138  16.1139552  71.1094506  31.6584738
  16.3746369  72.0239839  31.5493899  16.9356724  70.6418948  31.8081351
  17.5864477  72.5232263  38.8283563  18.2587531  72.3149625  38.1796212
  16.7594264  72.3254349  38.3888795  31.8353739  79.2636313  38.3458897
  32.0289629  80.1682124  38.5918171  31.7354357  78.8043732  39.1797482
  23.4890049  69.1494204  40.8449224  22.8417964  69.8484154  40.7513700
  24.2591065  69.5830348  41.2125472  26.8968847  79.4143056  43.9199777
  26.7454354  79.1853608  43.0029861  26.8873527  80.3713658  43.9331122
  23.6654184  76.9874969  38.9046044  24.5946244  77.1386128  38.7315011
  23.2445214  77.0758990  38.0494690  22.4642515  81.0125633  36.6744581
  22.3253601  80.6444418  37.5470519  21.6757112  81.5273273  36.5028539
  23.0590667  86.1134730  28.0170118  23.2342423  85.6422773  28.8315740
  22.3723455  86.7400496  28.2451378  24.0147731  80.3907236  34.0633419
  23.6797563  80.3508006  34.9591069  23.5151676  79.7251952  33.5903829
  17.9891975  75.7974866  39.5886000  17.8511773  75.0655105  40.1897539
  18.8996898  75.7083766  39.3070188  26.9506922  77.7363270  24.3370479
  26.3336093  77.0110098  24.2403531  26.4823411  78.4972631  23.9937553
  20.6174275  75.5094825  39.0769680  21.3273894  74.8688018  39.0356298
  20.5743583  75.7607720  39.9995861  28.6061054  82.4462179  41.9976259
  28.5473600  81.7621399  41.3306842  29.0080572  83.1881169  41.5456885
  19.3303209  72.4960043  40.8965319  18.7940566  72.0450782  41.5486916
  18.7419918  72.6305952  40.1535784  17.6251753  89.2624093  34.7909978
  17.8648351  89.8942617  35.4688996  16.7820949  88.9112133  35.0775337
  18.7405468  71.9548695  23.4591783  17.8634935  71.8337495  23.0954030
  19.2163221  71.1634773  23.2070672  28.6078461  80.4101763  40.2290239
  27.7205240  80.0727684  40.3516638  29.1777012  79.6784794  40.4659004
  10.2607608  76.7425854  33.5533290  10.9478648  76.4287584  32.9654305
  10.1055737  77.6467219  33.2800541  15.0642330  71.6316051  37.9818314
  14.9800519  71.0241720  37.2468724  14.2425037  72.1225069  37.9827810
  22.1379615  85.0703215  37.1951482  22.0649786  85.8758186  37.7070786
  21.6957008  85.2695181  36.3699503  21.9269394  84.3074985  30.7054303
  21.1436916  84.8496665  30.7992528  22.6262139  84.8248965  31.1048545
  25.2366044  70.1169614  33.3488509  25.7334744  69.3639577  33.0289579
  24.4653026  70.1533931  32.7831718  33.0895802  75.8209980  34.9906800
  33.0785678  76.7034695  34.6200733  32.2213181  75.4681531  34.7961337
  24.5978298  84.9690049  39.3509641  25.3106270  85.6037514  39.2785542
  24.1068327  85.0653915  38.5349642  26.3195825  78.8741302  30.9226932
  25.3852104  78.9942764  30.7531637  26.4972493  77.9713768  30.6586942
  21.8201013  72.2586997  33.0760193  21.4498801  71.7058038  33.7641099
  22.3160106  71.6545131  32.5235193  29.7068376  74.7158621  31.4576966
  30.1728829  75.5486613  31.3837269  30.1575877  74.2503603  32.1622225
  19.6490212  82.7184492  40.1715211  20.3499671  83.3520975  40.3244606
  19.1785327  83.0599224  39.4110851  27.7744607  81.0602442  28.4563118
  28.0504451  80.9459037  29.3656992  26.9049106  80.6619927  28.4175291
  27.6785039  67.0839208  35.4967868  26.7648119  67.3143435  35.6650075
  28.1078141  67.1677652  36.3481900  27.4491498  75.2729100  37.9967762
  26.7962948  75.5205007  37.3420214  27.8271878  74.4593238  37.6630239
  24.4098671  85.3088793  32.0995932  24.5921066  84.4910449  32.5623684
  25.2331658  85.5256485  31.6620822  24.7440837  84.2356978  29.3610980
  25.2728603  83.7249433  28.7481143  25.0069057  83.9199508  30.2256514
  23.4979071  76.0148911  44.4833799  22.8219708  75.9143040  45.1536174
  24.3206705  75.8588125  44.9469796  15.2457930  82.2520848  37.1046314
  15.8311367  81.5064535  37.2374218  15.0482768  82.5624804  37.9882978
  18.0996585  85.2872095  32.1208756  17.4306960  85.7718223  31.6372796
  17.9609455  85.5341315  33.0352135   9.8375584  74.8226448  35.8250757
   9.8759684  74.2890038  36.6187875   9.3315877  74.2961653  35.2061734
  22.2401854  87.3215838  38.7191415  22.7920162  87.4847460  39.4840500
  22.5808047  87.9120276  38.0471440  17.2166347  69.6690988  39.3213299
  17.2807673  70.5305819  38.9090697  17.1533467  69.0564990  38.5885658
  16.6918619  71.7414121  42.9686334  17.3190658  71.3591198  43.5823858
  15.8346538  71.5228323  43.3342026  27.0912728  82.1477096  44.5740069
  27.6352632  82.7607054  44.0795024  26.5099573  82.7056674  45.0907082
  13.4684162  73.5490550  28.9004689  13.7637603  72.6401228  28.8471742
  12.5672198  73.5278289  28.5785691  25.3770241  85.2697814  35.7055097
  25.2521380  84.4687554  35.1966042  26.0349332  85.7644007  35.2169067
  16.9978409  71.6246546  34.8832237  16.2764995  72.2382514  34.7439710
  17.7871665  72.1604311  34.8048883  27.4405149  83.0706834  37.3334647
  26.4935485  82.9512185  37.2612974  27.7887922  82.1829332  37.4160908
  19.8004723  68.9600973  41.1572889  20.3239124  69.2063269  41.9199198
  19.5817056  69.7921008  40.7376026  15.1972004  71.2304648  29.0244014
  14.8684710  70.3502026  28.8419120  15.5511374  71.1752316  29.9120403
  24.4451582  82.8659550  33.5338999  24.2976545  81.9376258  33.7146569
  25.2705076  82.8879641  33.0496075  18.3113827  71.5177617  29.3919491
  18.6509899  72.0463539  28.6698100  18.7585947  71.8558023  30.1678058
  28.0485704  83.6888109  34.6203872  28.9732252  83.4830970  34.4828323
  27.8801008  83.4404510  35.5293214  21.0057268  69.9014668  38.8422559
  20.6654088  69.1022481  39.2443239  20.2996274  70.2016379  38.2699393
  21.6573739  66.9863980  37.2949882  22.4799809  66.5124459  37.1728773
  21.9011803  67.7654464  37.7948569  20.2981974  70.0152239  27.5912784
  21.0190336  70.3933492  27.0876501  19.6747278  70.7341116  27.6947762
  24.4413097  70.7197388  28.5271117  24.6576711  71.6022026  28.2259945
  23.9607164  70.3283601  27.7976758  19.1812318  73.6783101  35.1041861
  19.0356899  73.9923404  35.9966143  18.7037522  74.2968001  34.5512760
  21.0408701  70.6685649  35.1522751  21.0270270  69.7726742  34.8155049
  21.7581129  70.6756313  35.7861037  22.8934832  71.1022989  37.1975878
  22.6352610  72.0240060  37.1960209  22.3619872  70.7053424  37.8876342
  27.8381021  84.2073776  29.9765963  28.0117898  83.6420199  29.2239816
  28.3309912  85.0074671  29.7945453  13.6557980  76.2188446  38.0429522
  13.1111448  76.9948253  38.1749797  14.5337330  76.5659250  37.8848644
  20.4445597  69.5500029  30.4210321  20.5661508  68.6216676  30.6201208
  20.1547639  69.5638715  29.5088636  23.3136787  67.2354940  33.5577041
  23.3358484  67.2994273  32.6029020  23.7304846  66.3959448  33.7517547
  33.6920412  76.9710199  31.5956263  34.1351558  76.2217525  31.1975386
  32.8146922  76.9620336  31.2129995  28.8256193  83.5240541  27.0762862
  29.5207098  84.1447234  27.2950176  29.1679343  82.6735892  27.3515240
  14.4424002  75.3458342  40.9359679  13.7005738  75.4940977  41.5224310
  14.1216746  75.6066607  40.0726429  30.7247616  80.9740246  28.6050193
  31.2498940  81.3127519  27.8799513  30.6369969  80.0387262  28.4213327
  22.3867665  84.8874320  40.7340069  22.6954791  84.6423467  41.6062769
  23.1843147  85.0920958  40.2458939  22.4088277  87.0412230  32.9645446
  21.9693267  86.5488608  33.6578302  23.1596394  86.4985197  32.7237521
  14.8880616  83.2323770  32.9670074  15.7138636  82.9327542  32.5868717
  14.5374668  82.4631393  33.4159862  19.8562149  82.5850239  35.0367747
  19.2342158  81.9220944  34.7369975  20.5267016  82.6111371  34.3541395
  13.0889221  81.1510097  33.9259007  12.2521129  80.7232271  33.7443009
  13.0612866  81.3442540  34.8629799  19.9286677  71.0632027  44.6300253
  19.9774832  71.9394150  44.2478023  20.4709191  70.5209420  44.0571897
  30.4141522  81.6073150  43.9101390  29.6237066  81.5897289  43.3705890
  30.1774877  82.1461444  44.6650427  30.5339397  78.4565616  41.2234119
  30.5837402  78.2915624  42.1649642  30.4253321  77.5892875  40.8332000
  19.4175656  81.1354162  28.5126208  19.5663776  81.8189626  27.8592881
  20.2242099  81.1159252  29.0275664  27.8243160  74.4396544  42.5393426
  28.7253022  74.3003009  42.2477424  27.8991134  74.6050999  43.4791603
  22.1585965  71.8163399  41.3846612  21.2889274  72.1096965  41.1129201
  22.3945445  72.4003844  42.1053876  32.0357594  80.8762558  41.4676141
  31.7442402  81.2392538  42.3039602  31.4229725  80.1629566  41.2889473
  33.2353276  78.4415438  33.9878711  34.0700168  78.8805242  34.1516271
  33.3712405  77.9654091  33.1686957  30.2844782  75.9995173  39.9356199
  30.7598904  76.1922819  39.1275050  29.3610348  76.0554358  39.6899582
  17.1728289  77.1619340  29.5187277  16.9274331  76.2581670  29.7167487
  17.3424203  77.1636490  28.5766755  24.8624999  68.0343016  38.9012032
  25.3806943  68.7704043  38.5758521  24.5080132  68.3407009  39.7358792
  16.4423936  72.8947697  27.0173438  15.7493181  72.9692052  26.3613474
  16.1975688  72.1308041  27.5394955  25.1137593  64.4543299  34.4212929
  25.3939347  63.7866488  35.0473356  25.8988200  64.6472394  33.9087593
  22.9171061  83.6302293  25.9837955  22.3445029  84.2492480  25.5308427
  23.4903855  84.1801654  26.5177877  28.9846451  72.8760933  38.1684504
  29.9363874  72.9759030  38.1896728  28.8149902  72.0839201  38.6782589
  27.0060831  69.9616516  38.3543905  26.4110763  70.2421529  37.6590394
  26.7210527  70.4510417  39.1260646  26.1368321  83.9139443  27.1146538
  27.0698994  83.8485004  27.3179413  26.0491534  84.7495710  26.6561070
  28.7656338  83.2305313  24.0750485  28.6869969  82.8965177  24.9686243
  29.5866005  83.7227081  24.0741958  31.4634529  76.0967052  37.2826804
  31.4310849  75.1583053  37.4686488  32.0735153  76.1751089  36.5492629
  23.3017860  74.9663105  23.3254008  24.2476965  74.8369313  23.3942426
  22.9232105  74.2277767  23.8023436  31.6129018  72.8878096  37.3285087
  31.0968066  72.1036552  37.1415016  32.4968966  72.5596812  37.4931606
  29.2739745  66.6319111  33.2880900  29.0764566  66.3234199  34.1724232
  29.8839450  67.3580750  33.4178830  37.2811079  77.1583059  36.4232841
  38.0114467  76.8968347  36.9840544  36.6718024  76.4211781  36.4634909
  35.3626376  75.2990922  37.0207292  34.6359540  75.1646887  36.4123783
  34.9473663  75.6067750  37.8264010  23.1856553  79.0180851  44.7854665
  24.1059562  79.1959450  44.9794711  23.1506136  78.0736897  44.6334364
  21.4860777  72.8913082  23.2608893  20.5792233  72.5946194  23.3371607
  21.7636758  72.5942900  22.3943179  12.4038718  74.2119445  33.7107939
  12.0841502  73.3584753  33.4182313  11.8572146  74.4268023  34.4665907
  16.1818625  76.9281886  37.4277446  16.4004635  77.8598994  37.4465480
  16.5944399  76.5689860  38.2132250  23.1022843  67.4349971  29.4153134
  22.2923571  67.0897056  29.7908380  23.7907260  67.1257515  30.0040746
  25.0313391  66.5128018  31.0377431  25.5844430  66.9323472  31.6967454
  25.2683478  65.5863766  31.0800387  21.0546490  72.5015092  46.8180195
  20.9543217  73.4509449  46.7492286  20.8368032  72.1733331  45.9456265
  20.2559562  69.7500017  23.4020872  21.1178726  70.0754915  23.6616690
  20.4409906  68.9631513  22.8893938  12.2726978  77.8322357  35.6801061
  11.5790449  77.4176309  35.1671015  13.0199969  77.8742893  35.0834480
  28.4092198  68.6228543  30.5456095  27.8290867  69.2813347  30.1634148
  28.1428131  67.8005888  30.1343513  26.8595765  68.0233601  32.7477416
  27.3595543  68.1350136  31.9391734  27.5031373  67.7194654  33.3878224
  20.9177760  75.9312231  45.6345257  20.4344842  76.7312591  45.8409146
  21.0038699  75.9420176  44.6812701  14.1863720  77.7640610  33.5567076
  14.1634408  77.8628298  32.6048959  14.4964357  78.6105761  33.8784242
  16.8451098  79.8216765  37.6713690  17.7994351  79.7900708  37.6043622
  16.6463621  79.3607389  38.4863916  17.4350480  78.3917881  40.2384488
  18.2543369  78.8861960  40.2619325  17.7087288  77.4749850  40.2102056
  27.1917076  70.7828634  29.6012444  26.3042931  71.0678284  29.3832638
  27.6071065  70.6222397  28.7539720  30.5431612  70.8075155  33.3166783
  31.3192002  71.2971607  33.5891400  29.8179747  71.2333209  33.7738652
  32.9804171  71.5202774  34.3740723  33.5748662  71.2798510  33.6634032
  33.0530755  70.8009904  35.0014260  15.2001327  85.3636385  34.6883888
  15.0655795  84.6036786  34.1221886  14.7833389  86.0877285  34.2212677
  26.3360290  80.5473308  23.6960464  27.0396140  80.7523311  24.3118119
  25.6122938  81.1150070  23.9609547  27.1658100  76.2983170  29.8162734
  27.1093301  76.7551721  28.9770366  27.7186442  75.5373854  29.6385576
  30.9762906  72.0872902  30.6412853  30.7199840  71.6869537  31.4721061
  30.3515774  72.8016695  30.5162992  35.2875244  74.8268975  33.1484145
  34.7274802  74.8962164  33.9215707  34.6818747  74.6509959  32.4283641
  18.3570453  86.2605702  34.9002331  18.2402837  87.2051134  34.7981021
  17.5362899  85.9579263  35.2888130  28.2446987  80.9855838  25.7458924
  29.0792591  80.5537036  25.5636398  28.0831330  80.8137851  26.6735818
  27.8992879  77.4887951  27.1115263  27.8441683  77.3232222  26.1703707
  27.2738935  78.1963984  27.2677453  12.6885394  72.7256015  40.9376685
  13.3344258  72.2154969  41.4263910  12.4802545  73.4624697  41.5120110
  25.2138786  79.7936863  46.4368826  26.0829946  79.9677515  46.0755461
  24.7345538  80.6131280  46.3144555  21.2089005  66.9896060  26.6900581
  21.1967675  67.9337900  26.8468852  22.1012427  66.8066205  26.3960042
  19.3824967  86.9133964  38.1158259  20.2852213  86.9457574  38.4324754
  19.1562337  85.9834415  38.1304595  21.1378569  85.6664950  34.7768338
  20.1874200  85.6666812  34.6632710  21.4411055  84.9197685  34.2604373
  25.0241124  63.5838837  30.9446518  24.2573520  63.0297323  31.0903200
  25.4351829  63.6560705  31.8060670  17.0282885  69.8723632  45.0351699
  17.8914347  69.5160437  45.2455024  16.4548296  69.5337527  45.7227104
  36.8731262  91.5025489  35.8414100  37.5109672  91.3832236  35.1377440
  36.7552105  92.4506333  35.9002052  33.6820968  91.4552917  35.7775625
  33.3439480  91.3393982  34.8896160  34.5510737  91.0544082  35.7576631
  29.5407784  93.3088393  31.7672516  28.9772649  93.2178330  30.9988804
  29.4260179  92.4888298  32.2475008  34.1640751  92.6087769  41.7361831
  34.1529392  92.2140567  40.8642334  34.3261391  91.8753841  42.3295602
  27.0872216  94.8039585  34.6056736  27.8793508  94.4630409  34.1903036
  27.3268866  94.9134560  35.5258890  35.1207343  96.9759361  27.0786981
  34.4695323  97.5613441  26.6920995  35.9151706  97.5065556  27.1382018
  29.0462970  94.0648498  27.4774115  29.8193846  93.5177485  27.3386991
  29.3988369  94.9292747  27.6888577  30.8848013  95.3924880  40.6841015
  30.5937879  96.2970511  40.5687681  31.5204997  95.4341408  41.3985084
  31.8104219  92.7701729  37.2742374  32.4067792  92.5457751  36.5599337
  31.8679191  92.0286474  37.8767822  31.3829248  90.2241164  25.1092565
  31.6354769  89.7022685  24.3476028  30.4453807  90.0607310  25.2119249
  36.4272531  89.2276943  32.9167308  37.2135620  88.8096366  32.5657725
  36.6911235  90.1323035  33.0848957  36.5982608  94.6649793  27.6155965
  35.9628441  94.7384419  28.3276870  36.2680014  95.2543392  26.9375044
  41.8280958  89.1652176  33.8200287  42.5606130  88.5951393  34.0538116
  41.0720314  88.7773776  34.2606792  31.1025537  92.1269270  27.3116940
  30.9861795  91.4514174  27.9798024  31.2127797  91.6401644  26.4949093
  33.4457078  91.5879417  31.0163629  33.0815285  91.0610038  31.7276551
  34.3024193  91.1977886  30.8430115  39.3506378  82.8773750  38.2794895
  39.0189703  83.7469161  38.0556110  38.7551992  82.5610034  38.9588926
  33.0862565  86.6169317  26.0124978  33.2536967  87.4849553  26.3795449
  32.8959734  86.7796599  25.0886267  35.8437898  95.0786296  37.6790808
  35.5438621  95.9811335  37.5706615  35.4988957  94.8118479  38.5311961
  29.2950379  91.5300093  33.7127513  28.3700876  91.3976307  33.9205204
  29.5434792  92.3094312  34.2097455  39.2435042  87.5968836  35.3588246
  38.3351919  87.5284244  35.0647006  39.1922637  88.0740781  36.1870071
  33.0651785  89.0726974  26.9971645  32.9451411  89.5184025  27.8357125
  32.3704374  89.4212292  26.4385183  26.6559190  91.1733366  34.5471302
  26.7851571  91.4267845  35.4610713  25.9756642  91.7661074  34.2275957
  30.8258678 101.8430616  30.6461776  30.7482707 102.7938441  30.7250256
  30.2220321 101.4976489  31.3036702  33.3175907  89.0158482  43.3023143
  32.5409241  89.5752402  43.2926007  33.9566470  89.5015265  43.8238013
  41.1096688  85.7985274  37.1366119  40.4671068  86.0917808  36.4905914
  40.6051616  85.6838195  37.9419316  38.7636852  89.5448448  27.8251979
  39.6754708  89.7775834  27.6499676  38.2546499  90.1285492  27.2627057
  31.5722280  91.8243935  42.8641110  32.3136964  92.3628979  42.5875933
  30.8659265  92.4510224  43.0212662  37.0477619  93.9673075  41.4613271
  37.4560975  93.5255486  40.7167904  36.3254881  93.3925703  41.7147464
  33.4008689  88.9045682  38.8346828  34.2469884  89.3285096  38.9781477
  33.3407327  88.2479307  39.5285391  37.3706434  94.5274266  35.2165560
  36.7415296  94.6919980  34.5141628  36.9832096  94.9415876  35.9876524
  41.2495666  95.4628704  32.5709924  40.5646704  95.8427605  32.0206957
  41.3339515  96.0724031  33.3041872  36.5508135  86.5650051  40.4928002
  36.3069066  87.3192111  39.9562278  36.8268065  86.9435398  41.3275249
  38.5046597  93.1088663  39.1705267  38.7163493  93.7520423  38.4939649
  38.4576346  92.2750980  38.7027198  36.1072826  85.7206484  36.0741840
  35.2457305  86.0187737  36.3658577  36.1335261  85.9376882  35.1422872
  32.9234396  94.2648674  32.4815645  33.3872741  94.5436377  31.6920268
  32.6591194  93.3632119  32.2988736  29.8158477  93.8120156  35.4195409
  30.3859834  94.2407424  34.7812893  30.4066589  93.5302740  36.1179594
  31.8603282  90.3871827  29.2905210  32.5627325  90.8392870  29.7579137
  31.5283910  89.7455645  29.9185104  30.3083643  88.9783583  43.6656420
  29.6782304  89.6599864  43.8991817  30.2019731  88.8666665  42.7209558
  25.6028616  88.6455379  34.5922344  24.8127670  88.9012908  34.1162455
  26.0939863  89.4603717  34.6974385  39.6192425  95.9860618  37.3427625
  40.4409869  95.5840806  37.0610306  39.6154828  95.8828853  38.2943741
  27.5543361  89.0099958  31.5505821  26.7574524  89.1218653  32.0689316
  27.3268953  89.3486611  30.6846711  33.3849029  95.5344662  39.4988335
  33.4493461  95.9965069  40.3346507  32.6759953  94.9042027  39.6270645
  23.8866319  88.8985870  37.0237335  24.1374357  89.7832880  37.2894911
  24.4225867  88.7190471  36.2512427  47.7098418  92.3299367  33.6912596
  46.9562127  91.7606765  33.5356601  47.8445960  92.2962031  34.6383231
  33.0997046  97.2012769  29.3667316  32.9642721  98.0464305  29.7952163
  33.6406859  97.4032047  28.6033249  29.5864386  83.2804349  46.0281671
  29.1931332  82.7270548  46.7029315  30.4030526  83.5914927  46.4188188
  26.5526444  94.7188207  29.9395241  27.0650964  95.5131457  30.0900805
  27.2049157  94.0214498  29.8728842  28.3621329  97.8353963  32.0217994
  28.5387957  98.7571928  31.8338978  29.1578162  97.5212383  32.4512374
  32.5032347  84.6962228  43.6201927  33.2442060  85.2969381  43.5406390
  32.7350270  83.9539866  43.0619970  27.6473685  89.8818595  41.8980157
  27.5327200  88.9803853  42.1987256  26.7918203  90.1282292  41.5464974
  34.7265523  97.8236336  43.4967658  34.2829377  97.0372714  43.1788562
  35.3882736  98.0115486  42.8311548  29.4852644  99.3532137  38.0228336
  30.0360069  99.2249201  37.2505330  28.6464120  99.6527026  37.6723229
  36.8246761  98.1039136  41.5249059  36.8065236  98.9248017  41.0329328
  37.7466681  97.9793211  41.7499200  33.2819815  95.6183265  42.3672567
  33.8148152  94.8571553  42.1371875  32.7533896  95.3256917  43.1096722
  36.4489510  80.7243331  37.8966209  36.1053779  81.6144973  37.8205320
  36.8168473  80.5344989  37.0335794  24.5175361  93.0476862  30.7154811
  25.3550583  93.4573870  30.4988519  24.6953628  92.1076304  30.6855005
  36.4139793  90.7151942  26.4038644  35.8986416  91.4856547  26.6427032
  36.1417101  90.0417078  27.0271706  33.9986904  85.5601643  31.4623883
  33.1428500  85.1708493  31.2829521  34.4113856  85.6393604  30.6023668
  35.5286050  83.0947986  35.8615442  35.0250846  83.0578121  35.0483248
  35.8216657  84.0040729  35.9212099  31.7728936  83.1786716  34.8681624
  32.6381933  82.9829525  34.5087514  31.8406445  82.9497068  35.7950981
  41.3874067  93.4684297  28.3391818  40.6103510  93.1295456  27.8946980
  42.0665548  93.4736920  27.6646783  36.2026096  88.5879034  28.2298425
  35.8976231  88.9025183  29.0808569  37.1556538  88.6660454  28.2725758
  34.6472528  94.7469258  29.8791379  34.1193889  94.0122017  29.5664617
  34.1460030  95.5243934  29.6331348  39.6265374  92.9418278  34.9958426
  38.9689048  93.6317539  35.0838554  40.4305773  93.3314710  35.3392412
  29.3791255  85.4088924  32.2397991  29.9535007  85.1864105  31.5071184
  29.9662238  85.4777618  32.9926592  38.4370833  91.2962651  33.0462367
  38.9502714  91.9292643  33.5484077  39.0872056  90.6963846  32.6805727
  29.7060842  87.4393385  26.2593876  28.8698155  87.7768071  26.5803151
  29.5665612  87.3042365  25.3221013  31.6813923  82.2830173  30.9673060
  31.0278335  81.9679190  30.3429675  31.6394397  81.6605913  31.6932883
  32.7925128  92.5649468  22.8826352  31.8852190  92.3338721  23.0817501
  33.2896160  91.7687087  23.0700334  35.6993207 101.2746975  25.8023039
  35.0254906 101.5778672  26.4107996  36.0859029 102.0776055  25.4528496
  34.9151663  88.7712106  35.2920708  33.9974225  88.9927053  35.1342396
  35.3311807  88.8458417  34.4332415  35.6986711  90.1703522  30.4223388
  36.4458530  90.6824919  30.1130510  35.9678301  89.8487575  31.2827782
  33.9713361  92.6662063  27.4050342  33.0624581  92.3821096  27.5022812
  34.0008445  93.0861141  26.5453649  39.2032629  96.2768652  31.1741510
  38.7494956  95.4359562  31.2306701  38.5726595  96.9130051  31.5116290
  38.1465548  87.2060638  32.4042177  37.4088305  86.6938024  32.7352420
  38.3992322  86.7661020  31.5925454  37.6465568  98.1145149  32.1091328
  37.9388542  98.6750206  31.3903694  38.1564189  98.4073710  32.8644487
  38.2477176  79.9836890  32.9983947  38.5536052  79.1234254  32.7109862
  38.9729780  80.5754510  32.7982941  24.5401532  90.3867577  31.3865545
  24.3425932  89.7936938  30.6616611  23.9848196  90.0819787  32.1041483
  32.5198255  90.2790683  33.5060138  32.5746865  89.3264520  33.4302614
  31.7089457  90.4350122  33.9901436  33.6689449  94.2070806  24.7438421
  33.2308879  93.4906665  24.2844058  34.4099890  94.4346921  24.1823512
  30.4590615  88.8967743  31.2650517  29.6458481  89.1961914  31.6715709
  30.9549609  88.5023432  31.9824999  32.6099193  98.8925500  33.1984781
  32.5675372  99.1186346  32.2693313  33.5261892  98.6588875  33.3470583
  36.0564827  89.3609568  40.0965411  36.4114215  89.5881041  40.9559876
  36.7036958  89.6927944  39.4742666  41.7862564  92.4828003  30.8014740
  41.6480463  92.6729599  29.8735929  41.4298783  93.2447386  31.2582791
  29.9504690  86.4686099  36.8811752  30.5904069  86.3274858  36.1834715
  29.1182221  86.1820612  36.5050354  41.8131944  94.5504530  35.8126011
  42.2468450  94.4579820  36.6609065  42.5263524  94.5262031  35.1746027
  30.7264994  95.7688529  32.9946744  31.5205592  95.2738849  32.7929319
  30.0156686  95.2406392  32.6314450  35.5459838  98.1506625  37.3459112
  35.5996861  98.7197561  38.1136828  34.6774620  98.3208510  36.9813149
  27.0347757  89.9131611  29.0706497  26.1045346  89.8516066  29.2876459
  27.1305229  89.3907563  28.2743138  26.9533306  86.4386424  31.6584738
  27.2140124  87.3531757  31.5493899  27.7750479  85.9710866  31.8081351
  28.4258232  87.8524181  38.8283563  29.0981285  87.6441543  38.1796212
  27.5988018  87.6546267  38.3888795  42.6747493  94.5928231  38.3458897
  42.8683383  95.4974042  38.5918171  42.5748111  94.1335650  39.1797482
  34.3283804  84.4786122  40.8449224  33.6811719  85.1776071  40.7513700
  35.0984819  84.9122266  41.2125472  37.7362602  94.7434974  43.9199777
  37.5848108  94.5145526  43.0029861  37.7267281  95.7005575  43.9331122
  34.5047938  92.3166887  38.9046044  35.4339998  92.4678046  38.7315011
  34.0838968  92.4050907  38.0494690  33.3036270  96.3417551  36.6744581
  33.1647356  95.9736335  37.5470519  32.5150866  96.8565190  36.5028539
  33.8984422 101.4426647  28.0170118  34.0736178 100.9714691  28.8315740
  33.2117210 102.0692414  28.2451378  34.8541485  95.7199154  34.0633419
  34.5191318  95.6799924  34.9591069  34.3545431  95.0543870  33.5903829
  28.8285729  91.1266784  39.5886000  28.6905527  90.3947023  40.1897539
  29.7390653  91.0375684  39.3070188  37.7900677  93.0655188  24.3370479
  37.1729847  92.3402016  24.2403531  37.3217165  93.8264548  23.9937553
  31.4568030  90.8386743  39.0769680  32.1667648  90.1979935  39.0356298
  31.4137338  91.0899638  39.9995861  39.4454808  97.7754096  41.9976259
  39.3867355  97.0913316  41.3306842  39.8474327  98.5173086  41.5456885
  30.1696964  87.8251961  40.8965319  29.6334321  87.3742699  41.5486916
  29.5813672  87.9597870  40.1535784  28.4645507 104.5916010  34.7909978
  28.7042105 105.2234534  35.4688996  27.6214704 104.2404050  35.0775337
  29.5799223  87.2840612  23.4591783  28.7028689  87.1629413  23.0954030
  30.0556976  86.4926691  23.2070672  39.4472216  95.7393680  40.2290239
  38.5598994  95.4019602  40.3516638  40.0170767  95.0076712  40.4659004
  21.1001363  92.0717772  33.5533290  21.7872403  91.7579502  32.9654305
  20.9449492  92.9759137  33.2800541  25.9036085  86.9607969  37.9818314
  25.8194274  86.3533638  37.2468724  25.0818791  87.4516987  37.9827810
  32.9773369 100.3995133  37.1951482  32.9043541 101.2050104  37.7070786
  32.5350762 100.5987098  36.3699503  32.7663149  99.6366903  30.7054303
  31.9830671 100.1788583  30.7992528  33.4655894 100.1540882  31.1048545
  36.0759799  85.4461532  33.3488509  36.5728498  84.6931494  33.0289579
  35.3046780  85.4825849  32.7831718  43.9289556  91.1501898  34.9906800
  43.9179432  92.0326613  34.6200733  43.0606936  90.7973448  34.7961337
  35.4372053 100.2981967  39.3509641  36.1500025 100.9329431  39.2785542
  34.9462081 100.3945833  38.5349642  37.1589580  94.2033219  30.9226932
  36.2245858  94.3234682  30.7531637  37.3366248  93.3005686  30.6586942
  32.6594768  87.5878915  33.0760193  32.2892555  87.0349956  33.7641099
  33.1553860  86.9837049  32.5235193  40.5462131  90.0450539  31.4576966
  41.0122583  90.8778530  31.3837269  40.9969631  89.5795520  32.1622225
  30.4883966  98.0476410  40.1715211  31.1893426  98.6812893  40.3244606
  30.0179081  98.3891142  39.4110851  38.6138362  96.3894360  28.4563118
  38.8898206  96.2750955  29.3656992  37.7442861  95.9911845  28.4175291
  38.5178794  82.4131126  35.4967868  37.6041873  82.6435352  35.6650075
  38.9471895  82.4969570  36.3481900  38.2885252  90.6021018  37.9967762
  37.6356702  90.8496925  37.3420214  38.6665632  89.7885156  37.6630239
  35.2492426 100.6380711  32.0995932  35.4314821  99.8202367  32.5623684
  36.0725412 100.8548403  31.6620822  35.5834591  99.5648896  29.3610980
  36.1122358  99.0541350  28.7481143  35.8462811  99.2491426  30.2256514
  34.3372825  91.3440829  44.4833799  33.6613462  91.2434958  45.1536174
  35.1600459  91.1880042  44.9469796  26.0851684  97.5812765  37.1046314
  26.6705121  96.8356453  37.2374218  25.8876523  97.8916722  37.9882978
  28.9390339 100.6164013  32.1208756  28.2700715 101.1010140  31.6372796
  28.8003209 100.8633233  33.0352135  20.6769339  90.1518365  35.8250757
  20.7153438  89.6181956  36.6187875  20.1709632  89.6253571  35.2061734
  33.0795608 102.6507756  38.7191415  33.6313916 102.8139378  39.4840500
  33.4201801 103.2412194  38.0471440  28.0560101  84.9982906  39.3213299
  28.1201428  85.8597737  38.9090697  27.9927221  84.3856908  38.5885658
  27.5312374  87.0706038  42.9686334  28.1584413  86.6883116  43.5823858
  26.6740293  86.8520240  43.3342026  37.9306482  97.4769014  44.5740069
  38.4746386  98.0898972  44.0795024  37.3493327  98.0348592  45.0907082
  24.3077917  88.8782468  28.9004689  24.6031358  87.9693146  28.8471742
  23.4065952  88.8570207  28.5785691  36.2163995 100.5989732  35.7055097
  36.0915135  99.7979471  35.1966042  36.8743086 101.0935925  35.2169067
  27.8372164  86.9538464  34.8832237  27.1158749  87.5674432  34.7439710
  28.6265419  87.4896229  34.8048883  38.2798904  98.3998752  37.3334647
  37.3329239  98.2804103  37.2612974  38.6281677  97.5121250  37.4160908
  30.6398477  84.2892891  41.1572889  31.1632879  84.5355187  41.9199198
  30.4210810  85.1212925  40.7376026  26.0365758  86.5596565  29.0244014
  25.7078464  85.6793944  28.8419120  26.3905129  86.5044234  29.9120403
  35.2845337  98.1951468  33.5338999  35.1370299  97.2668175  33.7146569
  36.1098830  98.2171559  33.0496075  29.1507581  86.8469535  29.3919491
  29.4903654  87.3755456  28.6698100  29.5979702  87.1849941  30.1678058
  38.8879459  99.0180027  34.6203872  39.8126006  98.8122888  34.4828323
  38.7194762  98.7696428  35.5293214  31.8451022  85.2306586  38.8422559
  31.5047842  84.4314399  39.2443239  31.1390028  85.5308297  38.2699393
  32.4967494  82.3155898  37.2949882  33.3193563  81.8416376  37.1728773
  32.7405557  83.0946382  37.7948569  31.1375728  85.3444157  27.5912784
  31.8584091  85.7225409  27.0876501  30.5141033  86.0633033  27.6947762
  35.2806851  86.0489306  28.5271117  35.4970466  86.9313943  28.2259945
  34.8000918  85.6575519  27.7976758  30.0206073  89.0075019  35.1041861
  29.8750653  89.3215322  35.9966143  29.5431276  89.6259919  34.5512760
  31.8802456  85.9977567  35.1522751  31.8664024  85.1018660  34.8155049
  32.5974884  86.0048231  35.7861037  33.7328586  86.4314907  37.1975878
  33.4746364  87.3531978  37.1960209  33.2013627  86.0345342  37.8876342
  38.6774775  99.5365694  29.9765963  38.8511653  98.9712117  29.2239816
  39.1703666 100.3366589  29.7945453  24.4951735  91.5480363  38.0429522
  23.9505203  92.3240171  38.1749797  25.3731085  91.8951168  37.8848644
  31.2839351  84.8791947  30.4210321  31.4055263  83.9508593  30.6201208
  30.9941394  84.8930633  29.5088636  34.1530542  82.5646858  33.5577041
  34.1752239  82.6286191  32.6029020  34.5698601  81.7251366  33.7517547
  44.5314166  92.3002117  31.5956263  44.9745312  91.5509442  31.1975386
  43.6540676  92.2912253  31.2129995  39.6649948  98.8532459  27.0762862
  40.3600852  99.4739151  27.2950176  40.0073098  98.0027810  27.3515240
  25.2817757  90.6750259  40.9359679  24.5399493  90.8232895  41.5224310
  24.9610501  90.9358525  40.0726429  41.5641371  96.3032164  28.6050193
  42.0892695  96.6419437  27.8799513  41.4763723  95.3679179  28.4213327
  33.2261419 100.2166238  40.7340069  33.5348546  99.9715384  41.6062769
  34.0236901 100.4212876  40.2458939  33.2482031 102.3704147  32.9645446
  32.8087022 101.8780526  33.6578302  33.9990148 101.8277115  32.7237521
  25.7274370  98.5615688  32.9670074  26.5532390  98.2619460  32.5868717
  25.3768422  97.7923311  33.4159862  30.6955904  97.9142156  35.0367747
  30.0735913  97.2512861  34.7369975  31.3660770  97.9403288  34.3541395
  23.9282975  96.4802015  33.9259007  23.0914884  96.0524189  33.7443009
  23.9006621  96.6734458  34.8629799  30.7680431  86.3923944  44.6300253
  30.8168586  87.2686067  44.2478023  31.3102945  85.8501337  44.0571897
  41.2535277  96.9365068  43.9101390  40.4630820  96.9189207  43.3705890
  41.0168631  97.4753361  44.6650427  41.3733152  93.7857534  41.2234119
  41.4231157  93.6207542  42.1649642  41.2647075  92.9184793  40.8332000
  30.2569410  96.4646080  28.5126208  30.4057531  97.1481544  27.8592881
  31.0635854  96.4451170  29.0275664  38.6636914  89.7688462  42.5393426
  39.5646777  89.6294927  42.2477424  38.7384889  89.9342917  43.4791603
  32.9979719  87.1455317  41.3846612  32.1283029  87.4388883  41.1129201
  33.2339200  87.7295762  42.1053876  42.8751349  96.2054476  41.4676141
  42.5836157  96.5684456  42.3039602  42.2623480  95.4921484  41.2889473
  44.0747031  93.7707355  33.9878711  44.9093922  94.2097159  34.1516271
  44.2106160  93.2946009  33.1686957  41.1238537  91.3287090  39.9356199
  41.5992658  91.5214737  39.1275050  40.2004102  91.3846276  39.6899582
  28.0122043  92.4911257  29.5187277  27.7668085  91.5873587  29.7167487
  28.1817958  92.4928408  28.5766755  35.7018753  83.3634934  38.9012032
  36.2200697  84.0995961  38.5758521  35.3473886  83.6698927  39.7358792
  27.2817691  88.2239615  27.0173438  26.5886936  88.2983970  26.3613474
  27.0369443  87.4599959  27.5394955  35.9531347  79.7835216  34.4212929
  36.2333101  79.1158405  35.0473356  36.7381954  79.9764312  33.9087593
  33.7564816  98.9594210  25.9837955  33.1838783  99.5784397  25.5308427
  34.3297610  99.5093572  26.5177877  39.8240206  88.2052850  38.1684504
  40.7757629  88.3050948  38.1896728  39.6543656  87.4131119  38.6782589
  37.8454585  85.2908434  38.3543905  37.2504517  85.5713446  37.6590394
  37.5604282  85.7802334  39.1260646  36.9762076  99.2431360  27.1146538
  37.9092749  99.1776922  27.3179413  36.8885289 100.0787627  26.6561070
  39.6050092  98.5597231  24.0750485  39.5263724  98.2257094  24.9686243
  40.4259759  99.0518999  24.0741958  42.3028284  91.4258970  37.2826804
  42.2704604  90.4874971  37.4686488  42.9128907  91.5043007  36.5492629
  34.1411614  90.2955023  23.3254008  35.0870719  90.1661231  23.3942426
  33.7625859  89.5569685  23.8023436  42.4522772  88.2170013  37.3285087
  41.9361821  87.4328470  37.1415016  43.3362721  87.8888730  37.4931606
  40.1133499  81.9611029  33.2880900  39.9158320  81.6526117  34.1724232
  40.7233205  82.6872668  33.4178830  48.1204833  92.4874977  36.4232841
  48.8508222  92.2260265  36.9840544  47.5111779  91.7503699  36.4634909
  46.2020131  90.6282839  37.0207292  45.4753294  90.4938804  36.4123783
  45.7867417  90.9359668  37.8264010  34.0250307  94.3472769  44.7854665
  34.9453316  94.5251368  44.9794711  33.9899890  93.4028814  44.6334364
  32.3254532  88.2204999  23.2608893  31.4185987  87.9238112  23.3371607
  32.6030513  87.9234817  22.3943179  23.2432472  89.5411363  33.7107939
  22.9235256  88.6876671  33.4182313  22.6965900  89.7559941  34.4665907
  27.0212380  92.2573804  37.4277446  27.2398389  93.1890912  37.4465480
  27.4338153  91.8981778  38.2132250  33.9416597  82.7641889  29.4153134
  33.1317326  82.4188974  29.7908380  34.6301014  82.4549433  30.0040746
  35.8707146  81.8419936  31.0377431  36.4238184  82.2615389  31.6967454
  36.1077232  80.9155684  31.0800387  31.8940245  87.8307009  46.8180195
  31.7936972  88.7801366  46.7492286  31.6761787  87.5025248  45.9456265
  31.0953316  85.0791935  23.4020872  31.9572480  85.4046833  23.6616690
  31.2803660  84.2923430  22.8893938  23.1120732  93.1614274  35.6801061
  22.4184203  92.7468227  35.1671015  23.8593723  93.2034811  35.0834480
  39.2485953  83.9520461  30.5456095  38.6684622  84.6105265  30.1634148
  38.9821885  83.1297806  30.1343513  37.6989519  83.3525519  32.7477416
  38.1989297  83.4642053  31.9391734  38.3425127  83.0486572  33.3878224
  31.7571515  91.2604148  45.6345257  31.2738597  92.0604508  45.8409146
  31.8432454  91.2712093  44.6812701  25.0257475  93.0932528  33.5567076
  25.0028163  93.1920215  32.6048959  25.3358111  93.9397679  33.8784242
  27.6844852  95.1508683  37.6713690  28.6388106  95.1192625  37.6043622
  27.4857376  94.6899307  38.4863916  28.2744235  93.7209799  40.2384488
  29.0937124  94.2153878  40.2619325  28.5481042  92.8041767  40.2102056
  38.0310831  86.1120551  29.6012444  37.1436686  86.3970202  29.3832638
  38.4464820  85.9514315  28.7539720  41.3825367  86.1367072  33.3166783
  42.1585757  86.6263525  33.5891400  40.6573501  86.5625127  33.7738652
  43.8197925  86.8494692  34.3740723  44.4142416  86.6090428  33.6634032
  43.8924509  86.1301822  35.0014260  26.0395081 100.6928303  34.6883888
  25.9049549  99.9328703  34.1221886  25.6227143 101.4169202  34.2212677
  37.1754044  95.8765226  23.6960464  37.8789894  96.0815229  24.3118119
  36.4516693  96.4441988  23.9609547  38.0051854  91.6275087  29.8162734
  37.9487056  92.0843639  28.9770366  38.5580197  90.8665772  29.6385576
  41.8156660  87.4164819  30.6412853  41.5593595  87.0161455  31.4721061
  41.1909528  88.1308613  30.5162992  46.1268998  90.1560892  33.1484145
  45.5668556  90.2254082  33.9215707  45.5212502  89.9801877  32.4283641
  29.1964207 101.5897620  34.9002331  29.0796591 102.5343052  34.7981021
  28.3756653 101.2871181  35.2888130  39.0840742  96.3147755  25.7458924
  39.9186346  95.8828954  25.5636398  38.9225085  96.1429769  26.6735818
  38.7386634  92.8179869  27.1115263  38.6835438  92.6524140  26.1703707
  38.1132689  93.5255901  27.2677453  23.5279149  88.0547933  40.9376685
  24.1738012  87.5446887  41.4263910  23.3196300  88.7916615  41.5120110
  36.0532541  95.1228780  46.4368826  36.9223701  95.2969433  46.0755461
  35.5739292  95.9423197  46.3144555  32.0482759  82.3187978  26.6900581
  32.0361429  83.2629818  26.8468852  32.9406181  82.1358123  26.3960042
  30.2218721 102.2425881  38.1158259  31.1245968 102.2749492  38.4324754
  29.9956091 101.3126332  38.1304595  31.9772323 100.9956868  34.7768338
  31.0267954 100.9958730  34.6632710  32.2804809 100.2489603  34.2604373
  35.8634879  78.9130754  30.9446518  35.0967275  78.3589241  31.0903200
  36.2745584  78.9852623  31.8060670  27.8676640  85.2015550  45.0351699
  28.7308101  84.8452355  45.2455024  27.2942050  84.8629445  45.7227104
  47.7125017 106.8317406  35.8414100  48.3503427 106.7124154  35.1377440
  47.5945860 107.7798250  35.9002052  44.5214723 106.7844834  35.7775625
  44.1833235 106.6685899  34.8896160  45.3904491 106.3836000  35.7576631
  40.3801539 108.6380311  31.7672516  39.8166404 108.5470248  30.9988804
  40.2653934 107.8180215  32.2475008  45.0034506 107.9379686  41.7361831
  44.9923147 107.5432484  40.8642334  45.1655145 107.2045759  42.3295602
  37.9265971 110.1331503  34.6056736  38.7187263 109.7922327  34.1903036
  38.1662621 110.2426478  35.5258890  45.9601097 112.3051279  27.0786981
  45.3089077 112.8905359  26.6920995  46.7545460 112.8357474  27.1382018
  39.8856725 109.3940416  27.4774115  40.6587601 108.8469403  27.3386991
  40.2382123 110.2584665  27.6888577  41.7241767 110.7216798  40.6841015
  41.4331633 111.6262429  40.5687681  42.3598751 110.7633326  41.3985084
  42.6497974 108.0993647  37.2742374  43.2461546 107.8749669  36.5599337
  42.7072946 107.3578392  37.8767822  42.2223002 105.5533082  25.1092565
  42.4748523 105.0314603  24.3476028  41.2847561 105.3899227  25.2119249
  47.2666285 104.5568860  32.9167308  48.0529374 104.1388283  32.5657725
  47.5304990 105.4614952  33.0848957  47.4376363 109.9941711  27.6155965
  46.8022196 110.0676337  28.3276870  47.1073769 110.5835309  26.9375044
  52.6674712 104.4944093  33.8200287  53.3999884 103.9243310  34.0538116
  51.9114068 104.1065694  34.2606792  41.9419291 107.4561188  27.3116940
  41.8255549 106.7806091  27.9798024  42.0521551 106.9693562  26.4949093
  44.2850832 106.9171335  31.0163629  43.9209039 106.3901956  31.7276551
  45.1417948 106.5269804  30.8430115  50.1900133  98.2065668  38.2794895
  49.8583457  99.0761079  38.0556110  49.5945746  97.8901952  38.9588926
  43.9256319 101.9461235  26.0124978  44.0930721 102.8141471  26.3795449
  43.7353488 102.1088516  25.0886267  46.6831652 110.4078214  37.6790808
  46.3832375 111.3103252  37.5706615  46.3382712 110.1410397  38.5311961
  40.1344134 106.8592010  33.7127513  39.2094630 106.7268224  33.9205204
  40.3828547 107.6386230  34.2097455  50.0828796 102.9260754  35.3588246
  49.1745673 102.8576162  35.0647006  50.0316392 103.4032699  36.1870071
  43.9045540 104.4018892  26.9971645  43.7845165 104.8475943  27.8357125
  43.2098128 104.7504210  26.4385183  37.4952945 106.5025284  34.5471302
  37.6245326 106.7559763  35.4610713  36.8150396 107.0952992  34.2275957
  41.6652432 117.1722534  30.6461776  41.5876462 118.1230359  30.7250256
  41.0614076 116.8268406  31.3036702  44.1569662 104.3450399  43.3023143
  43.3802996 104.9044319  43.2926007  44.7960225 104.8307182  43.8238013
  51.9490442 101.1277192  37.1366119  51.3064823 101.4209725  36.4905914
  51.4445371 101.0130112  37.9419316  49.6030606 104.8740365  27.8251979
  50.5148462 105.1067752  27.6499676  49.0940253 105.4577410  27.2627057
  42.4116034 107.1535853  42.8641110  43.1530718 107.6920897  42.5875933
  41.7053020 107.7802141  43.0212662  47.8871374 109.2964993  41.4613271
  48.2954730 108.8547404  40.7167904  47.1648635 108.7217621  41.7147464
  44.2402444 104.2337600  38.8346828  45.0863639 104.6577013  38.9781477
  44.1801081 103.5771224  39.5285391  48.2100188 109.8566184  35.2165560
  47.5809051 110.0211898  34.5141628  47.8225850 110.2707793  35.9876524
  52.0889420 110.7920622  32.5709924  51.4040458 111.1719523  32.0206957
  52.1733270 111.4015948  33.3041872  47.3901889 101.8941968  40.4928002
  47.1462821 102.6484029  39.9562278  47.6661820 102.2727316  41.3275249
  49.3440352 108.4380581  39.1705267  49.5557247 109.0812341  38.4939649
  49.2970100 107.6042897  38.7027198  46.9466581 101.0498401  36.0741840
  46.0851060 101.3479655  36.3658577  46.9729015 101.2668800  35.1422872
  43.7628150 109.5940592  32.4815645  44.2266496 109.8728295  31.6920268
  43.4984948 108.6924036  32.2988736  40.6552231 109.1412073  35.4195409
  41.2253588 109.5699342  34.7812893  41.2460343 108.8594658  36.1179594
  42.6997036 105.7163744  29.2905210  43.4021080 106.1684788  29.7579137
  42.3677665 105.0747563  29.9185104  41.1477398 104.3075501  43.6656420
  40.5176058 104.9891782  43.8991817  41.0413486 104.1958582  42.7209558
  36.4422370 103.9747297  34.5922344  35.6521424 104.2304825  34.1162455
  36.9333618 104.7895635  34.6974385  50.4586180 111.3152536  37.3427625
  51.2803624 110.9132723  37.0610306  50.4548583 111.2120770  38.2943741
  38.3937116 104.3391876  31.5505821  37.5968279 104.4510570  32.0689316
  38.1662708 104.6778528  30.6846711  44.2242783 110.8636579  39.4988335
  44.2887216 111.3256987  40.3346507  43.5153707 110.2333944  39.6270645
  34.7260073 104.2277787  37.0237335  34.9768112 105.1124797  37.2894911
  35.2619622 104.0482389  36.2512427  58.5492173 107.6591285  33.6912596
  57.7955881 107.0898683  33.5356601  58.6839714 107.6253949  34.6383231
  43.9390801 112.5304687  29.3667316  43.8036476 113.3756223  29.7952163
  44.4800613 112.7323964  28.6033249  40.4258141  98.6096267  46.0281671
  40.0325086  98.0562465  46.7029315  41.2424281  98.9206845  46.4188188
  37.3920198 110.0480125  29.9395241  37.9044719 110.8423375  30.0900805
  38.0442911 109.3506415  29.8728842  39.2015083 113.1645881  32.0217994
  39.3781711 114.0863846  31.8338978  39.9971917 112.8504300  32.4512374
  43.3426102 100.0254146  43.6201927  44.0835815 100.6261299  43.5406390
  43.5744024  99.2831784  43.0619970  38.4867440 105.2110513  41.8980157
  38.3720955 104.3095770  42.1987256  37.6311957 105.4574210  41.5464974
  45.5659277 113.1528253  43.4967658  45.1223131 112.3664632  43.1788562
  46.2276491 113.3407404  42.8311548  40.3246398 114.6824055  38.0228336
  40.8753824 114.5541118  37.2505330  39.4857874 114.9818944  37.6723229
  47.6640515 113.4331053  41.5249059  47.6458991 114.2539934  41.0329328
  48.5860435 113.3085128  41.7499200  44.1213570 110.9475183  42.3672567
  44.6541906 110.1863471  42.1371875  43.5927651 110.6548835  43.1096722
  47.2883264  96.0535249  37.8966209  46.9447534  96.9436890  37.8205320
  47.6562227  95.8636906  37.0335794  35.3569115 108.3768779  30.7154811
  36.1944337 108.7865788  30.4988519  35.5347383 107.4368221  30.6855005
  47.2533547 106.0443860  26.4038644  46.7380171 106.8148464  26.6427032
  46.9810856 105.3708996  27.0271706  44.8380658 100.8893561  31.4623883
  43.9822255 100.5000411  31.2829521  45.2507610 100.9685521  30.6023668
  46.3679805  98.4239904  35.8615442  45.8644600  98.3870039  35.0483248
  46.6610412  99.3332647  35.9212099  42.6122691  98.5078634  34.8681624
  43.4775688  98.3121442  34.5087514  42.6800200  98.2788985  35.7950981
  52.2267821 108.7976214  28.3391818  51.4497264 108.4587374  27.8946980
  52.9059302 108.8028838  27.6646783  47.0419850 103.9170952  28.2298425
  46.7369986 104.2317101  29.0808569  47.9950293 103.9952372  28.2725758
  45.4866282 110.0761175  29.8791379  44.9587644 109.3413935  29.5664617
  44.9853785 110.8535852  29.6331348  50.4659128 108.2710196  34.9958426
  49.8082803 108.9609457  35.0838554  51.2699527 108.6606628  35.3392412
  40.2185010 100.7380842  32.2397991  40.7928762 100.5156023  31.5071184
  40.8055992 100.8069536  32.9926592  49.2764587 106.6254568  33.0462367
  49.7896469 107.2584560  33.5484077  49.9265811 106.0255764  32.6805727
  40.5454597 102.7685303  26.2593876  39.7091909 103.1059989  26.5803151
  40.4059367 102.6334282  25.3221013  42.5207678  97.6122090  30.9673060
  41.8672090  97.2971108  30.3429675  42.4788152  96.9897831  31.6932883
  43.6318882 107.8941386  22.8826352  42.7245944 107.6630639  23.0817501
  44.1289914 107.0979005  23.0700334  46.5386961 116.6038893  25.8023039
  45.8648660 116.9070589  26.4107996  46.9252783 117.4067973  25.4528496
  45.7545418 104.1004024  35.2920708  44.8367979 104.3218971  35.1342396
  46.1705562 104.1750334  34.4332415  46.5380466 105.4995440  30.4223388
  47.2852285 106.0116837  30.1130510  46.8072055 105.1779492  31.2827782
  44.8107116 107.9953980  27.4050342  43.9018335 107.7113013  27.5022812
  44.8402200 108.4153059  26.5453649  50.0426383 111.6060570  31.1741510
  49.5888710 110.7651480  31.2306701  49.4120350 112.2421968  31.5116290
  48.9859303 102.5352556  32.4042177  48.2482060 102.0229942  32.7352420
  49.2386076 102.0952938  31.5925454  48.4859323 113.4437067  32.1091328
  48.7782297 114.0042124  31.3903694  48.9957943 113.7365628  32.8644487
  49.0870930  95.3128808  32.9983947  49.3929807  94.4526171  32.7109862
  49.8123535  95.9046428  32.7982941  35.3795286 105.7159494  31.3865545
  35.1819686 105.1228855  30.6616611  34.8241950 105.4111705  32.1041483
  43.3592010 105.6082601  33.5060138  43.4140620 104.6556437  33.4302614
  42.5483212 105.7642040  33.9901436  44.5083204 109.5362724  24.7438421
  44.0702634 108.8198583  24.2844058  45.2493645 109.7638839  24.1823512
  41.2984370 104.2259661  31.2650517  40.4852235 104.5253831  31.6715709
  41.7943364 103.8315349  31.9824999  43.4492948 114.2217418  33.1984781
  43.4069126 114.4478264  32.2693313  44.3655647 113.9880792  33.3470583
  46.8958581 104.6901485  40.0965411  47.2507969 104.9172958  40.9559876
  47.5430713 105.0219862  39.4742666  52.6256318 107.8119921  30.8014740
  52.4874217 108.0021517  29.8735929  52.2692537 108.5739304  31.2582791
  40.7898445 101.7978016  36.8811752  41.4297824 101.6566775  36.1834715
  39.9575975 101.5112530  36.5050354  52.6525698 109.8796448  35.8126011
  53.0862205 109.7871737  36.6609065  53.3657279 109.8553949  35.1746027
  41.5658748 111.0980447  32.9946744  42.3599347 110.6030767  32.7929319
  40.8550441 110.5698310  32.6314450  46.3853593 113.4798542  37.3459112
  46.4390615 114.0489479  38.1136828  45.5168374 113.6500427  36.9813149
  37.8741512 105.2423528  29.0706497  36.9439100 105.1807984  29.2876459
  37.9698984 104.7199481  28.2743138  37.7927061 101.7678341  31.6584738
  38.0533878 102.6823674  31.5493899  38.6144233 101.3002784  31.8081351
  39.2651986 103.1816098  38.8283563  39.9375040 102.9733461  38.1796212
  38.4381773 102.9838184  38.3888795  53.5141248 109.9220149  38.3458897
  53.7077138 110.8265959  38.5918171  53.4141866 109.4627568  39.1797482
  45.1677558  99.8078039  40.8449224  44.5205473 100.5067989  40.7513700
  45.9378574 100.2414183  41.2125472  48.5756356 110.0726891  43.9199777
  48.4241863 109.8437443  43.0029861  48.5661036 111.0297493  43.9331122
  45.3441693 107.6458804  38.9046044  46.2733753 107.7969964  38.7315011
  44.9232723 107.7342825  38.0494690  44.1430024 111.6709469  36.6744581
  44.0041110 111.3028253  37.5470519  43.3544621 112.1857108  36.5028539
  44.7378176 116.7718565  28.0170118  44.9129932 116.3006608  28.8315740
  44.0510964 117.3984331  28.2451378  45.6935240 111.0491071  34.0633419
  45.3585072 111.0091841  34.9591069  45.1939185 110.3835787  33.5903829
  39.6679484 106.4558701  39.5886000  39.5299282 105.7238940  40.1897539
  40.5784407 106.3667601  39.3070188  48.6294431 108.3947106  24.3370479
  48.0123602 107.6693934  24.2403531  48.1610920 109.1556466  23.9937553
  42.2961784 106.1678661  39.0769680  43.0061403 105.5271853  39.0356298
  42.2531092 106.4191556  39.9995861  50.2848563 113.1046014  41.9976259
  50.2261109 112.4205234  41.3306842  50.6868081 113.8465004  41.5456885
  41.0090718 103.1543879  40.8965319  40.4728075 102.7034617  41.5486916
  40.4207427 103.2889787  40.1535784  40.4192977 102.6132530  23.4591783
  39.5422443 102.4921331  23.0954030  40.8950730 101.8218608  23.2070672
  50.2865970 111.0685598  40.2290239  49.3992749 110.7311520  40.3516638
  50.8564521 110.3368629  40.4659004  31.9395117 107.4009690  33.5533290
  32.6266157 107.0871420  32.9654305  31.7843246 108.3051054  33.2800541
  36.7429839 102.2899886  37.9818314  36.6588028 101.6825556  37.2468724
  35.9212546 102.7808905  37.9827810  43.8167124 115.7287050  37.1951482
  43.7437295 116.5342022  37.7070786  43.3744517 115.9279016  36.3699503
  43.6056903 114.9658820  30.7054303  42.8224425 115.5080501  30.7992528
  44.3049648 115.4832800  31.1048545  46.9153553 100.7753450  33.3488509
  47.4122253 100.0223412  33.0289579  46.1440535 100.8117766  32.7831718
  54.7683311 106.4793815  34.9906800  54.7573187 107.3618531  34.6200733
  53.9000690 106.1265366  34.7961337  46.2765807 115.6273884  39.3509641
  46.9893779 116.2621349  39.2785542  45.7855836 115.7237750  38.5349642
  47.9983334 109.5325137  30.9226932  47.0639613 109.6526599  30.7531637
  48.1760002 108.6297604  30.6586942  43.4988522 102.9170833  33.0760193
  43.1286310 102.3641873  33.7641099  43.9947615 102.3128966  32.5235193
  51.3855885 105.3742456  31.4576966  51.8516338 106.2070448  31.3837269
  51.8363386 104.9087438  32.1622225  41.3277721 113.3768328  40.1715211
  42.0287180 114.0104811  40.3244606  40.8572836 113.7183059  39.4110851
  49.4532116 111.7186278  28.4563118  49.7291960 111.6042872  29.3656992
  48.5836615 111.3203762  28.4175291  49.3572548  97.7423043  35.4967868
  48.4435628  97.9727270  35.6650075  49.7865650  97.8261487  36.3481900
  49.1279007 105.9312935  37.9967762  48.4750457 106.1788843  37.3420214
  49.5059387 105.1177073  37.6630239  46.0886180 115.9672628  32.0995932
  46.2708575 115.1494284  32.5623684  46.9119166 116.1840321  31.6620822
  46.4228346 114.8940814  29.3610980  46.9516112 114.3833268  28.7481143
  46.6856566 114.5783344  30.2256514  45.1766580 106.6732746  44.4833799
  44.5007217 106.5726876  45.1536174  45.9994214 106.5171960  44.9469796
  36.9245439 112.9104683  37.1046314  37.5098876 112.1648371  37.2374218
  36.7270277 113.2208640  37.9882978  39.7784094 115.9455930  32.1208756
  39.1094469 116.4302058  31.6372796  39.6396964 116.1925151  33.0352135
  31.5163093 105.4810283  35.8250757  31.5547193 104.9473874  36.6187875
  31.0103386 104.9545489  35.2061734  43.9189363 117.9799674  38.7191415
  44.4707671 118.1431295  39.4840500  44.2595556 118.5704112  38.0471440
  38.8953856 100.3274824  39.3213299  38.9595182 101.1889654  38.9090697
  38.8320976  99.7148825  38.5885658  38.3706128 102.3997956  42.9686334
  38.9978167 102.0175033  43.5823858  37.5134047 102.1812158  43.3342026
  48.7700237 112.8060931  44.5740069  49.3140141 113.4190890  44.0795024
  48.1887082 113.3640510  45.0907082  35.1471671 104.2074385  28.9004689
  35.4425112 103.2985064  28.8471742  34.2459707 104.1862125  28.5785691
  47.0557750 115.9281649  35.7055097  46.9308889 115.1271389  35.1966042
  47.7136841 116.4227843  35.2169067  38.6765918 102.2830382  34.8832237
  37.9552504 102.8966350  34.7439710  39.4659174 102.8188147  34.8048883
  49.1192658 113.7290669  37.3334647  48.1722994 113.6096021  37.2612974
  49.4675431 112.8413167  37.4160908  41.4792232  99.6184808  41.1572889
  42.0026633  99.8647105  41.9199198  41.2604565 100.4504843  40.7376026
  36.8759513 101.8888483  29.0244014  36.5472219 101.0085862  28.8419120
  37.2298883 101.8336152  29.9120403  46.1239091 113.5243386  33.5338999
  45.9764054 112.5960093  33.7146569  46.9492585 113.5463476  33.0496075
  39.9901336 102.1761453  29.3919491  40.3297408 102.7047374  28.6698100
  40.4373456 102.5141859  30.1678058  49.7273213 114.3471944  34.6203872
  50.6519761 114.1414806  34.4828323  49.5588517 114.0988345  35.5293214
  42.6844777 100.5598503  38.8422559  42.3441597  99.7606316  39.2443239
  41.9783783 100.8600214  38.2699393  43.3361248  97.6447816  37.2949882
  44.1587318  97.1708294  37.1728773  43.5799312  98.4238300  37.7948569
  41.9769483 100.6736074  27.5912784  42.6977845 101.0517327  27.0876501
  41.3534787 101.3924951  27.6947762  46.1200606 101.3781223  28.5271117
  46.3364220 102.2605861  28.2259945  45.6394673 100.9867437  27.7976758
  40.8599827 104.3366936  35.1041861  40.7144408 104.6507240  35.9966143
  40.3825031 104.9551837  34.5512760  42.7196210 101.3269484  35.1522751
  42.7057779 100.4310578  34.8155049  43.4368638 101.3340148  35.7861037
  44.5722341 101.7606825  37.1975878  44.3140119 102.6823895  37.1960209
  44.0407381 101.3637259  37.8876342  49.5168530 114.8657612  29.9765963
  49.6905407 114.3004034  29.2239816  50.0097421 115.6658507  29.7945453
  35.3345489 106.8772281  38.0429522  34.7898957 107.6532089  38.1749797
  36.2124839 107.2243085  37.8848644  42.1233106 100.2083865  30.4210321
  42.2449017  99.2800511  30.6201208  41.8335148 100.2222551  29.5088636
  44.9924296  97.8938775  33.5577041  45.0145993  97.9578108  32.6029020
  45.4092355  97.0543284  33.7517547  55.3707921 107.6294035  31.5956263
  55.8139067 106.8801360  31.1975386  54.4934431 107.6204171  31.2129995
  50.5043702 114.1824376  27.0762862  51.1994607 114.8031069  27.2950176
  50.8466852 113.3319727  27.3515240  36.1211511 106.0042177  40.9359679
  35.3793247 106.1524812  41.5224310  35.8004255 106.2650443  40.0726429
  52.4035125 111.6324082  28.6050193  52.9286449 111.9711354  27.8799513
  52.3157478 110.6971097  28.4213327  44.0655174 115.5458155  40.7340069
  44.3742300 115.3007302  41.6062769  44.8630656 115.7504794  40.2458939
  44.0875786 117.6996065  32.9645446  43.6480776 117.2072444  33.6578302
  44.8383903 117.1569033  32.7237521  36.5668125 113.8907606  32.9670074
  37.3926145 113.5911378  32.5868717  36.2162177 113.1215228  33.4159862
  41.5349658 113.2434074  35.0367747  40.9129667 112.5804779  34.7369975
  42.2054525 113.2695206  34.3541395  34.7676730 111.8093932  33.9259007
  33.9308638 111.3816107  33.7443009  34.7400375 112.0026376  34.8629799
  41.6074186 101.7215862  44.6300253  41.6562341 102.5977985  44.2478023
  42.1496700 101.1793255  44.0571897  52.0929031 112.2656985  43.9101390
  51.3024575 112.2481124  43.3705890  51.8562386 112.8045279  44.6650427
  52.2126906 109.1149452  41.2234119  52.2624911 108.9499459  42.1649642
  52.1040830 108.2476711  40.8332000  41.0963165 111.7937997  28.5126208
  41.2451285 112.4773462  27.8592881  41.9029608 111.7743087  29.0275664
  49.5030669 105.0980380  42.5393426  50.4040531 104.9586845  42.2477424
  49.5778643 105.2634835  43.4791603  43.8373474 102.4747235  41.3846612
  42.9676783 102.7680801  41.1129201  44.0732954 103.0587680  42.1053876
  53.7145103 111.5346393  41.4676141  53.4229911 111.8976374  42.3039602
  53.1017234 110.8213402  41.2889473  54.9140785 109.0999273  33.9878711
  55.7487677 109.5389077  34.1516271  55.0499914 108.6237926  33.1686957
  51.9632291 106.6579008  39.9356199  52.4386413 106.8506654  39.1275050
  51.0397857 106.7138194  39.6899582  38.8515798 107.8203175  29.5187277
  38.6061840 106.9165505  29.7167487  39.0211712 107.8220326  28.5766755
  46.5412508  98.6926851  38.9012032  47.0594452  99.4287878  38.5758521
  46.1867641  98.9990845  39.7358792  38.1211445 103.5531533  27.0173438
  37.4280690 103.6275888  26.3613474  37.8763197 102.7891876  27.5394955
  46.7925102  95.1127134  34.4212929  47.0726856  94.4450323  35.0473356
  47.5775709  95.3056230  33.9087593  44.5958570 114.2886128  25.9837955
  44.0232538 114.9076315  25.5308427  45.1691364 114.8385490  26.5177877
  50.6633960 103.5344768  38.1684504  51.6151383 103.6342866  38.1896728
  50.4937411 102.7423037  38.6782589  48.6848340 100.6200351  38.3543905
  48.0898272 100.9005364  37.6590394  48.3998036 101.1094252  39.1260646
  47.8155830 114.5723278  27.1146538  48.7486503 114.5068840  27.3179413
  47.7279043 115.4079545  26.6561070  50.4443847 113.8889148  24.0750485
  50.3657478 113.5549012  24.9686243  51.2653514 114.3810916  24.0741958
  53.1422038 106.7550888  37.2826804  53.1098358 105.8166888  37.4686488
  53.7522662 106.8334924  36.5492629  44.9805369 105.6246941  23.3254008
  45.9264474 105.4953149  23.3942426  44.6019614 104.8861603  23.8023436
  53.2916527 103.5461931  37.3285087  52.7755575 102.7620388  37.1415016
  54.1756475 103.2180648  37.4931606  50.9527253  97.2902947  33.2880900
  50.7552075  96.9818035  34.1724232  51.5626959  98.0164586  33.4178830
  58.9598588 107.8166894  36.4232841  59.6901976 107.5552183  36.9840544
  58.3505533 107.0795616  36.4634909  57.0413885 105.9574757  37.0207292
  56.3147049 105.8230722  36.4123783  56.6261172 106.2651586  37.8264010
  44.8644061 109.6764687  44.7854665  45.7847071 109.8543286  44.9794711
  44.8293645 108.7320732  44.6334364  43.1648286 103.5496917  23.2608893
  42.2579742 103.2530030  23.3371607  43.4424267 103.2526735  22.3943179
  34.0826226 104.8703280  33.7107939  33.7629011 104.0168589  33.4182313
  33.5359655 105.0851859  34.4665907  37.8606134 107.5865721  37.4277446
  38.0792144 108.5182829  37.4465480  38.2731908 107.2273696  38.2132250
  44.7810352  98.0933807  29.4153134  43.9711080  97.7480892  29.7908380
  45.4694769  97.7841350  30.0040746  46.7100900  97.1711854  31.0377431
  47.2631939  97.5907307  31.6967454  46.9470986  96.2447602  31.0800387
  42.7333999 103.1598927  46.8180195  42.6330726 104.1093284  46.7492286
  42.5155541 102.8317166  45.9456265  41.9347071 100.4083852  23.4020872
  42.7966235 100.7338751  23.6616690  42.1197415  99.6215348  22.8893938
  33.9514486 108.4906192  35.6801061  33.2577958 108.0760145  35.1671015
  34.6987477 108.5326728  35.0834480  50.0879707  99.2812379  30.5456095
  49.5078376  99.9397183  30.1634148  49.8215640  98.4589723  30.1343513
  48.5383274  98.6817436  32.7477416  49.0383052  98.7933971  31.9391734
  49.1818882  98.3778489  33.3878224  42.5965269 106.5896066  45.6345257
  42.1132351 107.3896426  45.8409146  42.6826208 106.6004011  44.6812701
  35.8651229 108.4224446  33.5567076  35.8421917 108.5212133  32.6048959
  36.1751866 109.2689596  33.8784242  38.5238607 110.4800601  37.6713690
  39.4781860 110.4484543  37.6043622  38.3251130 110.0191224  38.4863916
  39.1137989 109.0501717  40.2384488  39.9330878 109.5445795  40.2619325
  39.3874797 108.1333685  40.2102056  48.8704585 101.4412469  29.6012444
  47.9830440 101.7262120  29.3832638  49.2858574 101.2806232  28.7539720
  52.2219121 101.4658990  33.3166783  52.9979511 101.9555443  33.5891400
  51.4967256 101.8917044  33.7738652  54.6591680 102.1786609  34.3740723
  55.2536171 101.9382345  33.6634032  54.7318264 101.4593740  35.0014260
  48.0147799 111.2057144  23.6960464  48.7183649 111.4107146  24.3118119
  47.2910447 111.7733906  23.9609547  48.8445609 106.9567005  29.8162734
  48.7880810 107.4135556  28.9770366  49.3973951 106.1957690  29.6385576
  52.6550415 102.7456737  30.6412853  52.3987349 102.3453373  31.4721061
  52.0303283 103.4600531  30.5162992  56.9662753 105.4852810  33.1484145
  56.4062311 105.5545999  33.9215707  56.3606256 105.3093795  32.4283641
  49.9234496 111.6439673  25.7458924  50.7580100 111.2120871  25.5636398
  49.7618839 111.4721687  26.6735818  49.5780388 108.1471786  27.1115263
  49.5229192 107.9816058  26.1703707  48.9526444 108.8547819  27.2677453
  34.3672903 103.3839851  40.9376685  35.0131767 102.8738805  41.4263910
  34.1590054 104.1208532  41.5120110  46.8926295 110.4520698  46.4368826
  47.7617455 110.6261350  46.0755461  46.4133047 111.2715115  46.3144555
  42.8876514  97.6479895  26.6900581  42.8755184  98.5921735  26.8468852
  43.7799936  97.4650041  26.3960042  41.0612476 117.5717799  38.1158259
  41.9639722 117.6041409  38.4324754  40.8349846 116.6418250  38.1304595
  42.8166078 116.3248786  34.7768338  41.8661709 116.3250647  34.6632710
  43.1198564 115.5781520  34.2604373  46.7028633  94.2422672  30.9446518
  45.9361029  93.6881159  31.0903200  47.1139338  94.3144541  31.8060670
  38.7070394 100.5307468  45.0351699  39.5701856 100.1744273  45.2455024
  38.1335805 100.1921363  45.7227104  58.5518771 122.1609324  35.8414100
  59.1897181 122.0416071  35.1377440  58.4339614 123.1090168  35.9002052
  55.3608477 122.1136752  35.7775625  55.0226989 121.9977817  34.8896160
  56.2298246 121.7127917  35.7576631  55.8428260 123.2671604  41.7361831
  55.8316901 122.8724402  40.8642334  56.0048900 122.5337677  42.3295602
  53.0616757 120.8825000  25.1092565  53.3142278 120.3606521  24.3476028
  52.1241316 120.7191145  25.2119249  58.1060040 119.8860778  32.9167308
  58.8923129 119.4680201  32.5657725  58.3698744 120.7906870  33.0848957
  63.5068467 119.8236011  33.8200287  64.2393639 119.2535228  34.0538116
  62.7507823 119.4357612  34.2606792  55.1244587 122.2463253  31.0163629
  54.7602794 121.7193874  31.7276551  55.9811702 121.8561722  30.8430115
  61.0293887 113.5357585  38.2794895  60.6977212 114.4052996  38.0556110
  60.4339501 113.2193869  38.9588926  54.7650074 117.2753152  26.0124978
  54.9324476 118.1433389  26.3795449  54.5747243 117.4380434  25.0886267
  60.9222550 118.2552671  35.3588246  60.0139428 118.1868080  35.0647006
  60.8710146 118.7324616  36.1870071  54.7439294 119.7310810  26.9971645
  54.6238920 120.1767861  27.8357125  54.0491883 120.0796127  26.4385183
  54.9963416 119.6742317  43.3023143  54.2196750 120.2336237  43.2926007
  55.6353979 120.1599100  43.8238013  62.7884197 116.4569110  37.1366119
  62.1458577 116.7501643  36.4905914  62.2839125 116.3422030  37.9419316
  60.4424361 120.2032283  27.8251979  61.3542217 120.4359670  27.6499676
  59.9334008 120.7869327  27.2627057  55.0796198 119.5629518  38.8346828
  55.9257393 119.9868931  38.9781477  55.0194836 118.9063142  39.5285391
  58.2295644 117.2233886  40.4928002  57.9856575 117.9775946  39.9562278
  58.5055574 117.6019234  41.3275249  60.1834106 123.7672498  39.1705267
  60.3951002 124.4104258  38.4939649  60.1363855 122.9334815  38.7027198
  57.7860335 116.3790319  36.0741840  56.9244814 116.6771573  36.3658577
  57.8122770 116.5960718  35.1422872  53.5390791 121.0455662  29.2905210
  54.2414834 121.4976706  29.7579137  53.2071419 120.4039481  29.9185104
  51.9871152 119.6367419  43.6656420  51.3569813 120.3183699  43.8991817
  51.8807240 119.5250500  42.7209558  47.2816125 119.3039215  34.5922344
  46.4915179 119.5596743  34.1162455  47.7727372 120.1187552  34.6974385
  49.2330870 119.6683794  31.5505821  48.4362033 119.7802488  32.0689316
  49.0056462 120.0070446  30.6846711  69.3885927 122.9883202  33.6912596
  68.6349636 122.4190600  33.5356601  69.5233469 122.9545867  34.6383231
  51.2651895 113.9388184  46.0281671  50.8718841 113.3854383  46.7029315
  52.0818035 114.2498763  46.4188188  54.1819856 115.3546063  43.6201927
  54.9229569 115.9553217  43.5406390  54.4137779 114.6123701  43.0619970
  58.1277019 111.3827166  37.8966209  57.7841288 112.2728808  37.8205320
  58.4955982 111.1928824  37.0335794  58.0927302 121.3735777  26.4038644
  57.5773925 122.1440382  26.6427032  57.8204610 120.7000914  27.0271706
  55.6774413 116.2185478  31.4623883  54.8216009 115.8292329  31.2829521
  56.0901364 116.2977439  30.6023668  57.2073559 113.7531822  35.8615442
  56.7038355 113.7161957  35.0483248  57.5004166 114.6624564  35.9212099
  53.4516445 113.8370551  34.8681624  54.3169442 113.6413360  34.5087514
  53.5193954 113.6080903  35.7950981  63.0661576 124.1268132  28.3391818
  62.2891019 123.7879292  27.8946980  63.7453057 124.1320755  27.6646783
  57.8813605 119.2462870  28.2298425  57.5763740 119.5609019  29.0808569
  58.8344047 119.3244289  28.2725758  61.3052883 123.6002113  34.9958426
  60.6476557 124.2901375  35.0838554  62.1093282 123.9898545  35.3392412
  51.0578764 116.0672759  32.2397991  51.6322516 115.8447941  31.5071184
  51.6449747 116.1361454  32.9926592  60.1158342 121.9546486  33.0462367
  60.6290223 122.5876478  33.5484077  60.7659565 121.3547682  32.6805727
  51.3848351 118.0977220  26.2593876  50.5485664 118.4351907  26.5803151
  51.2453121 117.9626200  25.3221013  53.3601432 112.9414008  30.9673060
  52.7065844 112.6263025  30.3429675  53.3181906 112.3189749  31.6932883
  56.5939172 119.4295942  35.2920708  55.6761734 119.6510889  35.1342396
  57.0099316 119.5042252  34.4332415  57.3774220 120.8287357  30.4223388
  58.1246039 121.3408755  30.1130510  57.6465810 120.5071410  31.2827782
  59.8253057 117.8644474  32.4042177  59.0875814 117.3521860  32.7352420
  60.0779831 117.4244855  31.5925454  59.9264685 110.6420726  32.9983947
  60.2323561 109.7818089  32.7109862  60.6517289 111.2338346  32.7982941
  54.1985764 120.9374519  33.5060138  54.2534374 119.9848355  33.4302614
  53.3876966 121.0933958  33.9901436  52.1378124 119.5551578  31.2650517
  51.3245990 119.8545749  31.6715709  52.6337118 119.1607267  31.9824999
  57.7352336 120.0193403  40.0965411  58.0901724 120.2464876  40.9559876
  58.3824467 120.3511780  39.4742666  63.4650073 123.1411839  30.8014740
  63.3267972 123.3313435  29.8735929  63.1086292 123.9031222  31.2582791
  51.6292199 117.1269934  36.8811752  52.2691578 116.9858693  36.1834715
  50.7969730 116.8404447  36.5050354  63.4919453 125.2088366  35.8126011
  63.9255959 125.1163655  36.6609065  64.2051033 125.1845866  35.1746027
  48.7135266 120.5715446  29.0706497  47.7832855 120.5099902  29.2876459
  48.8092738 120.0491399  28.2743138  48.6320815 117.0970259  31.6584738
  48.8927633 118.0115592  31.5493899  49.4537988 116.6294701  31.8081351
  50.1045741 118.5108016  38.8283563  50.7768794 118.3025378  38.1796212
  49.2775527 118.3130102  38.3888795  64.3535002 125.2512066  38.3458897
  64.5470892 126.1557877  38.5918171  64.2535620 124.7919485  39.1797482
  56.0071313 115.1369957  40.8449224  55.3599228 115.8359907  40.7513700
  56.7772328 115.5706101  41.2125472  56.1835447 122.9750722  38.9046044
  57.1127507 123.1261882  38.7315011  55.7626477 123.0634743  38.0494690
  59.4688186 123.7239023  24.3370479  58.8517356 122.9985852  24.2403531
  59.0004674 124.4848384  23.9937553  53.1355539 121.4970578  39.0769680
  53.8455157 120.8563771  39.0356298  53.0924847 121.7483473  39.9995861
  51.8484473 118.4835796  40.8965319  51.3121830 118.0326535  41.5486916
  51.2601181 118.6181705  40.1535784  51.2586732 117.9424448  23.4591783
  50.3816198 117.8213248  23.0954030  51.7344485 117.1510526  23.2070672
  47.5823594 117.6191804  37.9818314  47.4981783 117.0117474  37.2468724
  46.7606300 118.1100822  37.9827810  57.7547308 116.1045367  33.3488509
  58.2516007 115.3515330  33.0289579  56.9834289 116.1409684  32.7831718
  65.6077065 121.8085733  34.9906800  65.5966941 122.6910448  34.6200733
  64.7394445 121.4557284  34.7961337  54.3382277 118.2462750  33.0760193
  53.9680064 117.6933791  33.7641099  54.8341369 117.6420884  32.5235193
  62.2249640 120.7034374  31.4576966  62.6910092 121.5362366  31.3837269
  62.6757140 120.2379356  32.1622225  60.1966303 113.0714961  35.4967868
  59.2829382 113.3019188  35.6650075  60.6259404 113.1553405  36.3481900
  59.9672761 121.2604853  37.9967762  59.3144211 121.5080760  37.3420214
  60.3453141 120.4468991  37.6630239  56.0160334 122.0024664  44.4833799
  55.3400971 121.9018793  45.1536174  56.8387968 121.8463878  44.9469796
  49.7347610 115.6566741  39.3213299  49.7988937 116.5181572  38.9090697
  49.6714730 115.0440743  38.5885658  49.2099883 117.7289874  42.9686334
  49.8371922 117.3466951  43.5823858  48.3527802 117.5104076  43.3342026
  45.9865426 119.5366303  28.9004689  46.2818867 118.6276981  28.8471742
  45.0853461 119.5154042  28.5785691  49.5159673 117.6122299  34.8832237
  48.7946258 118.2258267  34.7439710  50.3052928 118.1480064  34.8048883
  52.3185986 114.9476726  41.1572889  52.8420388 115.1939023  41.9199198
  52.0998319 115.7796761  40.7376026  47.7153267 117.2180401  29.0244014
  47.3865973 116.3377779  28.8419120  48.0692638 117.1628069  29.9120403
  50.8295090 117.5053370  29.3919491  51.1691163 118.0339292  28.6698100
  51.2767211 117.8433776  30.1678058  53.5238531 115.8890421  38.8422559
  53.1835351 115.0898234  39.2443239  52.8177537 116.1892132  38.2699393
  54.1755003 112.9739733  37.2949882  54.9981072 112.5000212  37.1728773
  54.4193066 113.7530217  37.7948569  52.8163237 116.0027992  27.5912784
  53.5371600 116.3809245  27.0876501  52.1928542 116.7216869  27.6947762
  56.9594360 116.7073141  28.5271117  57.1757975 117.5897779  28.2259945
  56.4788427 116.3159354  27.7976758  51.6993582 119.6658854  35.1041861
  51.5538162 119.9799157  35.9966143  51.2218785 120.2843754  34.5512760
  53.5589965 116.6561402  35.1522751  53.5451533 115.7602495  34.8155049
  54.2762393 116.6632066  35.7861037  55.4116095 117.0898742  37.1975878
  55.1533873 118.0115813  37.1960209  54.8801136 116.6929177  37.8876342
  52.9626860 115.5375782  30.4210321  53.0842772 114.6092429  30.6201208
  52.6728903 115.5514468  29.5088636  55.8318051 113.2230693  33.5577041
  55.8539748 113.2870026  32.6029020  56.2486110 112.3835201  33.7517547
  66.2101675 122.9585952  31.5956263  66.6532821 122.2093278  31.1975386
  65.3328185 122.9496089  31.2129995  52.4467940 117.0507780  44.6300253
  52.4956095 117.9269903  44.2478023  52.9890454 116.5085173  44.0571897
  63.0520661 124.4441369  41.2234119  63.1018666 124.2791377  42.1649642
  62.9434584 123.5768628  40.8332000  60.3424423 120.4272297  42.5393426
  61.2434286 120.2878762  42.2477424  60.4172398 120.5926752  43.4791603
  54.6767228 117.8039152  41.3846612  53.8070538 118.0972718  41.1129201
  54.9126709 118.3879597  42.1053876  65.7534540 124.4291191  33.9878711
  66.5881431 124.8680995  34.1516271  65.8893669 123.9529844  33.1686957
  62.8026046 121.9870926  39.9356199  63.2780167 122.1798572  39.1275050
  61.8791611 122.0430111  39.6899582  57.3806262 114.0218769  38.9012032
  57.8988206 114.7579796  38.5758521  57.0261395 114.3282762  39.7358792
  48.9605200 118.8823450  27.0173438  48.2674445 118.9567805  26.3613474
  48.7156952 118.1183794  27.5394955  57.6318856 110.4419052  34.4212929
  57.9120610 109.7742241  35.0473356  58.4169463 110.6348147  33.9087593
  61.5027715 118.8636686  38.1684504  62.4545138 118.9634783  38.1896728
  61.3331165 118.0714954  38.6782589  59.5242094 115.9492269  38.3543905
  58.9292026 116.2297282  37.6590394  59.2391791 116.4386170  39.1260646
  63.9815793 122.0842805  37.2826804  63.9492113 121.1458806  37.4686488
  64.5916416 122.1626842  36.5492629  55.8199123 120.9538858  23.3254008
  56.7658228 120.8245066  23.3942426  55.4413368 120.2153520  23.8023436
  64.1310281 118.8753849  37.3285087  63.6149330 118.0912305  37.1415016
  65.0150230 118.5472565  37.4931606  61.7921008 112.6194864  33.2880900
  61.5945829 112.3109953  34.1724232  62.4020714 113.3456503  33.4178830
  69.7992342 123.1458812  36.4232841  70.5295731 122.8844100  36.9840544
  69.1899288 122.4087534  36.4634909  67.8807640 121.2866675  37.0207292
  67.1540803 121.1522640  36.4123783  67.4654926 121.5943503  37.8264010
  54.0042041 118.8788835  23.2608893  53.0973496 118.5821947  23.3371607
  54.2818022 118.5818653  22.3943179  55.6204106 113.4225724  29.4153134
  54.8104835 113.0772809  29.7908380  56.3088523 113.1133268  30.0040746
  57.5494655 112.5003771  31.0377431  58.1025693 112.9199225  31.6967454
  57.7864741 111.5739519  31.0800387  53.5727754 118.4890845  46.8180195
  53.4724481 119.4385202  46.7492286  53.3549296 118.1609084  45.9456265
  52.7740825 115.7375770  23.4020872  53.6359989 116.0630668  23.6616690
  52.9591169 114.9507266  22.8893938  60.9273462 114.6104296  30.5456095
  60.3472131 115.2689100  30.1634148  60.6609394 113.7881641  30.1343513
  59.3777028 114.0109354  32.7477416  59.8776806 114.1225889  31.9391734
  60.0212636 113.7070407  33.3878224  59.7098340 116.7704387  29.6012444
  58.8224195 117.0554037  29.3832638  60.1252329 116.6098150  28.7539720
  63.0612876 116.7950908  33.3166783  63.8373266 117.2847360  33.5891400
  62.3361010 117.2208962  33.7738652  65.4985434 117.5078527  34.3740723
  66.0929925 117.2674263  33.6634032  65.5712018 116.7885658  35.0014260
  59.6839363 122.2858923  29.8162734  59.6274565 122.7427474  28.9770366
  60.2367706 121.5249607  29.6385576  63.4944169 118.0748655  30.6412853
  63.2381104 117.6745290  31.4721061  62.8697037 118.7892448  30.5162992
  67.8056507 120.8144728  33.1484145  67.2456065 120.8837917  33.9215707
  67.2000011 120.6385712  32.4283641  60.4174143 123.4763704  27.1115263
  60.3622947 123.3107975  26.1703707  59.7920198 124.1839737  27.2677453
  45.2066658 118.7131768  40.9376685  45.8525521 118.2030722  41.4263910
  44.9983809 119.4500450  41.5120110  53.7270268 112.9771813  26.6900581
  53.7148938 113.9213653  26.8468852  54.6193690 112.7941958  26.3960042
  57.5422388 109.5714590  30.9446518  56.7754784 109.0173076  31.0903200
  57.9533093 109.6436458  31.8060670  49.5464149 115.8599385  45.0351699
  50.4095610 115.5036190  45.2455024  48.9729559 115.5213280  45.7227104
  68.9670773 126.7119084  37.8966209  68.6235043 127.6020726  37.8205320
  69.3349736 126.5220742  37.0335794  70.7658439 125.9712643  32.9983947
  71.0717316 125.1110007  32.7109862  71.4911044 126.5630263  32.7982941
  68.4712611 125.7710969  34.4212929  68.7514365 125.1034158  35.0473356
  69.2563218 125.9640065  33.9087593  72.6314762 127.9486782  33.2880900
  72.4339584 127.6401870  34.1724232  73.2414468 128.6748421  33.4178830
  68.3816142 124.9006507  30.9446518  67.6148538 124.3464994  31.0903200
  68.7926847 124.9728376  31.8060670   6.9273546  28.7940466  28.7221566
   6.8686092  28.1099686  28.0552149   7.3293065  29.5359456  28.2702192
   5.4125220  28.4955383  31.2985376   5.9565124  29.1085341  30.8040331
   4.8312065  29.0534962  31.8152389   8.7354014  27.9551437  30.6346697
   7.9449558  27.9375576  30.0951197   8.4987369  28.4939731  31.3895734
  10.3570086  27.2240845  28.1921447  10.0654895  27.5870826  29.0284908
   9.7442218  26.5107853  28.0134779   3.5351279  26.1415150  33.1614132
   4.4042438  26.3155802  32.8000767   3.0558030  26.9609567  33.0389862
  15.1943754  37.8503776  22.5659407  15.8322164  37.7310523  21.8622747
  15.0764597  38.7984620  22.6247359  12.0033461  37.8031204  22.5020932
  11.6651972  37.6872269  21.6141467  12.8723229  37.4022369  22.4821938
  12.4853244  38.9566056  28.4607137  12.4741885  38.5618854  27.5887641
  12.6473883  38.2232128  29.0540909   5.4084708  41.1517872  21.3302043
   6.2006000  40.8108697  20.9148342   5.6481359  41.2612847  22.2504196
   9.2060505  41.7403168  27.4086321   8.9150371  42.6448798  27.2932987
   9.8417489  41.7819695  28.1230391  10.1316712  39.1180016  23.9987681
  10.7280284  38.8936039  23.2844644  10.1891683  38.3764762  24.6013129
  20.1493450  35.5130463  20.5445594  20.8818622  34.9429680  20.7783423
  19.3932806  35.1252063  20.9852099  17.6718870  29.2252037  25.0040202
  17.3402195  30.0947448  24.7801417  17.0764484  28.9088321  25.6834233
  14.1650390  41.4264583  24.4036115  13.8651113  42.3289622  24.2951922
  13.8201450  41.1596766  25.2557268  17.5647534  33.9447123  22.0833552
  16.6564411  33.8762532  21.7892313  17.5135130  34.4219068  22.9115378
   9.1471170  48.1908903  17.3707083   9.0695199  49.1416729  17.4495563
   8.5432813  47.8454776  18.0282009  11.6388400  35.3636769  30.0268449
  10.8621734  35.9230689  30.0171314  12.2778963  35.8493552  30.5483320
  19.4309180  32.1463562  23.8611426  18.7883560  32.4396095  23.2151221
  18.9264109  32.0316482  24.6664623   9.8934772  38.1722222  29.5886416
  10.6349456  38.7107266  29.3121240   9.1871757  38.7988511  29.7457968
  15.3690111  40.3151363  28.1858578  15.7773468  39.8733773  27.4413210
  14.6467373  39.7403990  28.4392771  11.7221182  35.2523969  25.5592135
  12.5682377  35.6763383  25.7026784  11.6619819  34.5957594  26.2530698
  15.6918926  40.8752553  21.9410867  15.0627789  41.0398267  21.2386935
  15.3044588  41.2894163  22.7121831  19.5708158  41.8106991  19.2955231
  18.8859196  42.1905893  18.7452264  19.6552007  42.4202318  20.0287178
  14.8720627  32.9128338  27.2173309  14.6281559  33.6670398  26.6807584
  15.1480557  33.2913685  28.0520556  16.8259090  39.4566950  25.8950574
  17.0375985  40.0998710  25.2184955  16.7788838  38.6229267  25.4272504
   8.1370969  40.1598443  22.1440715   8.7072326  40.5885711  21.5058200
   8.7279081  39.8781028  22.8424901   8.6296136  35.3261870  30.3901726
   7.9994796  36.0078151  30.6237123   8.5232223  35.2144952  29.4454865
  17.9404918  42.3338906  24.0672931  18.7622361  41.9319093  23.7855613
  17.9367320  42.2307140  25.0189047  11.7061521  41.8822949  26.2233642
  11.7705954  42.3443356  27.0591814  10.9972445  41.2520314  26.3515952
  26.0310911  38.6777654  20.4157903  25.2774619  38.1085052  20.2601907
  26.1658452  38.6440319  21.3628538   7.9076878  29.6282636  32.7526977
   7.5143824  29.0748835  33.4274622   8.7243019  29.9393215  33.1433495
   6.6833821  44.1832251  18.7463301   6.8600449  45.1050215  18.5584284
   7.4790654  43.8690670  19.1757680  10.8244839  31.0440515  30.3447234
  11.5654553  31.6447668  30.2651697  11.0562762  30.3018153  29.7865277
   5.9686177  36.2296883  28.6225464   5.8539692  35.3282140  28.9232563
   5.1130695  36.4760579  28.2710280  13.0478015  44.1714623  30.2212964
  12.6041869  43.3851001  29.9033869  13.7095229  44.3593773  29.5556855
   7.8065136  45.7010425  24.7473643   8.3572561  45.5727488  23.9750637
   6.9676612  46.0005314  24.3968536  15.1459253  44.4517423  28.2494366
  15.1277728  45.2726304  27.7574635  16.0679173  44.3271498  28.4744507
  11.6032307  41.9661552  29.0917874  12.1360644  41.2049841  28.8617182
  11.0746388  41.6735204  29.8342028  17.9477866  39.2896565  21.7203732
  17.2901540  39.9795827  21.8083861  18.7518265  39.6792997  22.0637719
  16.7583325  37.6440938  19.7707674  17.2715207  38.2770930  20.2729384
  17.4084549  37.0442133  19.4051034  13.2364156  35.1190394  22.0166015
  12.3186717  35.3405341  21.8587703  13.6524299  35.1936704  21.1577722
  17.5245121  42.6246939  17.8986817  17.0707448  41.7837849  17.9552007
  16.8939088  43.2608338  18.2361597  15.9678060  44.4623436  18.8336635
  16.2601035  45.0228493  18.1149000  16.4776681  44.7551997  19.5889794
  10.9311685  45.2403787  19.9230088  10.8887864  45.4664634  18.9938620
  11.8474384  45.0067162  20.0715889  14.3777319  35.7087855  26.8210717
  14.7326707  35.9359328  27.6805183  15.0249450  36.0406232  26.1987973
  20.1075056  38.8306291  17.5260046  19.9692955  39.0207887  16.5981235
  19.7511275  39.5925673  17.9828097  20.1344436  40.8982818  22.5371318
  20.5680942  40.8058107  23.3854372  20.8476017  40.8740318  21.8991334
  13.8672331  44.4984912  24.0704418  13.9209353  45.0675848  24.8382134
  12.9987112  44.6686797  23.7058456   6.7470724  34.2002468  25.5528870
   7.4193778  33.9919830  24.9041519   5.9200511  34.0024554  25.1134102
  20.9959985  40.9406518  25.0704203  21.1895875  41.8452329  25.3163478
  20.8960604  40.4813937  25.9042788  12.6496296  30.8264409  27.5694531
  12.0024211  31.5254359  27.4759007  13.4197312  31.2600553  27.9370779
  16.0575094  41.0913261  30.6445084  15.9060600  40.8623813  29.7275167
  16.0479774  42.0483862  30.6576429  12.8260430  38.6645174  25.6291350
  13.7552490  38.8156333  25.4560318  12.4051460  38.7529195  24.7739997
  11.6248762  42.6895838  23.3989888  11.4859848  42.3214623  24.2715826
  10.8363358  43.2043478  23.2273846  12.2196914  47.7904935  14.7415424
  12.3948670  47.3192978  15.5561047  11.5329702  48.4170701  14.9696685
  13.1753977  42.0677441  20.7878726  12.8403810  42.0278211  21.6836376
  12.6757923  41.4022157  20.3149136   7.1498221  37.4745071  26.3131307
   7.0118019  36.7425310  26.9142846   8.0603145  37.3853971  26.0315495
   9.7780522  37.1865030  25.8014986  10.4880141  36.5458222  25.7601605
   9.7349830  37.4377925  26.7241167  17.7667301  44.1232384  28.7221566
  17.7079847  43.4391604  28.0552149  18.1686819  44.8651374  28.2702192
   8.4909456  34.1730248  27.6210626   7.9546813  33.7220987  28.2732222
   7.9026164  34.3076157  26.8781090   6.7857999  50.9394297  21.5155285
   7.0254598  51.5712822  22.1934303   5.9427196  50.5882337  21.8020644
  17.7684708  42.0871968  26.9535545  16.8811487  41.7497889  27.0761944
  18.3383259  41.3554999  27.1904311  11.2985861  46.7473420  23.9196789
  11.2256033  47.5528391  24.4316093  10.8563254  46.9465386  23.0944810
  11.0875641  45.9845190  17.4299610  10.3043163  46.5266870  17.5237835
  11.7868386  46.5019170  17.8293851  22.2502049  37.4980185  21.7152107
  22.2391925  38.3804900  21.3446040  21.3819428  37.1451736  21.5206644
  13.7584545  46.6460254  26.0754947  14.4712517  47.2807719  26.0030849
  13.2674574  46.7424120  25.2594949   8.8096458  44.3954697  26.8960518
   9.5105918  45.0291180  27.0489912   8.3391573  44.7369429  26.1356157
  16.6097744  36.9499305  24.7213068  15.9569195  37.1975212  24.0665521
  16.9878124  36.1363443  24.3875546  13.5704918  46.9858998  18.8241239
  13.7527313  46.1680654  19.2868991  14.3937904  47.2026690  18.3866129
  13.9047084  45.9127183  16.0856287  14.4334850  45.4019638  15.4726449
  14.1675303  45.5969713  16.9501820  12.6585317  37.6919116  31.2079105
  11.9825954  37.5913245  31.8781481  13.4812951  37.5358330  31.6715103
   4.4064176  43.9291052  23.8291621   4.9917613  43.1834740  23.9619525
   4.2089015  44.2395009  24.7128285   7.2602832  46.9642300  18.8454063
   6.5913207  47.4488427  18.3618103   7.1215701  47.2111520  19.7597442
  11.4008100  48.9986043  25.4436721  11.9526408  49.1617665  26.2085807
  11.7414294  49.5890481  24.7716746   5.8524866  33.4184326  29.6931640
   6.4796905  33.0361403  30.3069165   4.9952785  33.1998528  30.0587333
  16.2518975  43.8247301  31.2985376  16.7958879  44.4377259  30.8040331
  15.6705819  44.3826879  31.8152389  14.5376488  46.9468019  22.4300404
  14.4127627  46.1457759  21.9211349  15.1955579  47.4414212  21.9414374
  16.6011396  44.7477039  24.0579954  15.6541731  44.6282390  23.9858280
  16.9494169  43.8599537  24.1406215   8.9610969  30.6371178  27.8818196
   9.4845371  30.8833474  28.6444505   8.7423303  31.4691213  27.4621333
  13.6057829  44.5429755  20.2584306  13.4582792  43.6146463  20.4391876
  14.4311323  44.5649846  19.7741381  17.2091951  45.3658314  21.3449179
  18.1338499  45.1601175  21.2073630  17.0407254  45.1174715  22.2538520
  10.1663514  31.5784873  25.5667866   9.8260335  30.7792686  25.9688546
   9.4602521  31.8786584  24.9944699  12.0541079  32.7793194  23.9221185
  11.7958856  33.7010265  23.9205515  11.5226119  32.3823629  24.6121649
  16.9987267  45.8843981  16.7011270  17.1724145  45.3190404  15.9485123
  17.4916159  46.6844876  16.5190760   2.8164227  37.8958650  24.7674829
   2.2717695  38.6718458  24.8995103   3.6943577  38.2429455  24.6093950
  22.8526658  38.6480404  18.3201570  23.2957805  37.8987729  17.9220693
  21.9753169  38.6390541  17.9375302  17.9862440  45.2010746  13.8008168
  18.6813344  45.8217438  14.0195483  18.3285590  44.3506097  14.0760546
   3.6030249  37.0228547  27.6604986   2.8611985  37.1711182  28.2469616
   3.2822993  37.2836812  26.7971735  19.8853863  42.6510451  15.3295499
  20.4105187  42.9897724  14.6044819  19.7976215  41.7157467  15.1458634
  11.5473912  46.5644525  27.4585376  11.8561038  46.3193672  28.3308075
  12.3449394  46.7691163  26.9704246  11.5694524  48.7182435  19.6890752
  11.1299514  48.2258813  20.3823609  12.3202641  48.1755402  19.4482828
   4.0486863  44.9093975  19.6915380   4.8744883  44.6097747  19.3114024
   3.6980915  44.1401598  20.1405169   9.0168396  44.2620444  21.7613054
   8.3948405  43.5991149  21.4615282   9.6873263  44.2881576  21.0786702
   9.0892923  32.7402232  31.3545560   9.1381079  33.6164354  30.9723330
   9.6315438  32.1979625  30.7817203  19.5747769  43.2843355  30.6346697
  18.7843313  43.2667494  30.0951197  19.3381124  43.8231649  31.3895734
  19.6945644  40.1335821  27.9479426  19.7443649  39.9685829  28.8894948
  19.5859567  39.2663080  27.5577306  16.9849406  36.1166749  29.2638732
  17.8859269  35.9773214  28.9722730  17.0597381  36.2821204  30.2036910
  11.3192212  33.4933604  28.1091919  10.4495521  33.7867170  27.8374507
  11.5551692  34.0774049  28.8299182  21.1963841  42.5532763  28.1921447
  20.9048649  42.9162743  29.0284908  20.5835972  41.8399771  28.0134779
  22.3959523  40.1185643  20.7124017  23.2306415  40.5575447  20.8761578
  22.5318652  39.6424296  19.8932263  19.4451029  37.6765377  26.6601505
  19.9205151  37.8693024  25.8520357  18.5216594  37.7324563  26.4144889
  14.0231246  29.7113221  25.6257339  14.5413189  30.4474248  25.3003828
  13.6686378  30.0177214  26.4604098  18.1452698  34.5531138  24.8929811
  19.0970121  34.6529235  24.9142035  17.9756149  33.7609406  25.4027895
  16.1667078  31.6386721  25.0789212  15.5717010  31.9191733  24.3835700
  15.8816774  32.1280622  25.8505953  20.6240776  37.7737257  24.0072110
  20.5917096  36.8353258  24.1931794  21.2341400  37.8521294  23.2737935
  20.7735264  34.5648301  24.0530394  20.2574313  33.7806757  23.8660322
  21.6575213  34.2367017  24.2176913  26.4417326  38.8353264  23.1478147
  27.1720714  38.5738552  23.7085851  25.8324271  38.0981986  23.1880215
  24.5232623  36.9761127  23.7452598  23.7965786  36.8417092  23.1369090
  24.1079910  37.2837955  24.5509316  12.3462799  40.6951056  31.5099971
  13.2665809  40.8729655  31.7040018  12.3112382  39.7507102  31.3579671
   5.3424872  38.6052091  24.1522753   5.5610882  39.5369199  24.1710786
   5.7550646  38.2460065  24.9377556  10.2152737  34.1785297  33.5425502
  10.1149464  35.1279654  33.4737593   9.9974279  33.8503536  32.6701572
  10.0784007  37.6082436  32.3590563   9.5951089  38.4082796  32.5654452
  10.1644946  37.6190380  31.4058007   6.0057345  41.4986970  24.3958997
   6.9600598  41.4670913  24.3288929   5.8069868  41.0377594  25.2109223
   6.5956727  40.0688086  26.9629795   7.4149616  40.5632165  26.9864632
   6.8693535  39.1520054  26.9347362  22.1410418  33.1972979  21.0986030
  22.7354909  32.9568715  20.3879338  22.2137001  32.4780109  21.7259566
   4.3607573  47.0406590  21.4129195   4.2262041  46.2806991  20.8467193
   3.9439636  47.7647490  20.9457984  24.4481491  36.5039180  19.8729451
  23.8881049  36.5732369  20.6461013  23.8424994  36.3280164  19.1528947
   7.5176699  47.9375907  21.6247638   7.4009083  48.8821339  21.5226328
   6.6969146  47.6349468  22.0133437   1.8491641  34.4026220  27.6621992
   2.4950505  33.8925174  28.1509217   1.6408792  35.1394902  28.2365417
  14.3745033  41.4707068  33.1614132  15.2436193  41.6447720  32.8000767
  13.8951785  42.2901485  33.0389862   8.5431213  48.5904169  24.8403566
   9.4458460  48.6227779  25.1570061   8.3168584  47.6604620  24.8549902
  10.2984815  47.3435155  21.5013645   9.3480447  47.3437017  21.3878017
  10.6017302  46.5967890  20.9849679   6.1889132  31.5493837  31.7597006
   7.0520594  31.1930642  31.9700331   5.6154543  31.2107732  32.4472410
  26.0337509  53.1795694  22.5659407  26.6715919  53.0602441  21.8622747
  25.9158352  54.1276538  22.6247359  22.8427215  53.1323122  22.5020932
  22.5045727  53.0164186  21.6141467  23.7116983  52.7314287  22.4821938
  18.7014031  54.9858598  18.4917823  18.1378896  54.8948535  17.7234110
  18.5866426  54.1658503  18.9720315  23.3246998  54.2857973  28.4607137
  23.3135639  53.8910772  27.5887641  23.4867638  53.5524046  29.0540909
  16.2478463  56.4809790  21.3302043  17.0399755  56.1400614  20.9148342
  16.4875113  56.5904765  22.2504196  24.2813590  58.6529566  13.8032288
  23.6301569  59.2383646  13.4166301  25.0757952  59.1835761  13.8627325
  18.2069217  55.7418703  14.2019422  18.9800093  55.1947690  14.0632298
  18.5594616  56.6062952  14.4133883  20.0454259  57.0695085  27.4086321
  19.7544125  57.9740716  27.2932987  20.6811244  57.1111613  28.1230391
  20.9710466  54.4471934  23.9987681  21.5674038  54.2227956  23.2844644
  21.0285438  53.7056679  24.6013129  20.5435495  51.9011369  11.8337872
  20.7961015  51.3792890  11.0721335  19.6060054  51.7377515  11.9364555
  25.5878777  50.9047147  19.6412615  26.3741867  50.4866571  19.2903032
  25.8517482  51.8093240  19.8094263  25.7588855  56.3419998  14.3401272
  25.1234688  56.4154624  15.0522176  25.4286261  56.9313597  13.6620351
  30.9887205  50.8422381  20.5445594  31.7212377  50.2721597  20.7783423
  30.2326560  50.4543981  20.9852099  20.2631783  53.8039475  14.0362247
  20.1468041  53.1284378  14.7043331  20.3734043  53.3171849  13.2194400
  22.6063324  53.2649622  17.7408936  22.2421532  52.7380243  18.4521857
  23.4630440  52.8748091  17.5675421  28.5112625  44.5543955  25.0040202
  28.1795950  45.4239366  24.7801417  27.9158238  44.2380239  25.6834233
  22.2468811  48.2939522  12.7370284  22.4143214  49.1619758  13.1040756
  22.0565980  48.4566804  11.8131574  25.0044144  56.7556501  24.4036115
  24.7044868  57.6581540  24.2951922  24.6595204  56.4888684  25.2557268
  18.4556626  53.2070298  20.4372819  17.5307122  53.0746512  20.6450511
  18.7041039  53.9864517  20.9342762  28.4041288  49.2739041  22.0833552
  27.4958166  49.2054449  21.7892313  28.3528884  49.7510986  22.9115378
  22.2258032  50.7497179  13.7216951  22.1057657  51.1954230  14.5602432
  21.5310621  51.0982497  13.1630489  15.8165437  52.8503571  21.2716608
  15.9457818  53.1038050  22.1856020  15.1362888  53.4431279  20.9521263
  19.9864924  63.5200821  17.3707083  19.9088954  64.4708646  17.4495563
  19.3826568  63.1746694  18.0282009  22.4782154  50.6928687  30.0268449
  21.7015488  51.2522607  30.0171314  23.1172717  51.1785470  30.5483320
  30.2702935  47.4755479  23.8611426  29.6277315  47.7688013  23.2151221
  29.7657863  47.3608400  24.6664623  27.9243098  51.2218653  14.5497285
  28.8360954  51.4546039  14.3744983  27.4152745  51.8055697  13.9872364
  20.7328526  53.5014140  29.5886416  21.4743211  54.0399184  29.3121240
  20.0265512  54.1280429  29.7457968  26.2083866  55.6443280  28.1858578
  26.6167222  55.2025691  27.4413210  25.4861127  55.0695908  28.4392771
  22.5614936  50.5815887  25.5592135  23.4076131  51.0055301  25.7026784
  22.5013574  49.9249511  26.2530698  26.5312681  56.2044471  21.9410867
  25.9021543  56.3690185  21.2386935  26.1438343  56.6186081  22.7121831
  30.4101913  57.1398909  19.2955231  29.7252951  57.5197810  18.7452264
  30.4945762  57.7494236  20.0287178  25.7114381  48.2420256  27.2173309
  25.4675313  48.9962316  26.6807584  25.9874312  48.6205603  28.0520556
  27.6652844  54.7858868  25.8950574  27.8769739  55.4290628  25.2184955
  27.6182592  53.9521184  25.4272504  25.2679073  47.3976689  22.7987146
  24.4063552  47.6957942  23.0903884  25.2941508  47.6147087  21.8668179
  22.0840643  55.9418879  19.2060952  22.5478988  56.2206582  18.4165574
  21.8197441  55.0402324  19.0234043  18.9764724  55.4890361  22.1440715
  19.5466081  55.9177629  21.5058200  19.5672835  55.2072945  22.8424901
  21.0209529  52.0642031  16.0150517  21.7233572  52.5163075  16.4824443
  20.6890157  51.4225850  16.6430410  19.4689890  50.6553788  30.3901726
  18.8388551  51.3370069  30.6237123  19.3625978  50.5436870  29.4454865
  14.7634863  50.3225584  21.3167651  13.9733917  50.5783113  20.8407761
  15.2546110  51.1373922  21.4219691  28.7798672  57.6630823  24.0672931
  29.6016116  57.2611011  23.7855613  28.7761075  57.5599057  25.0189047
  16.7149608  50.6870163  18.2751127  15.9180771  50.7988858  18.7934623
  16.4875200  51.0256816  17.4092018  22.5455276  57.2114867  26.2233642
  22.6099708  57.6735274  27.0591814  21.8366199  56.5812232  26.3515952
  13.0472566  50.5756075  23.7482641  13.2980604  51.4603084  24.0140217
  13.5832114  50.3960676  22.9757733  36.8704665  54.0069572  20.4157903
  36.1168374  53.4376970  20.2601907  37.0052206  53.9732236  21.3628538
  22.2603293  58.8782974  16.0912622  22.1248968  59.7234510  16.5197470
  22.8013106  59.0802252  15.3278556  18.7470633  44.9574554  32.7526977
  18.3537578  44.4040752  33.4274622  19.5636773  45.2685132  33.1433495
  15.7132691  56.3958412  16.6640547  16.2257211  57.1901662  16.8146112
  16.3655403  55.6984703  16.5974149  17.5227575  59.5124168  18.7463301
  17.6994204  60.4342133  18.5584284  18.3184409  59.1982588  19.1757680
  21.6638594  46.3732433  30.3447234  22.4048307  46.9739586  30.2651697
  21.8956517  45.6310071  29.7865277  16.8079932  51.5588800  28.6225464
  16.6933447  50.6574058  28.9232563  15.9524450  51.8052497  28.2710280
  23.8871770  59.5006541  30.2212964  23.4435624  58.7142919  29.9033869
  24.5488983  59.6885691  29.5556855  18.6458891  61.0302342  24.7473643
  19.1966316  60.9019406  23.9750637  17.8070367  61.3297231  24.3968536
  25.9853008  59.7809341  28.2494366  25.9671483  60.6018222  27.7574635
  26.9072928  59.6563416  28.4744507  22.4426062  57.2953470  29.0917874
  22.9754399  56.5341758  28.8617182  21.9140143  57.0027122  29.8342028
  25.6095757  42.4013536  24.6211516  25.2660026  43.2915178  24.5450626
  25.9774719  42.2115194  23.7581101  13.6781607  54.7247066  17.4400118
  14.5156829  55.1344075  17.2233826  13.8559875  53.7846509  17.4100312
  25.5746039  52.3922147  13.1283951  25.0592663  53.1626752  13.3672338
  25.3023348  51.7187283  13.7517012  23.1593151  47.2371848  18.1869189
  22.3034747  46.8478698  18.0074828  23.5720102  47.3163809  17.3268975
  24.6892297  44.7718191  22.5860749  24.1857093  44.7348326  21.7728554
  24.9822904  45.6810934  22.6457406  20.9335183  44.8556921  21.5926931
  21.7988180  44.6599730  21.2332820  21.0012692  44.6267273  22.5196287
  30.5480314  55.1454502  15.0637124  29.7709756  54.8065661  14.6192286
  31.2271795  55.1507125  14.3892089  25.3632343  50.2649239  14.9543732
  25.0582478  50.5795388  15.8053875  26.3162785  50.3430659  14.9971065
  23.8078775  56.4239462  16.6036686  23.2800136  55.6892222  16.2909923
  23.3066277  57.2014139  16.3576654  28.7871621  54.6188483  21.7203732
  28.1295295  55.3087744  21.8083861  29.5912020  55.0084915  22.0637719
  18.5397502  47.0859129  18.9643298  19.1141254  46.8634310  18.2316490
  19.1268485  47.1547823  19.7171899  27.5977079  52.9732856  19.7707674
  28.1108961  53.6062847  20.2729384  28.2478303  52.3734051  19.4051034
  18.8667089  49.1163590  12.9839183  18.0304401  49.4538276  13.3048458
  18.7271859  48.9812570  12.0466320  20.8420170  43.9600378  17.6918367
  20.1884582  43.6449395  17.0674982  20.8000644  43.3376118  18.4178190
  21.9531375  54.2419673   9.6071659  21.0458436  54.0108926   9.8062808
  22.4502407  53.4457292   9.7945641  24.8599454  62.9517180  12.5268345
  24.1861152  63.2548877  13.1353303  25.2465276  63.7546260  12.1773802
  24.0757910  50.4482311  22.0166015  23.1580472  50.6697258  21.8587703
  24.4918054  50.5228622  21.1577722  24.8592958  51.8473727  17.1468695
  25.6064777  52.3595124  16.8375817  25.1284547  51.5257780  18.0073088
  23.1319608  54.3432268  14.1295649  22.2230827  54.0591300  14.2268119
  23.1614692  54.7631346  13.2698956  28.3638876  57.9538857  17.8986817
  27.9101203  57.1129767  17.9552007  27.7332842  58.5900255  18.2361597
  27.3071795  48.8830843  19.1287484  26.5694552  48.3708229  19.4597727
  27.5598569  48.4431225  18.3170761  26.8071815  59.7915354  18.8336635
  27.0994789  60.3520411  18.1149000  27.3170435  60.0843915  19.5889794
  27.4083422  41.6607095  19.7229253  27.7142299  40.8004459  19.4355168
  28.1336027  42.2524715  19.5228247  13.7007778  52.0637782  18.1110851
  13.5032178  51.4707142  17.3861918  13.1454442  51.7589992  18.8286790
  21.6804502  51.9560888  20.2305444  21.7353112  51.0034725  20.1547921
  20.8695704  52.1120327  20.7146743  22.8295696  55.8841011  11.4683728
  22.3915126  55.1676870  11.0089365  23.5706137  56.1117126  10.9068819
  19.6196862  50.5737948  17.9895823  18.8064728  50.8732119  18.3961015
  20.1155856  50.1793637  18.7070306  21.7705440  60.5695705  19.9230088
  21.7281619  60.7956551  18.9938620  22.6868139  60.3359079  20.0715889
  25.2171074  51.0379772  26.8210717  25.5720461  51.2651246  27.6805183
  25.8643205  51.3698149  26.1987973  30.9468811  54.1598208  17.5260046
  30.8086709  54.3499804  16.5981235  30.5905030  54.9217591  17.9828097
  19.1110937  48.1456303  23.6057058  19.7510316  48.0045063  22.9080022
  18.2788467  47.8590817  23.2295660  30.9738190  56.2274735  22.5371318
  31.4074697  56.1350024  23.3854372  31.6869771  56.2032236  21.8991334
  19.8871241  57.4458734  19.7192051  20.6811839  56.9509054  19.5174626
  19.1762933  56.9176597  19.3559756  24.7066085  59.8276829  24.0704418
  24.7603107  60.3967766  24.8382134  23.8380867  59.9978714  23.7058456
  16.1954004  51.5901816  15.7951803  15.2651592  51.5286271  16.0121766
  16.2911476  51.0677768  14.9988445  16.1139553  48.1156628  18.3830045
  16.3746371  49.0301962  18.2739206  16.9356726  47.6481071  18.5326658
  17.5864479  49.5294386  25.5528870  18.2587532  49.3211748  24.9041519
  16.7594265  49.3316472  25.1134102  31.8353740  56.2698436  25.0704203
  32.0289630  57.1744246  25.3163478  31.7354358  55.8105855  25.9042788
  23.4890051  46.1556327  27.5694531  22.8417966  46.8546276  27.4759007
  24.2591066  46.5892470  27.9370779  26.8968849  56.4205179  30.6445084
  26.7454355  56.1915730  29.7275167  26.8873528  57.3775780  30.6576429
  23.6654185  53.9937091  25.6291350  24.5946245  54.1448251  25.4560318
  23.2445215  54.0821112  24.7739997  22.4642517  58.0187756  23.3989888
  22.3253602  57.6506540  24.2715826  21.6757113  58.5335395  23.2273846
  23.0590669  63.1196852  14.7415424  23.2342424  62.6484896  15.5561047
  22.3723457  63.7462619  14.9696685  24.0147732  57.3969359  20.7878726
  23.6797564  57.3570129  21.6836376  23.5151678  56.7314075  20.3149136
  17.9891976  52.8036989  26.3131307  17.8511774  52.0717227  26.9142846
  18.8996899  52.7145889  26.0315495  26.9506924  54.7425393  11.0615785
  26.3336094  54.0172221  10.9648838  26.4823412  55.5034753  10.7182860
  20.6174277  52.5156948  25.8014986  21.3273895  51.8750140  25.7601605
  20.5743585  52.7669843  26.7241167  28.6061055  59.4524301  28.7221566
  28.5473601  58.7683521  28.0552149  29.0080574  60.1943291  28.2702192
  19.3303210  49.5022166  27.6210626  18.7940568  49.0512904  28.2732222
  18.7419919  49.6368075  26.8781090  17.6251754  66.2686215  21.5155285
  17.8648352  66.9004739  22.1934303  16.7820950  65.9174255  21.8020644
  28.6078462  57.4163885  26.9535545  27.7205241  57.0789807  27.0761944
  29.1777014  56.6846916  27.1904311  10.2607610  53.7487977  20.2778597
  10.9478649  53.4349707  19.6899612  10.1055738  54.6529342  20.0045848
  15.0642332  48.6378174  24.7063620  14.9800520  48.0303843  23.9714030
  14.2425038  49.1287192  24.7073117  22.1379616  62.0765338  23.9196789
  22.0649787  62.8820309  24.4316093  21.6957009  62.2757303  23.0944810
  21.9269395  61.3137108  17.4299610  21.1436917  61.8558788  17.5237835
  22.6262141  61.8311087  17.8293851  25.2366046  47.1231737  20.0733815
  25.7334745  46.3701699  19.7534886  24.4653027  47.1596054  19.5077025
  33.0895803  52.8272103  21.7152107  33.0785679  53.7096818  21.3446040
  32.2213182  52.4743653  21.5206644  24.5978299  61.9752172  26.0754947
  25.3106272  62.6099636  26.0030849  24.1068328  62.0716038  25.2594949
  26.3195826  55.8803424  17.6472239  25.3852105  56.0004887  17.4776943
  26.4972495  54.9775891  17.3832249  21.8201014  49.2649120  19.8005500
  21.4498802  48.7120160  20.4886406  22.3160107  48.6607254  19.2480500
  29.7068378  51.7220744  18.1822273  30.1728830  52.5548735  18.1082576
  30.1575878  51.2565725  18.8867531  19.6490213  59.7246615  26.8960518
  20.3499672  60.3583098  27.0489912  19.1785328  60.0661347  26.1356157
  27.7744609  58.0664565  15.1808425  28.0504453  57.9521159  16.0902299
  26.9049107  57.6682050  15.1420598  27.6785040  44.0901331  22.2213174
  26.7648120  44.3205557  22.3895381  28.1078142  44.1739775  23.0727207
  27.4491499  52.2791223  24.7213068  26.7962949  52.5267130  24.0665521
  27.8271879  51.4655361  24.3875546  24.4098673  62.3150916  18.8241239
  24.5921067  61.4972572  19.2868991  25.2331659  62.5318608  18.3866129
  24.7440838  61.2419101  16.0856287  25.2728605  60.7311555  15.4726449
  25.0069058  60.9261631  16.9501820  23.4979072  53.0211034  31.2079105
  22.8219709  52.9205163  31.8781481  24.3206706  52.8650247  31.6715103
  15.2457931  59.2582970  23.8291621  15.8311368  58.5126658  23.9619525
  15.0482769  59.5686927  24.7128285  18.0996586  62.2934217  18.8454063
  17.4306961  62.7780345  18.3618103  17.9609456  62.5403438  19.7597442
   9.8375586  51.8288570  22.5496064   9.8759685  51.2952161  23.3433182
   9.3315879  51.3023776  21.9307041  22.2401855  64.3277961  25.4436721
  22.7920163  64.4909583  26.2085807  22.5808048  64.9182399  24.7716746
  17.2166348  46.6753111  26.0458606  17.2807674  47.5367942  25.6336004
  17.1533468  46.0627112  25.3130965  16.6918621  48.7476243  29.6931640
  17.3190659  48.3653321  30.3069165  15.8346539  48.5290445  30.0587333
  27.0912729  59.1539219  31.2985376  27.6352633  59.7669177  30.8040331
  26.5099574  59.7118797  31.8152389  13.4684163  50.5552672  15.6249995
  13.7637604  49.6463351  15.5717049  12.5672199  50.5340412  15.3030998
  25.3770242  62.2759937  22.4300404  25.2521382  61.4749676  21.9211349
  26.0349333  62.7706130  21.9414374  16.9978410  48.6308669  21.6077544
  16.2764996  49.2444637  21.4685017  17.7871666  49.1666434  21.5294190
  27.4405150  60.0768957  24.0579954  26.4935486  59.9574308  23.9858280
  27.7887924  59.1891455  24.1406215  19.8004724  45.9663096  27.8818196
  20.3239126  46.2125392  28.6444505  19.5817057  46.7983130  27.4621333
  15.1972005  48.2366770  15.7489320  14.8684711  47.3564149  15.5664426
  15.5511376  48.1814439  16.6365710  24.4451584  59.8721673  20.2584306
  24.2976546  58.9438380  20.4391876  25.2705077  59.8941764  19.7741381
  18.3113828  48.5239740  16.1164798  18.6509901  49.0525661  15.3943406
  18.7585949  48.8620146  16.8923365  28.0485706  60.6950232  21.3449179
  28.9732253  60.4893093  21.2073630  27.8801009  60.4466633  22.2538520
  21.0057269  46.9076791  25.5667866  20.6654089  46.1084604  25.9688546
  20.2996275  47.2078501  24.9944699  21.6573741  43.9926103  24.0195189
  22.4799810  43.5186581  23.8974079  21.9011804  44.7716587  24.5193875
  20.2981975  47.0214362  14.3158091  21.0190338  47.3995614  13.8121808
  19.6747279  47.7403238  14.4193069  24.4413098  47.7259510  15.2516423
  24.6576712  48.6084148  14.9505251  23.9607165  47.3345724  14.5222065
  19.1812319  50.6845224  21.8287168  19.0356900  50.9985527  22.7211449
  18.7037523  51.3030124  21.2758066  21.0408702  47.6747772  21.8768057
  21.0270271  46.7788865  21.5400355  21.7581130  47.6818435  22.5106343
  22.8934833  48.1085112  23.9221185  22.6352611  49.0302183  23.9205515
  22.3619873  47.7115546  24.6121649  27.8381022  61.2135899  16.7011270
  28.0117899  60.6482322  15.9485123  28.3309913  62.0136794  16.5190760
  13.6557982  53.2250568  24.7674829  13.1111450  54.0010376  24.8995103
  14.5337331  53.5721373  24.6093950  20.4445598  46.5562152  17.1455627
  20.5661509  45.6278798  17.3446515  20.1547641  46.5700838  16.2333943
  23.3136789  44.2417062  20.2822347  23.3358485  44.3056396  19.3274327
  23.7304848  43.4021571  20.4762853  33.6920413  53.9772322  18.3201570
  34.1351559  53.2279647  17.9220693  32.8146923  53.9682458  17.9375302
  28.8256194  60.5302663  13.8008168  29.5207099  61.1509356  14.0195483
  29.1679344  59.6798015  14.0760546  14.4424003  52.3520464  27.6604986
  13.7005739  52.5003100  28.2469616  14.1216748  52.6128730  26.7971735
  30.7247617  57.9802369  15.3295499  31.2498941  58.3189642  14.6044819
  30.6369970  57.0449384  15.1458634  22.3867666  61.8936443  27.4585376
  22.6954793  61.6485589  28.3308075  23.1843148  62.0983081  26.9704246
  22.4088278  64.0474352  19.6890752  21.9693268  63.5550731  20.3823609
  23.1596395  63.5047320  19.4482828  14.8880617  60.2385893  19.6915380
  15.7138637  59.9389665  19.3114024  14.5374669  59.4693516  20.1405169
  19.8562150  59.5912361  21.7613054  19.2342160  58.9283066  21.4615282
  20.5267017  59.6173493  21.0786702  13.0889222  58.1572220  20.6504314
  12.2521130  57.7294394  20.4688315  13.0612868  58.3504663  21.5875105
  19.9286678  48.0694149  31.3545560  19.9774833  48.9456272  30.9723330
  20.4709192  47.5271542  30.7817203  30.4141523  58.6135273  30.6346697
  29.6237067  58.5959411  30.0951197  30.1774878  59.1523566  31.3895734
  30.5339399  55.4627739  27.9479426  30.5837403  55.2977746  28.8894948
  30.4253322  54.5954998  27.5577306  19.4175657  58.1416285  15.2371515
  19.5663778  58.8251749  14.5838187  20.2242101  58.1221375  15.7520970
  27.8243161  51.4458667  29.2638732  28.7253024  51.3065132  28.9722730
  27.8991135  51.6113122  30.2036910  22.1585966  48.8225522  28.1091919
  21.2889276  49.1159088  27.8374507  22.3945447  49.4065967  28.8299182
  32.0357595  57.8824680  28.1921447  31.7442404  58.2454661  29.0284908
  31.4229727  57.1691689  28.0134779  33.2353278  55.4477560  20.7124017
  34.0700169  55.8867364  20.8761578  33.3712406  54.9716213  19.8932263
  30.2844784  53.0057295  26.6601505  30.7598905  53.1984941  25.8520357
  29.3610349  53.0616481  26.4144889  17.1728290  54.1681462  16.2432583
  16.9274332  53.2643792  16.4412794  17.3424205  54.1698613  15.3012061
  24.8625000  45.0405139  25.6257339  25.3806944  45.7766166  25.3003828
  24.5080133  45.3469132  26.4604098  16.4423938  49.9009820  13.7418745
  15.7493183  49.9754175  13.0858781  16.1975690  49.1370164  14.2640262
  25.1137594  41.4605421  21.1458236  25.3939348  40.7928610  21.7718662
  25.8988201  41.6534517  20.6332900  22.9171063  60.6364415  12.7083262
  22.3445030  61.2554602  12.2553734  23.4903856  61.1863777  13.2423184
  28.9846453  49.8823055  24.8929811  29.9363875  49.9821153  24.9142035
  28.8149903  49.0901324  25.4027895  27.0060832  46.9678638  25.0789212
  26.4110764  47.2483651  24.3835700  26.7210529  47.4572539  25.8505953
  26.1368323  60.9201565  13.8391844  27.0698996  60.8547127  14.0424720
  26.0491535  61.7557832  13.3806377  28.7656339  60.2367436  10.7995792
  28.6869971  59.9027299  11.6931550  29.5866006  60.7289203  10.7987264
  31.4634530  53.1029175  24.0072110  31.4310850  52.1645176  24.1931794
  32.0735154  53.1813212  23.2737935  23.3017861  51.9725228  10.0499314
  24.2476966  51.8431436  10.1187733  22.9232106  51.2339890  10.5268743
  31.6129019  49.8940218  24.0530394  31.0968068  49.1098675  23.8660322
  32.4968967  49.5658935  24.2176913  29.2739746  43.6381234  20.0126206
  29.0764567  43.3296322  20.8969538  29.8839451  44.3642873  20.1424136
  37.2811080  54.1645182  23.1478147  38.0114469  53.9030470  23.7085851
  36.6718026  53.4273904  23.1880215  35.3626377  52.3053044  23.7452598
  34.6359541  52.1709009  23.1369090  34.9473664  52.6129873  24.5509316
  23.1856554  56.0242974  31.5099971  24.1059563  56.2021573  31.7040018
  23.1506137  55.0799019  31.3579671  12.4038719  51.2181568  20.4353246
  12.0841503  50.3646876  20.1427620  11.8572147  51.4330146  21.1911213
  16.1818626  53.9344009  24.1522753  16.4004636  54.8661116  24.1710786
  16.5944400  53.5751983  24.9377556  23.1022844  44.4412094  16.1398441
  22.2923572  44.0959179  16.5153687  23.7907261  44.1319638  16.7286053
  25.0313392  43.5190141  17.7622738  25.5844431  43.9385594  18.4212761
  25.2683479  42.5925889  17.8045694  21.0546492  49.5077214  33.5425502
  20.9543219  50.4571571  33.4737593  20.8368034  49.1795453  32.6701572
  12.2726979  54.8384479  22.4046368  11.5790450  54.4238432  21.8916322
  13.0199970  54.8805016  21.8079787  28.4092199  45.6290666  17.2701402
  27.8290869  46.2875470  16.8879454  28.1428132  44.8068011  16.8588819
  26.8595766  45.0295724  19.4722722  27.3595544  45.1412258  18.6637041
  27.5031374  44.7256776  20.1123531  20.9177762  52.9374353  32.3590563
  20.4344843  53.7374713  32.5654452  21.0038701  52.9482298  31.4058007
  14.1863721  54.7702733  20.2812383  14.1634409  54.8690420  19.3294266
  14.4964358  55.6167884  20.6029549  16.8451099  56.8278888  24.3958997
  17.7994353  56.7962830  24.3288929  16.6463623  56.3669512  25.2109223
  17.4350481  55.3980004  26.9629795  18.2543370  55.8924083  26.9864632
  17.7087289  54.4811972  26.9347362  27.1917078  47.7890756  16.3257750
  26.3042933  48.0740407  16.1077945  27.6071067  47.6284520  15.4785027
  30.5431614  47.8137277  20.0412089  31.3192004  48.3033730  20.3136706
  29.8179748  48.2395331  20.4983959  32.9804172  48.5264897  21.0986030
  33.5748663  48.2860632  20.3879338  33.0530756  47.8072027  21.7259566
  15.2001328  62.3698507  21.4129195  15.0655796  61.6098908  20.8467193
  14.7833390  63.0939407  20.9457984  26.3360291  57.5535431  10.4205770
  27.0396141  57.7585433  11.0363426  25.6122940  58.1212193  10.6854854
  27.1658101  53.3045292  16.5408040  27.1093303  53.7613844  15.7015673
  27.7186444  52.5435977  16.3630883  30.9762907  49.0935024  17.3658160
  30.7199841  48.6931660  18.1966368  30.3515775  49.8078818  17.2408299
  35.2875245  51.8331097  19.8729451  34.7274803  51.9024287  20.6461013
  34.6818748  51.6572082  19.1528947  18.3570454  63.2667824  21.6247638
  18.2402838  64.2113257  21.5226328  17.5362900  62.9641386  22.0133437
  28.2446988  57.9917960  12.4704230  29.0792592  57.5599159  12.2881705
  28.0831331  57.8199974  13.3981125  27.8992881  54.4950074  13.8360570
  27.8441684  54.3294345  12.8949014  27.2738936  55.2026106  13.9922759
  12.6885396  49.7318138  27.6621992  13.3344259  49.2217092  28.1509217
  12.4802547  50.4686820  28.2365417  25.2138788  56.7998985  33.1614132
  26.0829947  56.9739638  32.8000767  24.7345539  57.6193402  33.0389862
  21.2089006  43.9958183  13.4145888  21.1967676  44.9400022  13.5714159
  22.1012428  43.8128328  13.1205349  19.3824968  63.9196086  24.8403566
  20.2852215  63.9519697  25.1570061  19.1562338  62.9896537  24.8549902
  21.1378570  62.6727073  21.5013645  20.1874201  62.6728935  21.3878017
  21.4411056  61.9259807  20.9849679  25.0241125  40.5900959  17.6691825
  24.2573521  40.0359446  17.8148507  25.4351830  40.6622828  18.5305976
  17.0282887  46.8785755  31.7597006  17.8914348  46.5222560  31.9700331
  16.4548297  46.5399650  32.4472410  36.8731263  68.5087611  22.5659407
  37.5109673  68.3894359  21.8622747  36.7552106  69.4568455  22.6247359
  33.6820970  68.4615039  22.5020932  33.3439481  68.3456104  21.6141467
  34.5510738  68.0606204  22.4821938  29.5407785  70.3150516  18.4917823
  28.9772651  70.2240453  17.7234110  29.4260180  69.4950420  18.9720315
  34.1640753  69.6149891  28.4607137  34.1529394  69.2202689  27.5887641
  34.3261392  68.8815964  29.0540909  27.0872217  71.8101707  21.3302043
  27.8793509  71.4692532  20.9148342  27.3268868  71.9196682  22.2504196
  35.1207344  73.9821484  13.8032288  34.4695324  74.5675564  13.4166301
  35.9151707  74.5127678  13.8627325  29.0462971  71.0710621  14.2019422
  29.8193847  70.5239608  14.0632298  29.3988370  71.9354870  14.4133883
  30.8848014  72.3987003  27.4086321  30.5937880  73.3032634  27.2932987
  31.5204998  72.4403531  28.1230391  31.8104221  69.7763851  23.9987681
  32.4067793  69.5519874  23.2844644  31.8679192  69.0348597  24.6013129
  31.3829249  67.2303287  11.8337872  31.6354770  66.7084808  11.0721335
  30.4453808  67.0669432  11.9364555  36.4272532  66.2339065  19.6412615
  37.2135621  65.8158488  19.2903032  36.6911236  67.1385157  19.8094263
  36.5982609  71.6711915  14.3401272  35.9628442  71.7446542  15.0522176
  36.2680016  72.2605514  13.6620351  41.8280959  66.1714298  20.5445594
  42.5606131  65.6013515  20.7783423  41.0720315  65.7835899  20.9852099
  31.1025538  69.1331393  14.0362247  30.9861796  68.4576296  14.7043331
  31.2127798  68.6463767  13.2194400  33.4457079  68.5941540  17.7408936
  33.0815286  68.0672161  18.4521857  34.3024195  68.2040009  17.5675421
  39.3506379  59.8835872  25.0040202  39.0189704  60.7531283  24.7801417
  38.7551993  59.5672156  25.6834233  33.0862566  63.6231440  12.7370284
  33.2536968  64.4911676  13.1040756  32.8959735  63.7858721  11.8131574
  35.8437899  72.0848418  24.4036115  35.5438622  72.9873457  24.2951922
  35.4988958  71.8180602  25.2557268  29.2950380  68.5362215  20.4372819
  28.3700877  68.4038429  20.6450511  29.5434794  69.3156435  20.9342762
  39.2435043  64.6030959  22.0833552  38.3351920  64.5346367  21.7892313
  39.1922639  65.0802904  22.9115378  33.0651787  66.0789097  13.7216951
  32.9451412  66.5246148  14.5602432  32.3704375  66.4274415  13.1630489
  26.6559191  68.1795489  21.2716608  26.7851573  68.4329968  22.1856020
  25.9756643  68.7723197  20.9521263  30.8258679  78.8492739  17.3707083
  30.7482708  79.8000564  17.4495563  30.2220322  78.5038611  18.0282009
  33.3175909  66.0220604  30.0268449  32.5409243  66.5814524  30.0171314
  33.9566472  66.5077387  30.5483320  41.1096689  62.8047397  23.8611426
  40.4671069  63.0979930  23.2151221  40.6051618  62.6900317  24.6664623
  38.7636853  66.5510570  14.5497285  39.6754709  66.7837957  14.3744983
  38.2546500  67.1347614  13.9872364  31.5722281  68.8306058  29.5886416
  32.3136965  69.3691102  29.3121240  30.8659266  69.4572346  29.7457968
  37.0477620  70.9735198  28.1858578  37.4560977  70.5317609  27.4413210
  36.3254882  70.3987826  28.4392771  33.4008691  65.9107805  25.5592135
  34.2469886  66.3347218  25.7026784  33.3407328  65.2541429  26.2530698
  37.3706435  71.5336389  21.9410867  36.7415298  71.6982103  21.2386935
  36.9832097  71.9477998  22.7121831  41.2495667  72.4690827  19.2955231
  40.5646705  72.8489728  18.7452264  41.3339516  73.0786153  20.0287178
  36.5508136  63.5712173  27.2173309  36.3069068  64.3254234  26.6807584
  36.8268066  63.9497521  28.0520556  38.5046599  70.1150786  25.8950574
  38.7163494  70.7582545  25.2184955  38.4576347  69.2813102  25.4272504
  36.1072828  62.7268606  22.7987146  35.2457307  63.0249860  23.0903884
  36.1335262  62.9439005  21.8668179  32.9234397  71.2710797  19.2060952
  33.3872743  71.5498500  18.4165574  32.6591195  70.3694241  19.0234043
  29.8158478  70.8182278  22.1440715  30.3859835  71.2469547  21.5058200
  30.4066590  70.5364863  22.8424901  31.8603283  67.3933949  16.0150517
  32.5627326  67.8454993  16.4824443  31.5283912  66.7517768  16.6430410
  30.3083645  65.9845706  30.3901726  29.6782305  66.6661987  30.6237123
  30.2019732  65.8728787  29.4454865  25.6028617  65.6517502  21.3167651
  24.8127671  65.9075030  20.8407761  26.0939864  66.4665840  21.4219691
  39.6192427  72.9922741  24.0672931  40.4409870  72.5902928  23.7855613
  39.6154829  72.8890975  25.0189047  27.5543362  66.0162081  18.2751127
  26.7574526  66.1280775  18.7934623  27.3268955  66.3548733  17.4092018
  33.3849030  72.5406784  26.2233642  33.4493463  73.0027192  27.0591814
  32.6759954  71.9104149  26.3515952  23.8866320  65.9047992  23.7482641
  24.1374358  66.7895002  24.0140217  24.4225868  65.7252594  22.9757733
  47.7098420  69.3361489  20.4157903  46.9562128  68.7668888  20.2601907
  47.8445961  69.3024154  21.3628538  33.0997048  74.2074892  16.0912622
  32.9642722  75.0526427  16.5197470  33.6406860  74.4094169  15.3278556
  29.5864387  60.2866472  32.7526977  29.1931333  59.7332670  33.4274622
  30.4030528  60.5977050  33.1433495  26.5526445  71.7250330  16.6640547
  27.0650966  72.5193580  16.8146112  27.2049158  71.0276620  16.5974149
  28.3621330  74.8416086  18.7463301  28.5387958  75.7634051  18.5584284
  29.1578163  74.5274505  19.1757680  32.5032348  61.7024351  30.3447234
  33.2442062  62.3031504  30.2651697  32.7350271  60.9601988  29.7865277
  27.6473686  66.8880718  28.6225464  27.5327201  65.9865975  28.9232563
  26.7918204  67.1344415  28.2710280  34.7265524  74.8298458  30.2212964
  34.2829378  74.0434837  29.9033869  35.3882738  75.0177609  29.5556855
  29.4852645  76.3594260  24.7473643  30.0360070  76.2311323  23.9750637
  28.6464121  76.6589149  24.3968536  36.8246762  75.1101258  28.2494366
  36.8065237  75.9310139  27.7574635  37.7466682  74.9855333  28.4744507
  33.2819816  72.6245388  29.0917874  33.8148153  71.8633676  28.8617182
  32.7533897  72.3319039  29.8342028  36.4489511  57.7305454  24.6211516
  36.1053781  58.6207095  24.5450626  36.8168474  57.5407111  23.7581101
  24.5175362  70.0538984  17.4400118  25.3550584  70.4635992  17.2233826
  24.6953630  69.1138426  17.4100312  36.4139794  67.7214065  13.1283951
  35.8986417  68.4918669  13.3672338  36.1417102  67.0479201  13.7517012
  33.9986905  62.5663766  18.1869189  33.1428501  62.1770616  18.0074828
  34.4113857  62.6455726  17.3268975  35.5286052  60.1010109  22.5860749
  35.0250847  60.0640244  21.7728554  35.8216659  61.0102852  22.6457406
  31.7728938  60.1848839  21.5926931  32.6381934  59.9891647  21.2332820
  31.8406446  59.9559190  22.5196287  41.3874068  70.4746419  15.0637124
  40.6103511  70.1357579  14.6192286  42.0665549  70.4799043  14.3892089
  36.2026097  65.5941157  14.9543732  35.8976233  65.9087306  15.8053875
  37.1556539  65.6722577  14.9971065  34.6472529  71.7531380  16.6036686
  34.1193891  71.0184140  16.2909923  34.1460032  72.5306057  16.3576654
  39.6265375  69.9480401  21.7203732  38.9689049  70.6379662  21.8083861
  40.4305774  70.3376833  22.0637719  29.3791257  62.4151046  18.9643298
  29.9535009  62.1926228  18.2316490  29.9662239  62.4839741  19.7171899
  38.4370834  68.3024773  19.7707674  38.9502716  68.9354765  20.2729384
  39.0872058  67.7025969  19.4051034  29.7060844  64.4455507  12.9839183
  28.8698156  64.7830194  13.3048458  29.5665613  64.3104487  12.0466320
  31.6813924  59.2892295  17.6918367  31.0278337  58.9741313  17.0674982
  31.6394398  58.6668036  18.4178190  32.7925129  69.5711590   9.6071659
  31.8852191  69.3400844   9.8062808  33.2896161  68.7749210   9.7945641
  35.6993208  78.2809098  12.5268345  35.0254907  78.5840794  13.1353303
  36.0859030  79.0838178  12.1773802  34.9151665  65.7774229  22.0166015
  33.9974226  65.9989176  21.8587703  35.3311808  65.8520539  21.1577722
  35.6986712  67.1765645  17.1468695  36.4458531  67.6887042  16.8375817
  35.9678302  66.8549697  18.0073088  33.9713363  69.6724185  14.1295649
  33.0624582  69.3883218  14.2268119  34.0008446  70.0923264  13.2698956
  39.2032630  73.2830775  17.8986817  38.7494957  72.4421685  17.9552007
  38.5726597  73.9192173  18.2361597  38.1465550  64.2122761  19.1287484
  37.4088306  63.7000147  19.4597727  38.3992323  63.7723142  18.3170761
  37.6465569  75.1207271  18.8336635  37.9388544  75.6812329  18.1149000
  38.1564190  75.4135832  19.5889794  38.2477177  56.9899013  19.7229253
  38.5536054  56.1296376  19.4355168  38.9729782  57.5816633  19.5228247
  24.5401533  67.3929699  18.1110851  24.3425933  66.7999060  17.3861918
  23.9848197  67.0881910  18.8286790  32.5198257  67.2852806  20.2305444
  32.5746866  66.3326642  20.1547921  31.7089459  67.4412245  20.7146743
  33.6689450  71.2132929  11.4683728  33.2308880  70.4968788  11.0089365
  34.4099891  71.4409044  10.9068819  30.4590617  65.9029866  17.9895823
  29.6458482  66.2024036  18.3961015  30.9549611  65.5085554  18.7070306
  32.6099194  75.8987623  19.9230088  32.5675373  76.1248469  18.9938620
  33.5261893  75.6650997  20.0715889  36.0564828  66.3671690  26.8210717
  36.4114216  66.5943163  27.6805183  36.7036959  66.6990067  26.1987973
  41.7862565  69.4890126  17.5260046  41.6480464  69.6791722  16.5981235
  41.4298784  70.2509509  17.9828097  29.9504691  63.4748221  23.6057058
  30.5904071  63.3336980  22.9080022  29.1182222  63.1882735  23.2295660
  41.8131945  71.5566653  22.5371318  42.2468451  71.4641942  23.3854372
  42.5263525  71.5324153  21.8991334  30.7264995  72.7750652  19.7192051
  31.5205594  72.2800972  19.5174626  30.0156688  72.2468515  19.3559756
  35.5459840  75.1568747  24.0704418  35.5996862  75.7259683  24.8382134
  34.6774621  75.3270632  23.7058456  27.0347759  66.9193733  15.7951803
  26.1045347  66.8578189  16.0121766  27.1305231  66.3969686  14.9988445
  26.9533308  63.4448546  18.3830045  27.2140125  64.3593879  18.2739206
  27.7750480  62.9772989  18.5326658  28.4258233  64.8586303  25.5528870
  29.0981287  64.6503665  24.9041519  27.5988020  64.6608389  25.1134102
  42.6747494  71.5990354  25.0704203  42.8683384  72.5036164  25.3163478
  42.5748113  71.1397773  25.9042788  34.3283805  61.4848244  27.5694531
  33.6811720  62.1838194  27.4759007  35.0984820  61.9184388  27.9370779
  37.7362603  71.7497096  30.6445084  37.5848109  71.5207648  29.7275167
  37.7267283  72.7067698  30.6576429  34.5047939  69.3229009  25.6291350
  35.4339999  69.4740169  25.4560318  34.0838969  69.4113030  24.7739997
  33.3036271  73.3479674  23.3989888  33.1647357  72.9798458  24.2715826
  32.5150867  73.8627313  23.2273846  33.8984423  78.4488770  14.7415424
  34.0736179  77.9776813  15.5561047  33.2117211  79.0754536  14.9696685
  34.8541486  72.7261276  20.7878726  34.5191319  72.6862046  21.6836376
  34.3545432  72.0605992  20.3149136  28.8285730  68.1328906  26.3131307
  28.6905528  67.4009145  26.9142846  29.7390654  68.0437806  26.0315495
  37.7900678  70.0717311  11.0615785  37.1729849  69.3464139  10.9648838
  37.3217166  70.8326671  10.7182860  31.4568031  67.8448866  25.8014986
  32.1667650  67.2042058  25.7601605  31.4137339  68.0961760  26.7241167
  39.4454810  74.7816219  28.7221566  39.3867356  74.0975439  28.0552149
  39.8474328  75.5235209  28.2702192  30.1696965  64.8314083  27.6210626
  29.6334322  64.3804822  28.2732222  29.5813673  64.9659992  26.8781090
  28.4645508  81.5978133  21.5155285  28.7042107  82.2296657  22.1934303
  27.6214705  81.2466173  21.8020644  29.5799224  64.2902735  10.1837090
  28.7028690  64.1691536   9.8199336  30.0556977  63.4988813   9.9315978
  39.4472217  72.7455803  26.9535545  38.5598996  72.4081725  27.0761944
  40.0170768  72.0138834  27.1904311  21.1001364  69.0779895  20.2778597
  21.7872404  68.7641625  19.6899612  20.9449493  69.9821259  20.0045848
  25.9036086  63.9670091  24.7063620  25.8194275  63.3595761  23.9714030
  25.0818793  64.4579110  24.7073117  32.9773370  77.4057255  23.9196789
  32.9043542  78.2112227  24.4316093  32.5350763  77.6049221  23.0944810
  32.7663150  76.6429025  17.4299610  31.9830672  77.1850705  17.5237835
  33.4655895  77.1603005  17.8293851  36.0759800  62.4523655  20.0733815
  36.5728500  61.6993617  19.7534886  35.3046782  62.4887971  19.5077025
  43.9289557  68.1564020  21.7152107  43.9179434  69.0388736  21.3446040
  43.0606937  67.8035571  21.5206644  35.4372054  77.3044089  26.0754947
  36.1500026  77.9391554  26.0030849  34.9462083  77.4007955  25.2594949
  37.1589581  71.2095342  17.6472239  36.2245860  71.3296804  17.4776943
  37.3366249  70.3067809  17.3832249  32.6594769  64.5941038  19.8005500
  32.2892556  64.0412078  20.4886406  33.1553861  63.9899171  19.2480500
  40.5462132  67.0512661  18.1822273  41.0122584  67.8840653  18.1082576
  40.9969633  66.5857643  18.8867531  30.4883967  75.0538533  26.8960518
  31.1893427  75.6875016  27.0489912  30.0179082  75.3953264  26.1356157
  38.6138363  73.3956483  15.1808425  38.8898207  73.2813077  16.0902299
  37.7442862  72.9973967  15.1420598  38.5178795  59.4193248  22.2213174
  37.6041875  59.6497475  22.3895381  38.9471896  59.5031692  23.0727207
  38.2885253  67.6083140  24.7213068  37.6356704  67.8559048  24.0665521
  38.6665633  66.7947278  24.3875546  35.2492427  77.6442833  18.8241239
  35.4314822  76.8264489  19.2868991  36.0725413  77.8610526  18.3866129
  35.5834593  76.5711018  16.0856287  36.1122359  76.0603473  15.4726449
  35.8462812  76.2553549  16.9501820  34.3372826  68.3502951  31.2079105
  33.6613463  68.2497081  31.8781481  35.1600460  68.1942165  31.6715103
  26.0851685  74.5874888  23.8291621  26.6705122  73.8418576  23.9619525
  25.8876524  74.8978844  24.7128285  28.9390341  77.6226135  18.8454063
  28.2700716  78.1072263  18.3618103  28.8003210  77.8695356  19.7597442
  20.6769340  67.1580488  22.5496064  20.7153440  66.6244079  23.3433182
  20.1709633  66.6315694  21.9307041  33.0795609  79.6569879  25.4436721
  33.6313917  79.8201500  26.2085807  33.4201803  80.2474317  24.7716746
  28.0560102  62.0045029  26.0458606  28.1201429  62.8659859  25.6336004
  27.9927223  61.3919030  25.3130965  27.5312375  64.0768161  29.6931640
  28.1584414  63.6945238  30.3069165  26.6740294  63.8582363  30.0587333
  37.9306484  74.4831136  31.2985376  38.4746388  75.0961094  30.8040331
  37.3493328  75.0410715  31.8152389  24.3077918  65.8844590  15.6249995
  24.6031359  64.9755269  15.5717049  23.4065954  65.8632330  15.3030998
  36.2163997  77.6051854  22.4300404  36.0915136  76.8041594  21.9211349
  36.8743088  78.0998048  21.9414374  27.8372165  63.9600587  21.6077544
  27.1158751  64.5736554  21.4685017  28.6265421  64.4958352  21.5294190
  38.2798905  75.4060874  24.0579954  37.3329240  75.2866225  23.9858280
  38.6281678  74.5183372  24.1406215  30.6398478  61.2955013  27.8818196
  31.1632880  61.5417310  28.6444505  30.4210812  62.1275048  27.4621333
  26.0365759  63.5658688  15.7489320  25.7078466  62.6856067  15.5664426
  26.3905130  63.5106357  16.6365710  35.2845338  75.2013591  20.2584306
  35.1370301  74.2730298  20.4391876  36.1098832  75.2233681  19.7741381
  29.1507583  63.8531658  16.1164798  29.4903655  64.3817579  15.3943406
  29.5979703  64.1912064  16.8923365  38.8879460  76.0242149  21.3449179
  39.8126008  75.8185011  21.2073630  38.7194763  75.7758550  22.2538520
  31.8451023  62.2368708  25.5667866  31.5047844  61.4376521  25.9688546
  31.1390030  62.5370419  24.9944699  32.4967495  59.3218021  24.0195189
  33.3193564  58.8478499  23.8974079  32.7405559  60.1008505  24.5193875
  31.1375730  62.3506279  14.3158091  31.8584092  62.7287532  13.8121808
  30.5141034  63.0695156  14.4193069  35.2806853  63.0551428  15.2516423
  35.4970467  63.9376066  14.9505251  34.8000920  62.6637642  14.5222065
  30.0206074  66.0137141  21.8287168  29.8750655  66.3277444  22.7211449
  29.5431278  66.6322042  21.2758066  31.8802457  63.0039689  21.8768057
  31.8664026  62.1080783  21.5400355  32.5974885  63.0110353  22.5106343
  33.7328588  63.4377030  23.9221185  33.4746365  64.3594100  23.9205515
  33.2013628  63.0407464  24.6121649  38.6774776  76.5427817  16.7011270
  38.8511654  75.9774239  15.9485123  39.1703668  77.3428712  16.5190760
  24.4951736  68.5542486  24.7674829  23.9505204  69.3302294  24.8995103
  25.3731086  68.9013290  24.6093950  31.2839353  61.8854070  17.1455627
  31.4055264  60.9570716  17.3446515  30.9941395  61.8992756  16.2333943
  34.1530543  59.5708980  20.2822347  34.1752240  59.6348313  19.3274327
  34.5698602  58.7313489  20.4762853  44.5314167  69.3064240  18.3201570
  44.9745313  68.5571565  17.9220693  43.6540678  69.2974376  17.9375302
  39.6649949  75.8594581  13.8008168  40.3600853  76.4801274  14.0195483
  40.0073099  75.0089932  14.0760546  25.2817758  67.6812382  27.6604986
  24.5399494  67.8295017  28.2469616  24.9610502  67.9420648  26.7971735
  41.5641372  73.3094287  15.3295499  42.0892696  73.6481559  14.6044819
  41.4763724  72.3741302  15.1458634  33.2261421  77.2228360  27.4585376
  33.5348547  76.9777507  28.3308075  34.0236903  77.4274999  26.9704246
  33.2482033  79.3766270  19.6890752  32.8087023  78.8842649  20.3823609
  33.9990150  78.8339238  19.4482828  25.7274372  75.5677811  19.6915380
  26.5532392  75.2681583  19.3114024  25.3768424  74.7985433  20.1405169
  30.6955905  74.9204279  21.7613054  30.0735914  74.2574984  21.4615282
  31.3660772  74.9465411  21.0786702  23.9282977  73.4864137  20.6504314
  23.0914885  73.0586312  20.4688315  23.9006622  73.6796581  21.5875105
  30.7680432  63.3986067  31.3545560  30.8168588  64.2748190  30.9723330
  31.3102946  62.8563460  30.7817203  41.2535278  73.9427190  30.6346697
  40.4630822  73.9251329  30.0951197  41.0168633  74.4815484  31.3895734
  41.3733153  70.7919657  27.9479426  41.4231158  70.6269664  28.8894948
  41.2647076  69.9246916  27.5577306  30.2569412  73.4708202  15.2371515
  30.4057532  74.1543667  14.5838187  31.0635855  73.4513292  15.7520970
  38.6636915  66.7750585  29.2638732  39.5646778  66.6357050  28.9722730
  38.7384890  66.9405040  30.2036910  32.9979721  64.1517439  28.1091919
  32.1283030  64.4451005  27.8374507  33.2339201  64.7357884  28.8299182
  42.8751350  73.2116598  28.1921447  42.5836158  73.5746579  29.0284908
  42.2623481  72.4983606  28.0134779  44.0747032  70.7769478  20.7124017
  44.9093924  71.2159282  20.8761578  44.2106161  70.3008131  19.8932263
  41.1238538  68.3349213  26.6601505  41.5992660  68.5276859  25.8520357
  40.2004103  68.3908399  26.4144889  28.0122045  69.4973380  16.2432583
  27.7668087  68.5935710  16.4412794  28.1817959  69.4990530  15.3012061
  35.7018755  60.3697056  25.6257339  36.2200698  61.1058083  25.3003828
  35.3473887  60.6761050  26.4604098  27.2817692  65.2301738  13.7418745
  26.5886937  65.3046093  13.0858781  27.0369444  64.4662081  14.2640262
  35.9531349  56.7897339  21.1458236  36.2333102  56.1220528  21.7718662
  36.7381956  56.9826435  20.6332900  33.7564817  75.9656333  12.7083262
  33.1838784  76.5846520  12.2553734  34.3297611  76.5155694  13.2423184
  39.8240207  65.2114973  24.8929811  40.7757630  65.3113071  24.9142035
  39.6543657  64.4193241  25.4027895  37.8454587  62.2970556  25.0789212
  37.2504519  62.5775569  24.3835700  37.5604283  62.7864457  25.8505953
  36.9762077  76.2493483  13.8391844  37.9092750  76.1839045  14.0424720
  36.8885290  77.0849750  13.3806377  39.6050094  75.5659353  10.7995792
  39.5263725  75.2319217  11.6931550  40.4259760  76.0581121  10.7987264
  42.3028285  68.4321093  24.0072110  42.2704605  67.4937093  24.1931794
  42.9128909  68.5105129  23.2737935  34.1411616  67.3017146  10.0499314
  35.0870720  67.1723354  10.1187733  33.7625861  66.5631807  10.5268743
  42.4522773  65.2232136  24.0530394  41.9361822  64.4390593  23.8660322
  43.3362722  64.8950853  24.2176913  40.1133500  58.9673152  20.0126206
  39.9158321  58.6588240  20.8969538  40.7233206  59.6934790  20.1424136
  48.1204835  69.4937099  23.1478147  48.8508223  69.2322388  23.7085851
  47.5111780  68.7565821  23.1880215  46.2020132  67.6344962  23.7452598
  45.4753295  67.5000927  23.1369090  45.7867419  67.9421791  24.5509316
  34.0250308  71.3534892  31.5099971  34.9453318  71.5313491  31.7040018
  33.9899891  70.4090937  31.3579671  32.3254533  65.2267122   9.9854200
  31.4185988  64.9300235  10.0616913  32.6030514  64.9296940   9.1188486
  23.2432473  66.5473485  20.4353246  22.9235258  65.6938794  20.1427620
  22.6965901  66.7622063  21.1911213  27.0212381  69.2635926  24.1522753
  27.2398391  70.1953034  24.1710786  27.4338155  68.9043901  24.9377556
  33.9416599  59.7704012  16.1398441  33.1317327  59.4251097  16.5153687
  34.6301016  59.4611555  16.7286053  35.8707147  58.8482058  17.7622738
  36.4238185  59.2677512  18.4212761  36.1077233  57.9217807  17.8045694
  31.8940246  64.8369132  33.5425502  31.7936973  65.7863489  33.4737593
  31.6761788  64.5087371  32.6701572  31.0953318  62.0854057  10.1266179
  31.9572482  62.4108955  10.3861996  31.2803662  61.2985553   9.6139245
  23.1120733  70.1676397  22.4046368  22.4184205  69.7530350  21.8916322
  23.8593724  70.2096933  21.8079787  39.2485954  60.9582584  17.2701402
  38.6684623  61.6167388  16.8879454  38.9821887  60.1359928  16.8588819
  37.6989520  60.3587641  19.4722722  38.1989299  60.4704176  18.6637041
  38.3425128  60.0548694  20.1123531  31.7571516  68.2666271  32.3590563
  31.2738598  69.0666631  32.5654452  31.8432455  68.2774216  31.4058007
  25.0257476  70.0994651  20.2812383  25.0028164  70.1982338  19.3294266
  25.3358112  70.9459801  20.6029549  27.6844854  72.1570806  24.3958997
  28.6388107  72.1254748  24.3288929  27.4857377  71.6961429  25.2109223
  28.2744236  70.7271922  26.9629795  29.0937125  71.2216000  26.9864632
  28.5481044  69.8103890  26.9347362  38.0310832  63.1182674  16.3257750
  37.1436687  63.4032325  16.1077945  38.4464821  62.9576437  15.4785027
  41.3825368  63.1429195  20.0412089  42.1585758  63.6325647  20.3136706
  40.6573502  63.5687249  20.4983959  43.8197927  63.8556814  21.0986030
  44.4142418  63.6152550  20.3879338  43.8924510  63.1363945  21.7259566
  26.0395082  77.6990425  21.4129195  25.9049550  76.9390826  20.8467193
  25.6227145  78.4231325  20.9457984  37.1754045  72.8827349  10.4205770
  37.8789896  73.0877351  11.0363426  36.4516694  73.4504111  10.6854854
  38.0051856  68.6337210  16.5408040  37.9487057  69.0905761  15.7015673
  38.5580198  67.8727895  16.3630883  41.8156662  64.4226942  17.3658160
  41.5593596  64.0223577  18.1966368  41.1909530  65.1370736  17.2408299
  46.1269000  67.1623015  19.8729451  45.5668557  67.2316204  20.6461013
  45.5212503  66.9864000  19.1528947  29.1964208  78.5959742  21.6247638
  29.0796592  79.5405175  21.5226328  28.3756655  78.2933304  22.0133437
  39.0840743  73.3209878  12.4704230  39.9186347  72.8891076  12.2881705
  38.9225086  73.1491892  13.3981125  38.7386635  69.8241991  13.8360570
  38.6835439  69.6586263  12.8949014  38.1132690  70.5318024  13.9922759
  23.5279150  65.0610056  27.6621992  24.1738014  64.5509010  28.1509217
  23.3196301  65.7978737  28.2365417  36.0532542  72.1290903  33.1614132
  36.9223702  72.3031555  32.8000767  35.5739294  72.9485320  33.0389862
  32.0482761  59.3250100  13.4145888  32.0361430  60.2691940  13.5714159
  32.9406182  59.1420246  13.1205349  30.2218722  79.2488004  24.8403566
  31.1245969  79.2811614  25.1570061  29.9956093  78.3188455  24.8549902
  31.9772324  78.0018991  21.5013645  31.0267955  78.0020852  21.3878017
  32.2804811  77.2551725  20.9849679  35.8634880  55.9192877  17.6691825
  35.0967276  55.3651364  17.8148507  36.2745585  55.9914746  18.5305976
  27.8676641  62.2077673  31.7597006  28.7308103  61.8514477  31.9700331
  27.2942052  61.8691567  32.4472410  47.7125018  83.8379529  22.5659407
  48.3503428  83.7186276  21.8622747  47.5945861  84.7860373  22.6247359
  44.5214724  83.7906957  22.5020932  44.1833236  83.6748022  21.6141467
  45.3904492  83.3898122  22.4821938  40.3801540  85.6442433  18.4917823
  39.8166405  85.5532370  17.7234110  40.2653935  84.8242338  18.9720315
  45.0034507  84.9441809  28.4607137  44.9923148  84.5494607  27.5887641
  45.1655147  84.2107881  29.0540909  37.9265972  87.1393625  21.3302043
  38.7187264  86.7984450  20.9148342  38.1662622  87.2488600  22.2504196
  45.9601099  89.3113401  13.8032288  45.3089078  89.8967482  13.4166301
  46.7545461  89.8419596  13.8627325  39.8856726  86.4002538  14.2019422
  40.6587602  85.8531525  14.0632298  40.2382125  87.2646788  14.4133883
  41.7241768  87.7278921  27.4086321  41.4331634  88.6324551  27.2932987
  42.3598753  87.7695448  28.1230391  42.6497975  85.1055769  23.9987681
  43.2461547  84.8811792  23.2844644  42.7072947  84.3640515  24.6013129
  42.2223004  82.5595204  11.8337872  42.4748524  82.0376726  11.0721335
  41.2847563  82.3961350  11.9364555  47.2666286  81.5630983  19.6412615
  48.0529376  81.1450406  19.2903032  47.5304991  82.4677075  19.8094263
  47.4376364  87.0003833  14.3401272  46.8022197  87.0738460  15.0522176
  47.1073770  87.5897432  13.6620351  52.6674714  81.5006216  20.5445594
  53.3999886  80.9305433  20.7783423  51.9114069  81.1127816  20.9852099
  41.9419292  84.4623310  14.0362247  41.8255550  83.7868214  14.7043331
  42.0521552  83.9755684  13.2194400  44.2850833  83.9233458  17.7408936
  43.9209041  83.3964078  18.4521857  45.1417949  83.5331927  17.5675421
  50.1900134  75.2127790  25.0040202  49.8583459  76.0823201  24.7801417
  49.5945747  74.8964074  25.6834233  43.9256320  78.9523357  12.7370284
  44.0930723  79.8203594  13.1040756  43.7353489  79.1150639  11.8131574
  46.6831653  87.4140336  24.4036115  46.3832377  88.3165375  24.2951922
  46.3382713  87.1472519  25.2557268  40.1344135  83.8654133  20.4372819
  39.2094631  83.7330347  20.6450511  40.3828548  84.6448352  20.9342762
  50.0828797  79.9322876  22.0833552  49.1745675  79.8638285  21.7892313
  50.0316393  80.4094821  22.9115378  43.9045541  81.4081015  13.7216951
  43.7845166  81.8538065  14.5602432  43.2098130  81.7566332  13.1630489
  37.4952946  83.5087407  21.2716608  37.6245327  83.7621885  22.1856020
  36.8150397  84.1015115  20.9521263  41.6652433  94.1784656  17.3707083
  41.5876463  95.1292482  17.4495563  41.0614077  93.8330529  18.0282009
  44.1569663  81.3512522  30.0268449  43.3802997  81.9106442  30.0171314
  44.7960226  81.8369305  30.5483320  51.9490444  78.1339315  23.8611426
  51.3064824  78.4271848  23.2151221  51.4445372  78.0192235  24.6664623
  49.6030607  81.8802488  14.5497285  50.5148463  82.1129875  14.3744983
  49.0940254  82.4639532  13.9872364  42.4116035  84.1597975  29.5886416
  43.1530720  84.6983019  29.3121240  41.7053021  84.7864264  29.7457968
  47.8871375  86.3027116  28.1858578  48.2954731  85.8609526  27.4413210
  47.1648636  85.7279743  28.4392771  44.2402445  81.2399722  25.5592135
  45.0863640  81.6639136  25.7026784  44.1801083  80.5833347  26.2530698
  48.2100190  86.8628306  21.9410867  47.5809052  87.0274020  21.2386935
  47.8225852  87.2769916  22.7121831  52.0889422  87.7982744  19.2955231
  51.4040460  88.1781646  18.7452264  52.1733271  88.4078071  20.0287178
  47.3901890  78.9004091  27.2173309  47.1462822  79.6546151  26.6807584
  47.6661821  79.2789438  28.0520556  49.3440353  85.4442703  25.8950574
  49.5557248  86.0874463  25.2184955  49.2970101  84.6105020  25.4272504
  46.9466582  78.0560524  22.7987146  46.0851061  78.3541777  23.0903884
  46.9729017  78.2730923  21.8668179  43.7628151  86.6002714  19.2060952
  44.2266497  86.8790417  18.4165574  43.4984950  85.6986159  19.0234043
  40.6552233  86.1474196  22.1440715  41.2253590  86.5761464  21.5058200
  41.2460344  85.8656781  22.8424901  42.6997038  82.7225867  16.0150517
  43.4021081  83.1746910  16.4824443  42.3677666  82.0809686  16.6430410
  41.1477399  81.3137623  30.3901726  40.5176060  81.9953904  30.6237123
  41.0413487  81.2020705  29.4454865  36.4422372  80.9809419  21.3167651
  35.6521425  81.2366948  20.8407761  36.9333619  81.7957757  21.4219691
  50.4586181  88.3214659  24.0672931  51.2803625  87.9194846  23.7855613
  50.4548584  88.2182893  25.0189047  38.3937117  81.3453999  18.2751127
  37.5968280  81.4572693  18.7934623  38.1662709  81.6840651  17.4092018
  44.2242785  87.8698702  26.2233642  44.2887217  88.3319109  27.0591814
  43.5153708  87.2396067  26.3515952  34.7260074  81.2339910  23.7482641
  34.9768113  82.1186920  24.0140217  35.2619623  81.0544511  22.9757733
  58.5492174  84.6653407  20.4157903  57.7955883  84.0960805  20.2601907
  58.6839715  84.6316072  21.3628538  43.9390802  89.5366809  16.0912622
  43.8036477  90.3818345  16.5197470  44.4800615  89.7386087  15.3278556
  40.4258142  75.6158389  32.7526977  40.0325087  75.0624588  33.4274622
  41.2424282  75.9268968  33.1433495  37.3920200  87.0542247  16.6640547
  37.9044720  87.8485498  16.8146112  38.0442912  86.3568538  16.5974149
  39.2015084  90.1708004  18.7463301  39.3781713  91.0925968  18.5584284
  39.9971918  89.8566423  19.1757680  43.3426103  77.0316268  30.3447234
  44.0835816  77.6323422  30.2651697  43.5744026  76.2893906  29.7865277
  38.4867441  82.2172636  28.6225464  38.3720956  81.3157893  28.9232563
  37.6311959  82.4636332  28.2710280  45.5659279  90.1590376  30.2212964
  45.1223133  89.3726755  29.9033869  46.2276492  90.3469526  29.5556855
  40.3246400  91.6886178  24.7473643  40.8753825  91.5603241  23.9750637
  39.4857876  91.9881067  24.3968536  47.6640517  90.4393176  28.2494366
  47.6458992  91.2602057  27.7574635  48.5860437  90.3147251  28.4744507
  44.1213571  87.9537305  29.0917874  44.6541908  87.1925594  28.8617182
  43.5927652  87.6610957  29.8342028  47.2883266  73.0597371  24.6211516
  46.9447535  73.9499013  24.5450626  47.6562228  72.8699029  23.7581101
  35.3569116  85.3830902  17.4400118  36.1944338  85.7927910  17.2233826
  35.5347384  84.4430344  17.4100312  47.2533548  83.0505982  13.1283951
  46.7380172  83.8210587  13.3672338  46.9810857  82.3771119  13.7517012
  44.8380659  77.8955683  18.1869189  43.9822256  77.5062534  18.0074828
  45.2507611  77.9747644  17.3268975  46.3679806  75.4302026  22.5860749
  45.8644602  75.3932162  21.7728554  46.6610413  76.3394769  22.6457406
  42.6122692  75.5140756  21.5926931  43.4775689  75.3183565  21.2332820
  42.6800201  75.2851108  22.5196287  52.2267823  85.8038337  15.0637124
  51.4497265  85.4649497  14.6192286  52.9059304  85.8090960  14.3892089
  47.0419852  80.9233075  14.9543732  46.7369987  81.2379224  15.8053875
  47.9950294  81.0014494  14.9971065  45.4866283  87.0823298  16.6036686
  44.9587645  86.3476057  16.2909923  44.9853786  87.8597974  16.3576654
  50.4659130  85.2772318  21.7203732  49.8082804  85.9671580  21.8083861
  51.2699529  85.6668750  22.0637719  40.2185011  77.7442964  18.9643298
  40.7928763  77.5218146  18.2316490  40.8055994  77.8131659  19.7171899
  49.2764588  83.6316691  19.7707674  49.7896470  84.2646683  20.2729384
  49.9265812  83.0317887  19.4051034  40.5454598  79.7747425  12.9839183
  39.7091910  80.1122112  13.3048458  40.4059368  79.6396405  12.0466320
  42.5207679  74.6184213  17.6918367  41.8672091  74.3033230  17.0674982
  42.4788153  73.9959953  18.4178190  43.6318884  84.9003508   9.6071659
  42.7245945  84.6692762   9.8062808  44.1289916  84.1041127   9.7945641
  46.5386963  93.6101015  12.5268345  45.8648661  93.9132712  13.1353303
  46.9252785  94.4130096  12.1773802  45.7545419  81.1066147  22.0166015
  44.8367981  81.3281094  21.8587703  46.1705563  81.1812457  21.1577722
  46.5380467  82.5057562  17.1468695  47.2852286  83.0178959  16.8375817
  46.8072056  82.1841615  18.0073088  44.8107117  85.0016103  14.1295649
  43.9018336  84.7175136  14.2268119  44.8402201  85.4215182  13.2698956
  50.0426385  88.6122692  17.8986817  49.5888712  87.7713602  17.9552007
  49.4120351  89.2484091  18.2361597  48.9859304  79.5414678  19.1287484
  48.2482061  79.0292065  19.4597727  49.2386078  79.1015060  18.3170761
  48.4859324  90.4499189  18.8336635  48.7782298  91.0104246  18.1149000
  48.9957944  90.7427750  19.5889794  49.0870931  72.3190931  19.7229253
  49.3929808  71.4588294  19.4355168  49.8123536  72.9108551  19.5228247
  35.3795287  82.7221617  18.1110851  35.1819687  82.1290978  17.3861918
  34.8241951  82.4173827  18.8286790  43.3592011  82.6144724  20.2305444
  43.4140621  81.6618560  20.1547921  42.5483213  82.7704163  20.7146743
  44.5083205  86.5424847  11.4683728  44.0702635  85.8260706  11.0089365
  45.2493646  86.7700961  10.9068819  41.2984371  81.2321783  17.9895823
  40.4852237  81.5315954  18.3961015  41.7943365  80.8377472  18.7070306
  43.4492949  91.2279540  19.9230088  43.4069128  91.4540387  18.9938620
  44.3655648  90.9942915  20.0715889  46.8958583  81.6963608  26.8210717
  47.2507970  81.9235081  27.6805183  47.5430714  82.0281985  26.1987973
  52.6256320  84.8182044  17.5260046  52.4874218  85.0083640  16.5981235
  52.2692538  85.5801426  17.9828097  40.7898446  78.8040139  23.6057058
  41.4297825  78.6628898  22.9080022  39.9575976  78.5174652  23.2295660
  52.6525699  86.8858571  22.5371318  53.0862206  86.7933860  23.3854372
  53.3657280  86.8616071  21.8991334  41.5658750  88.1042569  19.7192051
  42.3599348  87.6092889  19.5174626  40.8550442  87.5760432  19.3559756
  46.3853594  90.4860665  24.0704418  46.4390616  91.0551601  24.8382134
  45.5168376  90.6562550  23.7058456  37.8741513  82.2485651  15.7951803
  36.9439101  82.1870106  16.0121766  37.9698985  81.7261604  14.9988445
  37.7927062  78.7740464  18.3830045  38.0533880  79.6885797  18.2739206
  38.6144235  78.3064906  18.5326658  39.2651988  80.1878221  25.5528870
  39.9375041  79.9795583  24.9041519  38.4381774  79.9900307  25.1134102
  53.5141249  86.9282271  25.0704203  53.7077139  87.8328082  25.3163478
  53.4141867  86.4689690  25.9042788  45.1677560  76.8140162  27.5694531
  44.5205475  77.5130112  27.4759007  45.9378575  77.2476306  27.9370779
  48.5756358  87.0789014  30.6445084  48.4241864  86.8499566  29.7275167
  48.5661037  88.0359616  30.6576429  45.3441694  84.6520927  25.6291350
  46.2733754  84.8032086  25.4560318  44.9232724  84.7404948  24.7739997
  44.1430026  88.6771591  23.3989888  44.0041111  88.3090376  24.2715826
  43.3544622  89.1919231  23.2273846  44.7378178  93.7780688  14.7415424
  44.9129933  93.3068731  15.5561047  44.0510966  94.4046454  14.9696685
  45.6935241  88.0553194  20.7878726  45.3585073  88.0153964  21.6836376
  45.1939187  87.3897910  20.3149136  39.6679485  83.4620824  26.3131307
  39.5299283  82.7301063  26.9142846  40.5784408  83.3729724  26.0315495
  48.6294433  85.4009228  11.0615785  48.0123603  84.6756056  10.9648838
  48.1610921  86.1618589  10.7182860  42.2961785  83.1740783  25.8014986
  43.0061404  82.5333975  25.7601605  42.2531094  83.4253678  26.7241167
  50.2848564  90.1108137  28.7221566  50.2261110  89.4267357  28.0552149
  50.6868083  90.8527127  28.2702192  41.0090719  80.1606001  27.6210626
  40.4728076  79.7096740  28.2732222  40.4207428  80.2951910  26.8781090
  39.3039263  96.9270050  21.5155285  39.5435861  97.5588575  22.1934303
  38.4608459  96.5758090  21.8020644  40.4192978  79.6194653  10.1837090
  39.5422445  79.4983453   9.8199336  40.8950731  78.8280731   9.9315978
  50.2865971  88.0747721  26.9535545  49.3992750  87.7373642  27.0761944
  50.8564523  87.3430752  27.1904311  31.9395119  84.4071812  20.2778597
  32.6266158  84.0933542  19.6899612  31.7843247  85.3113177  20.0045848
  36.7429841  79.2962009  24.7063620  36.6588029  78.6887678  23.9714030
  35.9212547  79.7871027  24.7073117  43.8167125  92.7349173  23.9196789
  43.7437296  93.5404144  24.4316093  43.3744518  92.9341139  23.0944810
  43.6056904  91.9720943  17.4299610  42.8224426  92.5142623  17.5237835
  44.3049650  92.4894923  17.8293851  46.9153555  77.7815572  20.0733815
  47.4122254  77.0285535  19.7534886  46.1440536  77.8179889  19.5077025
  54.7683312  83.4855938  21.7152107  54.7573188  84.3680653  21.3446040
  53.9000691  83.1327489  21.5206644  46.2765808  92.6336007  26.0754947
  46.9893781  93.2683472  26.0030849  45.7855837  92.7299873  25.2594949
  47.9983335  86.5387260  17.6472239  47.0639614  86.6588722  17.4776943
  48.1760004  85.6359726  17.3832249  43.4988523  79.9232955  19.8005500
  43.1286311  79.3703996  20.4886406  43.9947616  79.3191089  19.2480500
  51.3855887  82.3804579  18.1822273  51.8516339  83.2132570  18.1082576
  51.8363387  81.9149560  18.8867531  41.3277722  90.3830450  26.8960518
  42.0287181  91.0166933  27.0489912  40.8572837  90.7245182  26.1356157
  49.4532118  88.7248400  15.1808425  49.7291962  88.6104995  16.0902299
  48.5836616  88.3265885  15.1420598  49.3572549  74.7485166  22.2213174
  48.4435629  74.9789393  22.3895381  49.7865651  74.8323610  23.0727207
  49.1279008  82.9375058  24.7213068  48.4750458  83.1850965  24.0665521
  49.5059388  82.1239196  24.3875546  46.0886182  92.9734751  18.8241239
  46.2708576  92.1556407  19.2868991  46.9119168  93.1902443  18.3866129
  46.4228347  91.9002936  16.0856287  46.9516114  91.3895391  15.4726449
  46.6856567  91.5845466  16.9501820  45.1766581  83.6794869  31.2079105
  44.5007218  83.5788998  31.8781481  45.9994215  83.5234083  31.6715103
  36.9245440  89.9166805  23.8291621  37.5098877  89.1710493  23.9619525
  36.7270278  90.2270762  24.7128285  39.7784095  92.9518053  18.8454063
  39.1094470  93.4364180  18.3618103  39.6396965  93.1987273  19.7597442
  31.5163095  82.4872406  22.5496064  31.5547194  81.9535996  23.3433182
  31.0103388  81.9607611  21.9307041  43.9189364  94.9861796  25.4436721
  44.4707672  95.1493418  26.2085807  44.2595557  95.5766234  24.7716746
  38.8953857  77.3336946  26.0458606  38.9595183  78.1951777  25.6336004
  38.8320977  76.7210948  25.3130965  38.3706130  79.4060079  29.6931640
  38.9978168  79.0237156  30.3069165  37.5134048  79.1874281  30.0587333
  48.7700238  89.8123054  31.2985376  49.3140142  90.4253012  30.8040331
  48.1887083  90.3702632  31.8152389  35.1471672  81.2136508  15.6249995
  35.4425113  80.3047186  15.5717049  34.2459708  81.1924247  15.3030998
  47.0557751  92.9343772  22.4300404  46.9308890  92.1333512  21.9211349
  47.7136842  93.4289965  21.9414374  38.6765919  79.2892504  21.6077544
  37.9552505  79.9028472  21.4685017  39.4659175  79.8250269  21.5294190
  49.1192659  90.7352792  24.0579954  48.1722995  90.6158143  23.9858280
  49.4675433  89.8475290  24.1406215  41.4792233  76.6246931  27.8818196
  42.0026635  76.8709227  28.6444505  41.2604566  77.4566966  27.4621333
  36.8759514  78.8950605  15.7489320  36.5472220  78.0147984  15.5664426
  37.2298885  78.8398274  16.6365710  46.1239093  90.5305508  20.2584306
  45.9764055  89.6022216  20.4391876  46.9492586  90.5525599  19.7741381
  39.9901337  79.1823575  16.1164798  40.3297410  79.7109497  15.3943406
  40.4373457  79.5203981  16.8923365  49.7273215  91.3534067  21.3449179
  50.6519762  91.1476928  21.2073630  49.5588518  91.1050468  22.2538520
  42.6844778  77.5660626  25.5667866  42.3441598  76.7668439  25.9688546
  41.9783784  77.8662337  24.9944699  43.3361250  74.6509938  24.0195189
  44.1587319  74.1770417  23.8974079  43.5799313  75.4300422  24.5193875
  41.9769484  77.6798197  14.3158091  42.6977847  78.0579450  13.8121808
  41.3534788  78.3987074  14.4193069  46.1200607  78.3843346  15.2516423
  46.3364221  79.2667984  14.9505251  45.6394674  77.9929559  14.5222065
  40.8599828  81.3429059  21.8287168  40.7144409  81.6569362  22.7211449
  40.3825032  81.9613959  21.2758066  42.7196211  78.3331607  21.8768057
  42.7057780  77.4372700  21.5400355  43.4368639  78.3402271  22.5106343
  44.5722342  78.7668947  23.9221185  44.3140120  79.6886018  23.9205515
  44.0407382  78.3699382  24.6121649  49.5168531  91.8719734  16.7011270
  49.6905408  91.3066157  15.9485123  50.0097422  92.6720629  16.5190760
  35.3345491  83.8834403  24.7674829  34.7898959  84.6594211  24.8995103
  36.2124840  84.2305208  24.6093950  42.1233107  77.2145987  17.1455627
  42.2449018  76.2862634  17.3446515  41.8335150  77.2284673  16.2333943
  44.9924298  74.9000898  20.2822347  45.0145994  74.9640231  19.3274327
  45.4092357  74.0605406  20.4762853  55.3707922  84.6356157  18.3201570
  55.8139068  83.8863483  17.9220693  54.4934432  84.6266294  17.9375302
  50.5043703  91.1886499  13.8008168  51.1994608  91.8093191  14.0195483
  50.8466853  90.3381850  14.0760546  36.1211512  83.0104300  27.6604986
  35.3793248  83.1586935  28.2469616  35.8004257  83.2712565  26.7971735
  52.4035126  88.6386204  15.3295499  52.9286450  88.9773477  14.6044819
  52.3157479  87.7033220  15.1458634  44.0655175  92.5520278  27.4585376
  44.3742302  92.3069425  28.3308075  44.8630657  92.7566916  26.9704246
  44.0875787  94.7058188  19.6890752  43.6480777  94.2134566  20.3823609
  44.8383904  94.1631155  19.4482828  36.5668126  90.8969728  19.6915380
  37.3926146  90.5973500  19.3114024  36.2162178  90.1277351  20.1405169
  41.5349659  90.2496197  21.7613054  40.9129669  89.5866902  21.4615282
  42.2054526  90.2757329  21.0786702  34.7676731  88.8156055  20.6504314
  33.9308639  88.3878229  20.4688315  34.7400377  89.0088498  21.5875105
  41.6074187  78.7277985  31.3545560  41.6562342  79.6040108  30.9723330
  42.1496701  78.1855378  30.7817203  52.0929032  89.2719108  30.6346697
  51.3024576  89.2543247  30.0951197  51.8562387  89.8107402  31.3895734
  52.2126907  86.1211574  27.9479426  52.2624912  85.9561582  28.8894948
  52.1040831  85.2538833  27.5577306  41.0963166  88.8000120  15.2371515
  41.2451287  89.4835584  14.5838187  41.9029610  88.7805210  15.7520970
  49.5030670  82.1042502  29.2638732  50.4040533  81.9648967  28.9722730
  49.5778644  82.2696957  30.2036910  43.8373475  79.4809357  28.1091919
  42.9676785  79.7742923  27.8374507  44.0732956  80.0649802  28.8299182
  53.7145104  88.5408516  28.1921447  53.4229913  88.9038496  29.0284908
  53.1017236  87.8275524  28.0134779  54.9140787  86.1061396  20.7124017
  55.7487678  86.5451200  20.8761578  55.0499915  85.6300049  19.8932263
  51.9632293  83.6641130  26.6601505  52.4386414  83.8568777  25.8520357
  51.0397858  83.7200316  26.4144889  38.8515799  84.8265298  16.2432583
  38.6061841  83.9227628  16.4412794  39.0211714  84.8282448  15.3012061
  46.5412509  75.6988974  25.6257339  47.0594453  76.4350001  25.3003828
  46.1867642  76.0052967  26.4604098  38.1211447  80.5593655  13.7418745
  37.4280692  80.6338010  13.0858781  37.8763199  79.7953999  14.2640262
  46.7925103  72.1189257  21.1458236  47.0726857  71.4512446  21.7718662
  47.5775710  72.3118352  20.6332900  44.5958572  91.2948250  12.7083262
  44.0232539  91.9138438  12.2553734  45.1691365  91.8447612  13.2423184
  50.6633962  80.5406891  24.8929811  51.6151384  80.6404988  24.9142035
  50.4937412  79.7485159  25.4027895  48.6848341  77.6262474  25.0789212
  48.0898273  77.9067486  24.3835700  48.3998038  78.1156375  25.8505953
  47.8155831  91.5785401  13.8391844  48.7486505  91.5130962  14.0424720
  47.7279044  92.4141667  13.3806377  50.4443848  90.8951271  10.7995792
  50.3657480  90.5611135  11.6931550  51.2653515  91.3873039  10.7987264
  53.1422039  83.7613010  24.0072110  53.1098359  82.8229011  24.1931794
  53.7522663  83.8397047  23.2737935  44.9805370  82.6309063  10.0499314
  45.9264475  82.5015271  10.1187733  44.6019615  81.8923725  10.5268743
  53.2916528  80.5524054  24.0530394  52.7755576  79.7682510  23.8660322
  54.1756476  80.2242770  24.2176913  50.9527255  74.2965069  20.0126206
  50.7552076  73.9880157  20.8969538  51.5626960  75.0226708  20.1424136
  58.9598589  84.8229017  23.1478147  59.6901978  84.5614305  23.7085851
  58.3505535  84.0857739  23.1880215  57.0413886  82.9636880  23.7452598
  56.3147050  82.8292845  23.1369090  56.6261173  83.2713708  24.5509316
  44.8644063  86.6826809  31.5099971  45.7847072  86.8605408  31.7040018
  44.8293646  85.7382855  31.3579671  43.1648287  80.5559040   9.9854200
  42.2579743  80.2592152  10.0616913  43.4424268  80.2588858   9.1188486
  34.0826228  81.8765403  20.4353246  33.7629012  81.0230711  20.1427620
  33.5359656  82.0913981  21.1911213  37.8606135  84.5927844  24.1522753
  38.0792145  85.5244952  24.1710786  38.2731909  84.2335818  24.9377556
  44.7810353  75.0995929  16.1398441  43.9711081  74.7543014  16.5153687
  45.4694770  74.7903473  16.7286053  46.7100901  74.1773976  17.7622738
  47.2631940  74.5969430  18.4212761  46.9470988  73.2509724  17.8045694
  42.7334001  80.1661050  33.5425502  42.6330728  81.1155407  33.4737593
  42.5155543  79.8379289  32.6701572  41.9347072  77.4145975  10.1266179
  42.7966236  77.7400873  10.3861996  42.1197416  76.6277471   9.6139245
  33.9514488  85.4968315  22.4046368  33.2577959  85.0822267  21.8916322
  34.6987479  85.5388851  21.8079787  50.0879708  76.2874501  17.2701402
  49.5078378  76.9459305  16.8879454  49.8215641  75.4651846  16.8588819
  48.5383275  75.6879559  19.4722722  49.0383053  75.7996094  18.6637041
  49.1818883  75.3840612  20.1123531  42.5965271  83.5958189  32.3590563
  42.1132352  84.3958549  32.5654452  42.6826210  83.6066133  31.4058007
  35.8651230  85.4286568  20.2812383  35.8421918  85.5274256  19.3294266
  36.1751867  86.2751719  20.6029549  38.5238608  87.4862723  24.3958997
  39.4781862  87.4546666  24.3288929  38.3251132  87.0253347  25.2109223
  39.1137990  86.0563839  26.9629795  39.9330879  86.5507918  26.9864632
  39.3874798  85.1395808  26.9347362  48.8704586  78.4474592  16.3257750
  47.9830442  78.7324242  16.1077945  49.2858576  78.2868355  15.4785027
  52.2219123  78.4721113  20.0412089  52.9979513  78.9617565  20.3136706
  51.4967257  78.8979167  20.4983959  54.6591681  79.1848732  21.0986030
  55.2536172  78.9444468  20.3879338  54.7318265  78.4655862  21.7259566
  36.8788837  93.0282343  21.4129195  36.7443305  92.2682744  20.8467193
  36.4620899  93.7523243  20.9457984  48.0147800  88.2119266  10.4205770
  48.7183650  88.4169269  11.0363426  47.2910449  88.7796028  10.6854854
  48.8445610  83.9629128  16.5408040  48.7880812  84.4197679  15.7015673
  49.3973953  83.2019812  16.3630883  52.6550416  79.7518859  17.3658160
  52.3987350  79.3515495  18.1966368  52.0303284  80.4662653  17.2408299
  56.9662754  82.4914933  19.8729451  56.4062312  82.5608122  20.6461013
  56.3606257  82.3155917  19.1528947  40.0357963  93.9251660  21.6247638
  39.9190347  94.8697092  21.5226328  39.2150409  93.6225221  22.0133437
  49.9234497  88.6501796  12.4704230  50.7580101  88.2182994  12.2881705
  49.7618840  88.4783809  13.3981125  49.5780390  85.1533909  13.8360570
  49.5229193  84.9878180  12.8949014  48.9526445  85.8609942  13.9922759
  34.3672905  80.3901973  27.6621992  35.0131768  79.8800927  28.1509217
  34.1590056  81.1270655  28.2365417  46.8926297  87.4582821  33.1614132
  47.7617456  87.6323473  32.8000767  46.4133048  88.2777238  33.0389862
  42.8876515  74.6542018  13.4145888  42.8755185  75.5983858  13.5714159
  43.7799937  74.4712163  13.1205349  41.0612477  94.5779922  24.8403566
  41.9639724  94.6103532  25.1570061  40.8349847  93.6480373  24.8549902
  42.8166079  93.3310908  21.5013645  41.8661710  93.3312770  21.3878017
  43.1198565  92.5843643  20.9849679  46.7028634  71.2484794  17.6691825
  45.9361030  70.6943281  17.8148507  47.1139339  71.3206663  18.5305976
  38.7070396  77.5369590  31.7597006  39.5701857  77.1806395  31.9700331
  38.1335806  77.1983485  32.4472410  58.5518772  99.1671447  22.5659407
  59.1897182  99.0478194  21.8622747  58.4339615 100.1152291  22.6247359
  55.3608479  99.1198875  22.5020932  55.0226990  99.0039939  21.6141467
  56.2298247  98.7190040  22.4821938  51.2195294 100.9734351  18.4917823
  50.6560160 100.8824288  17.7234110  51.1047689 100.1534256  18.9720315
  55.8428262 100.2733726  28.4607137  55.8316902  99.8786525  27.5887641
  56.0048901  99.5399799  29.0540909  48.7659726 102.4685543  21.3302043
  49.5581018 102.1276367  20.9148342  49.0056377 102.5780518  22.2504196
  56.7994853 104.6405319  13.8032288  56.1482833 105.2259399  13.4166301
  57.5939216 105.1711514  13.8627325  50.7250480 101.7294456  14.2019422
  51.4981356 101.1823443  14.0632298  51.0775879 102.5938705  14.4133883
  52.5635523 103.0570838  27.4086321  52.2725389 103.9616469  27.2932987
  53.1992507 103.0987366  28.1230391  53.4891730 100.4347687  23.9987681
  54.0855302 100.2103709  23.2844644  53.5466701  99.6932432  24.6013129
  53.0616758  97.8887122  11.8337872  53.3142279  97.3668643  11.0721335
  52.1241317  97.7253268  11.9364555  58.1060041  96.8922901  19.6412615
  58.8923130  96.4742324  19.2903032  58.3698745  97.7968993  19.8094263
  58.2770118 102.3295751  14.3401272  57.6415951 102.4030377  15.0522176
  57.9467525 102.9189350  13.6620351  63.5068468  96.8298134  20.5445594
  64.2393640  96.2597351  20.7783423  62.7507824  96.4419734  20.9852099
  52.7813047  99.7915228  14.0362247  52.6649305  99.1160131  14.7043331
  52.8915307  99.3047602  13.2194400  55.1244588  99.2525375  17.7408936
  54.7602795  98.7255996  18.4521857  55.9811704  98.8623844  17.5675421
  61.0293888  90.5419708  25.0040202  60.6977213  91.4115119  24.7801417
  60.4339502  90.2255992  25.6834233  54.7650075  94.2815275  12.7370284
  54.9324477  95.1495511  13.1040756  54.5747244  94.4442557  11.8131574
  57.5225408 102.7432254  24.4036115  57.2226131 103.6457293  24.2951922
  57.1776467 102.4764437  25.2557268  50.9737889  99.1946051  20.4372819
  50.0488386  99.0622265  20.6450511  51.2222303  99.9740270  20.9342762
  60.9222552  95.2614794  22.0833552  60.0139429  95.1930202  21.7892313
  60.8710148  95.7386739  22.9115378  54.7439296  96.7372932  13.7216951
  54.6238921  97.1829983  14.5602432  54.0491884  97.0858250  13.1630489
  48.3346700  98.8379324  21.2716608  48.4639082  99.0913803  22.1856020
  47.6544152  99.4307032  20.9521263  52.5046188 109.5076574  17.3707083
  52.4270217 110.4584399  17.4495563  51.9007831 109.1622447  18.0282009
  54.9963418  96.6804440  30.0268449  54.2196752  97.2398360  30.0171314
  55.6353981  97.1661223  30.5483320  62.7884198  93.4631232  23.8611426
  62.1458578  93.7563766  23.2151221  62.2839127  93.3484153  24.6664623
  60.4424362  97.2094406  14.5497285  61.3542218  97.4421792  14.3744983
  59.9334009  97.7931450  13.9872364  53.2509790  99.4889893  29.5886416
  53.9924474 100.0274937  29.3121240  52.5446775 100.1156182  29.7457968
  58.7265129 101.6319033  28.1858578  59.1348485 101.1901444  27.4413210
  58.0042391 101.0571661  28.4392771  55.0796200  96.5691640  25.5592135
  55.9257395  96.9931054  25.7026784  55.0194837  95.9125264  26.2530698
  59.0493944 102.1920224  21.9410867  58.4202807 102.3565938  21.2386935
  58.6619606 102.6061834  22.7121831  62.9283176 103.1274662  19.2955231
  62.2434214 103.5073563  18.7452264  63.0127025 103.7369989  20.0287178
  58.2295645  94.2296009  27.2173309  57.9856577  94.9838069  26.6807584
  58.5055575  94.6081356  28.0520556  60.1834108 100.7734621  25.8950574
  60.3951003 101.4166381  25.2184955  60.1363856  99.9396937  25.4272504
  57.7860337  93.3852442  22.7987146  56.9244816  93.6833695  23.0903884
  57.8122771  93.6022840  21.8668179  54.6021906 101.9294632  19.2060952
  55.0660252 102.2082335  18.4165574  54.3378704 101.0278077  19.0234043
  51.4945987 101.4766114  22.1440715  52.0647344 101.9053382  21.5058200
  52.0854099 101.1948698  22.8424901  53.5390792  98.0517784  16.0150517
  54.2414835  98.5038828  16.4824443  53.2071421  97.4101603  16.6430410
  51.9871154  96.6429541  30.3901726  51.3569814  97.3245822  30.6237123
  51.8807241  96.5312623  29.4454865  47.2816126  96.3101337  21.3167651
  46.4915180  96.5658866  20.8407761  47.7727373  97.1249675  21.4219691
  61.2979936 103.6506576  24.0672931  62.1197379 103.2486764  23.7855613
  61.2942338 103.5474810  25.0189047  49.2330871  96.6745916  18.2751127
  48.4362035  96.7864611  18.7934623  49.0056464  97.0132569  17.4092018
  55.0636539 103.1990620  26.2233642  55.1280972 103.6611027  27.0591814
  54.3547463 102.5687985  26.3515952  45.5653829  96.5631828  23.7482641
  45.8161867  97.4478838  24.0140217  46.1013377  96.3836429  22.9757733
  69.3885929  99.9945325  20.4157903  68.6349637  99.4252723  20.2601907
  69.5233470  99.9607989  21.3628538  54.7784557 104.8658727  16.0912622
  54.6430231 105.7110263  16.5197470  55.3194369 105.0678005  15.3278556
  51.2651896  90.9450307  32.7526977  50.8718842  90.3916506  33.4274622
  52.0818037  91.2560885  33.1433495  48.2313954 102.3834165  16.6640547
  48.7438475 103.1777415  16.8146112  48.8836667 101.6860456  16.5974149
  50.0408839 105.4999921  18.7463301  50.2175467 106.4217886  18.5584284
  50.8365672 105.1858341  19.1757680  54.1819857  92.3608186  30.3447234
  54.9229571  92.9615339  30.2651697  54.4137780  91.6185824  29.7865277
  49.3261195  97.5464553  28.6225464  49.2114710  96.6449811  28.9232563
  48.4705713  97.7928250  28.2710280  56.4053033 105.4882294  30.2212964
  55.9616887 104.7018672  29.9033869  57.0670247 105.6761444  29.5556855
  51.1640154 107.0178095  24.7473643  51.7147579 106.8895159  23.9750637
  50.3251630 107.3172984  24.3968536  58.5034271 105.7685094  28.2494366
  58.4852746 106.5893975  27.7574635  59.4254191 105.6439169  28.4744507
  54.9607325 103.2829223  29.0917874  55.4935662 102.5217511  28.8617182
  54.4321406 102.9902875  29.8342028  58.1277020  88.3889289  24.6211516
  57.7841290  89.2790931  24.5450626  58.4955983  88.1990947  23.7581101
  46.1962871 100.7122819  17.4400118  47.0338093 101.1219828  17.2233826
  46.3741139  99.7722262  17.4100312  58.0927303  98.3797900  13.1283951
  57.5773926  99.1502505  13.3672338  57.8204611  97.7063036  13.7517012
  55.6774414  93.2247601  18.1869189  54.8216010  92.8354451  18.0074828
  56.0901366  93.3039562  17.3268975  57.2073561  90.7593944  22.5860749
  56.7038356  90.7224079  21.7728554  57.5004167  91.6686687  22.6457406
  53.4516447  90.8432674  21.5926931  54.3169443  90.6475483  21.2332820
  53.5193955  90.6143026  22.5196287  63.0661577 101.1330255  15.0637124
  62.2891020 100.7941414  14.6192286  63.7453058 101.1382878  14.3892089
  57.8813606  96.2524992  14.9543732  57.5763742  96.5671141  15.8053875
  58.8344048  96.3306412  14.9971065  56.3260038 102.4115216  16.6036686
  55.7981400 101.6767975  16.2909923  55.8247541 103.1889892  16.3576654
  61.3052884 100.6064236  21.7203732  60.6476558 101.2963497  21.8083861
  62.1093283 100.9960668  22.0637719  51.0578766  93.0734882  18.9643298
  51.6322517  92.8510063  18.2316490  51.6449748  93.1423576  19.7171899
  60.1158343  98.9608609  19.7707674  60.6290225  99.5938601  20.2729384
  60.7659567  98.3609804  19.4051034  51.3848353  95.1039343  12.9839183
  50.5485665  95.4414029  13.3048458  51.2453122  94.9688323  12.0466320
  53.3601433  89.9476131  17.6918367  52.7065846  89.6325148  17.0674982
  53.3181907  89.3251871  18.4178190  54.4712638 100.2295426   9.6071659
  53.5639700  99.9984679   9.8062808  54.9683670  99.4333045   9.7945641
  56.5939174  96.4358064  22.0166015  55.6761735  96.6573011  21.8587703
  57.0099317  96.5104375  21.1577722  57.3774221  97.8349480  17.1468695
  58.1246040  98.3470877  16.8375817  57.6465811  97.5133533  18.0073088
  55.6500872 100.3308021  14.1295649  54.7412091 100.0467053  14.2268119
  55.6795955 100.7507099  13.2698956  60.8820139 103.9414610  17.8986817
  60.4282466 103.1005520  17.9552007  60.2514106 104.5776009  18.2361597
  59.8253059  94.8706596  19.1287484  59.0875815  94.3583982  19.4597727
  60.0779832  94.4306978  18.3170761  59.3253078 105.7791107  18.8336635
  59.6176053 106.3396164  18.1149000  59.8351699 106.0719668  19.5889794
  59.9264686  87.6482848  19.7229253  60.2323563  86.7880212  19.4355168
  60.6517291  88.2400468  19.5228247  46.2189042  98.0513535  18.1110851
  46.0213442  97.4582895  17.3861918  45.6635706  97.7465745  18.8286790
  54.1985766  97.9436641  20.2305444  54.2534375  96.9910478  20.1547921
  53.3876968  98.0996080  20.7146743  55.3476959 101.8716764  11.4683728
  54.9096389 101.1552623  11.0089365  56.0887400 102.0992879  10.9068819
  52.1378126  96.5613701  17.9895823  51.3245991  96.8607872  18.3961015
  52.6337120  96.1669390  18.7070306  54.2886703 106.5571458  19.9230088
  54.2462882 106.7832304  18.9938620  55.2049402 106.3234833  20.0715889
  57.7352337  97.0255525  26.8210717  58.0901725  97.2526999  27.6805183
  58.3824468  97.3573902  26.1987973  63.4650074 100.1473961  17.5260046
  63.3267973 100.3375557  16.5981235  63.1086293 100.9093344  17.9828097
  51.6292200  94.1332057  23.6057058  52.2691580  93.9920816  22.9080022
  50.7969731  93.8466570  23.2295660  63.4919454 102.2150488  22.5371318
  63.9255960 102.1225777  23.3854372  64.2051034 102.1907989  21.8991334
  52.4052504 103.4334487  19.7192051  53.1993103 102.9384807  19.5174626
  51.6944197 102.9052350  19.3559756  57.2247349 105.8152582  24.0704418
  57.2784371 106.3843519  24.8382134  56.3562130 105.9854468  23.7058456
  48.7135268  97.5777569  15.7951803  47.7832856  97.5162024  16.0121766
  48.8092740  97.0553521  14.9988445  48.6320817  94.1032382  18.3830045
  48.8927634  95.0177715  18.2739206  49.4537989  93.6356824  18.5326658
  50.1045742  95.5170139  25.5528870  50.7768795  95.3087501  24.9041519
  49.2775529  95.3192225  25.1134102  64.3535003 102.2574189  25.0704203
  64.5470893 103.1620000  25.3163478  64.2535622 101.7981608  25.9042788
  56.0071314  92.1432080  27.5694531  55.3599229  92.8422029  27.4759007
  56.7772329  92.5768224  27.9370779  59.4150112 102.4080932  30.6445084
  59.2635618 102.1791483  29.7275167  59.4054791 103.3651533  30.6576429
  56.1835448  99.9812845  25.6291350  57.1127508 100.1324004  25.4560318
  55.7626478 100.0696865  24.7739997  54.9823780 104.0063509  23.3989888
  54.8434866 103.6382293  24.2715826  54.1938376 104.5211148  23.2273846
  55.5771932 109.1072605  14.7415424  55.7523688 108.6360649  15.5561047
  54.8904720 109.7338372  14.9696685  56.5328995 103.3845112  20.7878726
  56.1978828 103.3445882  21.6836376  56.0332941 102.7189828  20.3149136
  50.5073239  98.7912742  26.3131307  50.3693037  98.0592980  26.9142846
  51.4178163  98.7021642  26.0315495  59.4688187 100.7301146  11.0615785
  58.8517358 100.0047974  10.9648838  59.0004675 101.4910506  10.7182860
  53.1355540  98.5032701  25.8014986  53.8455159  97.8625893  25.7601605
  53.0924848  98.7545596  26.7241167  61.1242319 105.4400054  28.7221566
  61.0654865 104.7559274  28.0552149  61.5261837 106.1819044  28.2702192
  51.8484474  95.4897919  27.6210626  51.3121831  95.0388657  28.2732222
  51.2601182  95.6243828  26.8781090  50.1433017 112.2561968  21.5155285
  50.3829616 112.8880492  22.1934303  49.3002214 111.9050008  21.8020644
  51.2586733  94.9486570  10.1837090  50.3816199  94.8275371   9.8199336
  51.7344486  94.1572649   9.9315978  61.1259726 103.4039638  26.9535545
  60.2386505 103.0665560  27.0761944  61.6958277 102.6722669  27.1904311
  42.7788873  99.7363730  20.2778597  43.4659913  99.4225460  19.6899612
  42.6237002 100.6405095  20.0045848  47.5823595  94.6253927  24.7063620
  47.4981784  94.0179596  23.9714030  46.7606302  95.1162945  24.7073117
  54.6560879 108.0641091  23.9196789  54.5831051 108.8696062  24.4316093
  54.2138272 108.2633056  23.0944810  54.4450659 107.3012861  17.4299610
  53.6618181 107.8434541  17.5237835  55.1443404 107.8186840  17.8293851
  57.7547309  93.1107490  20.0733815  58.2516009  92.3577452  19.7534886
  56.9834291  93.1471807  19.5077025  65.6077066  98.8147856  21.7152107
  65.5966943  99.6972571  21.3446040  64.7394446  98.4619406  21.5206644
  57.1159563 107.9627925  26.0754947  57.8287535 108.5975389  26.0030849
  56.6249591 108.0591791  25.2594949  58.8377090 101.8679177  17.6472239
  57.9033368 101.9880640  17.4776943  59.0153758 100.9651644  17.3832249
  54.3382278  95.2524873  19.8005500  53.9680065  94.6995913  20.4886406
  54.8341370  94.6483007  19.2480500  62.2249641  97.7096497  18.1822273
  62.6910093  98.5424488  18.1082576  62.6757142  97.2441478  18.8867531
  52.1671476 105.7122368  26.8960518  52.8680936 106.3458851  27.0489912
  51.6966591 106.0537100  26.1356157  60.2925872 104.0540318  15.1808425
  60.5685716 103.9396912  16.0902299  59.4230371 103.6557803  15.1420598
  60.1966304  90.0777084  22.2213174  59.2829384  90.3081310  22.3895381
  60.6259405  90.1615528  23.0727207  59.9672762  98.2666976  24.7213068
  59.3144213  98.5142883  24.0665521  60.3453142  97.4531114  24.3875546
  56.9279936 108.3026669  18.8241239  57.1102331 107.4848325  19.2868991
  57.7512922 108.5194361  18.3866129  57.2622102 107.2294854  16.0856287
  57.7909868 106.7187308  15.4726449  57.5250321 106.9137384  16.9501820
  56.0160335  99.0086787  31.2079105  55.3400972  98.9080916  31.8781481
  56.8387969  98.8526000  31.6715103  47.7639194 105.2458723  23.8291621
  48.3492631 104.5002411  23.9619525  47.5664033 105.5562680  24.7128285
  50.6177850 108.2809971  18.8454063  49.9488225 108.7656098  18.3618103
  50.4790719 108.5279191  19.7597442  42.3556849  97.8164323  22.5496064
  42.3940949  97.2827914  23.3433182  41.8497142  97.2899529  21.9307041
  54.7583118 110.3153714  25.4436721  55.3101426 110.4785336  26.2085807
  55.0989312 110.9058152  24.7716746  49.7347611  92.6628864  26.0458606
  49.7988938  93.5243695  25.6336004  49.6714732  92.0502866  25.3130965
  49.2099884  94.7351996  29.6931640  49.8371923  94.3529074  30.3069165
  48.3527803  94.5166198  30.0587333  59.6093993 105.1414972  31.2985376
  60.1533897 105.7544930  30.8040331  59.0280837 105.6994550  31.8152389
  45.9865427  96.5428426  15.6249995  46.2818868  95.6339104  15.5717049
  45.0853463  96.5216165  15.3030998  57.8951506 108.2635690  22.4300404
  57.7702645 107.4625429  21.9211349  58.5530597 108.7581883  21.9414374
  49.5159674  94.6184422  21.6077544  48.7946260  95.2320390  21.4685017
  50.3052930  95.1542187  21.5294190  59.9586414 106.0644710  24.0579954
  59.0116749 105.9450061  23.9858280  60.3069187 105.1767208  24.1406215
  52.3185987  91.9538849  27.8818196  52.8420389  92.2001145  28.6444505
  52.0998321  92.7858883  27.4621333  47.7153268  94.2242523  15.7489320
  47.3865974  93.3439902  15.5664426  48.0692639  94.1690192  16.6365710
  56.9632847 105.8597426  20.2584306  56.8157810 104.9314133  20.4391876
  57.7886341 105.8817517  19.7741381  50.8295092  94.5115493  16.1164798
  51.1691164  95.0401414  15.3943406  51.2767212  94.8495899  16.8923365
  60.5666969 106.6825985  21.3449179  61.4913517 106.4768846  21.2073630
  60.3982272 106.4342386  22.2538520  53.5238532  92.8952544  25.5667866
  53.1835353  92.0960357  25.9688546  52.8177539  93.1954255  24.9944699
  54.1755004  89.9801856  24.0195189  54.9981073  89.5062334  23.8974079
  54.4193068  90.7592340  24.5193875  52.8163239  93.0090115  14.3158091
  53.5371601  93.3871367  13.8121808  52.1928543  93.7278991  14.4193069
  56.9594362  93.7135264  15.2516423  57.1757976  94.5959901  14.9505251
  56.4788429  93.3221477  14.5222065  51.6993583  96.6720977  21.8287168
  51.5538164  96.9861280  22.7211449  51.2218787  97.2905877  21.2758066
  53.5589966  93.6623525  21.8768057  53.5451535  92.7664618  21.5400355
  54.2762394  93.6694188  22.5106343  55.4116097  94.0960865  23.9221185
  55.1533874  95.0177936  23.9205515  54.8801137  93.6991299  24.6121649
  60.3562285 107.2011652  16.7011270  60.5299163 106.6358075  15.9485123
  60.8491176 108.0012547  16.5190760  46.1739245  99.2126321  24.7674829
  45.6292713  99.9886129  24.8995103  47.0518595  99.5597126  24.6093950
  52.9626862  92.5437905  17.1455627  53.0842773  91.6154551  17.3446515
  52.6728904  92.5576591  16.2333943  55.8318052  90.2292815  20.2822347
  55.8539749  90.2932149  19.3274327  56.2486111  89.3897324  20.4762853
  66.2101676  99.9648075  18.3201570  66.6532822  99.2155400  17.9220693
  65.3328187  99.9558211  17.9375302  61.3437458 106.5178416  13.8008168
  62.0388362 107.1385109  14.0195483  61.6860608 105.6673768  14.0760546
  46.9605267  98.3396217  27.6604986  46.2187003  98.4878853  28.2469616
  46.6398011  98.6004483  26.7971735  63.2428881 103.9678122  15.3295499
  63.7680205 104.3065395  14.6044819  63.1551233 103.0325137  15.1458634
  54.9048930 107.8812196  27.4585376  55.2136056 107.6361342  28.3308075
  55.7024412 108.0858834  26.9704246  54.9269542 110.0350105  19.6890752
  54.4874532 109.5426484  20.3823609  55.6777659 109.4923073  19.4482828
  47.4061881 106.2261646  19.6915380  48.2319901 105.9265418  19.3114024
  47.0555933 105.4569269  20.1405169  52.3743414 105.5788114  21.7613054
  51.7523423 104.9158819  21.4615282  53.0448281 105.6049246  21.0786702
  45.6070486 104.1447973  20.6504314  44.7702394 103.7170147  20.4688315
  45.5794131 104.3380416  21.5875105  52.4467941  94.0569902  31.3545560
  52.4956097  94.9332025  30.9723330  52.9890455  93.5147295  30.7817203
  62.9322787 104.6011026  30.6346697  62.1418331 104.5835164  30.0951197
  62.6956142 105.1399319  31.3895734  63.0520662 101.4503492  27.9479426
  63.1018667 101.2853499  28.8894948  62.9434585 100.5830751  27.5577306
  51.9356921 104.1292038  15.2371515  52.0845041 104.8127502  14.5838187
  52.7423364 104.1097128  15.7520970  60.3424424  97.4334420  29.2638732
  61.2434287  97.2940885  28.9722730  60.4172399  97.5988875  30.2036910
  54.6767230  94.8101275  28.1091919  53.8070539  95.1034841  27.8374507
  54.9126710  95.3941720  28.8299182  64.5538859 103.8700434  28.1921447
  64.2623667 104.2330414  29.0284908  63.9410990 103.1567442  28.0134779
  65.7534541 101.4353313  20.7124017  66.5881433 101.8743117  20.8761578
  65.8893670 100.9591967  19.8932263  62.8026047  98.9933048  26.6601505
  63.2780169  99.1860694  25.8520357  61.8791612  99.0492234  26.4144889
  49.6909554 100.1557215  16.2432583  49.4455596  99.2519545  16.4412794
  49.8605468 100.1574366  15.3012061  57.3806264  91.0280892  25.6257339
  57.8988207  91.7641919  25.3003828  57.0261396  91.3344885  26.4604098
  48.9605201  95.8885573  13.7418745  48.2674446  95.9629928  13.0858781
  48.7156953  95.1245917  14.2640262  57.6318858  87.4481174  21.1458236
  57.9120611  86.7804363  21.7718662  58.4169465  87.6410270  20.6332900
  55.4352326 106.6240168  12.7083262  54.8626293 107.2430355  12.2553734
  56.0085120 107.1739530  13.2423184  61.5027716  95.8698808  24.8929811
  62.4545139  95.9696906  24.9142035  61.3331166  95.0777077  25.4027895
  59.5242096  92.9554391  25.0789212  58.9292028  93.2359404  24.3835700
  59.2391792  93.4448292  25.8505953  58.6549586 106.9077318  13.8391844
  59.5880259 106.8422880  14.0424720  58.5672799 107.7433585  13.3806377
  63.9815794  99.0904928  24.0072110  63.9492114  98.1520929  24.1931794
  64.5916417  99.1688965  23.2737935  55.8199125  97.9600981  10.0499314
  56.7658229  97.8307189  10.1187733  55.4413370  97.2215643  10.5268743
  64.1310282  95.8815971  24.0530394  63.6149331  95.0974428  23.8660322
  65.0150231  95.5534688  24.2176913  61.7921009  89.6256987  20.0126206
  61.5945830  89.3172075  20.8969538  62.4020715  90.3518626  20.1424136
  69.7992344 100.1520935  23.1478147  70.5295732  99.8906223  23.7085851
  69.1899289  99.4149657  23.1880215  67.8807641  98.2928797  23.7452598
  67.1540804  98.1584762  23.1369090  67.4654928  98.6005626  24.5509316
  55.7037817 102.0118727  31.5099971  56.6240827 102.1897326  31.7040018
  55.6687400 101.0674772  31.3579671  54.0042042  95.8850957   9.9854200
  53.0973497  95.5884070  10.0616913  54.2818023  95.5880775   9.1188486
  44.9219982  97.2057321  20.4353246  44.6022767  96.3522629  20.1427620
  44.3753410  97.4205899  21.1911213  48.6999890  99.9219762  24.1522753
  48.9185900 100.8536870  24.1710786  49.1125664  99.5627736  24.9377556
  55.6204108  90.4287847  16.1398441  54.8104836  90.0834932  16.5153687
  56.3088525  90.1195391  16.7286053  57.5494656  89.5065894  17.7622738
  58.1025694  89.9261347  18.4212761  57.7864742  88.5801642  17.8045694
  53.5727755  95.4952967  33.5425502  53.4724482  96.4447324  33.4737593
  53.3549297  95.1671206  32.6701572  52.7740826  92.7437893  10.1266179
  53.6359990  93.0692791  10.3861996  52.9591171  91.9569388   9.6139245
  44.7908242 100.8260232  22.4046368  44.0971714 100.4114185  21.8916322
  45.5381233 100.8680769  21.8079787  60.9273463  91.6166419  17.2701402
  60.3472132  92.2751223  16.8879454  60.6609396  90.7943764  16.8588819
  59.3777029  91.0171477  19.4722722  59.8776808  91.1288011  18.6637041
  60.0212637  90.7132530  20.1123531  53.4359025  98.9250106  32.3590563
  52.9526107  99.7250466  32.5654452  53.5219964  98.9358051  31.4058007
  46.7044985 100.7578486  20.2812383  46.6815673 100.8566173  19.3294266
  47.0145621 101.6043637  20.6029549  49.3632363 102.8154641  24.3958997
  50.3175616 102.7838583  24.3288929  49.1644886 102.3545265  25.2109223
  49.9531745 101.3855757  26.9629795  50.7724634 101.8799836  26.9864632
  50.2268552 100.4687725  26.9347362  59.7098341  93.7766509  16.3257750
  58.8224196  94.0616160  16.1077945  60.1252330  93.6160273  15.4785027
  63.0612877  93.8013030  20.0412089  63.8373267  94.2909483  20.3136706
  62.3361011  94.2271085  20.4983959  65.4985436  94.5140650  21.0986030
  66.0929927  94.2736386  20.3879338  65.5712019  93.7947780  21.7259566
  47.7182591 108.3574260  21.4129195  47.5837059 107.5974661  20.8467193
  47.3014654 109.0815160  20.9457984  59.6839365  99.2921045  16.5408040
  59.6274566  99.7489597  15.7015673  60.2367707  98.5311730  16.3630883
  63.4944171  95.0810777  17.3658160  63.2381105  94.6807413  18.1966368
  62.8697039  95.7954571  17.2408299  67.8056508  97.8206850  19.8729451
  67.2456066  97.8900040  20.6461013  67.2000012  97.6447835  19.1528947
  50.8751717 109.2543578  21.6247638  50.7584101 110.1989010  21.5226328
  50.0544164 108.9517139  22.0133437  60.7628252 103.9793713  12.4704230
  61.5973856 103.5474912  12.2881705  60.6012595 103.8075727  13.3981125
  60.4174144 100.4825827  13.8360570  60.3622948 100.3170098  12.8949014
  59.7920199 101.1901859  13.9922759  45.2066659  95.7193891  27.6621992
  45.8525523  95.2092845  28.1509217  44.9983810  96.4562573  28.2365417
  57.7320051 102.7874738  33.1614132  58.6011211 102.9615391  32.8000767
  57.2526803 103.6069155  33.0389862  53.7270269  89.9833936  13.4145888
  53.7148939  90.9275775  13.5714159  54.6193691  89.8004081  13.1205349
  51.9006231 109.9071839  24.8403566  52.8033478 109.9395450  25.1570061
  51.6743602 108.9772290  24.8549902  53.6559833 108.6602826  21.5013645
  52.7055464 108.6604688  21.3878017  53.9592320 107.9135561  20.9849679
  57.5422389  86.5776712  17.6691825  56.7754785  86.0235199  17.8148507
  57.9533094  86.6498581  18.5305976  49.5464150  92.8661508  31.7597006
  50.4095612  92.5098313  31.9700331  48.9729561  92.5275403  32.4472410
  69.3912527 114.4963364  22.5659407  70.0290937 114.3770112  21.8622747
  69.2733370 115.4444208  22.6247359  66.2002233 114.4490792  22.5020932
  65.8620745 114.3331857  21.6141467  67.0692001 114.0481958  22.4821938
  66.6822016 115.6025644  28.4607137  66.6710657 115.2078442  27.5887641
  66.8442656 114.8691717  29.0540909  59.6053481 117.7977460  21.3302043
  60.3974773 117.4568285  20.9148342  59.8450131 117.9072435  22.2504196
  63.4029277 118.3862756  27.4086321  63.1119143 119.2908387  27.2932987
  64.0386262 118.4279284  28.1230391  64.3285484 115.7639604  23.9987681
  64.9249056 115.5395627  23.2844644  64.3860456 115.0224350  24.6013129
  71.8687643 105.8711625  25.0040202  71.5370968 106.7407036  24.7801417
  71.2733256 105.5547909  25.6834233  68.3619162 118.0724171  24.4036115
  68.0619886 118.9749210  24.2951922  68.0170222 117.8056355  25.2557268
  61.8131644 114.5237968  20.4372819  60.8882140 114.3914182  20.6450511
  62.0616057 115.3032188  20.9342762  71.7616306 110.5906712  22.0833552
  70.8533184 110.5222120  21.7892313  71.7103902 111.0678657  22.9115378
  59.1740455 114.1671242  21.2716608  59.3032836 114.4205721  22.1856020
  58.4937906 114.7598950  20.9521263  65.8357172 112.0096357  30.0268449
  65.0590506 112.5690277  30.0171314  66.4747735 112.4953140  30.5483320
  73.6277953 108.7923150  23.8611426  72.9852333 109.0855683  23.2151221
  73.1232881 108.6776070  24.6664623  64.0903544 114.8181811  29.5886416
  64.8318229 115.3566855  29.3121240  63.3840530 115.4448099  29.7457968
  69.5658884 116.9610951  28.1858578  69.9742240 116.5193362  27.4413210
  68.8436145 116.3863579  28.4392771  65.9189954 111.8983558  25.5592135
  66.7651149 112.3222971  25.7026784  65.8588592 111.2417182  26.2530698
  69.0689399 109.5587926  27.2173309  68.8250331 110.3129987  26.6807584
  69.3449330 109.9373274  28.0520556  71.0227862 116.1026539  25.8950574
  71.2344757 116.7458298  25.2184955  70.9757610 115.2688855  25.4272504
  68.6254091 108.7144359  22.7987146  67.7638570 109.0125613  23.0903884
  68.6516526 108.9314758  21.8668179  62.3339742 116.8058031  22.1440715
  62.9041099 117.2345300  21.5058200  62.9247853 116.5240616  22.8424901
  62.8264908 111.9721459  30.3901726  62.1963569 112.6537740  30.6237123
  62.7200996 111.8604540  29.4454865  58.1209880 111.6393255  21.3167651
  57.3308934 111.8950783  20.8407761  58.6121128 112.4541593  21.4219691
  60.0724626 112.0037834  18.2751127  59.2755789 112.1156528  18.7934623
  59.8450218 112.3424486  17.4092018  65.9030293 118.5282537  26.2233642
  65.9674726 118.9902945  27.0591814  65.1941217 117.8979902  26.3515952
  56.4047583 111.8923745  23.7482641  56.6555622 112.7770755  24.0140217
  56.9407132 111.7128347  22.9757733  62.1045651 106.2742225  32.7526977
  61.7112596 105.7208423  33.4274622  62.9211791 106.5852803  33.1433495
  65.0213612 107.6900104  30.3447234  65.7623325 108.2907257  30.2651697
  65.2531535 106.9477742  29.7865277  60.1654950 112.8756471  28.6225464
  60.0508465 111.9741728  28.9232563  59.3099468 113.1220168  28.2710280
  67.2446788 120.8174211  30.2212964  66.8010642 120.0310590  29.9033869
  67.9064001 121.0053362  29.5556855  62.0033909 122.3470013  24.7473643
  62.5541334 122.2187076  23.9750637  61.1645385 122.6464902  24.3968536
  69.3428026 121.0977011  28.2494366  69.3246501 121.9185892  27.7574635
  70.2647946 120.9731086  28.4744507  65.8001080 118.6121141  29.0917874
  66.3329417 117.8509429  28.8617182  65.2715161 118.3194793  29.8342028
  68.9670775 103.7181207  24.6211516  68.6235044 104.6082848  24.5450626
  69.3349737 103.5282864  23.7581101  66.5168168 108.5539519  18.1869189
  65.6609765 108.1646369  18.0074828  66.9295120 108.6331479  17.3268975
  68.0467315 106.0885862  22.5860749  67.5432111 106.0515997  21.7728554
  68.3397922 106.9978605  22.6457406  64.2910201 106.1724592  21.5926931
  65.1563198 105.9767400  21.2332820  64.3587710 105.9434943  22.5196287
  61.8972520 108.4026799  18.9643298  62.4716272 108.1801981  18.2316490
  62.4843503 108.4715494  19.7171899  64.1995188 105.2768048  17.6918367
  63.5459600 104.9617066  17.0674982  64.1575662 104.6543789  18.4178190
  67.4332928 111.7649982  22.0166015  66.5155490 111.9864929  21.8587703
  67.8493072 111.8396292  21.1577722  70.7658440 102.9774766  19.7229253
  71.0717317 102.1172129  19.4355168  71.4911045 103.5692386  19.5228247
  57.0582796 113.3805452  18.1110851  56.8607196 112.7874813  17.3861918
  56.5029460 113.0757663  18.8286790  65.0379520 113.2728559  20.2305444
  65.0928130 112.3202395  20.1547921  64.2270722 113.4287998  20.7146743
  62.9771880 111.8905619  17.9895823  62.1639746 112.1899789  18.3961015
  63.4730874 111.4961307  18.7070306  68.5746092 112.3547443  26.8210717
  68.9295479 112.5818916  27.6805183  69.2218223 112.6865820  26.1987973
  62.4685955 109.4623974  23.6057058  63.1085334 109.3212733  22.9080022
  61.6363485 109.1758488  23.2295660  59.4714571 109.4324299  18.3830045
  59.7321389 110.3469632  18.2739206  60.2931744 108.9648742  18.5326658
  60.9439497 110.8462056  25.5528870  61.6162550 110.6379418  24.9041519
  60.1169283 110.6484142  25.1134102  66.8465069 107.4723997  27.5694531
  66.1992984 108.1713947  27.4759007  67.6166084 107.9060141  27.9370779
  70.2543867 117.7372849  30.6445084  70.1029373 117.5083401  29.7275167
  70.2448546 118.6943451  30.6576429  67.0229203 115.3104762  25.6291350
  67.9521263 115.4615922  25.4560318  66.6020233 115.3988783  24.7739997
  65.8217535 119.3355427  23.3989888  65.6828620 118.9674211  24.2715826
  65.0332131 119.8503066  23.2273846  61.3466994 114.1204659  26.3131307
  61.2086792 113.3884898  26.9142846  62.2571917 114.0313559  26.0315495
  63.9749294 113.8324619  25.8014986  64.6848913 113.1917811  25.7601605
  63.9318603 114.0837513  26.7241167  71.9636073 120.7691972  28.7221566
  71.9048619 120.0851192  28.0552149  72.3655592 121.5110962  28.2702192
  62.6878228 110.8189837  27.6210626  62.1515585 110.3680575  28.2732222
  62.0994937 110.9535745  26.8781090  71.9653480 118.7331556  26.9535545
  71.0780259 118.3957478  27.0761944  72.5352031 118.0014587  27.1904311
  53.6182628 115.0655648  20.2778597  54.3053667 114.7517378  19.6899612
  53.4630756 115.9697012  20.0045848  58.4217350 109.9545844  24.7063620
  58.3375538 109.3471514  23.9714030  57.6000056 110.4454863  24.7073117
  68.5941064 108.4399408  20.0733815  69.0909763 107.6869370  19.7534886
  67.8228045 108.4763724  19.5077025  65.1776032 110.5816791  19.8005500
  64.8073820 110.0287831  20.4886406  65.6735125 109.9774924  19.2480500
  63.0065231 121.0414286  26.8960518  63.7074690 121.6750769  27.0489912
  62.5360346 121.3829017  26.1356157  71.0360058 105.4069001  22.2213174
  70.1223138 105.6373228  22.3895381  71.4653160 105.4907445  23.0727207
  70.8066517 113.5958893  24.7213068  70.1537967 113.8434801  24.0665521
  71.1846897 112.7823031  24.3875546  66.8554090 114.3378704  31.2079105
  66.1794727 114.2372834  31.8781481  67.6781724 114.1817918  31.6715103
  58.6032949 120.5750641  23.8291621  59.1886386 119.8294329  23.9619525
  58.4057787 120.8854598  24.7128285  53.1950604 113.1456241  22.5496064
  53.2334703 112.6119832  23.3433182  52.6890896 112.6191447  21.9307041
  60.5741366 107.9920782  26.0458606  60.6382692 108.8535612  25.6336004
  60.5108486 107.3794783  25.3130965  60.0493638 110.0643914  29.6931640
  60.6765677 109.6820991  30.3069165  59.1921557 109.8458116  30.0587333
  70.4487747 120.4706889  31.2985376  70.9927651 121.0836848  30.8040331
  69.8674592 121.0286468  31.8152389  56.8259181 111.8720343  15.6249995
  57.1212622 110.9631022  15.5717049  55.9247217 111.8508083  15.3030998
  60.3553428 109.9476340  21.6077544  59.6340014 110.5612307  21.4685017
  61.1446684 110.4834105  21.5294190  63.1579742 107.2830766  27.8818196
  63.6814144 107.5293063  28.6444505  62.9392075 108.1150801  27.4621333
  58.5547023 109.5534441  15.7489320  58.2259729 108.6731820  15.5664426
  58.9086394 109.4982110  16.6365710  64.3632287 108.2244461  25.5667866
  64.0229107 107.4252274  25.9688546  63.6571293 108.5246172  24.9944699
  65.0148759 105.3093774  24.0195189  65.8374828 104.8354252  23.8974079
  65.2586822 106.0884258  24.5193875  62.5387337 112.0012894  21.8287168
  62.3931918 112.3153197  22.7211449  62.0612541 112.6197795  21.2758066
  64.3983720 108.9915442  21.8768057  64.3845289 108.0956536  21.5400355
  65.1156148 108.9986106  22.5106343  66.2509851 109.4252783  23.9221185
  65.9927629 110.3469853  23.9205515  65.7194891 109.0283217  24.6121649
  57.0133000 114.5418239  24.7674829  56.4686468 115.3178047  24.8995103
  57.8912349 114.8889043  24.6093950  63.8020616 107.8729823  17.1455627
  63.9236527 106.9446469  17.3446515  63.5122659 107.8868509  16.2333943
  66.6711807 105.5584733  20.2822347  66.6933503 105.6224066  19.3274327
  67.0879866 104.7189242  20.4762853  57.7999021 113.6688135  27.6604986
  57.0580757 113.8170770  28.2469616  57.4791766 113.9296401  26.7971735
  65.7442684 123.2104113  27.4585376  66.0529811 122.9653260  28.3308075
  66.5418166 123.4150752  26.9704246  56.4464240 119.4739890  20.6504314
  55.6096148 119.0462065  20.4688315  56.4187886 119.6672334  21.5875105
  63.2861696 109.3861820  31.3545560  63.3349851 110.2623943  30.9723330
  63.8284210 108.8439213  30.7817203  73.7716541 119.9302943  30.6346697
  72.9812085 119.9127082  30.0951197  73.5349896 120.4691237  31.3895734
  73.8914416 116.7795410  27.9479426  73.9412421 116.6145417  28.8894948
  73.7828340 115.9122669  27.5577306  71.1818179 112.7626338  29.2638732
  72.0828042 112.6232803  28.9722730  71.2566153 112.9280793  30.2036910
  65.5160984 110.1393192  28.1091919  64.6464294 110.4326759  27.8374507
  65.7520465 110.7233637  28.8299182  75.3932613 119.1992351  28.1921447
  75.1017422 119.5622332  29.0284908  74.7804745 118.4859359  28.0134779
  73.6419802 114.3224966  26.6601505  74.1173923 114.5152612  25.8520357
  72.7185367 114.3784152  26.4144889  68.2200018 106.3572809  25.6257339
  68.7381962 107.0933836  25.3003828  67.8655151 106.6636803  26.4604098
  68.4712612 102.7773092  21.1458236  68.7514366 102.1096281  21.7718662
  69.2563219 102.9702188  20.6332900  72.3421471 111.1990726  24.8929811
  73.2938893 111.2988824  24.9142035  72.1724921 110.4068994  25.4027895
  70.3635850 108.2846309  25.0789212  69.7685782 108.5651322  24.3835700
  70.0785547 108.7740210  25.8505953  74.9704037 111.2107889  24.0530394
  74.4543085 110.4266346  23.8660322  75.8543985 110.8826606  24.2176913
  72.6314764 104.9548905  20.0126206  72.4339585 104.6463993  20.8969538
  73.2414469 105.6810544  20.1424136  66.5431572 117.3410645  31.5099971
  67.4634581 117.5189244  31.7040018  66.5081155 116.3966690  31.3579671
  55.7613737 112.5349238  20.4353246  55.4416521 111.6814547  20.1427620
  55.2147165 112.7497817  21.1911213  59.5393644 115.2511679  24.1522753
  59.7579654 116.1828787  24.1710786  59.9519418 114.8919654  24.9377556
  66.4597862 105.7579765  16.1398441  65.6498590 105.4126850  16.5153687
  67.1482279 105.4487308  16.7286053  68.3888410 104.8357811  17.7622738
  68.9419449 105.2553265  18.4212761  68.6258497 103.9093560  17.8045694
  64.4121510 110.8244885  33.5425502  64.3118236 111.7739242  33.4737593
  64.1943052 110.4963124  32.6701572  55.6301997 116.1552150  22.4046368
  54.9365468 115.7406103  21.8916322  56.3774988 116.1972686  21.8079787
  70.2170784 106.3463394  19.4722722  70.7170562 106.4579929  18.6637041
  70.8606392 106.0424447  20.1123531  64.2752780 114.2542024  32.3590563
  63.7919861 115.0542384  32.5654452  64.3613719 114.2649969  31.4058007
  57.5438739 116.0870404  20.2812383  57.5209427 116.1858091  19.3294266
  57.8539376 116.9335554  20.6029549  60.2026117 118.1446559  24.3958997
  61.1569371 118.1130501  24.3288929  60.0038641 117.6837182  25.2109223
  60.7925499 116.7147675  26.9629795  61.6118388 117.2091753  26.9864632
  61.0662307 115.7979643  26.9347362  56.0460414 111.0485809  27.6621992
  56.6919277 110.5384763  28.1509217  55.8377565 111.7854490  28.2365417
  68.5713806 118.1166656  33.1614132  69.4404965 118.2907308  32.8000767
  68.0920557 118.9361073  33.0389862  62.7399986 125.2363757  24.8403566
  63.6427233 125.2687367  25.1570061  62.5137356 124.3064208  24.8549902
  68.3816143 101.9068630  17.6691825  67.6148539 101.3527117  17.8148507
  68.7926848 101.9790499  18.5305976  60.3857905 108.1953426  31.7597006
  61.2489366 107.8390231  31.9700331  59.8123315 107.8567320  32.4472410
  72.9439405 121.6034142  32.7526977  72.5506351 121.0500341  33.4274622
  73.7605546 121.9144721  33.1433495  75.8607366 123.0192021  30.3447234
  76.6017080 123.6199175  30.2651697  76.0925289 122.2769659  29.7865277
  70.8887393 125.3935832  29.6931640  71.5159432 125.0112909  30.3069165
  70.0315312 125.1750034  30.0587333  74.1255450 124.7153738  31.3545560
  74.1743606 125.5915861  30.9723330  74.6677964 124.1731131  30.7817203
  75.2515264 126.1536803  33.5425502  75.1511991 127.1031160  33.4737593
  75.0336806 125.8255042  32.6701572  66.8854168 126.3777726  27.6621992
  67.5313032 125.8676680  28.1509217  66.6771319 127.1146408  28.2365417
  71.2251659 123.5245343  31.7597006  72.0883121 123.1682148  31.9700331
  70.6517070 123.1859238  32.4472410  28.6061056  36.4586424  15.4466872
  28.5473603  35.7745644  14.7797455  29.0080575  37.2005414  14.9947498
  27.0912730  36.1601341  18.0230683  27.6352634  36.7731299  17.5285637
  26.5099575  36.7180920  18.5397696  30.4141525  35.6197395  17.3592004
  29.6237068  35.6021534  16.8196503  30.1774879  36.1585689  18.1141040
  32.0357597  34.8886803  14.9166754  31.7442405  35.2516784  15.7530215
  31.4229728  34.1753811  14.7380086  25.2138789  33.8061108  19.8859439
  26.0829949  33.9801760  19.5246074  24.7345540  34.6255525  19.7635168
  36.8731265  45.5149734   9.2904714  37.5109675  45.3956481   8.5868054
  36.7552108  46.4630578   9.3492666  33.6820971  45.4677162   9.2266238
  33.3439483  45.3518227   8.3386773  34.5510739  45.0668327   9.2067244
  34.1640754  46.6212014  15.1852444  34.1529395  46.2264812  14.3132947
  34.3261393  45.8878086  15.7786215  27.0872219  48.8163830   8.0547350
  27.8793511  48.4754655   7.6393649  27.3268869  48.9258805   8.9749503
  30.8848015  49.4049126  14.1331628  30.5937881  50.3094756  14.0178294
  31.5204999  49.4465653  14.8475697  31.8104222  46.7825974  10.7232987
  32.4067794  46.5581996  10.0089950  31.8679194  46.0410720  11.3258435
  41.8280960  43.1776421   7.2690900  42.5606132  42.6075638   7.5028730
  41.0720316  42.7898021   7.7097406  39.3506381  36.8897995  11.7285509
  39.0189705  37.7593406  11.5046724  38.7551994  36.5734279  12.4079539
  35.8437900  49.0910541  11.1281421  35.5438623  49.9935580  11.0197229
  35.4988960  48.8242724  11.9802574  39.2435044  41.6093081   8.8078859
  38.3351921  41.5408490   8.5137620  39.1922640  42.0865026   9.6360684
  30.8258680  55.8554861   4.0952389  30.7482710  56.8062686   4.1740870
  30.2220324  55.5100734   4.7527315  33.3175910  43.0282727  16.7513756
  32.5409244  43.5876647  16.7416621  33.9566473  43.5139510  17.2728626
  41.1096690  39.8109520  10.5856733  40.4671071  40.1042053   9.9396527
  40.6051619  39.6962440  11.3909929  31.5722282  45.8368180  16.3131723
  32.3136966  46.3753224  16.0366547  30.8659268  46.4634469  16.4703275
  37.0477622  47.9797321  14.9103885  37.4560978  47.5379731  14.1658517
  36.3254883  47.4049948  15.1638077  33.4008692  42.9169927  12.2837442
  34.2469887  43.3409341  12.4272091  33.3407329  42.2603552  12.9776005
  37.3706436  48.5398511   8.6656173  36.7415299  48.7044225   7.9632241
  36.9832098  48.9540121   9.4367137  41.2495668  49.4752949   6.0200537
  40.5646706  49.8551850   5.4697571  41.3339518  50.0848276   6.7532485
  36.5508137  40.5774296  13.9418615  36.3069069  41.3316356  13.4052891
  36.8268068  40.9559643  14.7765862  38.5046600  47.1212908  12.6195881
  38.7163495  47.7644668  11.9430262  38.4576348  46.2875225  12.1517811
  29.8158479  47.8244401   8.8686022  30.3859836  48.2531669   8.2303506
  30.4066591  47.5426986   9.5670207  30.3083646  42.9907828  17.1147033
  29.6782306  43.6724109  17.3482430  30.2019734  42.8790910  16.1700171
  39.6192428  49.9984864  10.7918238  40.4409872  49.5965051  10.5100920
  39.6154831  49.8953098  11.7434354  33.3849031  49.5468907  12.9478949
  33.4493464  50.0089314  13.7837120  32.6759955  48.9166272  13.0761258
  47.7098421  46.3423612   7.1403210  46.9562129  45.7731010   6.9847214
  47.8445962  46.3086277   8.0873844  29.5864389  37.2928594  19.4772284
  29.1931334  36.7394793  20.1519928  30.4030529  37.6039173  19.8678802
  28.3621331  51.8478209   5.4708607  28.5387959  52.7696173   5.2829591
  29.1578165  51.5336628   5.9002987  32.5032350  38.7086473  17.0692541
  33.2442063  39.3093626  16.9897003  32.7350272  37.9664111  16.5110583
  27.6473688  43.8942841  15.3470770  27.5327203  42.9928098  15.6477869
  26.7918205  44.1406537  14.9955587  34.7265525  51.8360581  16.9458271
  34.2829380  51.0496959  16.6279175  35.3882739  52.0239731  16.2802162
  29.4852646  53.3656382  11.4718949  30.0360072  53.2373446  10.6995943
  28.6464122  53.6651271  11.1213842  36.8246763  52.1163381  14.9739672
  36.8065239  52.9372262  14.4819941  37.7466683  51.9917456  15.1989813
  33.2819818  49.6307510  15.8163181  33.8148154  48.8695798  15.5862489
  32.7533899  49.3381162  16.5587335  39.6265376  46.9542523   8.4449039
  38.9689051  47.6441785   8.5329168  40.4305775  47.3438955   8.7883025
  38.4370835  45.3086896   6.4952981  38.9502717  45.9416888   6.9974690
  39.0872059  44.7088091   6.1296341  34.9151666  42.7836351   8.7411321
  33.9974227  43.0051298   8.5833009  35.3311810  42.8582662   7.8823029
  39.2032631  50.2892897   4.6232123  38.7494958  49.4483807   4.6797314
  38.5726598  50.9254296   4.9606903  37.6465571  52.1269394   5.5581941
  37.9388545  52.6874451   4.8394307  38.1564191  52.4197955   6.3135101
  32.6099196  52.9049745   6.6475395  32.5675375  53.1310591   5.7183927
  33.5261895  52.6713120   6.7961196  36.0564830  43.3733813  13.5456024
  36.4114217  43.6005286  14.4050490  36.7036961  43.7052189  12.9233279
  41.7862566  46.4952249   4.2505353  41.6480465  46.6853845   3.3226542
  41.4298785  47.2571631   4.7073404  41.8131946  48.5628776   9.2616624
  42.2468453  48.4704065  10.1099678  42.5263527  48.5386276   8.6236640
  35.5459841  52.1630870  10.7949725  35.5996863  52.7321806  11.5627441
  34.6774622  52.3332755  10.4303762  28.4258234  41.8648426  12.2774176
  29.0981288  41.6565788  11.6286825  27.5988021  41.6670512  11.8379409
  42.6747496  48.6052476  11.7949510  42.8683386  49.5098287  12.0408785
  42.5748114  48.1459895  12.6288095  34.3283806  38.4910367  14.2939837
  33.6811721  39.1900316  14.2004314  35.0984822  38.9246511  14.6616085
  37.7362604  48.7559219  17.3690390  37.5848111  48.5269771  16.4520474
  37.7267284  49.7129820  17.3821735  34.5047941  46.3291132  12.3536657
  35.4340001  46.4802291  12.1805624  34.0838971  46.4175153  11.4985303
  33.3036272  50.3541796  10.1235194  33.1647358  49.9860581  10.9961133
  32.5150869  50.8689436   9.9519152  33.8984424  55.4550893   1.4660731
  34.0736180  54.9838936   2.2806354  33.2117212  56.0816659   1.6941992
  34.8541488  49.7323399   7.5124032  34.5191320  49.6924169   8.4081682
  34.3545433  49.0668115   7.0394442  28.8285732  45.1391029  13.0376613
  28.6905530  44.4071268  13.6388152  29.7390655  45.0499929  12.7560801
  31.4568032  44.8510988  12.5260293  32.1667651  44.2104180  12.4846912
  31.4137340  45.1023883  13.4486474  39.4454811  51.7878342  15.4466872
  39.3867357  51.1037562  14.7797455  39.8474329  52.5297332  14.9947498
  30.1696966  41.8376206  14.3455933  29.6334323  41.3866945  14.9977529
  29.5813675  41.9722115  13.6026397  28.4645510  58.6040255   8.2400591
  28.7042108  59.2358780   8.9179610  27.6214706  58.2528295   8.5265950
  39.4472218  49.7517925  13.6780852  38.5598997  49.4143847  13.8007251
  40.0170769  49.0200957  13.9149617  32.9773372  54.4119378  10.6442095
  32.9043543  55.2174349  11.1561400  32.5350765  54.6111344   9.8190117
  32.7663151  53.6491148   4.1544917  31.9830673  54.1912828   4.2483141
  33.4655896  54.1665128   4.5539158  43.9289559  45.1626143   8.4397414
  43.9179435  46.0450858   8.0691347  43.0606938  44.8097694   8.2451951
  35.4372055  54.3106212  12.8000254  36.1500027  54.9453677  12.7276155
  34.9462084  54.4070078  11.9840256  30.4883969  52.0600655  13.6205825
  31.1893428  52.6937138  13.7735219  30.0179084  52.4015387  12.8601464
  38.2885255  44.6145263  11.4458375  37.6356705  44.8621170  10.7910828
  38.6665635  43.8009401  11.1120852  35.2492429  54.6504956   5.5486545
  35.4314823  53.8326612   6.0114298  36.0725415  54.8672648   5.1111435
  35.5834594  53.5773141   2.8101594  36.1122360  53.0665596   2.1971756
  35.8462814  53.2615671   3.6747127  34.3372828  45.3565074  17.9324412
  33.6613465  45.2559203  18.6026787  35.1600462  45.2004288  18.3960409
  26.0851687  51.5937010  10.5536927  26.6705124  50.8480698  10.6864832
  25.8876525  51.9040967  11.4373591  28.9390342  54.6288258   5.5699370
  28.2700717  55.1134385   5.0863410  28.8003212  54.8757478   6.4842748
  33.0795611  56.6632001  12.1682028  33.6313919  56.8263623  12.9331113
  33.4201804  57.2536439  11.4962053  27.5312376  41.0830284  16.4176947
  28.1584415  40.7007361  17.0314471  26.6740295  40.8644486  16.7832640
  37.9306485  51.4893259  18.0230683  38.4746389  52.1023217  17.5285637
  37.3493330  52.0472837  18.5397696  36.2163998  54.6113977   9.1545710
  36.0915137  53.8103717   8.6456656  36.8743089  55.1060170   8.6659680
  38.2798906  52.4122997  10.7825260  37.3329242  52.2928348  10.7103587
  38.6281679  51.5245495  10.8651522  30.6398480  38.3017136  14.6063502
  31.1632881  38.5479432  15.3689812  30.4210813  39.1337171  14.1866640
  35.2845339  52.2075713   6.9829613  35.1370302  51.2792421   7.1637183
  36.1098833  52.2295804   6.4986688  38.8879461  53.0304272   8.0694485
  39.8126009  52.8247133   7.9318936  38.7194765  52.7820673   8.9783827
  31.8451025  39.2430831  12.2913173  31.5047845  38.4438644  12.6933853
  31.1390031  39.5432542  11.7190006  33.7328589  40.4439152  10.6466491
  33.4746367  41.3656223  10.6450822  33.2013629  40.0469587  11.3366956
  38.6774778  53.5489939   3.4256577  38.8511655  52.9836362   2.6730429
  39.1703669  54.3490834   3.2436067  24.4951737  45.5604608  11.4920136
  23.9505205  46.3364416  11.6240410  25.3731087  45.9075413  11.3339257
  44.5314169  46.3126362   5.0446876  44.9745315  45.5633687   4.6466000
  43.6540679  46.3036499   4.6620608  39.6649950  52.8656704   0.5253475
  40.3600855  53.4863396   0.7440790  40.0073100  52.0152055   0.8005853
  25.2817759  44.6874505  14.3850292  24.5399495  44.8357140  14.9714923
  24.9610503  44.9482770  13.5217042  41.5641373  50.3156409   2.0540806
  42.0892697  50.6543682   1.3290126  41.4763726  49.3803425   1.8703940
  33.2261422  54.2290483  14.1830682  33.5348548  53.9839630  15.0553382
  34.0236904  54.4337121  13.6949553  33.2482034  56.3828393   6.4136059
  32.8087024  55.8904771   7.1068916  33.9990151  55.8401360   6.1728134
  25.7274373  52.5739933   6.4160687  26.5532393  52.2743705   6.0359331
  25.3768425  51.8047556   6.8650476  30.6955906  51.9266402   8.4858361
  30.0735915  51.2637107   8.1860589  31.3660773  51.9527533   7.8032008
  30.7680434  40.4048190  18.0790867  30.8168589  41.2810312  17.6968636
  31.3102948  39.8625583  17.5062510  41.2535279  50.9489313  17.3592004
  40.4630823  50.9313452  16.8196503  41.0168634  51.4877607  18.1141040
  41.3733154  47.7981779  14.6724732  41.4231159  47.6331787  15.6140255
  41.2647078  46.9309038  14.2822613  38.6636917  43.7812707  15.9884039
  39.5646779  43.6419172  15.6968037  38.7384891  43.9467162  16.9282216
  32.9979722  41.1579562  14.8337225  32.1283031  41.4513128  14.5619814
  33.2339202  41.7420007  15.5544489  42.8751351  50.2178721  14.9166754
  42.5836159  50.5808701  15.7530215  42.2623482  49.5045729  14.7380086
  44.0747033  47.7831601   7.4369324  44.9093925  48.2221405   7.6006884
  44.2106162  47.3070254   6.6177570  41.1238539  45.3411335  13.3846812
  41.5992661  45.5338982  12.5765663  40.2004105  45.3970521  13.1390195
  35.7018756  37.3759179  12.3502646  36.2200700  38.1120206  12.0249134
  35.3473889  37.6823172  13.1849405  39.8240208  42.2177095  11.6175117
  40.7757631  42.3175193  11.6387341  39.6543659  41.4255364  12.1273202
  37.8454588  39.3032679  11.8034518  37.2504520  39.5837691  11.1081007
  37.5604285  39.7926580  12.5751259  42.3028286  45.4383215  10.7317417
  42.2704606  44.4999216  10.9177101  42.9128910  45.5167252   9.9983242
  42.4522775  42.2294259  10.7775700  41.9361823  41.4452715  10.5905629
  43.3362723  41.9012975  10.9422220  48.1204836  46.4999222   9.8723454
  48.8508224  46.2384510  10.4331157  47.5111781  45.7627944   9.9125522
  46.2020133  44.6407085  10.4697905  45.4753297  44.5063050   9.8614397
  45.7867420  44.9483913  11.2754623  34.0250310  48.3597014  18.2345278
  34.9453319  48.5375613  18.4285325  33.9899893  47.4153060  18.0824977
  27.0212382  46.2698049  10.8768059  27.2398392  47.2015157  10.8956093
  27.4338156  45.9106023  11.6622863  31.8940247  41.8431255  20.2670808
  31.7936974  42.7925612  20.1982899  31.6761789  41.5149494  19.3946878
  31.7571517  45.2728394  19.0835870  31.2738599  46.0728754  19.2899759
  31.8432456  45.2836338  18.1303314  27.6844855  49.1632928  11.1204304
  28.6388108  49.1316871  11.0534235  27.4857379  48.7023552  11.9354530
  28.2744237  47.7334044  13.6875101  29.0937126  48.2278123  13.7109939
  28.5481045  46.8166012  13.6592669  43.8197928  40.8618937   7.8231337
  44.4142419  40.6214673   7.1124645  43.8924512  40.1426067   8.4504873
  26.0395084  54.7052548   8.1374501  25.9049552  53.9452949   7.5712500
  25.6227146  55.4293448   7.6703290  46.1269001  44.1685138   6.5974758
  45.5668559  44.2378327   7.3706320  45.5212504  43.9926122   5.8774254
  29.1964210  55.6021865   8.3492944  29.0796594  56.5467297   8.2471634
  28.3756656  55.2995426   8.7378743  23.5279151  42.0672178  14.3867298
  24.1738015  41.5571132  14.8754524  23.3196302  42.8040860  14.9610724
  36.0532543  49.1353026  19.8859439  36.9223703  49.3093678  19.5246074
  35.5739295  49.9547442  19.7635168  30.2218724  56.2550127  11.5648873
  31.1245970  56.2873737  11.8815368  29.9956094  55.3250578  11.5795208
  31.9772326  55.0081113   8.2258951  31.0267957  55.0082975   8.1123323
  32.2804812  54.2613848   7.7094986  27.8676642  39.2139795  18.4842313
  28.7308104  38.8576600  18.6945637  27.2942053  38.8753690  19.1717717
  47.7125019  60.8441652   9.2904714  48.3503429  60.7248399   8.5868054
  47.5945862  61.7922496   9.3492666  44.5214726  60.7969080   9.2266238
  44.1833237  60.6810144   8.3386773  45.3904494  60.3960245   9.2067244
  40.3801541  62.6504556   5.2163129  39.8166406  62.5594493   4.4479417
  40.2653936  61.8304461   5.6965622  45.0034508  61.9503931  15.1852444
  44.9923149  61.5556730  14.3132947  45.1655148  61.2170004  15.7786215
  37.9265973  64.1455748   8.0547350  38.7187265  63.8046572   7.6393649
  38.1662623  64.2550723   8.9749503  45.9601100  66.3175524   0.5277594
  45.3089080  66.9029604   0.1411608  46.7545463  66.8481719   0.5872632
  39.8856727  63.4064661   0.9264728  40.6587603  62.8593648   0.7877604
  40.2382126  64.2708910   1.1379190  41.7241770  64.7341043  14.1331628
  41.4331636  65.6386674  14.0178294  42.3598754  64.7757571  14.8475697
  42.6497976  62.1117892  10.7232987  43.2461549  61.8873914  10.0089950
  42.7072948  61.3702637  11.3258435  42.2223005  59.5657327  -1.4416822
  42.4748526  59.0438848  -2.2033359  41.2847564  59.4023473  -1.3390138
  47.2666288  58.5693105   6.3657922  48.0529377  58.1512529   6.0148339
  47.5304992  59.4739198   6.5339570  47.4376365  64.0065956   1.0646578
  46.8022198  64.0800582   1.7767483  47.1073771  64.5959555   0.3865658
  52.6674715  58.5068339   7.2690900  53.3999887  57.9367555   7.5028730
  51.9114071  58.1189939   7.7097406  41.9419294  61.4685433   0.7607553
  41.8255552  60.7930336   1.4288638  42.0521554  60.9817807  -0.0560294
  44.2850835  60.9295580   4.4654243  43.9209042  60.4026201   5.1767164
  45.1417950  60.5394049   4.2920728  50.1900135  52.2189913  11.7285509
  49.8583460  53.0885324  11.5046724  49.5945749  51.9026197  12.4079539
  43.9256322  55.9585480  -0.5384409  44.0930724  56.8265716  -0.1713938
  43.7353491  56.1212762  -1.4623120  46.6831655  64.4202459  11.1281421
  46.3832378  65.3227498  11.0197229  46.3382714  64.1534642  11.9802574
  40.1344136  60.8716256   7.1618126  39.2094633  60.7392470   7.3695818
  40.3828549  61.6510475   7.6588068  50.0828799  56.9384999   8.8078859
  49.1745676  56.8700407   8.5137620  50.0316394  57.4156944   9.6360684
  43.9045542  58.4143137   0.4462258  43.7845168  58.8600188   1.2847738
  43.2098131  58.7628455  -0.1124204  37.4952947  60.5149529   7.9961915
  37.6245328  60.7684008   8.9101327  36.8150399  61.1077237   7.6766570
  41.6652435  71.1846779   4.0952389  41.5876464  72.1354604   4.1740870
  41.0614078  70.8392652   4.7527315  44.1569664  58.3574644  16.7513756
  43.3802998  58.9168565  16.7416621  44.7960227  58.8431427  17.2728626
  51.9490445  55.1401437  10.5856733  51.3064825  55.4333970   9.9396527
  51.4445373  55.0254358  11.3909929  49.6030609  58.8864611   1.2742592
  50.5148465  59.1191997   1.0990290  49.0940256  59.4701655   0.7117671
  42.4116037  61.1660098  16.3131723  43.1530721  61.7045142  16.0366547
  41.7053022  61.7926387  16.4703275  47.8871376  63.3089238  14.9103885
  48.2954732  62.8671649  14.1658517  47.1648638  62.7341866  15.1638077
  44.2402446  58.2461845  12.2837442  45.0863641  58.6701259  12.4272091
  44.1801084  57.5895469  12.9776005  48.2100191  63.8690429   8.6656173
  47.5809053  64.0336143   7.9632241  47.8225853  64.2832039   9.4367137
  52.0889423  64.8044867   6.0200537  51.4040461  65.1843768   5.4697571
  52.1733272  65.4140193   6.7532485  47.3901892  55.9066213  13.9418615
  47.1462823  56.6608274  13.4052891  47.6661822  56.2851561  14.7765862
  49.3440354  62.4504826  12.6195881  49.5557250  63.0936586  11.9430262
  49.2970103  61.6167142  12.1517811  46.9466583  55.0622646   9.5232453
  46.0851062  55.3603900   9.8149190  46.9729018  55.2793045   8.5913486
  43.7628153  63.6064837   5.9306259  44.2266498  63.8852540   5.1410881
  43.4984951  62.7048282   5.7479349  40.6552234  63.1536319   8.8686022
  41.2253591  63.5823587   8.2303506  41.2460346  62.8718903   9.5670207
  42.6997039  59.7287989   2.7395824  43.4021082  60.1809033   3.2069750
  42.3677667  59.0871808   3.3675717  41.1477400  58.3199746  17.1147033
  40.5176061  59.0016027  17.3482430  41.0413488  58.2082828  16.1700171
  36.4422373  57.9871542   8.0412957  35.6521427  58.2429071   7.5653068
  36.9333620  58.8019880   8.1464998  50.4586182  65.3276781  10.7918238
  51.2803626  64.9256969  10.5100920  50.4548585  65.2245015  11.7434354
  38.3937118  58.3516121   4.9996434  37.5968281  58.4634816   5.5179930
  38.1662710  58.6902774   4.1337324  44.2242786  64.8760825  12.9478949
  44.2887218  65.3381232  13.7837120  43.5153710  64.2458189  13.0761258
  34.7260076  58.2402033  10.4727948  34.9768114  59.1249042  10.7385524
  35.2619624  58.0606634   9.7003040  58.5492175  61.6715530   7.1403210
  57.7955884  61.1022928   6.9847214  58.6839717  61.6378194   8.0873844
  43.9390803  66.5428932   2.8157929  43.8036478  67.3880468   3.2442777
  44.4800616  66.7448210   2.0523863  40.4258143  52.6220512  19.4772284
  40.0325089  52.0686710  20.1519928  41.2424283  52.9331090  19.8678802
  37.3920201  64.0604370   3.3885854  37.9044721  64.8547620   3.5391419
  38.0442914  63.3630661   3.3219455  39.2015086  67.1770126   5.4708607
  39.3781714  68.0988091   5.2829591  39.9971919  66.8628546   5.9002987
  43.3426104  54.0378391  17.0692541  44.0835817  54.6385544  16.9897003
  43.5744027  53.2956029  16.5110583  38.4867442  59.2234758  15.3470770
  38.3720957  58.3220015  15.6477869  37.6311960  59.4698455  14.9955587
  45.5659280  67.1652499  16.9458271  45.1223134  66.3788877  16.6279175
  46.2276493  67.3531649  16.2802162  40.3246401  68.6948300  11.4718949
  40.8753826  68.5665363  10.6995943  39.4857877  68.9943189  11.1213842
  47.6640518  67.4455298  14.9739672  47.6458993  68.2664180  14.4819941
  48.5860438  67.3209374  15.1989813  44.1213572  64.9599428  15.8163181
  44.6541909  64.1987716  15.5862489  43.5927653  64.6673080  16.5587335
  47.2883267  50.0659494  11.3456822  46.9447536  50.9561136  11.2695933
  47.6562230  49.8761152  10.4826407  35.3569118  62.3893024   4.1645425
  36.1944340  62.7990033   3.9479132  35.5347385  61.4492467   4.1345618
  47.2533550  60.0568105  -0.1470743  46.7380173  60.8272710   0.0917645
  46.9810858  59.3833241   0.4762319  44.8380661  54.9017806   4.9114496
  43.9822257  54.5124656   4.7320135  45.2507613  54.9809767   4.0514281
  46.3679807  52.4364149   9.3106056  45.8644603  52.3994284   8.4973861
  46.6610414  53.3456892   9.3702712  42.6122693  52.5202879   8.3172237
  43.4775690  52.3245687   7.9578127  42.6800202  52.2913231   9.2441594
  52.2267824  62.8100460   1.7882431  51.4497267  62.4711619   1.3437593
  52.9059305  62.8153083   1.1137396  47.0419853  57.9295197   1.6789039
  46.7369988  58.2441346   2.5299182  47.9950295  58.0076617   1.7216372
  45.4866285  64.0885420   3.3281993  44.9587646  63.3538180   3.0155230
  44.9853787  64.8660097   3.0821961  50.4659131  62.2834441   8.4449039
  49.8082805  62.9733702   8.5329168  51.2699530  62.6730873   8.7883025
  40.2185012  54.7505087   5.6888604  40.7928764  54.5280268   4.9561797
  40.8055995  54.8193781   6.4417205  49.2764590  60.6378814   6.4952981
  49.7896471  61.2708805   6.9974690  49.9265813  60.0380009   6.1296341
  40.5454599  56.7809548  -0.2915511  39.7091912  57.1184234   0.0293764
  40.4059369  56.6458528  -1.2288374  42.5207680  51.6246336   4.4163674
  41.8672092  51.3095353   3.7920288  42.4788154  51.0022076   5.1423497
  43.6318885  61.9065631  -3.6683034  42.7245947  61.6754884  -3.4691885
  44.1289917  61.1103250  -3.4809053  46.5386964  70.6163138  -0.7486348
  45.8648663  70.9194835  -0.1401390  46.9252786  71.4192218  -1.0980891
  45.7545420  58.1128269   8.7411321  44.8367982  58.3343216   8.5833009
  46.1705564  58.1874580   7.8823029  46.5380468  59.5119685   3.8714001
  47.2852287  60.0241082   3.5621124  46.8072058  59.1903738   4.7318395
  44.8107118  62.0078226   0.8540956  43.9018338  61.7237258   0.9513426
  44.8402202  62.4277304  -0.0055737  50.0426386  65.6184815   4.6232123
  49.5888713  64.7775725   4.6797314  49.4120352  66.2546213   4.9606903
  48.9859305  56.5476801   5.8532791  48.2482062  56.0354187   6.1843033
  49.2386079  56.1077183   5.0416068  48.4859325  67.4561312   5.5581941
  48.7782299  68.0166369   4.8394307  48.9957946  67.7489873   6.3135101
  49.0870933  49.3253053   6.4474560  49.3929809  48.4650417   6.1600475
  49.8123537  49.9170673   6.2473554  35.3795289  59.7283740   4.8356158
  35.1819689  59.1353100   4.1107225  34.8241953  59.4235950   5.5532097
  43.3592012  59.6206846   6.9550751  43.4140622  58.6680683   6.8793228
  42.5483214  59.7766285   7.4392050  44.5083206  63.5486969  -1.8070966
  44.0702636  62.8322828  -2.2665328  45.2493647  63.7763084  -2.3685874
  41.2984372  58.2383906   4.7141130  40.4852238  58.5378076   5.1206322
  41.7943367  57.8439595   5.4315612  43.4492950  68.2341663   6.6475395
  43.4069129  68.4602509   5.7183927  44.3655649  68.0005037   6.7961196
  46.8958584  58.7025730  13.5456024  47.2507972  58.9297204  14.4050490
  47.5430715  59.0344107  12.9233279  52.6256321  61.8244166   4.2505353
  52.4874220  62.0145762   3.3226542  52.2692540  62.5863549   4.7073404
  40.7898447  55.8102261  10.3302365  41.4297826  55.6691021   9.6325328
  39.9575978  55.5236775   9.9540967  52.6525701  63.8920693   9.2616624
  53.0862207  63.7995982  10.1099678  53.3657281  63.8678194   8.6236640
  41.5658751  65.1104692   6.4437357  42.3599349  64.6155012   6.2419932
  40.8550443  64.5822555   6.0805063  46.3853595  67.4922787  10.7949725
  46.4390618  68.0613724  11.5627441  45.5168377  67.6624672  10.4303762
  37.8741514  59.2547774   2.5197110  36.9439103  59.1932229   2.7367072
  37.9698986  58.7323726   1.7233751  37.7927063  55.7802586   5.1075352
  38.0533881  56.6947920   4.9984512  38.6144236  55.3127029   5.2571965
  39.2651989  57.1940344  12.2774176  39.9375042  56.9857706  11.6286825
  38.4381775  56.9962430  11.8379409  53.5141250  63.9344394  11.7949510
  53.7077140  64.8390204  12.0408785  53.4141868  63.4751813  12.6288095
  45.1677561  53.8202285  14.2939837  44.5205476  54.5192234  14.2004314
  45.9378576  54.2538428  14.6616085  48.5756359  64.0851137  17.3690390
  48.4241865  63.8561688  16.4520474  48.5661038  65.0421738  17.3821735
  45.3441695  61.6583049  12.3536657  46.2733755  61.8094209  12.1805624
  44.9232725  61.7467070  11.4985303  44.1430027  65.6833714  10.1235194
  44.0041113  65.3152498  10.9961133  43.3544623  66.1981353   9.9519152
  44.7378179  70.7842810   1.4660731  44.9129935  70.3130853   2.2806354
  44.0510967  71.4108577   1.6941992  45.6935242  65.0615317   7.5124032
  45.3585075  65.0216087   8.4081682  45.1939188  64.3960032   7.0394442
  39.6679486  60.4682947  13.0376613  39.5299284  59.7363185  13.6388152
  40.5784410  60.3791847  12.7560801  48.6294434  62.4071351  -2.2138908
  48.0123604  61.6818179  -2.3105855  48.1610922  63.1680711  -2.5571834
  42.2961787  60.1802906  12.5260293  43.0061405  59.5396098  12.4846912
  42.2531095  60.4315801  13.4486474  50.2848565  67.1170259  15.4466872
  50.2261112  66.4329479  14.7797455  50.6868084  67.8589249  14.9947498
  41.0090721  57.1668124  14.3455933  40.4728078  56.7158862  14.9977529
  40.4207429  57.3014033  13.6026397  39.3039264  73.9332173   8.2400591
  39.5435862  74.5650697   8.9179610  38.4608461  73.5820213   8.5265950
  50.2865973  65.0809843  13.6780852  49.3992751  64.7435765  13.8007251
  50.8564524  64.3492874  13.9149617  31.9395120  61.4133935   7.0023903
  32.6266160  61.0995665   6.4144919  31.7843249  62.3175300   6.7291155
  36.7429842  56.3024131  11.4308927  36.6588031  55.6949801  10.6959337
  35.9212548  56.7933150  11.4318423  43.8167126  69.7411296  10.6442095
  43.7437298  70.5466267  11.1561400  43.3744519  69.9403261   9.8190117
  43.6056906  68.9783066   4.1544917  42.8224428  69.5204746   4.2483141
  44.3049651  69.4957045   4.5539158  46.9153556  54.7877695   6.7979122
  47.4122255  54.0347657   6.4780192  46.1440537  54.8242012   6.2322331
  54.7683313  60.4918061   8.4397414  54.7573189  61.3742776   8.0691347
  53.9000693  60.1389611   8.2451951  46.2765810  69.6398130  12.8000254
  46.9893782  70.2745594  12.7276155  45.7855838  69.7361996  11.9840256
  47.9983337  63.5449382   4.3717545  47.0639615  63.6650845   4.2022250
  48.1760005  62.6421849   4.1077555  43.4988525  56.9295078   6.5250807
  43.1286312  56.3766118   7.2131712  43.9947617  56.3253211   5.9725807
  51.3855888  59.3866702   4.9067580  51.8516340  60.2194693   4.8327882
  51.8363388  58.9211683   5.6112838  41.3277723  67.3892573  13.6205825
  42.0287183  68.0229056  13.7735219  40.8572838  67.7307305  12.8601464
  49.4532119  65.7310523   1.9053732  49.7291963  65.6167117   2.8147606
  48.5836618  65.3328008   1.8665905  49.3572551  51.7547288   8.9458481
  48.4435630  51.9851515   9.1140688  49.7865652  51.8385733   9.7972513
  49.1279009  59.9437180  11.4458375  48.4750459  60.1913088  10.7910828
  49.5059389  59.1301319  11.1120852  46.0886183  69.9796874   5.5486545
  46.2708578  69.1618530   6.0114298  46.9119169  70.1964566   5.1111435
  46.4228348  68.9065059   2.8101594  46.9516115  68.3957513   2.1971756
  46.6856568  68.5907589   3.6747127  45.1766582  60.6856992  17.9324412
  44.5007219  60.5851121  18.6026787  45.9994216  60.5296205  18.3960409
  36.9245441  66.9228928  10.5536927  37.5098878  66.1772616  10.6864832
  36.7270280  67.2332885  11.4373591  39.7784096  69.9580175   5.5699370
  39.1094472  70.4426303   5.0863410  39.6396966  70.2049396   6.4842748
  31.5163096  59.4934528   9.2741370  31.5547195  58.9598119  10.0678489
  31.0103389  58.9669734   8.6552348  43.9189365  71.9923919  12.1682028
  44.4707673  72.1555540  12.9331113  44.2595558  72.5828357  11.4962053
  38.8953858  54.3399069  12.7703913  38.9595185  55.2013900  12.3581310
  38.8320978  53.7273070  12.0376271  38.3706131  56.4122201  16.4176947
  38.9978170  56.0299279  17.0314471  37.5134050  56.1936403  16.7832640
  48.7700239  66.8185176  18.0230683  49.3140143  67.4315135  17.5285637
  48.1887084  67.3764755  18.5397696  35.1471674  58.2198630   2.3495302
  35.4425115  57.3109309   2.2962356  34.2459709  58.1986370   2.0276304
  47.0557752  69.9405894   9.1545710  46.9308892  69.1395634   8.6456656
  47.7136843  70.4352088   8.6659680  38.6765921  56.2954627   8.3322850
  37.9552506  56.9090595   8.1930324  39.4659176  56.8312392   8.2539496
  49.1192661  67.7414915  10.7825260  48.1722996  67.6220266  10.7103587
  49.4675434  66.8537413  10.8651522  41.4792234  53.6309053  14.6063502
  42.0026636  53.8771350  15.3689812  41.2604567  54.4629088  14.1866640
  36.8759515  55.9012728   2.4734627  36.5472221  55.0210107   2.2909733
  37.2298886  55.8460397   3.3611016  46.1239094  67.5367631   6.9829613
  45.9764056  66.6084338   7.1637183  46.9492587  67.5587722   6.4986688
  39.9901338  56.1885698   2.8410105  40.3297411  56.7171619   2.1188713
  40.4373459  56.5266104   3.6168671  49.7273216  68.3596190   8.0694485
  50.6519763  68.1539051   7.9318936  49.5588519  68.1112591   8.9783827
  42.6844779  54.5722749  12.2913173  42.3441599  53.7730562  12.6933853
  41.9783785  54.8724459  11.7190006  43.3361251  51.6572061  10.7440496
  44.1587320  51.1832539  10.6219386  43.5799314  52.4362545  11.2439182
  41.9769485  54.6860319   1.0403397  42.6977848  55.0641572   0.5367114
  41.3534790  55.4049196   1.1438375  46.1200608  55.3905468   1.9761730
  46.3364223  56.2730106   1.6750558  45.6394675  54.9991682   1.2467372
  40.8599830  58.3491182   8.5532474  40.7144410  58.6631485   9.4456756
  40.3825033  58.9676082   8.0003373  42.7196213  55.3393730   8.6013364
  42.7057781  54.4434823   8.2645662  43.4368641  55.3464393   9.2351650
  44.5722343  55.7731070  10.6466491  44.3140121  56.6948141  10.6450822
  44.0407384  55.3761504  11.3366956  49.5168532  68.8781857   3.4256577
  49.6905410  68.3128279   2.6730429  50.0097423  69.6782752   3.2436067
  35.3345492  60.8896526  11.4920136  34.7898960  61.6656334  11.6240410
  36.2124842  61.2367331  11.3339257  42.1233108  54.2208110   3.8700934
  42.2449020  53.2924756   4.0691822  41.8335151  54.2346796   2.9579250
  44.9924299  51.9063020   7.0067654  45.0145996  51.9702353   6.0519633
  45.4092358  51.0667529   7.2008160  55.3707923  61.6418280   5.0446876
  55.8139069  60.8925605   4.6466000  54.4934433  61.6328416   4.6620608
  50.5043705  68.1948621   0.5253475  51.1994609  68.8155314   0.7440790
  50.8466855  67.3443973   0.8005853  36.1211514  60.0166422  14.3850292
  35.3793250  60.1649058  14.9714923  35.8004258  60.2774688  13.5217042
  52.4035128  65.6448327   2.0540806  52.9286452  65.9835600   1.3290126
  52.3157480  64.7095342   1.8703940  44.0655176  69.5582401  14.1830682
  44.3742303  69.3131547  15.0553382  44.8630658  69.7629039  13.6949553
  44.0875788  71.7120310   6.4136059  43.6480779  71.2196689   7.1068916
  44.8383905  71.1693278   6.1728134  36.5668127  67.9031851   6.4160687
  37.3926147  67.6035623   6.0359331  36.2162179  67.1339473   6.8650476
  41.5349661  67.2558319   8.4858361  40.9129670  66.5929024   8.1860589
  42.2054527  67.2819451   7.8032008  34.7676732  65.8218178   7.3749621
  33.9308641  65.3940352   7.1933622  34.7400378  66.0150621   8.3120412
  41.6074188  55.7340107  18.0790867  41.6562343  56.6102230  17.6968636
  42.1496702  55.1917500  17.5062510  52.0929034  66.2781231  17.3592004
  51.3024577  66.2605369  16.8196503  51.8562388  66.8169524  18.1141040
  52.2126909  63.1273697  14.6724732  52.2624914  62.9623704  15.6140255
  52.1040832  62.2600956  14.2822613  41.0963167  65.8062243   1.9616821
  41.2451288  66.4897707   1.3083494  41.9029611  65.7867333   2.4766277
  49.5030671  59.1104625  15.9884039  50.4040534  58.9711090  15.6968037
  49.5778646  59.2759080  16.9282216  43.8373476  56.4871480  14.8337225
  42.9676786  56.7805046  14.5619814  44.0732957  57.0711925  15.5544489
  53.7145106  65.5470638  14.9166754  53.4229914  65.9100619  15.7530215
  53.1017237  64.8337647  14.7380086  54.9140788  63.1123518   7.4369324
  55.7487679  63.5513322   7.6006884  55.0499917  62.6362171   6.6177570
  51.9632294  60.6703253  13.3846812  52.4386415  60.8630899  12.5765663
  51.0397859  60.7262439  13.1390195  38.8515800  61.8327420   2.9677890
  38.6061842  60.9289750   3.1658100  39.0211715  61.8344571   2.0257368
  46.5412510  52.7051097  12.3502646  47.0594454  53.4412124  12.0249134
  46.1867643  53.0115090  13.1849405  38.1211448  57.5655778   0.4664052
  37.4280693  57.6400133  -0.1895912  37.8763200  56.8016121   0.9885568
  46.7925104  49.1251379   7.8703542  47.0726858  48.4574568   8.4963969
  47.5775711  49.3180475   7.3578206  44.5958573  68.3010373  -0.5671431
  44.0232540  68.9200560  -1.0200960  45.1691367  68.8509735  -0.0331509
  50.6633963  57.5469013  11.6175117  51.6151386  57.6467111  11.6387341
  50.4937413  56.7547282  12.1273202  48.6848342  54.6324596  11.8034518
  48.0898274  54.9129609  11.1081007  48.3998039  55.1218497  12.5751259
  47.8155833  68.5847523   0.5637151  48.7486506  68.5193085   0.7670026
  47.7279046  69.4203790   0.1051684  50.4443849  67.9013394  -2.4758902
  50.3657481  67.5673257  -1.5823144  51.2653516  68.3935161  -2.4767429
  53.1422041  60.7675133  10.7317417  53.1098361  59.8291134  10.9177101
  53.7522664  60.8459170   9.9983242  44.9805371  59.6371186  -3.2255379
  45.9264476  59.5077394  -3.1566961  44.6019616  58.8985848  -2.7485951
  53.2916529  57.5586176  10.7775700  52.7755578  56.7744633  10.5905629
  54.1756478  57.2304893  10.9422220  50.9527256  51.3027192   6.7371513
  50.7552077  50.9942280   7.6214845  51.5626962  52.0288831   6.8669443
  58.9598590  61.8291140   9.8723454  59.6901979  61.5676428  10.4331157
  58.3505536  61.0919862   9.9125522  57.0413888  59.9699002  10.4697905
  56.3147051  59.8354967   9.8614397  56.6261174  60.2775831  11.2754623
  44.8644064  63.6888932  18.2345278  45.7847073  63.8667531  18.4285325
  44.8293647  62.7444977  18.0824977  34.0826229  58.8827526   7.1598553
  33.7629013  58.0292834   6.8672927  33.5359657  59.0976104   7.9156520
  37.8606137  61.5989967  10.8768059  38.0792146  62.5307074  10.8956093
  38.2731910  61.2397941  11.6622863  44.7810354  52.1058052   2.8643748
  43.9711083  51.7605137   3.2398994  45.4694771  51.7965596   3.4531359
  46.7100903  51.1836099   4.4868044  47.2631941  51.6031552   5.1458067
  46.9470989  50.2571847   4.5291000  42.7334002  57.1723172  20.2670808
  42.6330729  58.1217529  20.1982899  42.5155544  56.8441411  19.3946878
  33.9514489  62.5030437   9.1291674  33.2577960  62.0884390   8.6161629
  34.6987480  62.5450974   8.5325093  50.0879710  53.2936624   3.9946709
  49.5078379  53.9521428   3.6124761  49.8215642  52.4713968   3.5834126
  48.5383276  52.6941682   6.1968029  49.0383054  52.8058216   5.3882348
  49.1818884  52.3902734   6.8368837  42.5965272  60.6020311  19.0835870
  42.1132354  61.4020671  19.2899759  42.6826211  60.6128256  18.1303314
  35.8651232  62.4348691   7.0057689  35.8421920  62.5336378   6.0539572
  36.1751868  63.2813842   7.3274855  38.5238609  64.4924846  11.1204304
  39.4781863  64.4608788  11.0534235  38.3251133  64.0315470  11.9354530
  39.1137992  63.0625962  13.6875101  39.9330881  63.5570041  13.7109939
  39.3874799  62.1457930  13.6592669  48.8704588  55.4536714   3.0503057
  47.9830443  55.7386365   2.8323252  49.2858577  55.2930478   2.2030334
  52.2219124  55.4783235   6.7657396  52.9979514  55.9679688   7.0382013
  51.4967258  55.9041289   7.2229266  54.6591682  56.1910854   7.8231337
  55.2536173  55.9506590   7.1124645  54.7318266  55.4717985   8.4504873
  36.8788838  70.0344465   8.1374501  36.7443306  69.2744866   7.5712500
  36.4620900  70.7585365   7.6703290  48.0147801  65.2181389  -2.8548923
  48.7183651  65.4231391  -2.2391268  47.2910450  65.7858151  -2.5899840
  48.8445611  60.9691250   3.2653347  48.7880813  61.4259802   2.4260979
  49.3973954  60.2081935   3.0876190  52.6550417  56.7580982   4.0903466
  52.3987352  56.3577618   4.9211674  52.0303285  57.4724776   3.9653606
  56.9662755  59.4977055   6.5974758  56.4062313  59.5670245   7.3706320
  56.3606259  59.3218040   5.8774254  40.0357964  70.9313782   8.3492944
  39.9190348  71.8759215   8.2471634  39.2150410  70.6287344   8.7378743
  49.9234499  65.6563918  -0.8050463  50.7580103  65.2245117  -0.9872988
  49.7618842  65.4845932   0.1226431  49.5780391  62.1596031   0.5605876
  49.5229195  61.9940303  -0.3805680  48.9526446  62.8672064   0.7168066
  34.3672906  57.3964096  14.3867298  35.0131769  56.8863050  14.8754524
  34.1590057  58.1332777  14.9610724  46.8926298  64.4644943  19.8859439
  47.7617458  64.6385596  19.5246074  46.4133049  65.2839360  19.7635168
  42.8876516  51.6604140   0.1391195  42.8755186  52.6045980   0.2959465
  43.7799938  51.4774286  -0.1549344  41.0612478  71.5842044  11.5648873
  41.9639725  71.6165655  11.8815368  40.8349848  70.6542495  11.5795208
  42.8166080  70.3373031   8.2258951  41.8661711  70.3374892   8.1123323
  43.1198566  69.5905765   7.7094986  46.7028636  48.2546917   4.3937131
  45.9361032  47.7005404   4.5393814  47.1139341  48.3268786   5.2551283
  38.7070397  54.5431713  18.4842313  39.5701858  54.1868518  18.6945637
  38.1335807  54.2045608  19.1717717  58.5518774  76.1733569   9.2904714
  59.1897184  76.0540317   8.5868054  58.4339617  77.1214413   9.3492666
  55.3608480  76.1260997   9.2266238  55.0226992  76.0102062   8.3386773
  56.2298248  75.7252162   9.2067244  51.2195296  77.9796474   5.2163129
  50.6560161  77.8886411   4.4479417  51.1047691  77.1596378   5.6965622
  55.8428263  77.2795849  15.1852444  55.8316904  76.8848647  14.3132947
  56.0048902  76.5461922  15.7786215  48.7659728  79.4747665   8.0547350
  49.5581020  79.1338490   7.6393649  49.0056378  79.5842640   8.9749503
  56.7994854  81.6467441   0.5277594  56.1482834  82.2321522   0.1411608
  57.5939217  82.1773636   0.5872632  50.7250482  78.7356579   0.9264728
  51.4981358  78.1885566   0.7877604  51.0775880  79.6000828   1.1379190
  52.5635524  80.0632961  14.1331628  52.2725390  80.9678592  14.0178294
  53.1992508  80.1049488  14.8475697  53.4891731  77.4409809  10.7232987
  54.0855303  77.2165832  10.0089950  53.5466703  76.6994555  11.3258435
  53.0616759  74.8949245  -1.4416822  53.3142280  74.3730766  -2.2033359
  52.1241318  74.7315390  -1.3390138  58.1060042  73.8985023   6.3657922
  58.8923131  73.4804446   6.0148339  58.3698747  74.8031115   6.5339570
  58.2770120  79.3357873   1.0646578  57.6415953  79.4092500   1.7767483
  57.9467526  79.9251472   0.3865658  63.5068469  73.8360256   7.2690900
  64.2393641  73.2659473   7.5028730  62.7507825  73.4481857   7.7097406
  52.7813048  76.7977351   0.7607553  52.6649306  76.1222254   1.4288638
  52.8915308  76.3109725  -0.0560294  55.1244589  76.2587498   4.4654243
  54.7602796  75.7318119   5.1767164  55.9811705  75.8685967   4.2920728
  61.0293890  67.5481830  11.7285509  60.6977214  68.4177241  11.5046724
  60.4339503  67.2318114  12.4079539  54.7650076  71.2877397  -0.5384409
  54.9324478  72.1557634  -0.1713938  54.5747245  71.4504679  -1.4623120
  57.5225409  79.7494376  11.1281421  57.2226132  80.6519415  11.0197229
  57.1776469  79.4826560  11.9802574  50.9737891  76.2008173   7.1618126
  50.0488387  76.0684387   7.3695818  51.2222304  76.9802392   7.6588068
  60.9222553  72.2676917   8.8078859  60.0139430  72.1992325   8.5137620
  60.8710149  72.7448862   9.6360684  54.7439297  73.7435055   0.4462258
  54.6238922  74.1892106   1.2847738  54.0491885  74.0920373  -0.1124204
  48.3346702  75.8441447   7.9961915  48.4639083  76.0975926   8.9101327
  47.6544153  76.4369155   7.6766570  52.5046189  86.5138697   4.0952389
  52.4270219  87.4646522   4.1740870  51.9007833  86.1684569   4.7527315
  54.9963419  73.6866562  16.7513756  54.2196753  74.2460482  16.7416621
  55.6353982  74.1723345  17.2728626  62.7884199  70.4693355  10.5856733
  62.1458580  70.7625888   9.9396527  62.2839128  70.3546275  11.3909929
  60.4424363  74.2156528   1.2742592  61.3542219  74.4483915   1.0990290
  59.9334010  74.7993572   0.7117671  53.2509791  76.4952016  16.3131723
  53.9924475  77.0337060  16.0366547  52.5446777  77.1218304  16.4703275
  58.7265131  78.6381156  14.9103885  59.1348487  78.1963567  14.1658517
  58.0042392  78.0633784  15.1638077  55.0796201  73.5753763  12.2837442
  55.9257396  73.9993176  12.4272091  55.0194838  72.9187387  12.9776005
  59.0493945  79.1982347   8.6656173  58.4202808  79.3628061   7.9632241
  58.6619607  79.6123956   9.4367137  62.9283177  80.1336784   6.0200537
  62.2434215  80.5135686   5.4697571  63.0127027  80.7432111   6.7532485
  58.2295646  71.2358131  13.9418615  57.9856578  71.9900192  13.4052891
  58.5055577  71.6143479  14.7765862  60.1834109  77.7796743  12.6195881
  60.3951004  78.4228503  11.9430262  60.1363857  76.9459060  12.1517811
  57.7860338  70.3914564   9.5232453  56.9244817  70.6895818   9.8149190
  57.8122772  70.6084963   8.5913486  54.6021907  78.9356755   5.9306259
  55.0660253  79.2144458   5.1410881  54.3378705  78.0340199   5.7479349
  51.4945988  78.4828236   8.8686022  52.0647345  78.9115505   8.2303506
  52.0854100  78.2010821   9.5670207  53.5390793  75.0579907   2.7395824
  54.2414837  75.5100951   3.2069750  53.2071422  74.4163726   3.3675717
  51.9871155  73.6491664  17.1147033  51.3569815  74.3307945  17.3482430
  51.8807243  73.5374745  16.1700171  47.2816127  73.3163460   8.0412957
  46.4915181  73.5720988   7.5653068  47.7727375  74.1311798   8.1464998
  61.2979937  80.6568699  10.7918238  62.1197381  80.2548886  10.5100920
  61.2942340  80.5536933  11.7434354  49.2330873  73.6808039   4.9996434
  48.4362036  73.7926733   5.5179930  49.0056465  74.0194691   4.1337324
  55.0636540  80.2052742  12.9478949  55.1280973  80.6673149  13.7837120
  54.3547464  79.5750107  13.0761258  45.5653830  73.5693950  10.4727948
  45.8161869  74.4540960  10.7385524  46.1013379  73.3898552   9.7003040
  69.3885930  77.0007447   7.1403210  68.6349638  76.4314845   6.9847214
  69.5233471  76.9670112   8.0873844  54.7784558  81.8720850   2.8157929
  54.6430233  82.7172385   3.2442777  55.3194370  82.0740127   2.0523863
  51.2651898  67.9512430  19.4772284  50.8718843  67.3978628  20.1519928
  52.0818038  68.2623008  19.8678802  48.2313955  79.3896288   3.3885854
  48.7438476  80.1839538   3.5391419  48.8836668  78.6922578   3.3219455
  50.0408840  82.5062044   5.4708607  50.2175468  83.4280009   5.2829591
  50.8365674  82.1920463   5.9002987  54.1819859  69.3670309  17.0692541
  54.9229572  69.9677462  16.9897003  54.4137781  68.6247946  16.5110583
  49.3261197  74.5526676  15.3470770  49.2114712  73.6511933  15.6477869
  48.4705714  74.7990373  14.9955587  56.4053034  82.4944416  16.9458271
  55.9616888  81.7080795  16.6279175  57.0670248  82.6823567  16.2802162
  51.1640155  84.0240218  11.4718949  51.7147581  83.8957281  10.6995943
  50.3251631  84.3235107  11.1213842  58.5034272  82.7747216  14.9739672
  58.4852748  83.5956097  14.4819941  59.4254192  82.6501291  15.1989813
  54.9607327  80.2891346  15.8163181  55.4935663  79.5279634  15.5862489
  54.4321408  79.9964997  16.5587335  58.1277021  65.3951412  11.3456822
  57.7841291  66.2853053  11.2695933  58.4955984  65.2053069  10.4826407
  46.1962872  77.7184942   4.1645425  47.0338094  78.1281950   3.9479132
  46.3741140  76.7784384   4.1345618  58.0927304  75.3860023  -0.1470743
  57.5773928  76.1564627   0.0917645  57.8204613  74.7125159   0.4762319
  55.6774415  70.2309723   4.9114496  54.8216012  69.8416574   4.7320135
  56.0901367  70.3101684   4.0514281  57.2073562  67.7656067   9.3106056
  56.7038357  67.7286202   8.4973861  57.5004169  68.6748809   9.3702712
  53.4516448  67.8494796   8.3172237  54.3169445  67.6537605   7.9578127
  53.5193957  67.6205148   9.2441594  63.0661578  78.1392377   1.7882431
  62.2891021  77.8003537   1.3437593  63.7453059  78.1445001   1.1137396
  57.8813607  73.2587115   1.6789039  57.5763743  73.5733264   2.5299182
  58.8344050  73.3368535   1.7216372  56.3260039  79.4177338   3.3281993
  55.7981401  78.6830098   3.0155230  55.8247542  80.1952014   3.0821961
  61.3052885  77.6126359   8.4449039  60.6476560  78.3025620   8.5329168
  62.1093284  78.0022791   8.7883025  51.0578767  70.0797004   5.6888604
  51.6322519  69.8572186   4.9561797  51.6449749  70.1485699   6.4417205
  60.1158344  75.9670731   6.4952981  60.6290226  76.6000723   6.9974690
  60.7659568  75.3671927   6.1296341  51.3848354  72.1101465  -0.2915511
  50.5485666  72.4476152   0.0293764  51.2453124  71.9750445  -1.2288374
  53.3601435  66.9538253   4.4163674  52.7065847  66.6387270   3.7920288
  53.3181909  66.3313994   5.1423497  54.4712639  77.2357548  -3.6683034
  53.5639701  77.0046802  -3.4691885  54.9683671  76.4395168  -3.4809053
  56.5939175  73.4420187   8.7411321  55.6761736  73.6635134   8.5833009
  57.0099319  73.5166497   7.8823029  57.3774223  74.8411603   3.8714001
  58.1246042  75.3533000   3.5621124  57.6465812  74.5195655   4.7318395
  55.6500873  77.3370143   0.8540956  54.7412092  77.0529176   0.9513426
  55.6795957  77.7569222  -0.0055737  60.8820140  80.9476733   4.6232123
  60.4282467  80.1067643   4.6797314  60.2514107  81.5838131   4.9606903
  59.8253060  71.8768719   5.8532791  59.0875817  71.3646105   6.1843033
  60.0779833  71.4369100   5.0416068  59.3253080  82.7853229   5.5581941
  59.6176054  83.3458287   4.8394307  59.8351700  83.0781790   6.3135101
  59.9264687  64.6544971   6.4474560  60.2323564  63.7942334   6.1600475
  60.6517292  65.2462591   6.2473554  46.2189043  75.0575657   4.8356158
  46.0213443  74.4645018   4.1107225  45.6635707  74.7527868   5.5532097
  54.1985767  74.9498764   6.9550751  54.2534377  73.9972600   6.8793228
  53.3876969  75.1058203   7.4392050  55.3476961  78.8778887  -1.8070966
  54.9096391  78.1614746  -2.2665328  56.0887402  79.1055002  -2.3685874
  52.1378127  73.5675824   4.7141130  51.3245992  73.8669994   5.1206322
  52.6337121  73.1731512   5.4315612  54.2886705  83.5633581   6.6475395
  54.2462883  83.7894427   5.7183927  55.2049404  83.3296955   6.7961196
  57.7352338  74.0317648  13.5456024  58.0901726  74.2589121  14.4050490
  58.3824470  74.3636025  12.9233279  63.4650075  77.1536084   4.2505353
  63.3267974  77.3437680   3.3226542  63.1086294  77.9155467   4.7073404
  51.6292202  71.1394179  10.3302365  52.2691581  70.9982938   9.6325328
  50.7969732  70.8528692   9.9540967  63.4919455  79.2212611   9.2616624
  63.9255962  79.1287900  10.1099678  64.2051036  79.1970111   8.6236640
  52.4052505  80.4396610   6.4437357  53.1993104  79.9446930   6.2419932
  51.6944198  79.9114473   6.0805063  57.2247350  82.8214705  10.7949725
  57.2784372  83.3905641  11.5627441  56.3562131  82.9916590  10.4303762
  48.7135269  74.5839691   2.5197110  47.7832857  74.5224147   2.7367072
  48.8092741  74.0615644   1.7233751  48.6320818  71.1094504   5.1075352
  48.8927635  72.0239837   4.9984512  49.4537990  70.6418947   5.2571965
  50.1045743  72.5232261  12.2774176  50.7768797  72.3149623  11.6286825
  49.2775530  72.3254347  11.8379409  64.3535005  79.2636312  11.7949510
  64.5470895  80.1682122  12.0408785  64.2535623  78.8043731  12.6288095
  56.0071315  69.1494202  14.2939837  55.3599230  69.8484152  14.2004314
  56.7772331  69.5830346  14.6616085  59.4150113  79.4143054  17.3690390
  59.2635620  79.1853606  16.4520474  59.4054793  80.3713656  17.3821735
  56.1835450  76.9874967  12.3536657  57.1127510  77.1386127  12.1805624
  55.7626480  77.0758988  11.4985303  54.9823781  81.0125632  10.1235194
  54.8434867  80.6444416  10.9961133  54.1938378  81.5273271   9.9519152
  55.5771933  86.1134728   1.4660731  55.7523689  85.6422771   2.2806354
  54.8904721  86.7400494   1.6941992  56.5328997  80.3907234   7.5124032
  56.1978829  80.3508004   8.4081682  56.0332942  79.7251950   7.0394442
  50.5073241  75.7974864  13.0376613  50.3693039  75.0655103  13.6388152
  51.4178164  75.7083764  12.7560801  59.4688188  77.7363269  -2.2138908
  58.8517359  77.0110097  -2.3105855  59.0004677  78.4972629  -2.5571834
  53.1355541  75.5094824  12.5260293  53.8455160  74.8688016  12.4846912
  53.0924849  75.7607718  13.4486474  61.1242320  82.4462177  15.4466872
  61.0654866  81.7621397  14.7797455  61.5261838  83.1881167  14.9947498
  51.8484475  72.4960041  14.3455933  51.3121832  72.0450780  14.9977529
  51.2601184  72.6305950  13.6026397  50.1433019  89.2624091   8.2400591
  50.3829617  89.8942615   8.9179610  49.3002215  88.9112131   8.5265950
  51.2586734  71.9548693  -3.0917604  50.3816200  71.8337494  -3.4555357
  51.7344487  71.1634771  -3.3438715  61.1259727  80.4101761  13.6780852
  60.2386506  80.0727683  13.8007251  61.6958278  79.6784792  13.9149617
  42.7788874  76.7425853   7.0023903  43.4659914  76.4287583   6.4144919
  42.6237003  77.6467217   6.7291155  47.5823596  71.6316049  11.4308927
  47.4981785  71.0241719  10.6959337  46.7606303  72.1225067  11.4318423
  54.6560881  85.0703213  10.6442095  54.5831052  85.8758185  11.1561400
  54.2138274  85.2695179   9.8190117  54.4450660  84.3074983   4.1544917
  53.6618182  84.8496663   4.2483141  55.1443405  84.8248963   4.5539158
  57.7547310  70.1169613   6.7979122  58.2516010  69.3639575   6.4780192
  56.9834292  70.1533929   6.2322331  65.6077068  75.8209978   8.4397414
  65.5966944  76.7034694   8.0691347  64.7394447  75.4681529   8.2451951
  57.1159564  84.9690047  12.8000254  57.8287536  85.6037512  12.7276155
  56.6249593  85.0653913  11.9840256  58.8377091  78.8741300   4.3717545
  57.9033370  78.9942762   4.2022250  59.0153759  77.9713767   4.1077555
  54.3382279  72.2586996   6.5250807  53.9680067  71.7058036   7.2131712
  54.8341372  71.6545129   5.9725807  62.2249642  74.7158619   4.9067580
  62.6910095  75.5486611   4.8327882  62.6757143  74.2503601   5.6112838
  52.1671478  82.7184491  13.6205825  52.8680937  83.3520974  13.7735219
  51.6966593  83.0599222  12.8601464  60.2925873  81.0602440   1.9053732
  60.5685717  80.9459035   2.8147606  59.4230372  80.6619925   1.8665905
  60.1966305  67.0839206   8.9458481  59.2829385  67.3143433   9.1140688
  60.6259407  67.1677650   9.7972513  59.9672764  75.2729098  11.4458375
  59.3144214  75.5205006  10.7910828  60.3453144  74.4593236  11.1120852
  56.9279937  85.3088791   5.5486545  57.1102332  84.4910447   6.0114298
  57.7512923  85.5256484   5.1111435  57.2622103  84.2356976   2.8101594
  57.7909869  83.7249431   2.1971756  57.5250323  83.9199507   3.6747127
  56.0160337  76.0148909  17.9324412  55.3400974  75.9143039  18.6026787
  56.8387971  75.8588123  18.3960409  47.7639196  82.2520846  10.5536927
  48.3492633  81.5064534  10.6864832  47.5664034  82.5624802  11.4373591
  50.6177851  85.2872093   5.5699370  49.9488226  85.7718221   5.0863410
  50.4790721  85.5341314   6.4842748  42.3556850  74.8226446   9.2741370
  42.3940950  74.2890037  10.0678489  41.8497143  74.2961651   8.6552348
  54.7583120  87.3215837  12.1682028  55.3101428  87.4847458  12.9331113
  55.0989313  87.9120274  11.4962053  49.7347613  69.6690986  12.7703913
  49.7988939  70.5305817  12.3581310  49.6714733  69.0564988  12.0376271
  49.2099885  71.7414119  16.4176947  49.8371924  71.3591196  17.0314471
  48.3527804  71.5228321  16.7832640  59.6093994  82.1477094  18.0230683
  60.1533898  82.7607052  17.5285637  59.0280839  82.7056673  18.5397696
  45.9865428  73.5490548   2.3495302  46.2818869  72.6401227   2.2962356
  45.0853464  73.5278288   2.0276304  57.8951507  85.2697812   9.1545710
  57.7702646  84.4687552   8.6456656  58.5530598  85.7644006   8.6659680
  49.5159675  71.6246545   8.3322850  48.7946261  72.2382512   8.1930324
  50.3052931  72.1604309   8.2539496  59.9586415  83.0706832  10.7825260
  59.0116751  82.9512183  10.7103587  60.3069188  82.1829330  10.8651522
  52.3185989  68.9600971  14.6063502  52.8420390  69.2063268  15.3689812
  52.0998322  69.7921006  14.1866640  47.7153270  71.2304646   2.4734627
  47.3865976  70.3502025   2.2909733  48.0692640  71.1752314   3.3611016
  56.9632848  82.8659548   6.9829613  56.8157811  81.9376256   7.1637183
  57.7886342  82.8879639   6.4986688  50.8295093  71.5177616   2.8410105
  51.1691165  72.0463537   2.1188713  51.2767213  71.8558022   3.6168671
  60.5666970  83.6888107   8.0694485  61.4913518  83.4830969   7.9318936
  60.3982274  83.4404508   8.9783827  53.5238534  69.9014666  12.2913173
  53.1835354  69.1022479  12.6933853  52.8177540  70.2016377  11.7190006
  54.1755005  66.9863979  10.7440496  54.9981075  66.5124457  10.6219386
  54.4193069  67.7654462  11.2439182  52.8163240  70.0152237   1.0403397
  53.5371602  70.3933490   0.5367114  52.1928544  70.7341114   1.1438375
  56.9594363  70.7197386   1.9761730  57.1757977  71.6022024   1.6750558
  56.4788430  70.3283600   1.2467372  51.6993584  73.6783099   8.5532474
  51.5538165  73.9923402   9.4456756  51.2218788  74.2968000   8.0003373
  53.5589967  70.6685647   8.6013364  53.5451536  69.7726741   8.2645662
  54.2762395  70.6756311   9.2351650  55.4116098  71.1022988  10.6466491
  55.1533876  72.0240058  10.6450822  54.8801138  70.7053422  11.3366956
  60.3562287  84.2073775   3.4256577  60.5299164  83.6420197   2.6730429
  60.8491178  85.0074670   3.2436067  46.1739246  76.2188444  11.4920136
  45.6292714  76.9948252  11.6240410  47.0518596  76.5659248  11.3339257
  52.9626863  69.5500028   3.8700934  53.0842774  68.6216674   4.0691822
  52.6728905  69.5638714   2.9579250  55.8318053  67.2354938   7.0067654
  55.8539750  67.2994271   6.0519633  56.2486112  66.3959447   7.2008160
  66.2101678  76.9710198   5.0446876  66.6532824  76.2217523   4.6466000
  65.3328188  76.9620334   4.6620608  61.3437459  83.5240539   0.5253475
  62.0388364  84.1447232   0.7440790  61.6860609  82.6735890   0.8005853
  46.9605268  75.3458340  14.3850292  46.2187004  75.4940975  14.9714923
  46.6398012  75.6066606  13.5217042  63.2428882  80.9740245   2.0540806
  63.7680206  81.3127517   1.3290126  63.1551235  80.0387260   1.8703940
  54.9048931  84.8874318  14.1830682  55.2136057  84.6423465  15.0553382
  55.7024413  85.0920957  13.6949553  54.9269543  87.0412228   6.4136059
  54.4874533  86.5488607   7.1068916  55.6777660  86.4985196   6.1728134
  47.4061882  83.2323769   6.4160687  48.2319902  82.9327541   6.0359331
  47.0555934  82.4631391   6.8650476  52.3743415  82.5850237   8.4858361
  51.7523424  81.9220942   8.1860589  53.0448282  82.6111369   7.8032008
  45.6070487  81.1510095   7.3749621  44.7702395  80.7232270   7.1933622
  45.5794132  81.3442539   8.3120412  52.4467943  71.0632025  18.0790867
  52.4956098  71.9394148  17.6968636  52.9890457  70.5209418  17.5062510
  62.9322788  81.6073148  17.3592004  62.1418332  81.5897287  16.8196503
  62.6956143  82.1461442  18.1141040  63.0520663  78.4565615  14.6724732
  63.1018668  78.2915622  15.6140255  62.9434587  77.5892874  14.2822613
  51.9356922  81.1354160   1.9616821  52.0845042  81.8189625   1.3083494
  52.7423365  81.1159250   2.4766277  60.3424426  74.4396543  15.9884039
  61.2434288  74.3003007  15.6968037  60.4172400  74.6050997  16.9282216
  54.6767231  71.8163397  14.8337225  53.8070540  72.1096963  14.5619814
  54.9126711  72.4003842  15.5544489  64.5538860  80.8762556  14.9166754
  64.2623668  81.2392537  15.7530215  63.9410991  80.1629564  14.7380086
  65.7534542  78.4415436   7.4369324  66.5881434  78.8805240   7.6006884
  65.8893671  77.9654089   6.6177570  62.8026048  75.9995171  13.3846812
  63.2780170  76.1922817  12.5765663  61.8791614  76.0554357  13.1390195
  49.6909555  77.1619338   2.9677890  49.4455597  76.2581668   3.1658100
  49.8605469  77.1636488   2.0257368  57.3806265  68.0343014  12.3502646
  57.8988209  68.7704041  12.0249134  57.0261398  68.3407008  13.1849405
  48.9605202  72.8947696   0.4664052  48.2674447  72.9692050  -0.1895912
  48.7156954  72.1308039   0.9885568  57.6318859  64.4543297   7.8703542
  57.9120613  63.7866486   8.4963969  58.4169466  64.6472392   7.3578206
  55.4352327  83.6302291  -0.5671431  54.8626295  84.2492478  -1.0200960
  56.0085121  84.1801652  -0.0331509  61.5027717  72.8760931  11.6175117
  62.4545140  72.9759028  11.6387341  61.3331168  72.0839199  12.1273202
  59.5242097  69.9616514  11.8034518  58.9292029  70.2421527  11.1081007
  59.2391793  70.4510415  12.5751259  58.6549587  83.9139441   0.5637151
  59.5880260  83.8485003   0.7670026  58.5672800  84.7495708   0.1051684
  63.9815795  76.0967051  10.7317417  63.9492115  75.1583051  10.9177101
  64.5916419  76.1751087   9.9983242  55.8199126  74.9663104  -3.2255379
  56.7658231  74.8369312  -3.1566961  55.4413371  74.2277765  -2.7485951
  64.1310284  72.8878094  10.7775700  63.6149332  72.1036551  10.5905629
  65.0150232  72.5596811  10.9422220  61.7921011  66.6319110   6.7371513
  61.5945832  66.3234198   7.6214845  62.4020716  67.3580748   6.8669443
  69.7992345  77.1583057   9.8723454  70.5295733  76.8968345  10.4331157
  69.1899290  76.4211779   9.9125522  67.8807642  75.2990920  10.4697905
  67.1540806  75.1646885   9.8614397  67.4654929  75.6067749  11.2754623
  55.7037818  79.0180850  18.2345278  56.6240828  79.1959449  18.4285325
  55.6687402  78.0736895  18.0824977  54.0042043  72.8913080  -3.2900494
  53.0973499  72.5946193  -3.2137780  54.2818024  72.5942898  -4.1566207
  44.9219983  74.2119443   7.1598553  44.6022768  73.3584751   6.8672927
  44.3753412  74.4268021   7.9156520  48.6999891  76.9281884  10.8768059
  48.9185901  77.8598992  10.8956093  49.1125665  76.5689859  11.6622863
  55.6204109  67.4349970   2.8643748  54.8104837  67.0897055   3.2398994
  56.3088526  67.1257513   3.4531359  57.5494657  66.5128016   4.4868044
  58.1025696  66.9323470   5.1458067  57.7864743  65.5863765   4.5291000
  53.5727756  72.5015090  20.2670808  53.4724483  73.4509447  20.1982899
  53.3549298  72.1733329  19.3946878  52.7740828  69.7500015  -3.1488514
  53.6359992  70.0754913  -2.8892697  52.9591172  68.9631511  -3.6615449
  44.7908243  77.8322355   9.1291674  44.0971715  77.4176308   8.6161629
  45.5381234  77.8742891   8.5325093  60.9273464  68.6228542   3.9946709
  60.3472133  69.2813346   3.6124761  60.6609397  67.8005886   3.5834126
  59.3777031  68.0233599   6.1968029  59.8776809  68.1350134   5.3882348
  60.0212639  67.7194652   6.8368837  53.4359026  75.9312229  19.0835870
  52.9526108  76.7312589  19.2899759  53.5219965  75.9420174  18.1303314
  46.7044986  77.7640609   7.0057689  46.6815674  77.8628296   6.0539572
  47.0145623  78.6105759   7.3274855  49.3632364  79.8216764  11.1204304
  50.3175617  79.7900706  11.0534235  49.1644887  79.3607387  11.9354530
  49.9531746  78.3917880  13.6875101  50.7724635  78.8861958  13.7109939
  50.2268554  77.4749848  13.6592669  59.7098342  70.7828632   3.0503057
  58.8224197  71.0678283   2.8323252  60.1252331  70.6222395   2.2030334
  63.0612878  70.8075153   6.7657396  63.8373268  71.2971605   7.0382013
  62.3361013  71.2333207   7.2229266  65.4985437  71.5202772   7.8231337
  66.0929928  71.2798508   7.1124645  65.5712021  70.8009903   8.4504873
  47.7182593  85.3636383   8.1374501  47.5837061  84.6036784   7.5712500
  47.3014655  86.0877283   7.6703290  59.6839366  76.2983168   3.2653347
  59.6274567  76.7551719   2.4260979  60.2367708  75.5373852   3.0876190
  63.4944172  72.0872900   4.0903466  63.2381106  71.6869535   4.9211674
  62.8697040  72.8016694   3.9653606  67.8056510  74.8268973   6.5974758
  67.2456068  74.8962162   7.3706320  67.2000013  74.6509958   5.8774254
  50.8751719  86.2605700   8.3492944  50.7584103  87.2051133   8.2471634
  50.0544165  85.9579262   8.7378743  60.7628253  80.9855836  -0.8050463
  61.5973857  80.5537034  -0.9872988  60.6012596  80.8137850   0.1226431
  60.4174145  77.4887949   0.5605876  60.3622949  77.3232221  -0.3805680
  59.7920201  78.1963982   0.7168066  45.2066660  72.7256014  14.3867298
  45.8525524  72.2154967  14.8754524  44.9983811  73.4624695  14.9610724
  57.7320052  79.7936861  19.8859439  58.6011212  79.9677513  19.5246074
  57.2526804  80.6131278  19.7635168  53.7270271  66.9896058   0.1391195
  53.7148941  67.9337898   0.2959465  54.6193693  66.8066204  -0.1549344
  51.9006233  86.9133962  11.5648873  52.8033479  86.9457572  11.8815368
  51.6743603  85.9834413  11.5795208  53.6559835  85.6664949   8.2258951
  52.7055466  85.6666810   8.1123323  53.9592321  84.9197683   7.7094986
  57.5422390  63.5838835   4.3937131  56.7754786  63.0297321   4.5393814
  57.9533095  63.6560704   5.2551283  49.5464151  69.8723631  18.4842313
  50.4095613  69.5160435  18.6945637  48.9729562  69.5337525  19.1717717
  69.3912528  91.5025487   9.2904714  70.0290938  91.3832234   8.5868054
  69.2733371  92.4506331   9.3492666  66.2002234  91.4552915   9.2266238
  65.8620746  91.3393980   8.3386773  67.0692003  91.0544080   9.2067244
  66.6822017  92.6087767  15.1852444  66.6710658  92.2140565  14.3132947
  66.8442657  91.8753839  15.7786215  59.6053482  94.8039583   8.0547350
  60.3974774  94.4630408   7.6393649  59.8450132  94.9134558   8.9749503
  63.4029279  95.3924879  14.1331628  63.1119145  96.2970509  14.0178294
  64.0386263  95.4341406  14.8475697  64.3285485  92.7701727  10.7232987
  64.9249058  92.5457749  10.0089950  64.3860457  92.0286473  11.3258435
  71.8687644  82.8773748  11.7285509  71.5370969  83.7469159  11.5046724
  71.2733258  82.5610032  12.4079539  68.3619164  95.0786294  11.1281421
  68.0619887  95.9811333  11.0197229  68.0170223  94.8118477  11.9802574
  61.8131645  91.5300091   7.1618126  60.8882142  91.3976305   7.3695818
  62.0616058  92.3094310   7.6588068  71.7616307  87.5968834   8.8078859
  70.8533185  87.5284243   8.5137620  71.7103903  88.0740779   9.6360684
  59.1740456  91.1733364   7.9961915  59.3032837  91.4267843   8.9101327
  58.4937908  91.7661072   7.6766570  65.8357173  89.0158480  16.7513756
  65.0590507  89.5752400  16.7416621  66.4747736  89.5015263  17.2728626
  73.6277954  85.7985273  10.5856733  72.9852334  86.0917806   9.9396527
  73.1232882  85.6838193  11.3909929  64.0903546  91.8243933  16.3131723
  64.8318230  92.3628977  16.0366547  63.3840531  92.4510222  16.4703275
  69.5658885  93.9673074  14.9103885  69.9742241  93.5255484  14.1658517
  68.8436147  93.3925701  15.1638077  65.9189955  88.9045680  12.2837442
  66.7651150  89.3285094  12.4272091  65.8588593  88.2479305  12.9776005
  69.0689401  86.5650049  13.9418615  68.8250332  87.3192109  13.4052891
  69.3449331  86.9435396  14.7765862  71.0227863  93.1088661  12.6195881
  71.2344759  93.7520421  11.9430262  70.9757612  92.2750978  12.1517811
  68.6254092  85.7206482   9.5232453  67.7638571  86.0187735   9.8149190
  68.6516527  85.9376881   8.5913486  62.3339743  93.8120154   8.8686022
  62.9041100  94.2407422   8.2303506  62.9247855  93.5302739   9.5670207
  62.8264909  88.9783581  17.1147033  62.1963570  89.6599862  17.3482430
  62.7200997  88.8666663  16.1700171  58.1209882  88.6455377   8.0412957
  57.3308936  88.9012906   7.5653068  58.6121129  89.4603715   8.1464998
  60.0724627  89.0099957   4.9996434  59.2755790  89.1218651   5.5179930
  59.8450219  89.3486609   4.1337324  65.9030295  95.5344660  12.9478949
  65.9674727  95.9965067  13.7837120  65.1941219  94.9042025  13.0761258
  56.4047585  88.8985868  10.4727948  56.6555623  89.7832878  10.7385524
  56.9407133  88.7190469   9.7003040  62.1045652  83.2804347  19.4772284
  61.7112598  82.7270546  20.1519928  62.9211792  83.5914926  19.8678802
  65.0213613  84.6962226  17.0692541  65.7623326  85.2969379  16.9897003
  65.2531536  83.9539864  16.5110583  60.1654951  89.8818594  15.3470770
  60.0508466  88.9803851  15.6477869  59.3099469  90.1282290  14.9955587
  67.2446789  97.8236334  16.9458271  66.8010643  97.0372712  16.6279175
  67.9064002  98.0115484  16.2802162  62.0033910  99.3532135  11.4718949
  62.5541335  99.2249199  10.6995943  61.1645386  99.6527025  11.1213842
  69.3428027  98.1039134  14.9739672  69.3246502  98.9248015  14.4819941
  70.2647947  97.9793209  15.1989813  65.8001081  95.6183263  15.8163181
  66.3329418  94.8571551  15.5862489  65.2715162  95.3256915  16.5587335
  68.9670776  80.7243329  11.3456822  68.6235045  81.6144971  11.2695933
  69.3349739  80.5344987  10.4826407  66.5168170  85.5601641   4.9114496
  65.6609766  85.1708492   4.7320135  66.9295122  85.6393602   4.0514281
  68.0467316  83.0947984   9.3106056  67.5432112  83.0578120   8.4973861
  68.3397923  84.0040727   9.3702712  64.2910202  83.1786714   8.3172237
  65.1563199  82.9829523   7.9578127  64.3587711  82.9497066   9.2441594
  61.8972521  85.4088922   5.6888604  62.4716273  85.1864104   4.9561797
  62.4843504  85.4777617   6.4417205  64.1995189  82.2830171   4.4163674
  63.5459601  81.9679188   3.7920288  64.1575663  81.6605911   5.1423497
  67.4332929  88.7712105   8.7411321  66.5155491  88.9927052   8.5833009
  67.8493073  88.8458415   7.8823029  70.7658442  79.9836888   6.4474560
  71.0717318  79.1234252   6.1600475  71.4911046  80.5754509   6.2473554
  57.0582798  90.3867575   4.8356158  56.8607198  89.7936936   4.1107225
  56.5029462  90.0819785   5.5532097  65.0379521  90.2790682   6.9550751
  65.0928131  89.3264518   6.8793228  64.2270723  90.4350121   7.4392050
  62.9771881  88.8967741   4.7141130  62.1639747  89.1961912   5.1206322
  63.4730875  88.5023430   5.4315612  68.5746093  89.3609566  13.5456024
  68.9295481  89.5881039  14.4050490  69.2218224  89.6927943  12.9233279
  62.4685956  86.4686097  10.3302365  63.1085335  86.3274856   9.6325328
  61.6363487  86.1820610   9.9540967  59.4714572  86.4386422   5.1075352
  59.7321390  87.3531755   4.9984512  60.2931745  85.9710864   5.2571965
  60.9439498  87.8524179  12.2774176  61.6162551  87.6441541  11.6286825
  60.1169284  87.6546265  11.8379409  66.8465070  84.4786120  14.2939837
  66.1992985  85.1776070  14.2004314  67.6166085  84.9122264  14.6616085
  70.2543868  94.7434972  17.3690390  70.1029374  94.5145524  16.4520474
  70.2448547  95.7005573  17.3821735  67.0229204  92.3166885  12.3536657
  67.9521264  92.4678044  12.1805624  66.6020234  92.4050906  11.4985303
  65.8217536  96.3417549  10.1235194  65.6828622  95.9736334  10.9961133
  65.0332132  96.8565189   9.9519152  61.3466995  91.1266782  13.0376613
  61.2086793  90.3947021  13.6388152  62.2571919  91.0375682  12.7560801
  63.9749296  90.8386741  12.5260293  64.6848914  90.1979933  12.4846912
  63.9318604  91.0899636  13.4486474  71.9636074  97.7754095  15.4466872
  71.9048621  97.0913315  14.7797455  72.3655593  98.5173085  14.9947498
  62.6878230  87.8251959  14.3455933  62.1515587  87.3742698  14.9977529
  62.0994938  87.9597868  13.6026397  71.9653482  95.7393679  13.6780852
  71.0780260  95.4019600  13.8007251  72.5352033  95.0076710  13.9149617
  53.6182629  92.0717770   7.0023903  54.3053669  91.7579500   6.4144919
  53.4630757  92.9759135   6.7291155  58.4217351  86.9607967  11.4308927
  58.3375540  86.3533636  10.6959337  57.6000057  87.4516985  11.4318423
  68.5941065  85.4461530   6.7979122  69.0909764  84.6931493   6.4780192
  67.8228046  85.4825847   6.2322331  65.1776034  87.5878913   6.5250807
  64.8073821  87.0349954   7.2131712  65.6735126  86.9837047   5.9725807
  63.0065232  98.0476408  13.6205825  63.7074692  98.6812891  13.7735219
  62.5360347  98.3891140  12.8601464  71.0360060  82.4131124   8.9458481
  70.1223139  82.6435351   9.1140688  71.4653161  82.4969568   9.7972513
  70.8066518  90.6021016  11.4458375  70.1537968  90.8496923  10.7910828
  71.1846898  89.7885154  11.1120852  66.8554091  91.3440827  17.9324412
  66.1794728  91.2434956  18.6026787  67.6781725  91.1880041  18.3960409
  58.6032950  97.5812763  10.5536927  59.1886387  96.8356451  10.6864832
  58.4057789  97.8916720  11.4373591  53.1950605  90.1518364   9.2741370
  53.2334704  89.6181954  10.0678489  52.6890898  89.6253569   8.6552348
  60.5741367  84.9982904  12.7703913  60.6382694  85.8597735  12.3581310
  60.5108487  84.3856906  12.0376271  60.0493640  87.0706037  16.4176947
  60.6765679  86.6883114  17.0314471  59.1921559  86.8520239  16.7832640
  70.4487748  97.4769012  18.0230683  70.9927652  98.0898970  17.5285637
  69.8674593  98.0348590  18.5397696  56.8259183  88.8782466   2.3495302
  57.1212624  87.9693144   2.2962356  55.9247218  88.8570205   2.0276304
  60.3553430  86.9538462   8.3322850  59.6340015  87.5674430   8.1930324
  61.1446685  87.4896227   8.2539496  63.1579743  84.2892889  14.6063502
  63.6814145  84.5355185  15.3689812  62.9392076  85.1212924  14.1866640
  58.5547024  86.5596563   2.4734627  58.2259730  85.6793942   2.2909733
  58.9086395  86.5044232   3.3611016  64.3632288  85.2306584  12.2913173
  64.0229108  84.4314397  12.6933853  63.6571294  85.5308295  11.7190006
  65.0148760  82.3155896  10.7440496  65.8374829  81.8416375  10.6219386
  65.2586823  83.0946380  11.2439182  62.5387339  89.0075017   8.5532474
  62.3931919  89.3215320   9.4456756  62.0612542  89.6259917   8.0003373
  64.3983722  85.9977565   8.6013364  64.3845290  85.1018658   8.2645662
  65.1156150  86.0048229   9.2351650  66.2509852  86.4314905  10.6466491
  65.9927630  87.3531976  10.6450822  65.7194893  86.0345340  11.3366956
  57.0133001  91.5480361  11.4920136  56.4686469  92.3240169  11.6240410
  57.8912351  91.8951166  11.3339257  63.8020617  84.8791945   3.8700934
  63.9236529  83.9508591   4.0691822  63.5122660  84.8930631   2.9579250
  66.6711808  82.5646856   7.0067654  66.6933505  82.6286189   6.0519633
  67.0879867  81.7251364   7.2008160  57.7999023  90.6750258  14.3850292
  57.0580759  90.8232893  14.9714923  57.4791767  90.9358523  13.5217042
  65.7442685 100.2166236  14.1830682  66.0529812  99.9715383  15.0553382
  66.5418167 100.4212874  13.6949553  56.4464241  96.4802013   7.3749621
  55.6096150  96.0524187   7.1933622  56.4187887  96.6734456   8.3120412
  63.2861697  86.3923943  18.0790867  63.3349852  87.2686065  17.6968636
  63.8284211  85.8501336  17.5062510  73.7716543  96.9365066  17.3592004
  72.9812086  96.9189205  16.8196503  73.5349897  97.4753360  18.1141040
  73.8914418  93.7857532  14.6724732  73.9412423  93.6207540  15.6140255
  73.7828341  92.9184791  14.2822613  71.1818180  89.7688460  15.9884039
  72.0828043  89.6294925  15.6968037  71.2566155  89.9342915  16.9282216
  65.5160985  87.1455315  14.8337225  64.6464295  87.4388881  14.5619814
  65.7520466  87.7295760  15.5544489  75.3932615  96.2054474  14.9166754
  75.1017423  96.5684454  15.7530215  74.7804746  95.4921482  14.7380086
  73.6419803  91.3287088  13.3846812  74.1173924  91.5214735  12.5765663
  72.7185368  91.3846274  13.1390195  68.2200019  83.3634932  12.3502646
  68.7381963  84.0995959  12.0249134  67.8655152  83.6698925  13.1849405
  68.4712613  79.7835215   7.8703542  68.7514367  79.1158404   8.4963969
  69.2563220  79.9764310   7.3578206  72.3421472  88.2052849  11.6175117
  73.2938895  88.3050946  11.6387341  72.1724922  87.4131117  12.1273202
  70.3635851  85.2908432  11.8034518  69.7685783  85.5713444  11.1081007
  70.0785548  85.7802333  12.5751259  74.9704038  88.2170012  10.7775700
  74.4543087  87.4328468  10.5905629  75.8543987  87.8888728  10.9422220
  72.6314765  81.9611027   6.7371513  72.4339586  81.6526115   7.6214845
  73.2414471  82.6872666   6.8669443  66.5431573  94.3472767  18.2345278
  67.4634582  94.5251366  18.4285325  66.5081156  93.4028813  18.0824977
  55.7613738  89.5411361   7.1598553  55.4416522  88.6876669   6.8672927
  55.2147166  89.7559939   7.9156520  59.5393646  92.2573802  10.8768059
  59.7579655  93.1890910  10.8956093  59.9519419  91.8981776  11.6622863
  66.4597863  82.7641887   2.8643748  65.6498592  82.4188972   3.2398994
  67.1482280  82.4549431   3.4531359  68.3888412  81.8419934   4.4868044
  68.9419450  82.2615388   5.1458067  68.6258498  80.9155682   4.5291000
  64.4121511  87.8307008  20.2670808  64.3118238  88.7801365  20.1982899
  64.1943053  87.5025247  19.3946878  55.6301998  93.1614272   9.1291674
  54.9365469  92.7468225   8.6161629  56.3774989  93.2034809   8.5325093
  70.2170785  83.3525517   6.1968029  70.7170563  83.4642051   5.3882348
  70.8606393  83.0486570   6.8368837  64.2752781  91.2604147  19.0835870
  63.7919863  92.0604507  19.2899759  64.3613720  91.2712091  18.1303314
  57.5438741  93.0932526   7.0057689  57.5209429  93.1920214   6.0539572
  57.8539377  93.9397677   7.3274855  60.2026118  95.1508681  11.1204304
  61.1569372  95.1192624  11.0534235  60.0038642  94.6899305  11.9354530
  60.7925501  93.7209797  13.6875101  61.6118390  94.2153876  13.7109939
  61.0662308  92.8041765  13.6592669  56.0460415  88.0547931  14.3867298
  56.6919278  87.5446885  14.8754524  55.8377566  88.7916613  14.9610724
  68.5713807  95.1228779  19.8859439  69.4404967  95.2969431  19.5246074
  68.0920558  95.9423195  19.7635168  62.7399987 102.2425880  11.5648873
  63.6427234 102.2749490  11.8815368  62.5137357 101.3126331  11.5795208
  68.3816145  78.9130752   4.3937131  67.6148541  78.3589239   4.5393814
  68.7926850  78.9852621   5.2551283  60.3857906  85.2015548  18.4842313
  61.2489367  84.8452353  18.6945637  59.8123316  84.8629443  19.1717717
  72.9439407  98.6096265  19.4772284  72.5506352  98.0562463  20.1519928
  73.7605547  98.9206843  19.8678802  75.8607368 100.0254144  17.0692541
  76.6017081 100.6261297  16.9897003  76.0925290  99.2831782  16.5110583
  70.8887394 102.3997954  16.4176947  71.5159433 102.0175032  17.0314471
  70.0315313 102.1812156  16.7832640  74.1255452 101.7215860  18.0790867
  74.1743607 102.5977983  17.6968636  74.6677966 101.1793253  17.5062510
  75.2515265 103.1598925  20.2670808  75.1511992 104.1093282  20.1982899
  75.0336807 102.8317164  19.3946878  66.8854169 103.3839849  14.3867298
  67.5313033 102.8738803  14.8754524  66.6771320 104.1208530  14.9610724
  71.2251660 100.5307466  18.4842313  72.0883122 100.1744271  18.6945637
  70.6517071 100.1921361  19.1717717  50.2848567  44.1232382   2.1712179
  50.2261113  43.4391602   1.5042762  50.6868085  44.8651372   1.7192805
  48.7700241  43.8247299   4.7475989  49.3140145  44.4377257   4.2530944
  48.1887085  44.3826877   5.2643002  52.0929035  43.2843353   4.0837310
  51.3024579  43.2667492   3.5441810  51.8562390  43.8231647   4.8386347
  53.7145107  42.5532761   1.6412060  53.4229915  42.9162742   2.4775521
  53.1017238  41.8399769   1.4625393  46.8926299  41.4707066   6.6104746
  47.7617459  41.6447718   6.2491380  46.4133051  42.2901483   6.4880475
  58.5518775  53.1795692  -3.9849980  59.1897185  53.0602439  -4.6886640
  58.4339618  54.1276536  -3.9262028  55.3608481  53.1323120  -4.0488455
  55.0226993  53.0164185  -4.9367920  56.2298249  52.7314285  -4.0687449
  55.8428264  54.2857972   1.9097750  55.8316905  53.8910770   1.0378254
  56.0048904  53.5524044   2.5031522  48.7659729  56.4809788  -5.2207344
  49.5581021  56.1400613  -5.6361044  49.0056379  56.5904763  -4.3005190
  52.5635525  57.0695083   0.8576934  52.2725391  57.9740714   0.7423601
  53.1992510  57.1111611   1.5721004  53.4891732  54.4471932  -2.5521706
  54.0855304  54.2227954  -3.2664743  53.5466704  53.7056677  -1.9496258
  63.5068471  50.8422379  -6.0063793  64.2393643  50.2721596  -5.7725964
  62.7507826  50.4543979  -5.5657288  61.0293891  44.5543953  -1.5469185
  60.6977216  45.4239364  -1.7707970  60.4339504  44.2380237  -0.8675154
  57.5225410  56.7556499  -2.1473272  57.2226134  57.6581538  -2.2557465
  57.1776470  56.4888682  -1.2952119  60.9222554  49.2739039  -4.4675835
  60.0139432  49.2054448  -4.7617074  60.8710150  49.7510984  -3.6394009
  52.5046190  63.5200819  -9.1802304  52.4270220  64.4708644  -9.1013824
  51.9007834  63.1746692  -8.5227378  54.9963420  50.6928685   3.4759063
  54.2196754  51.2522605   3.4661927  55.6353983  51.1785468   3.9973933
  62.7884201  47.4755478  -2.6897961  62.1458581  47.7688011  -3.3358166
  62.2839129  47.3608398  -1.8844764  53.2509792  53.5014138   3.0377030
  53.9924477  54.0399182   2.7611853  52.5446778  54.1280427   3.1948582
  58.7265132  55.6443279   1.6349191  59.1348488  55.2025689   0.8903824
  58.0042393  55.0695906   1.8883384  55.0796202  50.5815885  -0.9917252
  55.9257397  51.0055299  -0.8482603  55.0194840  49.9249510  -0.2978689
  59.0493947  56.2044469  -4.6098520  58.4202809  56.3690183  -5.3122452
  58.6619609  56.6186079  -3.8387556  62.9283179  57.1398907  -7.2554156
  62.2434217  57.5197808  -7.8057123  63.0127028  57.7494234  -6.5222208
  58.2295647  48.2420254   0.6663922  57.9856579  48.9962314   0.1298197
  58.5055578  48.6205601   1.5011169  60.1834110  54.7858866  -0.6558813
  60.3951005  55.4290626  -1.3324432  60.1363858  53.9521183  -1.1236883
  51.4945990  55.4890359  -4.4068672  52.0647347  55.9177627  -5.0451187
  52.0854101  55.2072944  -3.7084486  51.9871156  50.6553786   3.8392340
  51.3569817  51.3370067   4.0727737  51.8807244  50.5436868   2.8945478
  61.2979938  57.6630822  -2.4836455  62.1197382  57.2611009  -2.7653774
  61.2942341  57.5599056  -1.5320339  55.0636542  57.2114865  -0.3275745
  55.1280974  57.6735272   0.5082427  54.3547465  56.5812230  -0.1993435
  69.3885931  54.0069570  -6.1351484  68.6349640  53.4376968  -6.2907479
  69.5233472  53.9732234  -5.1880849  51.2651899  44.9574552   6.2017591
  50.8718844  44.4040751   6.8765235  52.0818039  45.2685131   6.5924108
  50.0408841  59.5124167  -7.8046086  50.2175470  60.4342131  -7.9925102
  50.8365675  59.1982586  -7.3751706  54.1819860  46.3732431   3.7937847
  54.9229573  46.9739584   3.7142310  54.4137783  45.6310069   3.2355890
  49.3261198  51.5588799   2.0716077  49.2114713  50.6574056   2.3723176
  48.4705716  51.8052495   1.7200894  56.4053036  59.5006539   3.6703578
  55.9616890  58.7142917   3.3524482  57.0670249  59.6885689   3.0047468
  51.1640157  61.0302340  -1.8035744  51.7147582  60.9019404  -2.5758750
  50.3251633  61.3297229  -2.1540851  58.5034274  59.7809339   1.6984979
  58.4852749  60.6018220   1.2065248  59.4254194  59.6563414   1.9235120
  54.9607328  57.2953468   2.5408487  55.4935665  56.5341756   2.3107795
  54.4321409  57.0027120   3.2832642  61.3052887  54.6188481  -4.8305654
  60.6476561  55.3087743  -4.7425526  62.1093286  55.0084913  -4.4871668
  60.1158345  52.9732854  -6.7801713  60.6290227  53.6062846  -6.2780003
  60.7659569  52.3734049  -7.1458353  56.5939176  50.4482309  -4.5343372
  55.6761738  50.6697256  -4.6921684  57.0099320  50.5228620  -5.3931665
  60.8820142  57.9538855  -8.6522570  60.4282469  57.1129765  -8.5957380
  60.2514108  58.5900254  -8.3147790  59.3253081  59.7915352  -7.7172752
  59.6176055  60.3520409  -8.4360386  59.8351701  60.0843913  -6.9619593
  54.2886706  60.5695703  -6.6279299  54.2462885  60.7956549  -7.5570767
  55.2049405  60.3359078  -6.4793498  57.7352340  51.0379771   0.2701331
  58.0901727  51.2651244   1.1295796  58.3824471  51.3698147  -0.3521414
  63.4650077  54.1598207  -9.0249340  63.3267975  54.3499803  -9.9528151
  63.1086296  54.9217589  -8.5681289  63.4919456  56.2274734  -4.0138069
  63.9255963  56.1350023  -3.1655015  64.2051037  56.2032234  -4.6518053
  57.2247351  59.8276828  -2.4804968  57.2784373  60.3967764  -1.7127252
  56.3562133  59.9978713  -2.8450931  50.1045745  49.5294384  -0.9980517
  50.7768798  49.3211746  -1.6467868  49.2775531  49.3316470  -1.4375285
  64.3535006  56.2698434  -1.4805184  64.5470896  57.1744245  -1.2345909
  64.2535624  55.8105853  -0.6466599  56.0071317  46.1556325   1.0185144
  55.3599232  46.8546274   0.9249620  56.7772332  46.5892469   1.3861392
  59.4150115  56.4205177   4.0935697  59.2635621  56.1915729   3.1765781
  59.4054794  57.3775778   4.1067042  56.1835451  53.9937090  -0.9218037
  57.1127511  54.1448249  -1.0949069  55.7626481  54.0821110  -1.7769390
  54.9823783  58.0187754  -3.1519499  54.8434868  57.6506539  -2.2793561
  54.1938379  58.5335394  -3.3235541  55.5771935  63.1196851 -11.8093962
  55.7523690  62.6484894 -10.9948340  54.8904723  63.7462617 -11.5812702
  56.5328998  57.3969357  -5.7630661  56.1978830  57.3570127  -4.8673011
  56.0332944  56.7314073  -6.2360251  50.5073242  52.8036987  -0.2378080
  50.3693040  52.0717226   0.3633459  51.4178165  52.7145887  -0.5193892
  53.1355542  52.5156946  -0.7494400  53.8455161  51.8750138  -0.7907782
  53.0924851  52.7669841   0.1731780  61.1242321  59.4524299   2.1712179
  61.0654867  58.7683520   1.5042762  61.5261840  60.1943290   1.7192805
  51.8484476  49.5022164   1.0701239  51.3121833  49.0512903   1.7222836
  51.2601185  49.6368073   0.3271704  50.1433020  66.2686213  -5.0354102
  50.3829618  66.9004738  -4.3575084  49.3002216  65.9174253  -4.7488743
  61.1259728  57.4163883   0.4026159  60.2386507  57.0789805   0.5252557
  61.6958280  56.6846915   0.6394924  54.6560882  62.0765336  -2.6312598
  54.5831053  62.8820307  -2.1193294  54.2138275  62.2757302  -3.4564577
  54.4450661  61.3137106  -9.1209777  53.6618183  61.8558786  -9.0271552
  55.1443407  61.8311085  -8.7215535  65.6077069  52.8272101  -4.8357280
  65.5966945  53.7096816  -5.2063347  64.7394448  52.4743652  -5.0302743
  57.1159565  61.9752170  -0.4754440  57.8287538  62.6099635  -0.5478538
  56.6249594  62.0716036  -1.2914438  52.1671479  59.7246613   0.3451131
  52.8680938  60.3583096   0.4980525  51.6966594  60.0661345  -0.4153229
  59.9672765  52.2791221  -1.8296318  59.3144215  52.5267128  -2.4843866
  60.3453145  51.4655359  -2.1633841  56.9279939  62.3150914  -7.7268148
  57.1102333  61.4972570  -7.2640396  57.7512925  62.5318606  -8.1643258
  57.2622104  61.2419099 -10.4653100  57.7909871  60.7311554 -11.0782937
  57.5250324  60.9261629  -9.6007567  56.0160338  53.0211032   4.6569719
  55.3400975  52.9205161   5.3272094  56.8387972  52.8650246   5.1205716
  47.7639197  59.2582968  -2.7217766  48.3492634  58.5126656  -2.5889862
  47.5664035  59.5686925  -1.8381102  50.6177852  62.2934216  -7.7055324
  49.9488227  62.7780343  -8.1891284  50.4790722  62.5403436  -6.7911945
  54.7583121  64.3277959  -1.1072665  55.3101429  64.4909581  -0.3423580
  55.0989314  64.9182397  -1.7792640  49.2099887  48.7476242   3.1422254
  49.8371925  48.3653319   3.7559778  48.3527805  48.5290444   3.5077946
  59.6093995  59.1539217   4.7475989  60.1533899  59.7669175   4.2530944
  59.0280840  59.7118795   5.2643002  57.8951508  62.2759935  -4.1208983
  57.7702647  61.4749675  -4.6298038  58.5530599  62.7706128  -4.6095013
  59.9586416  60.0768955  -2.4929433  59.0116752  59.9574306  -2.5651106
  60.3069190  59.1891453  -2.4103172  52.3185990  45.9663094   1.3308809
  52.8420392  46.2125390   2.0935118  52.0998323  46.7983129   0.9111946
  56.9632850  59.8721671  -6.2925081  56.8157812  58.9438378  -6.1117511
  57.7886343  59.8941762  -6.7768006  60.5666972  60.6950230  -5.2060208
  61.4913519  60.4893091  -5.3435757  60.3982275  60.4466631  -4.2970867
  53.5238535  46.9076789  -0.9841521  53.1835355  46.1084602  -0.5820841
  52.8177541  47.2078500  -1.5564687  55.4116099  48.1085110  -2.6288202
  55.1533877  49.0302181  -2.6303872  54.8801139  47.7115545  -1.9387738
  60.3562288  61.2135897  -9.8498117  60.5299165  60.6482320 -10.6024264
  60.8491179  62.0136792 -10.0318627  46.1739248  53.2250566  -1.7834558
  45.6292716  54.0010374  -1.6514283  47.0518597  53.5721371  -1.9415436
  66.2101679  53.9772320  -8.2307817  66.6532825  53.2279645  -8.6288694
  65.3328189  53.9682457  -8.6134085  61.3437460  60.5302662 -12.7501218
  62.0388365  61.1509354 -12.5313904  61.6860610  59.6798013 -12.4748840
  46.9605269  52.3520463   1.1095599  46.2187005  52.5003098   1.6960229
  46.6398014  52.6128728   0.2462348  63.2428883  57.9802367 -11.2213888
  63.7680207  58.3189640 -11.9464568  63.1551236  57.0449383 -11.4050753
  54.9048932  61.8936441   0.9075989  55.2136059  61.6485588   1.7798689
  55.7024414  62.0983079   0.4194859  54.9269544  64.0474350  -6.8618634
  54.4874534  63.5550729  -6.1685778  55.6777661  63.5047318  -7.1026559
  47.4061883  60.2385891  -6.8594006  48.2319903  59.9389663  -7.2395363
  47.0555935  59.4693514  -6.4104218  52.3743416  59.5912360  -4.7896333
  51.7523426  58.9283065  -5.0894105  53.0448283  59.6173491  -5.4722685
  52.4467944  48.0694148   4.8036173  52.4956099  48.9456270   4.4213943
  52.9890458  47.5271541   4.2307817  62.9322789  58.6135271   4.0837310
  62.1418333  58.5959410   3.5441810  62.6956144  59.1523565   4.8386347
  63.0520664  55.4627737   1.3970039  63.1018669  55.2977745   2.3385562
  62.9434588  54.5954996   1.0067920  60.3424427  51.4458665   2.7129346
  61.2434290  51.3065130   2.4213343  60.4172401  51.6113120   3.6527523
  54.6767232  48.8225520   1.5582532  53.8070542  49.1159086   1.2865121
  54.9126713  49.4065965   2.2789796  64.5538861  57.8824679   1.6412060
  64.2623670  58.2454659   2.4775521  63.9410993  57.1691687   1.4625393
  65.7534544  55.4477558  -5.8385369  66.5881435  55.8867363  -5.6747809
  65.8893672  54.9716212  -6.6577124  62.8026050  53.0057293   0.1092118
  63.2780171  53.1984940  -0.6989030  61.8791615  53.0616479  -0.1364498
  57.3806266  45.0405137  -0.9252048  57.8988210  45.7766164  -1.2505559
  57.0261399  45.3469130  -0.0905289  61.5027719  49.8823053  -1.6579576
  62.4545141  49.9821151  -1.6367352  61.3331169  49.0901322  -1.1481492
  59.5242098  46.9678637  -1.4720175  58.9292030  47.2483649  -2.1673686
  59.2391795  47.4572538  -0.7003434  63.9815796  53.1029173  -2.5437276
  63.9492116  52.1645174  -2.3577592  64.5916420  53.1813210  -3.2771451
  64.1310285  49.8940217  -2.4978993  63.6149333  49.1098673  -2.6849064
  65.0150233  49.5658933  -2.3332474  69.7992346  54.1645180  -3.4031239
  70.5295735  53.9030468  -2.8423536  69.1899292  53.4273902  -3.3629172
  67.8807643  52.3053043  -2.8056788  67.1540807  52.1709007  -3.4140297
  67.4654930  52.6129871  -2.0000070  55.7037820  56.0242972   4.9590585
  56.6240829  56.2021571   5.1530631  55.6687403  55.0799018   4.8070284
  48.6999892  53.9344007  -2.3986634  48.9185902  54.8661115  -2.3798600
  49.1125666  53.5751981  -1.6131830  53.5727758  49.5077213   6.9916115
  53.4724485  50.4571570   6.9228206  53.3549300  49.1795452   6.1192185
  53.4359028  52.9374351   5.8081176  52.9526109  53.7374712   6.0145066
  53.5219967  52.9482296   4.8548620  49.3632365  56.8278886  -2.1550390
  50.3175619  56.7962829  -2.2220458  49.1644889  56.3669510  -1.3400164
  49.9531747  55.3980002   0.4120408  50.7724636  55.8924081   0.4355245
  50.2268555  54.4811970   0.3837975  65.4985438  48.5264895  -5.4523357
  66.0929929  48.2860631  -6.1630048  65.5712022  47.8072025  -4.8249820
  47.7182594  62.3698506  -5.1380192  47.5837062  61.6098907  -5.7042194
  47.3014656  63.0939406  -5.6051403  67.8056511  51.8331096  -6.6779936
  67.2456069  51.9024285  -5.9048373  67.2000014  51.6572080  -7.3980439
  50.8751720  63.2667823  -4.9261749  50.7584104  64.2113255  -5.0283059
  50.0544166  62.9641384  -4.5375950  45.2066662  49.7318136   1.1112605
  45.8525525  49.2217090   1.5999830  44.9983813  50.4686818   1.6856030
  57.7320054  56.7998984   6.6104746  58.6011213  56.9739636   6.2491380
  57.2526805  57.6193400   6.4880475  51.9006234  63.9196085  -1.7105821
  52.8033481  63.9519695  -1.3939326  51.6743604  62.9896536  -1.6959485
  53.6559836  62.6727071  -5.0495742  52.7055467  62.6728933  -5.1631370
  53.9592322  61.9259806  -5.5659708  49.5464153  46.8785753   5.2087619
  50.4095614  46.5222558   5.4190944  48.9729563  46.5399648   5.8963023
  69.3912529  68.5087610  -3.9849980  70.0290939  68.3894357  -4.6886640
  69.2733372  69.4568453  -3.9262028  66.2002236  68.4615038  -4.0488455
  65.8620747  68.3456102  -4.9367920  67.0692004  68.0606203  -4.0687449
  66.6822019  69.6149889   1.9097750  66.6710659  69.2202688   1.0378254
  66.8442658  68.8815962   2.5031522  59.6053483  71.8101706  -5.2207344
  60.3974775  71.4692530  -5.6361044  59.8450134  71.9196681  -4.3005190
  63.4029280  72.3987001   0.8576934  63.1119146  73.3032632   0.7423601
  64.0386264  72.4403529   1.5721004  64.3285487  69.7763850  -2.5521706
  64.9249059  69.5519872  -3.2664743  64.3860458  69.0348595  -1.9496258
  71.8687645  59.8835871  -1.5469185  71.5370970  60.7531282  -1.7707970
  71.2733259  59.5672155  -0.8675154  68.3619165  72.0848417  -2.1473272
  68.0619888  72.9873455  -2.2557465  68.0170224  71.8180600  -1.2952119
  61.8131646  68.5362214  -6.1136567  60.8882143  68.4038428  -5.9058876
  62.0616060  69.3156433  -5.6166625  71.7616309  64.6030957  -4.4675835
  70.8533186  64.5346365  -4.7617074  71.7103905  65.0802902  -3.6394009
  59.1740457  68.1795487  -5.2792778  59.3032839  68.4329966  -4.3653367
  58.4937909  68.7723195  -5.5988123  65.8357175  66.0220602   3.4759063
  65.0590509  66.5814523   3.4661927  66.4747738  66.5077385   3.9973933
  73.6277955  62.8047395  -2.6897961  72.9852335  63.0979928  -3.3358166
  73.1232884  62.6900316  -1.8844764  64.0903547  68.8306056   3.0377030
  64.8318231  69.3691100   2.7611853  63.3840532  69.4572345   3.1948582
  69.5658886  70.9735196   1.6349191  69.9742243  70.5317607   0.8903824
  68.8436148  70.3987824   1.8883384  65.9189957  65.9107803  -0.9917252
  66.7651152  66.3347217  -0.8482603  65.8588594  65.2541427  -0.2978689
  69.0689402  63.5712171   0.6663922  68.8250334  64.3254232   0.1298197
  69.3449332  63.9497519   1.5011169  71.0227865  70.1150784  -0.6558813
  71.2344760  70.7582544  -1.3324432  70.9757613  69.2813100  -1.1236883
  68.6254094  62.7268604  -3.7522240  67.7638573  63.0249858  -3.4605503
  68.6516528  62.9439003  -4.6841208  62.3339744  70.8182277  -4.4068672
  62.9041101  71.2469545  -5.0451187  62.9247856  70.5364861  -3.7084486
  62.8264911  65.9845704   3.8392340  62.1963571  66.6661985   4.0727737
  62.7200998  65.8728786   2.8945478  58.1209883  65.6517500  -5.2341736
  57.3308937  65.9075029  -5.7101626  58.6121130  66.4665838  -5.1289696
  60.0724628  66.0162079  -8.2758259  59.2755792  66.1280774  -7.7574764
  59.8450221  66.3548731  -9.1417369  65.9030296  72.5406782  -0.3275745
  65.9674729  73.0027190   0.5082427  65.1941220  71.9104147  -0.1993435
  56.4047586  65.9047990  -2.8026745  56.6555624  66.7895000  -2.5369169
  56.9407134  65.7252592  -3.5751653  62.1045653  60.2866470   6.2017591
  61.7112599  59.7332668   6.8765235  62.9211794  60.5977048   6.5924108
  65.0213614  61.7024349   3.7937847  65.7623328  62.3031502   3.7142310
  65.2531537  60.9601987   3.2355890  60.1654952  66.8880716   2.0716077
  60.0508467  65.9865973   2.3723176  59.3099470  67.1344413   1.7200894
  67.2446790  74.8298456   3.6703578  66.8010644  74.0434835   3.3524482
  67.9064004  75.0177607   3.0047468  62.0033911  76.3594258  -1.8035744
  62.5541336  76.2311321  -2.5758750  61.1645387  76.6589147  -2.1540851
  69.3428028  75.1101256   1.6984979  69.3246503  75.9310137   1.2065248
  70.2647948  74.9855332   1.9235120  65.8001082  72.6245386   2.5408487
  66.3329419  71.8633674   2.3107795  65.2715163  72.3319038   3.2832642
  68.9670777  57.7305452  -1.9297871  68.6235047  58.6207094  -2.0058760
  69.3349740  57.5407109  -2.7928286  66.5168171  62.5663764  -8.3640198
  65.6609767  62.1770614  -8.5434559  66.9295123  62.6455725  -9.2240412
  68.0467318  60.1010107  -3.9648638  67.5432113  60.0640242  -4.7780832
  68.3397924  61.0102850  -3.9051981  64.2910204  60.1848837  -4.9582456
  65.1563200  59.9891645  -5.3176567  64.3587712  59.9559189  -4.0313099
  61.8972523  62.4151045  -7.5866089  62.4716274  62.1926226  -8.3192896
  62.4843505  62.4839739  -6.8337488  64.1995190  59.2892294  -8.8591020
  63.5459603  58.9741311  -9.4834405  64.1575664  58.6668034  -8.1331197
  67.4332931  65.7774227  -4.5343372  66.5155492  65.9989174  -4.6921684
  67.8493074  65.8520538  -5.3931665  70.7658443  56.9899011  -6.8280133
  71.0717320  56.1296374  -7.1154218  71.4911048  57.5816631  -7.0281139
  57.0582799  67.3929698  -8.4398535  56.8607199  66.7999058  -9.1647469
  56.5029463  67.0881908  -7.7222597  65.0379523  67.2852804  -6.3203942
  65.0928132  66.3326641  -6.3961466  64.2270725  67.4412243  -5.8362644
  62.9771883  65.9029864  -8.5613563  62.1639748  66.2024034  -8.1548371
  63.4730877  65.5085553  -7.8439081  68.5746094  66.3671688   0.2701331
  68.9295482  66.5943161   1.1295796  69.2218225  66.6990065  -0.3521414
  62.4685957  63.4748219  -2.9452328  63.1085337  63.3336978  -3.6429365
  61.6363488  63.1882733  -3.3213726  59.4714574  63.4448544  -8.1679342
  59.7321391  64.3593878  -8.2770181  60.2931746  62.9772987  -8.0182729
  60.9439499  64.8586302  -0.9980517  61.6162552  64.6503664  -1.6467868
  60.1169286  64.6608388  -1.4375285  66.8465071  61.4848242   1.0185144
  66.1992986  62.1838192   0.9249620  67.6166086  61.9184386   1.3861392
  70.2543869  71.7497095   4.0935697  70.1029375  71.5207646   3.1765781
  70.2448548  72.7067696   4.1067042  67.0229205  69.3229007  -0.9218037
  67.9521265  69.4740167  -1.0949069  66.6020235  69.4113028  -1.7769390
  65.8217537  73.3479672  -3.1519499  65.6828623  72.9798456  -2.2793561
  65.0332133  73.8627311  -3.3235541  61.3466996  68.1328905  -0.2378080
  61.2086794  67.4009143   0.3633459  62.2571920  68.0437805  -0.5193892
  63.9749297  67.8448864  -0.7494400  64.6848916  67.2042056  -0.7907782
  63.9318605  68.0961759   0.1731780  71.9636076  74.7816217   2.1712179
  71.9048622  74.0975437   1.5042762  72.3655594  75.5235207   1.7192805
  62.6878231  64.8314082   1.0701239  62.1515588  64.3804820   1.7222836
  62.0994939  64.9659991   0.3271704  71.9653483  72.7455801   0.4026159
  71.0780262  72.4081723   0.5252557  72.5352034  72.0138832   0.6394924
  53.6182630  69.0779893  -6.2730790  54.3053670  68.7641623  -6.8609775
  53.4630759  69.9821258  -6.5463539  58.4217352  63.9670089  -1.8445766
  58.3375541  63.3595759  -2.5795356  57.6000059  64.4579108  -1.8436270
  68.5941066  62.4523653  -6.4775571  69.0909766  61.6993615  -6.7974501
  67.8228048  62.4887970  -7.0432362  65.1776035  64.5941036  -6.7503887
  64.8073822  64.0412076  -6.0622981  65.6735127  63.9899169  -7.3028887
  63.0065233  75.0538531   0.3451131  63.7074693  75.6875014   0.4980525
  62.5360348  75.3953263  -0.4153229  71.0360061  59.4193246  -4.3296212
  70.1223141  59.6497473  -4.1614005  71.4653162  59.5031691  -3.4782180
  70.8066519  67.6083138  -1.8296318  70.1537970  67.8559046  -2.4843866
  71.1846899  66.7947277  -2.1633841  66.8554092  68.3502949   4.6569719
  66.1794729  68.2497079   5.3272094  67.6781726  68.1942163   5.1205716
  58.6032951  74.5874886  -2.7217766  59.1886388  73.8418574  -2.5889862
  58.4057790  74.8978843  -1.8381102  53.1950606  67.1580486  -4.0013323
  53.2334706  66.6244077  -3.2076205  52.6890899  66.6315692  -4.6202346
  60.5741368  62.0045027  -0.5050781  60.6382695  62.8659858  -0.9173383
  60.5108489  61.3919028  -1.2378422  60.0493641  64.0768159   3.1422254
  60.6765680  63.6945237   3.7559778  59.1921560  63.8582361   3.5077946
  70.4487750  74.4831134   4.7475989  70.9927654  75.0961093   4.2530944
  69.8674594  75.0410713   5.2643002  56.8259184  65.8844588 -10.9259392
  57.1212625  64.9755267 -10.9792338  55.9247220  65.8632328 -11.2478389
  60.3553431  63.9600585  -4.9431843  59.6340017  64.5736553  -5.0824370
  61.1446687  64.4958350  -5.0215197  63.1579744  61.2955011   1.3308809
  63.6814146  61.5417308   2.0935118  62.9392078  62.1275046   0.9111946
  58.5547025  63.5658686 -10.8020066  58.2259732  62.6856065 -10.9844960
  58.9086396  63.5106355  -9.9143677  64.3632289  62.2368707  -0.9841521
  64.0229110  61.4376520  -0.5820841  63.6571296  62.5370417  -1.5564687
  65.0148761  59.3218019  -2.5314198  65.8374830  58.8478497  -2.6535307
  65.2586825  60.1008503  -2.0315511  62.5387340  66.0137140  -4.7222219
  62.3931921  66.3277443  -3.8297937  62.0612544  66.6322040  -5.2751320
  64.3983723  63.0039688  -4.6741329  64.3845292  62.1080781  -5.0109031
  65.1156151  63.0110351  -4.0403043  66.2509854  63.4377028  -2.6288202
  65.9927631  64.3594098  -2.6303872  65.7194894  63.0407462  -1.9387738
  57.0133002  68.5542484  -1.7834558  56.4686470  69.3302292  -1.6514283
  57.8912352  68.9013288  -1.9415436  63.8020619  61.8854068  -9.4053759
  63.9236530  60.9570714  -9.2062872  63.5122661  61.8992754 -10.3175444
  66.6711809  59.5708978  -6.2687039  66.6933506  59.6348311  -7.2235060
  67.0879868  58.7313487  -6.0746533  57.7999024  67.6812380   1.1095599
  57.0580760  67.8295016   1.6960229  57.4791768  67.9420646   0.2462348
  65.7442687  77.2228359   0.9075989  66.0529813  76.9777505   1.7798689
  66.5418169  77.4274997   0.4194859  56.4464243  73.4864135  -5.9005073
  55.6096151  73.0586310  -6.0821071  56.4187888  73.6796579  -4.9634282
  63.2861698  63.3986065   4.8036173  63.3349854  64.2748188   4.4213943
  63.8284212  62.8563458   4.2307817  73.7716544  73.9427189   4.0837310
  72.9812088  73.9251327   3.5441810  73.5349899  74.4815482   4.8386347
  73.8914419  70.7919655   1.3970039  73.9412424  70.6269662   2.3385562
  73.7828342  69.9246914   1.0067920  71.1818181  66.7750583   2.7129346
  72.0828044  66.6357048   2.4213343  71.2566156  66.9405038   3.6527523
  65.5160987  64.1517438   1.5582532  64.6464296  64.4451004   1.2865121
  65.7520467  64.7357883   2.2789796  75.3932616  73.2116596   1.6412060
  75.1017424  73.5746577   2.4775521  74.7804747  72.4983605   1.4625393
  73.6419804  68.3349211   0.1092118  74.1173926  68.5276857  -0.6989030
  72.7185369  68.3908397  -0.1364498  68.2200021  60.3697055  -0.9252048
  68.7381964  61.1058082  -1.2505559  67.8655153  60.6761048  -0.0905289
  68.4712615  56.7897337  -5.4051151  68.7514368  56.1220526  -4.7790725
  69.2563222  56.9826433  -5.9176487  72.3421473  65.2114971  -1.6579576
  73.2938896  65.3113069  -1.6367352  72.1724923  64.4193240  -1.1481492
  70.3635853  62.2970554  -1.4720175  69.7685785  62.5775567  -2.1673686
  70.0785549  62.7864455  -0.7003434  74.9704039  65.2232134  -2.4978993
  74.4543088  64.4390591  -2.6849064  75.8543988  64.8950851  -2.3332474
  72.6314766  58.9673150  -6.5383180  72.4339587  58.6588238  -5.6539848
  73.2414472  59.6934789  -6.4085251  66.5431574  71.3534890   4.9590585
  67.4634584  71.5313489   5.1530631  66.5081157  70.4090935   4.8070284
  55.7613739  66.5473484  -6.1156141  55.4416524  65.6938792  -6.4081767
  55.2147167  66.7622062  -5.3598173  59.5393647  69.2635925  -2.3986634
  59.7579657  70.1953032  -2.3798600  59.9519421  68.9043899  -1.6131830
  66.4597865  59.7704010 -10.4110946  65.6498593  59.4251095 -10.0355700
  67.1482282  59.4611554  -9.8223334  68.3888413  58.8482057  -8.7886649
  68.9419451  59.2677510  -8.1296626  68.6258499  57.9217805  -8.7463693
  64.4121512  64.8369130   6.9916115  64.3118239  65.7863487   6.9228206
  64.1943054  64.5087369   6.1192185  55.6301999  70.1676395  -4.1463019
  54.9365471  69.7530348  -4.6593065  56.3774990  70.2096932  -4.7429600
  70.2170786  60.3587640  -7.0786664  70.7170565  60.4704174  -7.8872346
  70.8606394  60.0548692  -6.4385856  64.2752782  68.2666269   5.8081176
  63.7919864  69.0666629   6.0145066  64.3613721  68.2774214   4.8548620
  57.5438742  70.0994649  -6.2697004  57.5209430  70.1982336  -7.2215121
  57.8539378  70.9459800  -5.9479838  60.2026120  72.1570804  -2.1550390
  61.1569373  72.1254746  -2.2220458  60.0038643  71.6961428  -1.3400164
  60.7925502  70.7271920   0.4120408  61.6118391  71.2215999   0.4355245
  61.0662309  69.8103888   0.3837975  56.0460416  65.0610054   1.1112605
  56.6919280  64.5509008   1.5999830  55.8377567  65.7978735   1.6856030
  68.5713808  72.1290901   6.6104746  69.4404968  72.3031554   6.2491380
  68.0920560  72.9485318   6.4880475  62.7399988  79.2488002  -1.7105821
  63.6427235  79.2811613  -1.3939326  62.5137359  78.3188453  -1.6959485
  68.3816146  55.9192875  -8.8817562  67.6148542  55.3651362  -8.7360880
  68.7926851  55.9914744  -8.0203410  60.3857907  62.2077671   5.2087619
  61.2489369  61.8514476   5.4190944  59.8123318  61.8691566   5.8963023
  72.9439408  75.6158388   6.2017591  72.5506353  75.0624586   6.8765235
  73.7605548  75.9268966   6.5924108  75.8607369  77.0316267   3.7937847
  76.6017082  77.6323420   3.7142310  76.0925292  76.2893904   3.2355890
  70.8887395  79.4060077   3.1422254  71.5159434  79.0237154   3.7559778
  70.0315314  79.1874279   3.5077946  74.1255453  78.7277983   4.8036173
  74.1743608  79.6040106   4.4213943  74.6677967  78.1855376   4.2307817
  75.2515267  80.1661048   6.9916115  75.1511993  81.1155405   6.9228206
  75.0336809  79.8379287   6.1192185  66.8854171  80.3901971   1.1112605
  67.5313034  79.8800925   1.5999830  66.6771322  81.1270653   1.6856030
  71.2251662  77.5369589   5.2087619  72.0883123  77.1806393   5.4190944
  70.6517072  77.1983483   5.8963023  71.9636077  51.7878340 -11.1042514
  71.9048623  51.1037560 -11.7711931  72.3655595  52.5297330 -11.5561888
  70.4487751  51.4893257  -8.5278704  70.9927655  52.1023215  -9.0223749
  69.8674596  52.0472835  -8.0111691  73.7716545  50.9489311  -9.1917383
  72.9812089  50.9313450  -9.7312884  73.5349900  51.4877605  -8.4368346
  75.3932617  50.2178719 -11.6342633  75.1017425  50.5808700 -10.7979172
  74.7804748  49.5045727 -11.8129301  68.5713809  49.1353024  -6.6649948
  69.4404969  49.3093676  -7.0263313  68.0920561  49.9547441  -6.7874218
  72.9439409  52.6220510  -7.0737103  72.5506355  52.0686709  -6.3989458
  73.7605549  52.9331089  -6.6830585  75.8607370  54.0378389  -9.4816846
  76.6017083  54.6385542  -9.5612384  76.0925293  53.2956027 -10.0398803
  70.8887397  56.4122200 -10.1332440  71.5159436  56.0299277  -9.5194915
  70.0315316  56.1936401  -9.7676747  74.1255454  55.7340106  -8.4718520
  74.1743609  56.6102228  -8.8540750  74.6677968  55.1917499  -9.0446877
  75.2515268  57.1723171  -6.2838579  75.1511995  58.1217528  -6.3526487
  75.0336810  56.8441409  -7.1562508  66.8854172  57.3964094 -12.1642088
  67.5313035  56.8863048 -11.6754863  66.6771323  58.1332776 -11.5898663
  71.2251663  54.5431711  -8.0667074  72.0883124  54.1868516  -7.8563750
  70.6517073  54.2045606  -7.3791670   4.3523399  99.9945327  46.9667287
   3.5987108  99.4252725  46.8111291   4.4870940  99.9607991  47.9137921
   0.7172012 101.4353315  47.2633401   1.5518903 101.8743119  47.4270961
   0.8531140 100.9591968  46.4441647   4.7629814 100.1520937  49.6987531
   5.4933203  99.8906225  50.2595234   4.1536760  99.4149658  49.7389599
   2.8445111  98.2928799  50.2961982   2.1178275  98.1584764  49.6878474
   2.4292398  98.6005628  51.1018700   0.4622906  94.5140651  47.6495414
   1.0567397  94.2736387  46.9388722   0.5349490  93.7947782  48.2768950
   2.7693979  97.8206852  46.4238835   2.2093537  97.8900041  47.1970397
   2.1637482  97.6447837  45.7038331   3.9308245 103.7181208  51.1720899
   3.5872515 104.6082850  51.0960010   4.2987208 103.5282866  50.3090484
   5.7295911 102.9774768  46.2738637   6.0354788 102.1172131  45.9864552
   6.4548516 103.5692388  46.0737631   3.4350083 102.7773094  47.6967619
   3.7151837 102.1096283  48.3228046   4.2200690 102.9702189  47.1842283
   7.5952234 104.9548906  46.5635590   7.3977055 104.6463995  47.4478922
   8.2051940 105.6810545  46.6933520   3.3453614 101.9068632  44.2201208
   2.5786010 101.3527118  44.3657891   3.7564319 101.9790500  45.0815360
   4.3523400  77.0007449  33.6912593   3.5987109  76.4314847  33.5356598
   4.4870942  76.9670114  34.6383228   0.7172013  78.4415438  33.9878708
   1.5518904  78.8805242  34.1516268   0.8531142  77.9654091  33.1686953
   4.7629815  77.1583059  36.4232838   5.4933204  76.8968347  36.9840541
   4.1536761  76.4211781  36.4634905   2.8445113  75.2990922  37.0207289
   2.1178276  75.1646887  36.4123780   2.4292399  75.6067750  37.8264007
   0.4622908  71.5202774  34.3740720   1.0567398  71.2798510  33.6634029
   0.5349491  70.8009904  35.0014257   2.7693980  74.8268975  33.1484142
   2.2093538  74.8962164  33.9215704   2.1637484  74.6509959  32.4283638
   4.3549999  91.5025489  35.8414097   4.9928409  91.3832236  35.1377437
   4.2370842  92.4506333  35.9002049   1.1639705  91.4552917  35.7775622
   0.8258217  91.3393982  34.8896157   2.0329473  91.0544082  35.7576628
   1.6459488  92.6087769  41.7361827   1.6348129  92.2140567  40.8642331
   1.8080127  91.8753841  42.3295599   3.9091267  89.2276943  32.9167305
   4.6954356  88.8096366  32.5657722   4.1729972  90.1323035  33.0848954
   9.3099694  89.1652176  33.8200284  10.0424866  88.5951393  34.0538113
   8.5539050  88.7773776  34.2606789   0.9275814  91.5879417  31.0163626
   0.5634021  91.0610038  31.7276548   1.7842930  91.1977886  30.8430112
   6.8325115  82.8773750  38.2794892   6.5008439  83.7469161  38.0556107
   6.2370728  82.5610034  38.9588923   3.3256634  95.0786296  37.6790805
   3.0257357  95.9811335  37.5706612   2.9807694  94.8118479  38.5311958
   6.7253778  87.5968836  35.3588242   5.8170655  87.5284244  35.0647003
   6.6741374  88.0740781  36.1870068   8.5915424  85.7985274  37.1366116
   7.9489805  86.0917808  36.4905911   8.0870353  85.6838195  37.9419313
   6.2455588  89.5448448  27.8251976   7.1573444  89.7775834  27.6499673
   5.7365235  90.1285492  27.2627054   4.5296356  93.9673075  41.4613268
   4.9379712  93.5255486  40.7167901   3.8073617  93.3925703  41.7147461
   0.8827426  88.9045682  38.8346825   1.7288621  89.3285096  38.9781474
   0.8226063  88.2479307  39.5285388   4.8525170  94.5274266  35.2165557
   4.2234033  94.6919980  34.5141625   4.4650832  94.9415876  35.9876521
   8.7314402  95.4628704  32.5709921   8.0465440  95.8427605  32.0206954
   8.8158252  96.0724031  33.3041869   4.0326871  86.5650051  40.4927999
   3.7887803  87.3192111  39.9562274   4.3086802  86.9435398  41.3275246
   5.9865334  93.1088663  39.1705264   6.1982229  93.7520423  38.4939645
   5.9395082  92.2750980  38.7027194   3.5891563  85.7206484  36.0741837
   2.7276042  86.0187737  36.3658574   3.6153998  85.9376882  35.1422869
   7.1011162  95.9860618  37.3427622   7.9228606  95.5840806  37.0610303
   7.0973565  95.8828853  38.2943738  15.1917155  92.3299367  33.6912593
  14.4380863  91.7606765  33.5356598  15.3264696  92.2962031  34.6383228
   2.2084259  97.8236336  43.4967655   1.7648114  97.0372714  43.1788559
   2.8701473  98.0115486  42.8311545   4.3065497  98.1039136  41.5249056
   4.2883973  98.9248017  41.0329325   5.2285417  97.9793211  41.7499197
   3.9308247  80.7243331  37.8966206   3.5872516  81.6144973  37.8205317
   4.2987209  80.5344989  37.0335791   1.4805640  85.5601643  31.4623880
   0.6247237  85.1708493  31.2829518   1.8932592  85.6393604  30.6023665
   3.0104787  83.0947986  35.8615439   2.5069582  83.0578121  35.0483245
   3.3035394  84.0040729  35.9212096   8.8692803  93.4684297  28.3391815
   8.0922246  93.1295456  27.8946977   9.5484284  93.4736920  27.6646780
   3.6844832  88.5879034  28.2298422   3.3794968  88.9025183  29.0808565
   4.6375275  88.6660454  28.2725755   7.1084110  92.9418278  34.9958423
   6.4507785  93.6317539  35.0838551   7.9124509  93.3314710  35.3392409
   5.9189569  91.2962651  33.0462364   6.4321451  91.9292643  33.5484074
   6.5690793  90.6963846  32.6805724   2.3970400  88.7712106  35.2920705
   1.4792961  88.9927053  35.1342393   2.8130544  88.8458417  34.4332412
   3.1805448  90.1703522  30.4223385   3.9277267  90.6824919  30.1130507
   3.4497037  89.8487575  31.2827779   6.6851365  96.2768652  31.1741507
   6.2313692  95.4359562  31.2306697   6.0545332  96.9130051  31.5116287
   5.6284285  87.2060638  32.4042174   4.8907042  86.6938024  32.7352417
   5.8811058  86.7661020  31.5925451   5.1284305  98.1145149  32.1091325
   5.4207279  98.6750206  31.3903691   5.6382925  98.4073710  32.8644484
   5.7295912  79.9836890  32.9983944   6.0354789  79.1234254  32.7109859
   6.4548517  80.5754510  32.7982938   3.5383564  89.3609568  40.0965408
   3.8932951  89.5881041  40.9559873   4.1855695  89.6927944  39.4742663
   9.2681300  92.4828003  30.8014737   9.1299199  92.6729599  29.8735926
   8.9117519  93.2447386  31.2582788   9.2950680  94.5504530  35.8126008
   9.7287187  94.4579820  36.6609062  10.0082261  94.5262031  35.1746024
   3.0278575  98.1506625  37.3459109   3.0815597  98.7197561  38.1136825
   2.1593356  98.3208510  36.9813146  10.1566230  94.5928231  38.3458893
  10.3502120  95.4974042  38.5918168  10.0566848  94.1335650  39.1797478
   1.8102540  84.4786122  40.8449221   1.1630455  85.1776071  40.7513697
   2.5803556  84.9122266  41.2125469   5.2181338  94.7434974  43.9199774
   5.0666845  94.5145526  43.0029858   5.2086018  95.7005575  43.9331119
   1.9866675  92.3166887  38.9046041   2.9158735  92.4678046  38.7315008
   1.5657705  92.4050907  38.0494687   2.3360222  95.7199154  34.0633416
   2.0010054  95.6799924  34.9591066   1.8364167  95.0543870  33.5903826
   6.9273545  97.7754096  41.9976256   6.8686091  97.0913316  41.3306839
   7.3293063  98.5173086  41.5456882   6.9290952  95.7393680  40.2290236
   6.0417731  95.4019602  40.3516634   7.4989503  95.0076712  40.4659001
   3.5578535  85.4461532  33.3488506   4.0547235  84.6931494  33.0289576
   2.7865517  85.4825849  32.7831715  11.4108293  91.1501898  34.9906797
  11.3998169  92.0326613  34.6200730  10.5425672  90.7973448  34.7961334
   2.9190789 100.2981967  39.3509637   3.6318761 100.9329431  39.2785539
   2.4280818 100.3945833  38.5349639   4.6408316  94.2033219  30.9226929
   3.7064595  94.3234682  30.7531633   4.8184985  93.3005686  30.6586939
   8.0280867  90.0450539  31.4576963   8.4941320  90.8778530  31.3837266
   8.4788368  89.5795520  32.1622222   6.0957099  96.3894360  28.4563115
   6.3716942  96.2750955  29.3656989   5.2261597  95.9911845  28.4175288
   5.9997530  82.4131126  35.4967865   5.0860610  82.6435352  35.6650072
   6.4290632  82.4969570  36.3481897   5.7703989  90.6021018  37.9967759
   5.1175439  90.8496925  37.3420211   6.1484369  89.7885156  37.6630236
   1.8191562  91.3440829  44.4833796   1.1432199  91.2434958  45.1536171
   2.6419196  91.1880042  44.9469793   0.5614345 102.6507756  38.7191412
   1.1132653 102.8139378  39.4840497   0.9020538 103.2412194  38.0471437
   5.4125219  97.4769014  44.5740066   5.9565123  98.0898972  44.0795021
   4.8312064  98.0348592  45.0907079   3.6982732 100.5989732  35.7055094
   3.5733871  99.7979471  35.1966039   4.3561823 101.0935925  35.2169064
   5.7617640  98.3998752  37.3334644   4.8147976  98.2804103  37.2612971
   6.1100413  97.5121250  37.4160905   2.7664074  98.1951468  33.5338996
   2.6189036  97.2668175  33.7146566   3.5917567  98.2171559  33.0496071
   6.3698195  99.0180027  34.6203869   7.2944743  98.8122888  34.4828320
   6.2013499  98.7696428  35.5293210   2.7625588  86.0489306  28.5271113
   2.9789202  86.9313943  28.2259942   2.2819655  85.6575519  27.7976755
   1.2147323  86.4314907  37.1975875   0.9565101  87.3531978  37.1960205
   0.6832363  86.0345342  37.8876339   6.1593512  99.5365694  29.9765960
   6.3330389  98.9712117  29.2239813   6.6522403 100.3366589  29.7945450
   1.6349278  82.5646858  33.5577038   1.6570975  82.6286191  32.6029017
   2.0517337  81.7251366  33.7517544  12.0132903  92.3002117  31.5956260
  12.4564049  91.5509442  31.1975383  11.1359413  92.2912253  31.2129992
   9.0460107  96.3032164  28.6050189   9.5711431  96.6419437  27.8799509
   8.9582460  95.3679179  28.4213324   0.7080156 100.2166238  40.7340066
   1.0167282  99.9715384  41.6062766   1.5055638 100.4212876  40.2458936
   8.7354013  96.9365068  43.9101387   7.9449557  96.9189207  43.3705887
   8.4987368  97.4753361  44.6650424   8.8551888  93.7857534  41.2234116
   8.9049893  93.6207542  42.1649639   8.7465812  92.9184793  40.8331997
   6.1455651  89.7688462  42.5393423   7.0465513  89.6294927  42.2477420
   6.2203625  89.9342917  43.4791600  10.3570085  96.2054476  41.4676137
  10.0654893  96.5684456  42.3039598   9.7442216  95.4921484  41.2889470
  11.5565767  93.7707355  33.9878708  12.3912659  94.2097159  34.1516268
  11.6924896  93.2946009  33.1686953   8.6057273  91.3287090  39.9356195
   9.0811395  91.5214737  39.1275047   7.6822839  91.3846276  39.6899579
   3.1837490  83.3634934  38.9012029   3.7019434  84.0995961  38.5758518
   2.8292623  83.6698927  39.7358788   3.4350084  79.7835216  34.4212926
   3.7151838  79.1158405  35.0473352   4.2200691  79.9764312  33.9087590
   7.3058942  88.2052850  38.1684501   8.2576365  88.3050948  38.1896725
   7.1362393  87.4131119  38.6782585   5.3273322  85.2908434  38.3543902
   4.7323254  85.5713446  37.6590391   5.0423019  85.7802334  39.1260643
   9.7847020  91.4258970  37.2826801   9.7523340  90.4874971  37.4686485
  10.3947644  91.5043007  36.5492626   9.9341509  88.2170013  37.3285084
   9.4180557  87.4328470  37.1415013  10.8181457  87.8888730  37.4931603
   7.5952236  81.9611029  33.2880897   7.3977057  81.6526117  34.1724229
   8.2051941  82.6872668  33.4178826  15.6023570  92.4874977  36.4232838
  16.3326958  92.2260265  36.9840541  14.9930515  91.7503699  36.4634905
  13.6838867  90.6282839  37.0207289  12.9572031  90.4938804  36.4123780
  13.2686154  90.9359668  37.8264007   1.5069044  94.3472769  44.7854662
   2.4272053  94.5251368  44.9794708   1.4718627  93.4028814  44.6334361
   1.4235334  82.7641889  29.4153131   0.6136062  82.4188974  29.7908377
   2.1119751  82.4549433  30.0040743   3.3525882  81.8419936  31.0377428
   3.9056921  82.2615389  31.6967451   3.5895969  80.9155684  31.0800384
   6.7304689  83.9520461  30.5456092   6.1503358  84.6105265  30.1634145
   6.4640622  83.1297806  30.1343510   5.1808256  83.3525519  32.7477413
   5.6808034  83.4642053  31.9391731   5.8243864  83.0486572  33.3878221
   5.5129567  86.1120551  29.6012440   4.6255422  86.3970202  29.3832635
   5.9283556  85.9514315  28.7539717   8.8644103  86.1367072  33.3166780
   9.6404494  86.6263525  33.5891397   8.1392238  86.5625127  33.7738649
  11.3016662  86.8494692  34.3740720  11.8961153  86.6090428  33.6634029
  11.3743246  86.1301822  35.0014257   5.4870591  91.6275087  29.8162731
   5.4305792  92.0843639  28.9770363   6.0398933  90.8665772  29.6385573
   9.2975397  87.4164819  30.6412850   9.0412331  87.0161455  31.4721058
   8.6728265  88.1308613  30.5162989  13.6087735  90.1560892  33.1484142
  13.0487293  90.2254082  33.9215704  13.0031238  89.9801877  32.4283638
   6.2205370  92.8179869  27.1115260   6.1654174  92.6524140  26.1703704
   5.5951426  93.5255901  27.2677449   3.5351278  95.1228780  46.4368823
   4.4042437  95.2969433  46.0755457   3.0558029  95.9423197  46.3144552
   3.3453615  78.9130754  30.9446515   2.5786011  78.3589241  31.0903197
   3.7564320  78.9852623  31.8060667  15.1943753 106.8317406  35.8414097
  15.8322163 106.7124154  35.1377437  15.0764596 107.7798250  35.9002049
  12.0033460 106.7844834  35.7775622  11.6651971 106.6685899  34.8896157
  12.8723228 106.3836000  35.7576628  12.4853243 107.9379686  41.7361827
  12.4741883 107.5432484  40.8642331  12.6473882 107.2045759  42.3295599
  14.7485022 104.5568860  32.9167305  15.5348111 104.1388283  32.5657722
  15.0123726 105.4614952  33.0848954  20.1493449 104.4944093  33.8200284
  20.8818621 103.9243310  34.0538113  19.3932805 104.1065694  34.2606789
  11.7669569 106.9171335  31.0163626  11.4027776 106.3901956  31.7276548
  12.6236684 106.5269804  30.8430112  17.6718869  98.2065668  38.2794892
  17.3402194  99.0761079  38.0556107  17.0764483  97.8901952  38.9588923
  17.5647533 102.9260754  35.3588242  16.6564410 102.8576162  35.0647003
  17.5135128 103.4032699  36.1870068  11.6388398 104.3450399  43.3023140
  10.8621732 104.9044319  43.2926004  12.2778961 104.8307182  43.8238010
  19.4309179 101.1277192  37.1366116  18.7883559 101.4209725  36.4905911
  18.9264107 101.0130112  37.9419313  17.0849343 104.8740365  27.8251976
  17.9967199 105.1067752  27.6499673  16.5758990 105.4577410  27.2627054
  11.7221180 104.2337600  38.8346825  12.5682375 104.6577013  38.9781474
  11.6619818 103.5771224  39.5285388  14.8720626 101.8941968  40.4927999
  14.6281558 102.6484029  39.9562274  15.1480556 102.2727316  41.3275246
  16.8259088 108.4380581  39.1705264  17.0375984 109.0812341  38.4939645
  16.7788837 107.6042897  38.7027194  14.4285317 101.0498401  36.0741837
  13.5669796 101.3479655  36.3658574  14.4547752 101.2668800  35.1422869
   8.6296134 104.3075501  43.6656417   7.9994795 104.9891782  43.8991814
   8.5232222 104.1958582  42.7209555  26.0310909 107.6591285  33.6912593
  25.2774618 107.0898683  33.5356598  26.1658451 107.6253949  34.6383228
   7.9076877  98.6096267  46.0281668   7.5143823  98.0562465  46.7029312
   8.7243017  98.9206845  46.4188185  10.8244838 100.0254146  43.6201924
  11.5654551 100.6261299  43.5406387  11.0562761  99.2831784  43.0619967
  14.7702001  96.0535249  37.8966206  14.4266270  96.9436890  37.8205317
  15.1380964  95.8636906  37.0335791  12.3199395 100.8893561  31.4623880
  11.4640991 100.5000411  31.2829518  12.7326347 100.9685521  30.6023665
  13.8498541  98.4239904  35.8615439  13.3463337  98.3870039  35.0483245
  14.1429148  99.3332647  35.9212096  10.0941427  98.5078634  34.8681621
  10.9594424  98.3121442  34.5087510  10.1618936  98.2788985  35.7950978
  19.7086558 108.7976214  28.3391815  18.9316001 108.4587374  27.8946977
  20.3878039 108.8028838  27.6646780  14.5238587 103.9170952  28.2298422
  14.2188722 104.2317101  29.0808565  15.4769029 103.9952372  28.2725755
  17.9477865 108.2710196  34.9958423  17.2901539 108.9609457  35.0838551
  18.7518264 108.6606628  35.3392409   7.7003746 100.7380842  32.2397988
   8.2747498 100.5156023  31.5071181   8.2874729 100.8069536  32.9926589
  16.7583324 106.6254568  33.0462364  17.2715205 107.2584560  33.5484074
  17.4084547 106.0255764  32.6805724  10.0026414  97.6122090  30.9673057
   9.3490826  97.2971108  30.3429672   9.9606888  96.9897831  31.6932880
  13.2364154 104.1004024  35.2920705  12.3186716 104.3218971  35.1342393
  13.6524298 104.1750334  34.4332412  14.0199202 105.4995440  30.4223385
  14.7671021 106.0116837  30.1130507  14.2890792 105.1779492  31.2827779
  16.4678039 102.5352556  32.4042174  15.7300796 102.0229942  32.7352417
  16.7204813 102.0952938  31.5925451  16.5689667  95.3128808  32.9983944
  16.8748543  94.4526171  32.7109859  17.2942271  95.9046428  32.7982938
  10.8410746 105.6082601  33.5060135  10.8959356 104.6556437  33.4302611
  10.0301948 105.7642040  33.9901433   8.7803106 104.2259661  31.2650514
   7.9670972 104.5253831  31.6715706   9.2762101 103.8315349  31.9824996
  14.3777318 104.6901485  40.0965408  14.7326706 104.9172958  40.9559873
  15.0249449 105.0219862  39.4742663  20.1075055 107.8119921  30.8014737
  19.9692954 108.0021517  29.8735926  19.7511274 108.5739304  31.2582788
   8.2717181 101.7978016  36.8811749   8.9116560 101.6566775  36.1834712
   7.4394712 101.5112530  36.5050351  20.1344435 109.8796448  35.8126008
  20.5680941 109.7871737  36.6609062  20.8476015 109.8553949  35.1746024
   5.2745798 101.7678341  31.6584735   5.5352615 102.6823674  31.5493896
   6.0962970 101.3002784  31.8081348   6.7470723 103.1816098  38.8283560
   7.4193776 102.9733461  38.1796209   5.9200509 102.9838184  38.3888792
  20.9959984 109.9220149  38.3458893  21.1895874 110.8265959  38.5918168
  20.8960602 109.4627568  39.1797478  12.6496295  99.8078039  40.8449221
  12.0024210 100.5067989  40.7513697  13.4197310 100.2414183  41.2125469
  12.8260429 107.6458804  38.9046041  13.7552489 107.7969964  38.7315008
  12.4051459 107.7342825  38.0494687   9.7780521 106.1678661  39.0769677
  10.4880139 105.5271853  39.0356295   9.7349829 106.4191556  39.9995857
   8.4909455 103.1543879  40.8965316   7.9546812 102.7034617  41.5486913
   7.9026163 103.2889787  40.1535781   4.2248576 102.2899886  37.9818311
   4.1406765 101.6825556  37.2468721   3.4031282 102.7808905  37.9827807
  14.3972290 100.7753450  33.3488506  14.8940989 100.0223412  33.0289576
  13.6259271 100.8117766  32.7831715  22.2502047 106.4793815  34.9906797
  22.2391923 107.3618531  34.6200730  21.3819427 106.1265366  34.7961334
  10.9807259 102.9170833  33.0760190  10.6105046 102.3641873  33.7641096
  11.4766351 102.3128966  32.5235190  18.8674622 105.3742456  31.4576963
  19.3335074 106.2070448  31.3837266  19.3182122 104.9087438  32.1622222
  16.8391285  97.7423043  35.4967865  15.9254364  97.9727270  35.6650072
  17.2684386  97.8261487  36.3481897  16.6097743 105.9312935  37.9967759
  15.9569193 106.1788843  37.3420211  16.9878123 105.1177073  37.6630236
  12.6585316 106.6732746  44.4833796  11.9825953 106.5726876  45.1536171
  13.4812950 106.5171960  44.9469793   6.3772592 100.3274824  39.3213296
   6.4413919 101.1889654  38.9090694   6.3139713  99.7148825  38.5885655
   5.8524865 102.3997956  42.9686331   6.4796904 102.0175033  43.5823855
   4.9952784 102.1812158  43.3342023   6.1584655 102.2830382  34.8832234
   5.4371240 102.8966350  34.7439707   6.9477910 102.8188147  34.8048880
   8.9610968  99.6184808  41.1572886   9.4845370  99.8647105  41.9199195
   8.7423301 100.4504843  40.7376023  10.1663513 100.5598503  38.8422556
   9.8260333  99.7606316  39.2443236   9.4602519 100.8600214  38.2699390
  10.8179985  97.6447816  37.2949879  11.6406054  97.1708294  37.1728770
  11.0618048  98.4238300  37.7948566  13.6019342 101.3781223  28.5271113
  13.8182957 102.2605861  28.2259942  13.1213409 100.9867437  27.7976755
   8.3418564 104.3366936  35.1041858   8.1963144 104.6507240  35.9966140
   7.8643767 104.9551837  34.5512757  10.2014947 101.3269484  35.1522748
  10.1876515 100.4310578  34.8155046  10.9187375 101.3340148  35.7861034
  12.0541077 101.7606825  37.1975875  11.7958855 102.6823895  37.1960205
  11.5226118 101.3637259  37.8876339   9.6051843 100.2083865  30.4210318
   9.7267754  99.2800511  30.6201205   9.3153885 100.2222551  29.5088633
  12.4743033  97.8938775  33.5577038  12.4964730  97.9578108  32.6029017
  12.8911092  97.0543284  33.7517544  22.8526657 107.6294035  31.5956260
  23.2957803 106.8801360  31.1975383  21.9753168 107.6204171  31.2129992
   9.0892922 101.7215862  44.6300250   9.1381078 102.5977985  44.2478020
   9.6315436 101.1793255  44.0571894  19.6945643 109.1149452  41.2234116
  19.7443648 108.9499459  42.1649639  19.5859566 108.2476711  40.8331997
  16.9849405 105.0980380  42.5393423  17.8859268 104.9586845  42.2477420
  17.0597380 105.2634835  43.4791600  11.3192210 102.4747235  41.3846609
  10.4495520 102.7680801  41.1129198  11.5551691 103.0587680  42.1053873
  22.3959522 109.0999273  33.9878708  23.2306413 109.5389077  34.1516268
  22.5318651 108.6237926  33.1686953  19.4451028 106.6579008  39.9356195
  19.9205149 106.8506654  39.1275047  18.5216593 106.7138194  39.6899579
  14.0231244  98.6926851  38.9012029  14.5413188  99.4287878  38.5758518
  13.6686377  98.9990845  39.7358788  14.2743838  95.1127134  34.4212926
  14.5545592  94.4450323  35.0473352  15.0594445  95.3056230  33.9087590
  18.1452697 103.5344768  38.1684501  19.0970120 103.6342866  38.1896725
  17.9756147 102.7423037  38.6782585  16.1667076 100.6200351  38.3543902
  15.5717008 100.9005364  37.6590391  15.8816773 101.1094252  39.1260643
  20.6240775 106.7550888  37.2826801  20.5917095 105.8166888  37.4686485
  21.2341398 106.8334924  36.5492626  20.7735263 103.5461931  37.3285084
  20.2574312 102.7620388  37.1415013  21.6575212 103.2180648  37.4931603
  18.4345990  97.2902947  33.2880897  18.2370811  96.9818035  34.1724229
  19.0445696  98.0164586  33.4178826  26.4417324 107.8166894  36.4232838
  27.1720713 107.5552183  36.9840541  25.8324270 107.0795616  36.4634905
  24.5232622 105.9574757  37.0207289  23.7965785 105.8230722  36.4123780
  24.1079908 106.2651586  37.8264007  12.2629088  98.0933807  29.4153131
  11.4529817  97.7480892  29.7908377  12.9513505  97.7841350  30.0040743
  14.1919637  97.1711854  31.0377428  14.7450675  97.5907307  31.6967451
  14.4289723  96.2447602  31.0800384  10.2152736 103.1598927  46.8180192
  10.1149463 104.1093284  46.7492283   9.9974278 102.8317166  45.9456262
  17.5698444  99.2812379  30.5456092  16.9897113  99.9397183  30.1634145
  17.3034376  98.4589723  30.1343510  16.0202010  98.6817436  32.7477413
  16.5201788  98.7933971  31.9391731  16.6637618  98.3778489  33.3878221
  16.3523322 101.4412469  29.6012440  15.4649177 101.7262120  29.3832635
  16.7677311 101.2806232  28.7539717  19.7037858 101.4658990  33.3166780
  20.4798248 101.9555443  33.5891397  18.9785992 101.8917044  33.7738649
  22.1410417 102.1786609  34.3740720  22.7354907 101.9382345  33.6634029
  22.2137000 101.4593740  35.0014257  16.3264346 106.9567005  29.8162731
  16.2699547 107.4135556  28.9770363  16.8792688 106.1957690  29.6385573
  20.1369151 102.7456737  30.6412850  19.8806086 102.3453373  31.4721058
  19.5122019 103.4600531  30.5162989  24.4481489 105.4852810  33.1484142
  23.8881047 105.5545999  33.9215704  23.8424993 105.3093795  32.4283638
  17.0599125 108.1471786  27.1115260  17.0047929 107.9816058  26.1703704
  16.4345180 108.8547819  27.2677449   1.8491640 103.3839851  40.9376682
   2.4950503 102.8738805  41.4263907   1.6408791 104.1208532  41.5120107
  10.3695250  97.6479895  26.6900578  10.3573920  98.5921735  26.8468849
  11.2618672  97.4650041  26.3960039  14.1847370  94.2422672  30.9446515
  13.4179766  93.6881159  31.0903197  14.5958075  94.3144541  31.8060667
   6.1889131 100.5307468  45.0351696   7.0520592 100.1744273  45.2455021
   5.6154541 100.1921363  45.7227100  25.6095756 111.3827166  37.8966206
  25.2660025 112.2728808  37.8205317  25.9774718 111.1928824  37.0335791
  27.4083421 110.6420726  32.9983944  27.7142298 109.7818089  32.7109859
  28.1336026 111.2338346  32.7982938  25.1137593 110.4419052  34.4212926
  25.3939347 109.7742241  35.0473352  25.8988200 110.6348147  33.9087590
  29.2739745 112.6194864  33.2880897  29.0764566 112.3109953  34.1724229
  29.8839450 113.3456503  33.4178826  25.0241124 109.5714590  30.9446515
  24.2573520 109.0173076  31.0903197  25.4351829 109.6436458  31.8060667
   4.3523402  54.0069572  20.4157900   3.5987110  53.4376970  20.2601904
   4.4870943  53.9732236  21.3628535   0.7172014  55.4477560  20.7124014
   1.5518906  55.8867364  20.8761575   0.8531143  54.9716213  19.8932260
   4.7629817  54.1645182  23.1478144   5.4933205  53.9030470  23.7085847
   4.1536762  53.4273904  23.1880212   2.8445114  52.3053044  23.7452595
   2.1178277  52.1709009  23.1369087   2.4292401  52.6129873  24.5509313
   0.4622909  48.5264897  21.0986027   1.0567400  48.2860632  20.3879335
   0.5349492  47.8072027  21.7259563   2.7693982  51.8331097  19.8729448
   2.2093540  51.9024287  20.6461010   2.1637485  51.6572082  19.1528944
   4.3550000  68.5087611  22.5659404   4.9928410  68.3894359  21.8622744
   4.2370843  69.4568455  22.6247356   1.1639706  68.4615039  22.5020929
   0.8258218  68.3456104  21.6141463   2.0329474  68.0606204  22.4821935
   1.6459489  69.6149891  28.4607134   1.6348130  69.2202689  27.5887638
   1.8080129  68.8815964  29.0540906   3.9091268  66.2339065  19.6412612
   4.6954358  65.8158488  19.2903029   4.1729973  67.1385157  19.8094260
   9.3099696  66.1714298  20.5445590  10.0424868  65.6013515  20.7783420
   8.5539051  65.7835899  20.9852096   0.9275815  68.5941540  17.7408933
   0.5634023  68.0672161  18.4521854   1.7842931  68.2040009  17.5675418
   6.8325116  59.8835872  25.0040199   6.5008441  60.7531283  24.7801414
   6.2370729  59.5672156  25.6834229   3.3256635  72.0848418  24.4036112
   3.0257359  72.9873457  24.2951919   2.9807695  71.8180602  25.2557265
   6.7253779  64.6030959  22.0833549   5.8170657  64.5346367  21.7892310
   6.6741375  65.0802904  22.9115375   8.5915426  62.8047397  23.8611423
   7.9489806  63.0979930  23.2151218   8.0870354  62.6900317  24.6664620
   6.2455589  66.5510570  14.5497282   7.1573445  66.7837957  14.3744980
   5.7365236  67.1347614  13.9872361   4.5296357  70.9735198  28.1858575
   4.9379713  70.5317609  27.4413207   3.8073619  70.3987826  28.4392768
   0.8827427  65.9107805  25.5592132   1.7288622  66.3347218  25.7026781
   0.8226065  65.2541429  26.2530695   4.8525172  71.5336389  21.9410864
   4.2234034  71.6982103  21.2386932   4.4650834  71.9477998  22.7121828
   8.7314404  72.4690827  19.2955227   8.0465442  72.8489728  18.7452261
   8.8158253  73.0786153  20.0287175   4.0326872  63.5712173  27.2173305
   3.7887804  64.3254234  26.6807581   4.3086803  63.9497521  28.0520552
   5.9865335  70.1150786  25.8950571   6.1982230  70.7582545  25.2184952
   5.9395083  69.2813102  25.4272501   3.5891564  62.7268606  22.7987143
   2.7276043  63.0249860  23.0903881   3.6153999  62.9439005  21.8668176
   7.1011163  72.9922741  24.0672928   7.9228607  72.5902928  23.7855610
   7.0973566  72.8890975  25.0189044  15.1917156  69.3361489  20.4157900
  14.4380865  68.7668888  20.2601904  15.3264697  69.3024154  21.3628535
   2.2084261  74.8298458  30.2212961   1.7648115  74.0434837  29.9033866
   2.8701474  75.0177609  29.5556852   4.3065499  75.1101258  28.2494363
   4.2883974  75.9310139  27.7574632   5.2285419  74.9855333  28.4744504
   3.9308248  57.7305454  24.6211513   3.5872517  58.6207095  24.5450623
   4.2987210  57.5407111  23.7581098   1.4805642  62.5663766  18.1869186
   0.6247238  62.1770616  18.0074825   1.8932593  62.6455726  17.3268972
   3.0104788  60.1010109  22.5860746   2.5069584  60.0640244  21.7728551
   3.3035395  61.0102852  22.6457403   8.8692805  70.4746419  15.0637121
   8.0922247  70.1357579  14.6192283   9.5484286  70.4799043  14.3892086
   3.6844834  65.5941157  14.9543729   3.3794969  65.9087306  15.8053872
   4.6375276  65.6722577  14.9971062   7.1084112  69.9480401  21.7203729
   6.4507786  70.6379662  21.8083858   7.9124511  70.3376833  22.0637716
   5.9189570  68.3024773  19.7707671   6.4321452  68.9354765  20.2729381
   6.5690794  67.7025969  19.4051031   2.3970401  65.7774229  22.0166011
   1.4792963  65.9989176  21.8587700   2.8130545  65.8520539  21.1577719
   3.1805449  67.1765645  17.1468692   3.9277268  67.6887042  16.8375814
   3.4497039  66.8549697  18.0073085   6.6851367  73.2830775  17.8986814
   6.2313694  72.4421685  17.9552004   6.0545333  73.9192173  18.2361594
   5.6284286  64.2122761  19.1287481   4.8907043  63.7000147  19.4597724
   5.8811060  63.7723142  18.3170758   5.1284306  75.1207271  18.8336632
   5.4207280  75.6812329  18.1148997   5.6382926  75.4135832  19.5889791
   5.7295913  56.9899013  19.7229250   6.0354790  56.1296376  19.4355165
   6.4548518  57.5816633  19.5228244   3.5383565  66.3671690  26.8210714
   3.8932953  66.5943163  27.6805180   4.1855696  66.6990067  26.1987969
   9.2681302  69.4890126  17.5260043   9.1299200  69.6791722  16.5981232
   8.9117521  70.2509509  17.9828094   9.2950681  71.5566653  22.5371315
   9.7287188  71.4641942  23.3854369  10.0082262  71.5324153  21.8991331
   3.0278576  75.1568747  24.0704415   3.0815599  75.7259683  24.8382131
   2.1593358  75.3270632  23.7058452  10.1566231  71.5990354  25.0704200
  10.3502121  72.5036164  25.3163475  10.0566849  71.1397773  25.9042785
   1.8102542  61.4848244  27.5694527   1.1630457  62.1838194  27.4759004
   2.5803557  61.9184388  27.9370776   5.2181340  71.7497096  30.6445081
   5.0666846  71.5207648  29.7275164   5.2086019  72.7067698  30.6576426
   1.9866676  69.3229009  25.6291347   2.9158736  69.4740169  25.4560314
   1.5657706  69.4113030  24.7739994   2.3360223  72.7261276  20.7878723
   2.0010056  72.6862046  21.6836372   1.8364169  72.0605992  20.3149133
   6.9273546  74.7816219  28.7221563   6.8686092  74.0975439  28.0552146
   7.3293065  75.5235209  28.2702189   6.9290953  72.7455803  26.9535542
   6.0417732  72.4081725  27.0761941   7.4989505  72.0138834  27.1904308
   3.5578537  62.4523655  20.0733812   4.0547236  61.6993617  19.7534883
   2.7865518  62.4887971  19.5077022  11.4108294  68.1564020  21.7152104
  11.3998170  69.0388736  21.3446037  10.5425673  67.8035571  21.5206641
   2.9190790  77.3044089  26.0754944   3.6318763  77.9391554  26.0030846
   2.4280819  77.4007955  25.2594946   4.6408317  71.2095342  17.6472236
   3.7064596  71.3296804  17.4776940   4.8184986  70.3067809  17.3832246
   8.0280869  67.0512661  18.1822270   8.4941321  67.8840653  18.1082573
   8.4788369  66.5857643  18.8867528   6.0957100  73.3956483  15.1808422
   6.3716944  73.2813077  16.0902296   5.2261598  72.9973967  15.1420595
   5.9997531  59.4193248  22.2213171   5.0860611  59.6497475  22.3895378
   6.4290633  59.5031692  23.0727204   5.7703990  67.6083140  24.7213065
   5.1175440  67.8559048  24.0665518   6.1484370  66.7947278  24.3875543
   1.8191563  68.3502951  31.2079102   1.1432200  68.2497081  31.8781478
   2.6419197  68.1942165  31.6715100   0.5614346  79.6569879  25.4436718
   1.1132654  79.8201500  26.2085804   0.9020539  80.2474317  24.7716743
   5.4125220  74.4831136  31.2985373   5.9565124  75.0961094  30.8040328
   4.8312065  75.0410715  31.8152386   3.6982733  77.6051854  22.4300401
   3.5733873  76.8041594  21.9211346   4.3561824  78.0998048  21.9414370
   5.7617641  75.4060874  24.0579951   4.8147977  75.2866225  23.9858277
   6.1100415  74.5183372  24.1406212   2.7664075  75.2013591  20.2584303
   2.6189037  74.2730298  20.4391873   3.5917568  75.2233681  19.7741378
   6.3698197  76.0242149  21.3449176   7.2944744  75.8185011  21.2073627
   6.2013500  75.7758550  22.2538517   2.7625589  63.0551428  15.2516420
   2.9789203  63.9376066  14.9505248   2.2819656  62.6637642  14.5222062
   1.2147324  63.4377030  23.9221182   0.9565102  64.3594100  23.9205512
   0.6832364  63.0407464  24.6121646   6.1593513  76.5427817  16.7011267
   6.3330390  75.9774239  15.9485120   6.6522404  77.3428712  16.5190757
   1.6349280  59.5708980  20.2822344   1.6570976  59.6348313  19.3274324
   2.0517339  58.7313489  20.4762850  12.0132904  69.3064240  18.3201567
  12.4564050  68.5571565  17.9220690  11.1359414  69.2974376  17.9375299
   9.0460108  73.3094287  15.3295496   9.5711433  73.6481559  14.6044816
   8.9582461  72.3741302  15.1458631   0.7080157  77.2228360  27.4585373
   1.0167284  76.9777507  28.3308072   1.5055639  77.4274999  26.9704243
   8.7354014  73.9427190  30.6346694   7.9449558  73.9251329  30.0951193
   8.4987369  74.4815484  31.3895731   8.8551890  70.7919657  27.9479423
   8.9049894  70.6269664  28.8894945   8.7465813  69.9246916  27.5577303
   6.1455652  66.7750585  29.2638729   7.0465515  66.6357050  28.9722727
   6.2203626  66.9405040  30.2036907  10.3570086  73.2116598  28.1921444
  10.0654895  73.5746579  29.0284905   9.7442218  72.4983606  28.0134776
  11.5565769  70.7769478  20.7124014  12.3912660  71.2159282  20.8761575
  11.6924897  70.3008131  19.8932260   8.6057275  68.3349213  26.6601502
   9.0811396  68.5276859  25.8520353   7.6822840  68.3908399  26.4144886
   3.1837491  60.3697056  25.6257336   3.7019435  61.1058083  25.3003825
   2.8292624  60.6761050  26.4604095   3.4350085  56.7897339  21.1458233
   3.7151839  56.1220528  21.7718659   4.2200692  56.9826435  20.6332896
   7.3058944  65.2114973  24.8929808   8.2576366  65.3113071  24.9142032
   7.1362394  64.4193241  25.4027892   5.3273323  62.2970556  25.0789209
   4.7323255  62.5775569  24.3835697   5.0423020  62.7864457  25.8505950
   9.7847021  68.4321093  24.0072107   9.7523341  67.4937093  24.1931791
  10.3947645  68.5105129  23.2737932   9.9341510  65.2232136  24.0530391
   9.4180559  64.4390593  23.8660319  10.8181458  64.8950853  24.2176910
   7.5952237  58.9673152  20.0126203   7.3977058  58.6588240  20.8969535
   8.2051942  59.6934790  20.1424133  15.6023571  69.4937099  23.1478144
  16.3326960  69.2322388  23.7085847  14.9930517  68.7565821  23.1880212
  13.6838868  67.6344962  23.7452595  12.9572032  67.5000927  23.1369087
  13.2686155  67.9421791  24.5509313   1.5069045  71.3534892  31.5099968
   2.4272054  71.5313491  31.7040015   1.4718628  70.4090937  31.3579668
   1.4235335  59.7704012  16.1398438   0.6136063  59.4251097  16.5153684
   2.1119752  59.4611555  16.7286049   3.3525883  58.8482058  17.7622735
   3.9056922  59.2677512  18.4212758   3.5895970  57.9217807  17.8045691
   6.7304690  60.9582584  17.2701399   6.1503360  61.6167388  16.8879451
   6.4640623  60.1359928  16.8588816   5.1808257  60.3587641  19.4722719
   5.6808035  60.4704176  18.6637038   5.8243865  60.0548694  20.1123528
   5.5129569  63.1182674  16.3257747   4.6255424  63.4032325  16.1077942
   5.9283558  62.9576437  15.4785024   8.8644105  63.1429195  20.0412086
   9.6404495  63.6325647  20.3136703   8.1392239  63.5687249  20.4983956
  11.3016663  63.8556814  21.0986027  11.8961154  63.6152550  20.3879335
  11.3743247  63.1363945  21.7259563   5.4870592  68.6337210  16.5408037
   5.4305794  69.0905761  15.7015670   6.0398935  67.8727895  16.3630880
   9.2975398  64.4226942  17.3658157   9.0412332  64.0223577  18.1966364
   8.6728266  65.1370736  17.2408296  13.6087736  67.1623015  19.8729448
  13.0487294  67.2316204  20.6461010  13.0031239  66.9864000  19.1528944
   6.2205372  69.8241991  13.8360566   6.1654175  69.6586263  12.8949011
   5.5951427  70.5318024  13.9922756   3.5351279  72.1290903  33.1614129
   4.4042438  72.3031555  32.8000764   3.0558030  72.9485320  33.0389859
   3.3453616  55.9192877  17.6691822   2.5786012  55.3651364  17.8148504
   3.7564321  55.9914746  18.5305973  15.1943754  83.8379529  22.5659404
  15.8322164  83.7186276  21.8622744  15.0764597  84.7860373  22.6247356
  12.0033461  83.7906957  22.5020929  11.6651972  83.6748022  21.6141463
  12.8723229  83.3898122  22.4821935  12.4853244  84.9441809  28.4607134
  12.4741885  84.5494607  27.5887638  12.6473883  84.2107881  29.0540906
   9.2060505  87.7278921  27.4086318   8.9150371  88.6324551  27.2932984
   9.8417489  87.7695448  28.1230388  10.1316712  85.1055769  23.9987678
  10.7280284  84.8811792  23.2844641  10.1891683  84.3640515  24.6013126
  14.7485023  81.5630983  19.6412612  15.5348112  81.1450406  19.2903029
  15.0123727  82.4677075  19.8094260  20.1493450  81.5006216  20.5445590
  20.8818622  80.9305433  20.7783420  19.3932806  81.1127816  20.9852096
  11.7669570  83.9233458  17.7408933  11.4027777  83.3964078  18.4521854
  12.6236686  83.5331927  17.5675418  17.6718870  75.2127790  25.0040199
  17.3402195  76.0823201  24.7801414  17.0764484  74.8964074  25.6834229
  14.1650390  87.4140336  24.4036112  13.8651113  88.3165375  24.2951919
  13.8201450  87.1472519  25.2557265   7.6162871  83.8654133  20.4372816
   6.6913368  83.7330347  20.6450508   7.8647285  84.6448352  20.9342759
  17.5647534  79.9322876  22.0833549  16.6564411  79.8638285  21.7892310
  17.5135130  80.4094821  22.9115375  11.6388400  81.3512522  30.0268446
  10.8621734  81.9106442  30.0171311  12.2778963  81.8369305  30.5483316
  19.4309180  78.1339315  23.8611423  18.7883560  78.4271848  23.2151218
  18.9264109  78.0192235  24.6664620  17.0849344  81.8802488  14.5497282
  17.9967200  82.1129875  14.3744980  16.5758991  82.4639532  13.9872361
   9.8934772  84.1597975  29.5886413  10.6349456  84.6983019  29.3121237
   9.1871757  84.7864264  29.7457965  15.3690111  86.3027116  28.1858575
  15.7773468  85.8609526  27.4413207  14.6467373  85.7279743  28.4392768
  11.7221182  81.2399722  25.5592132  12.5682377  81.6639136  25.7026781
  11.6619819  80.5833347  26.2530695  15.6918926  86.8628306  21.9410864
  15.0627789  87.0274020  21.2386932  15.3044588  87.2769916  22.7121828
  19.5708158  87.7982744  19.2955227  18.8859196  88.1781646  18.7452261
  19.6552007  88.4078071  20.0287175  14.8720627  78.9004091  27.2173305
  14.6281559  79.6546151  26.6807581  15.1480557  79.2789438  28.0520552
  16.8259090  85.4442703  25.8950571  17.0375985  86.0874463  25.2184952
  16.7788838  84.6105020  25.4272501  14.4285319  78.0560524  22.7987143
  13.5669798  78.3541777  23.0903881  14.4547753  78.2730923  21.8668176
  11.2446888  86.6002714  19.2060949  11.7085234  86.8790417  18.4165571
  10.9803686  85.6986159  19.0234040   8.1370969  86.1474196  22.1440712
   8.7072326  86.5761464  21.5058197   8.7279081  85.8656781  22.8424898
   8.6296136  81.3137623  30.3901723   7.9994796  81.9953904  30.6237120
   8.5232223  81.2020705  29.4454862  17.9404918  88.3214659  24.0672928
  18.7622361  87.9194846  23.7855610  17.9367320  88.2182893  25.0189044
  11.7061521  87.8698702  26.2233639  11.7705954  88.3319109  27.0591811
  10.9972445  87.2396067  26.3515949   2.2078811  81.2339910  23.7482638
   2.4586849  82.1186920  24.0140214   2.7438359  81.0544511  22.9757730
  26.0310911  84.6653407  20.4157900  25.2774619  84.0960805  20.2601904
  26.1658452  84.6316072  21.3628535   7.9076878  75.6158389  32.7526974
   7.5143824  75.0624588  33.4274619   8.7243019  75.9268968  33.1433492
  10.8244839  77.0316268  30.3447231  11.5654553  77.6323422  30.2651693
  11.0562762  76.2893906  29.7865274   5.9686177  82.2172636  28.6225461
   5.8539692  81.3157893  28.9232560   5.1130695  82.4636332  28.2710277
  13.0478015  90.1590376  30.2212961  12.6041869  89.3726755  29.9033866
  13.7095229  90.3469526  29.5556852   7.8065136  91.6886178  24.7473640
   8.3572561  91.5603241  23.9750634   6.9676612  91.9881067  24.3968533
  15.1459253  90.4393176  28.2494363  15.1277728  91.2602057  27.7574632
  16.0679173  90.3147251  28.4744504  11.6032307  87.9537305  29.0917871
  12.1360644  87.1925594  28.8617179  11.0746388  87.6610957  29.8342025
  14.7702002  73.0597371  24.6211513  14.4266272  73.9499013  24.5450623
  15.1380965  72.8699029  23.7581098  12.3199396  77.8955683  18.1869186
  11.4640992  77.5062534  18.0074825  12.7326348  77.9747644  17.3268972
  13.8498543  75.4302026  22.5860746  13.3463338  75.3932162  21.7728551
  14.1429150  76.3394769  22.6457403  10.0941429  75.5140756  21.5926928
  10.9594425  75.3183565  21.2332817  10.1618937  75.2851108  22.5196284
  19.7086559  85.8038337  15.0637121  18.9316002  85.4649497  14.6192283
  20.3878040  85.8090960  14.3892086  14.5238588  80.9233075  14.9543729
  14.2188724  81.2379224  15.8053872  15.4769030  81.0014494  14.9971062
  17.9477866  85.2772318  21.7203729  17.2901540  85.9671580  21.8083858
  18.7518265  85.6668750  22.0637716   7.7003748  77.7442964  18.9643294
   8.2747500  77.5218146  18.2316487   8.2874730  77.8131659  19.7171896
  16.7583325  83.6316691  19.7707671  17.2715207  84.2646683  20.2729381
  17.4084549  83.0317887  19.4051031  10.0026415  74.6184213  17.6918364
   9.3490828  74.3033230  17.0674979   9.9606889  73.9959953  18.4178187
  13.2364156  81.1066147  22.0166011  12.3186717  81.3281094  21.8587700
  13.6524299  81.1812457  21.1577719  14.0199203  82.5057562  17.1468692
  14.7671022  83.0178959  16.8375814  14.2890793  82.1841615  18.0073085
  17.5245121  88.6122692  17.8986814  17.0707448  87.7713602  17.9552004
  16.8939088  89.2484091  18.2361594  16.4678041  79.5414678  19.1287481
  15.7300797  79.0292065  19.4597724  16.7204814  79.1015060  18.3170758
  15.9678060  90.4499189  18.8336632  16.2601035  91.0104246  18.1148997
  16.4776681  90.7427750  19.5889791  16.5689668  72.3190931  19.7229250
  16.8748545  71.4588294  19.4355165  17.2942273  72.9108551  19.5228244
  10.8410748  82.6144724  20.2305441  10.8959357  81.6618560  20.1547918
  10.0301950  82.7704163  20.7146740   8.7803108  81.2321783  17.9895820
   7.9670973  81.5315954  18.3961012   9.2762102  80.8377472  18.7070303
  14.3777319  81.6963608  26.8210714  14.7326707  81.9235081  27.6805180
  15.0249450  82.0281985  26.1987969  20.1075056  84.8182044  17.5260043
  19.9692955  85.0083640  16.5981232  19.7511275  85.5801426  17.9828094
   8.2717182  78.8040139  23.6057055   8.9116562  78.6628898  22.9080019
   7.4394713  78.5174652  23.2295657  20.1344436  86.8858571  22.5371315
  20.5680942  86.7933860  23.3854369  20.8476017  86.8616071  21.8991331
  13.8672331  90.4860665  24.0704415  13.9209353  91.0551601  24.8382131
  12.9987112  90.6562550  23.7058452   5.2745799  78.7740464  18.3830042
   5.5352616  79.6885797  18.2739202   6.0962971  78.3064906  18.5326655
   6.7470724  80.1878221  25.5528867   7.4193778  79.9795583  24.9041515
   5.9200511  79.9900307  25.1134099  20.9959985  86.9282271  25.0704200
  21.1895875  87.8328082  25.3163475  20.8960604  86.4689690  25.9042785
  12.6496296  76.8140162  27.5694527  12.0024211  77.5130112  27.4759004
  13.4197312  77.2476306  27.9370776  16.0575094  87.0789014  30.6445081
  15.9060600  86.8499566  29.7275164  16.0479774  88.0359616  30.6576426
  12.8260430  84.6520927  25.6291347  13.7552490  84.8032086  25.4560314
  12.4051460  84.7404948  24.7739994  11.6248762  88.6771591  23.3989885
  11.4859848  88.3090376  24.2715823  10.8363358  89.1919231  23.2273843
  13.1753977  88.0553194  20.7878723  12.8403810  88.0153964  21.6836372
  12.6757923  87.3897910  20.3149133   7.1498221  83.4620824  26.3131304
   7.0118019  82.7301063  26.9142843   8.0603145  83.3729724  26.0315491
   9.7780522  83.1740783  25.8014983  10.4880141  82.5333975  25.7601602
   9.7349830  83.4253678  26.7241164  17.7667301  90.1108137  28.7221563
  17.7079847  89.4267357  28.0552146  18.1686819  90.8527127  28.2702189
   8.4909456  80.1606001  27.6210623   7.9546813  79.7096740  28.2732219
   7.9026164  80.2951910  26.8781087  17.7684708  88.0747721  26.9535542
  16.8811487  87.7373642  27.0761941  18.3383259  87.3430752  27.1904308
   4.2248577  79.2962009  24.7063617   4.1406766  78.6887678  23.9714027
   3.4031284  79.7871027  24.7073114  11.2985861  92.7349173  23.9196785
  11.2256033  93.5404144  24.4316090  10.8563254  92.9341139  23.0944807
  14.3972291  77.7815572  20.0733812  14.8940991  77.0285535  19.7534883
  13.6259273  77.8179889  19.5077022  22.2502049  83.4855938  21.7152104
  22.2391925  84.3680653  21.3446037  21.3819428  83.1327489  21.5206641
  13.7584545  92.6336007  26.0754944  14.4712517  93.2683472  26.0030846
  13.2674574  92.7299873  25.2594946  15.4802072  86.5387260  17.6472236
  14.5458351  86.6588722  17.4776940  15.6578740  85.6359726  17.3832246
  10.9807260  79.9232955  19.8005497  10.6105047  79.3703996  20.4886403
  11.4766352  79.3191089  19.2480497  18.8674623  82.3804579  18.1822270
  19.3335075  83.2132570  18.1082573  19.3182124  81.9149560  18.8867528
   8.8096458  90.3830450  26.8960515   9.5105918  91.0166933  27.0489909
   8.3391573  90.7245182  26.1356154  16.9350854  88.7248400  15.1808422
  17.2110698  88.6104995  16.0902296  16.0655353  88.3265885  15.1420595
  16.8391286  74.7485166  22.2213171  15.9254366  74.9789393  22.3895378
  17.2684387  74.8323610  23.0727204  16.6097744  82.9375058  24.7213065
  15.9569195  83.1850965  24.0665518  16.9878124  82.1239196  24.3875543
  12.6585317  83.6794869  31.2079102  11.9825954  83.5788998  31.8781478
  13.4812951  83.5234083  31.6715100  11.4008100  94.9861796  25.4436718
  11.9526408  95.1493418  26.2085804  11.7414294  95.5766234  24.7716743
   6.3772594  77.3336946  26.0458603   6.4413920  78.1951777  25.6336001
   6.3139714  76.7210948  25.3130962   5.8524866  79.4060079  29.6931637
   6.4796905  79.0237156  30.3069162   4.9952785  79.1874281  30.0587330
  16.2518975  89.8123054  31.2985373  16.7958879  90.4253012  30.8040328
  15.6705819  90.3702632  31.8152386  14.5376488  92.9343772  22.4300401
  14.4127627  92.1333512  21.9211346  15.1955579  93.4289965  21.9414370
   6.1584656  79.2892504  21.6077541   5.4371242  79.9028472  21.4685014
   6.9477912  79.8250269  21.5294187  16.6011396  90.7352792  24.0579951
  15.6541731  90.6158143  23.9858277  16.9494169  89.8475290  24.1406212
   8.9610969  76.6246931  27.8818193   9.4845371  76.8709227  28.6444502
   8.7423303  77.4566966  27.4621330  13.6057829  90.5305508  20.2584303
  13.4582792  89.6022216  20.4391873  14.4311323  90.5525599  19.7741378
  17.2091951  91.3534067  21.3449176  18.1338499  91.1476928  21.2073627
  17.0407254  91.1050468  22.2538517  10.1663514  77.5660626  25.5667863
   9.8260335  76.7668439  25.9688543   9.4602521  77.8662337  24.9944696
  10.8179986  74.6509938  24.0195186  11.6406056  74.1770417  23.8974076
  11.0618050  75.4300422  24.5193872  13.6019344  78.3843346  15.2516420
  13.8182958  79.2667984  14.9505248  13.1213411  77.9929559  14.5222062
   8.3418565  81.3429059  21.8287165   8.1963146  81.6569362  22.7211446
   7.8643769  81.9613959  21.2758063  10.2014948  78.3331607  21.8768054
  10.1876517  77.4372700  21.5400352  10.9187376  78.3402271  22.5106340
  12.0541079  78.7668947  23.9221182  11.7958856  79.6886018  23.9205512
  11.5226119  78.3699382  24.6121646  16.9987267  91.8719734  16.7011267
  17.1724145  91.3066157  15.9485120  17.4916159  92.6720629  16.5190757
   2.8164227  83.8834403  24.7674826   2.2717695  84.6594211  24.8995100
   3.6943577  84.2305208  24.6093947   9.6051844  77.2145987  17.1455624
   9.7267755  76.2862634  17.3446512   9.3153886  77.2284673  16.2333940
  12.4743034  74.9000898  20.2822344  12.4964731  74.9640231  19.3274324
  12.8911093  74.0605406  20.4762850  22.8526658  84.6356157  18.3201567
  23.2957805  83.8863483  17.9220690  21.9753169  84.6266294  17.9375299
   3.6030249  83.0104300  27.6604983   2.8611985  83.1586935  28.2469613
   3.2822993  83.2712565  26.7971732  19.8853863  88.6386204  15.3295496
  20.4105187  88.9773477  14.6044816  19.7976215  87.7033220  15.1458631
  11.5473912  92.5520278  27.4585373  11.8561038  92.3069425  28.3308072
  12.3449394  92.7566916  26.9704243   9.0892923  78.7277985  31.3545557
   9.1381079  79.6040108  30.9723327   9.6315438  78.1855378  30.7817200
  19.5747769  89.2719108  30.6346694  18.7843313  89.2543247  30.0951193
  19.3381124  89.8107402  31.3895731  19.6945644  86.1211574  27.9479423
  19.7443649  85.9561582  28.8894945  19.5859567  85.2538833  27.5577303
  16.9849406  82.1042502  29.2638729  17.8859269  81.9648967  28.9722727
  17.0597381  82.2696957  30.2036907  11.3192212  79.4809357  28.1091916
  10.4495521  79.7742923  27.8374504  11.5551692  80.0649802  28.8299179
  21.1963841  88.5408516  28.1921444  20.9048649  88.9038496  29.0284905
  20.5835972  87.8275524  28.0134776  22.3959523  86.1061396  20.7124014
  23.2306415  86.5451200  20.8761575  22.5318652  85.6300049  19.8932260
  19.4451029  83.6641130  26.6601502  19.9205151  83.8568777  25.8520353
  18.5216594  83.7200316  26.4144886  14.0231246  75.6988974  25.6257336
  14.5413189  76.4350001  25.3003825  13.6686378  76.0052967  26.4604095
  14.2743840  72.1189257  21.1458233  14.5545594  71.4512446  21.7718659
  15.0594447  72.3118352  20.6332896  18.1452698  80.5406891  24.8929808
  19.0970121  80.6404988  24.9142032  17.9756149  79.7485159  25.4027892
  16.1667078  77.6262474  25.0789209  15.5717010  77.9067486  24.3835697
  15.8816774  78.1156375  25.8505950  20.6240776  83.7613010  24.0072107
  20.5917096  82.8229011  24.1931791  21.2341400  83.8397047  23.2737932
  20.7735264  80.5524054  24.0530391  20.2574313  79.7682510  23.8660319
  21.6575213  80.2242770  24.2176910  18.4345991  74.2965069  20.0126203
  18.2370812  73.9880157  20.8969535  19.0445697  75.0226708  20.1424133
  26.4417326  84.8229017  23.1478144  27.1720714  84.5614305  23.7085847
  25.8324271  84.0857739  23.1880212  24.5232623  82.9636880  23.7452595
  23.7965786  82.8292845  23.1369087  24.1079910  83.2713708  24.5509313
  12.3462799  86.6826809  31.5099968  13.2665809  86.8605408  31.7040015
  12.3112382  85.7382855  31.3579668   5.3424872  84.5927844  24.1522750
   5.5610882  85.5244952  24.1710783   5.7550646  84.2335818  24.9377553
  12.2629090  75.0995929  16.1398438  11.4529818  74.7543014  16.5153684
  12.9513507  74.7903473  16.7286049  14.1919638  74.1773976  17.7622735
  14.7450677  74.5969430  18.4212758  14.4289724  73.2509724  17.8045691
  10.2152737  80.1661050  33.5425498  10.1149464  81.1155407  33.4737590
   9.9974279  79.8379289  32.6701569  17.5698445  76.2874501  17.2701399
  16.9897114  76.9459305  16.8879451  17.3034378  75.4651846  16.8588816
  16.0202011  75.6879559  19.4722719  16.5201790  75.7996094  18.6637038
  16.6637619  75.3840612  20.1123528  10.0784007  83.5958189  32.3590560
   9.5951089  84.3958549  32.5654449  10.1644946  83.6066133  31.4058004
   6.0057345  87.4862723  24.3958994   6.9600598  87.4546666  24.3288925
   5.8069868  87.0253347  25.2109220   6.5956727  86.0563839  26.9629792
   7.4149616  86.5507918  26.9864629   6.8693535  85.1395808  26.9347359
  16.3523323  78.4474592  16.3257747  15.4649178  78.7324242  16.1077942
  16.7677312  78.2868355  15.4785024  19.7037859  78.4721113  20.0412086
  20.4798249  78.9617565  20.3136703  18.9785993  78.8979167  20.4983956
  22.1410418  79.1848732  21.0986027  22.7354909  78.9444468  20.3879335
  22.2137001  78.4655862  21.7259563  16.3264347  83.9629128  16.5408037
  16.2699548  84.4197679  15.7015670  16.8792689  83.2019812  16.3630880
  20.1369153  79.7518859  17.3658157  19.8806087  79.3515495  18.1966364
  19.5122021  80.4662653  17.2408296  24.4481491  82.4914933  19.8729448
  23.8881049  82.5608122  20.6461010  23.8424994  82.3155917  19.1528944
  17.0599126  85.1533909  13.8360566  17.0047930  84.9878180  12.8949011
  16.4345181  85.8609942  13.9922756   1.8491641  80.3901973  27.6621989
   2.4950505  79.8800927  28.1509214   1.6408792  81.1270655  28.2365414
  14.3745033  87.4582821  33.1614129  15.2436193  87.6323473  32.8000764
  13.8951785  88.2777238  33.0389859  10.3695252  74.6542018  13.4145885
  10.3573921  75.5983858  13.5714156  11.2618673  74.4712163  13.1205346
   8.5431213  94.5779922  24.8403563   9.4458460  94.6103532  25.1570058
   8.3168584  93.6480373  24.8549899  14.1847371  71.2484794  17.6691822
  13.4179767  70.6943281  17.8148504  14.5958076  71.3206663  18.5305973
   6.1889132  77.5369590  31.7597003   7.0520594  77.1806395  31.9700327
   5.6154543  77.1983485  32.4472407  26.0337509  99.1671447  22.5659404
  26.6715919  99.0478194  21.8622744  25.9158352 100.1152291  22.6247356
  22.8427215  99.1198875  22.5020929  22.5045727  99.0039939  21.6141463
  23.7116983  98.7190040  22.4821935  23.3246998 100.2733726  28.4607134
  23.3135639  99.8786525  27.5887638  23.4867638  99.5399799  29.0540906
  20.0454259 103.0570838  27.4086318  19.7544125 103.9616469  27.2932984
  20.6811244 103.0987366  28.1230388  20.9710466 100.4347687  23.9987678
  21.5674038 100.2103709  23.2844641  21.0285438  99.6932432  24.6013126
  25.5878777  96.8922901  19.6412612  26.3741867  96.4742324  19.2903029
  25.8517482  97.7968993  19.8094260  30.9887205  96.8298134  20.5445590
  31.7212377  96.2597351  20.7783420  30.2326560  96.4419734  20.9852096
  22.6063324  99.2525375  17.7408933  22.2421532  98.7255996  18.4521854
  23.4630440  98.8623844  17.5675418  28.5112625  90.5419708  25.0040199
  28.1795950  91.4115119  24.7801414  27.9158238  90.2255992  25.6834229
  25.0044144 102.7432254  24.4036112  24.7044868 103.6457293  24.2951919
  24.6595204 102.4764437  25.2557265  18.4556626  99.1946051  20.4372816
  17.5307122  99.0622265  20.6450508  18.7041039  99.9740270  20.9342759
  28.4041288  95.2614794  22.0833549  27.4958166  95.1930202  21.7892310
  28.3528884  95.7386739  22.9115375  22.4782154  96.6804440  30.0268446
  21.7015488  97.2398360  30.0171311  23.1172717  97.1661223  30.5483316
  30.2702935  93.4631232  23.8611423  29.6277315  93.7563766  23.2151218
  29.7657863  93.3484153  24.6664620  27.9243098  97.2094406  14.5497282
  28.8360954  97.4421792  14.3744980  27.4152745  97.7931450  13.9872361
  20.7328526  99.4889893  29.5886413  21.4743211 100.0274937  29.3121237
  20.0265512 100.1156182  29.7457965  26.2083866 101.6319033  28.1858575
  26.6167222 101.1901444  27.4413207  25.4861127 101.0571661  28.4392768
  22.5614936  96.5691640  25.5592132  23.4076131  96.9931054  25.7026781
  22.5013574  95.9125264  26.2530695  26.5312681 102.1920224  21.9410864
  25.9021543 102.3565938  21.2386932  26.1438343 102.6061834  22.7121828
  30.4101913 103.1274662  19.2955227  29.7252951 103.5073563  18.7452261
  30.4945762 103.7369989  20.0287175  25.7114381  94.2296009  27.2173305
  25.4675313  94.9838069  26.6807581  25.9874312  94.6081356  28.0520552
  27.6652844 100.7734621  25.8950571  27.8769739 101.4166381  25.2184952
  27.6182592  99.9396937  25.4272501  25.2679073  93.3852442  22.7987143
  24.4063552  93.6833695  23.0903881  25.2941508  93.6022840  21.8668176
  22.0840643 101.9294632  19.2060949  22.5478988 102.2082335  18.4165571
  21.8197441 101.0278077  19.0234040  18.9764724 101.4766114  22.1440712
  19.5466081 101.9053382  21.5058197  19.5672835 101.1948698  22.8424898
  19.4689890  96.6429541  30.3901723  18.8388551  97.3245822  30.6237120
  19.3625978  96.5312623  29.4454862  28.7798672 103.6506576  24.0672928
  29.6016116 103.2486764  23.7855610  28.7761075 103.5474810  25.0189044
  22.5455276 103.1990620  26.2233639  22.6099708 103.6611027  27.0591811
  21.8366199 102.5687985  26.3515949  13.0472566  96.5631828  23.7482638
  13.2980604  97.4478838  24.0140214  13.5832114  96.3836429  22.9757730
  36.8704665  99.9945325  20.4157900  36.1168374  99.4252723  20.2601904
  37.0052206  99.9607989  21.3628535  18.7470633  90.9450307  32.7526974
  18.3537578  90.3916506  33.4274619  19.5636773  91.2560885  33.1433492
  21.6638594  92.3608186  30.3447231  22.4048307  92.9615339  30.2651693
  21.8956517  91.6185824  29.7865274  16.8079932  97.5464553  28.6225461
  16.6933447  96.6449811  28.9232560  15.9524450  97.7928250  28.2710277
  23.8871770 105.4882294  30.2212961  23.4435624 104.7018672  29.9033866
  24.5488983 105.6761444  29.5556852  18.6458891 107.0178095  24.7473640
  19.1966316 106.8895159  23.9750634  17.8070367 107.3172984  24.3968533
  25.9853008 105.7685094  28.2494363  25.9671483 106.5893975  27.7574632
  26.9072928 105.6439169  28.4744504  22.4426062 103.2829223  29.0917871
  22.9754399 102.5217511  28.8617179  21.9140143 102.9902875  29.8342025
  25.6095757  88.3889289  24.6211513  25.2660026  89.2790931  24.5450623
  25.9774719  88.1990947  23.7581098  23.1593151  93.2247601  18.1869186
  22.3034747  92.8354451  18.0074825  23.5720102  93.3039562  17.3268972
  24.6892297  90.7593944  22.5860746  24.1857093  90.7224079  21.7728551
  24.9822904  91.6686687  22.6457403  20.9335183  90.8432674  21.5926928
  21.7988180  90.6475483  21.2332817  21.0012692  90.6143026  22.5196284
  30.5480314 101.1330255  15.0637121  29.7709756 100.7941414  14.6192283
  31.2271795 101.1382878  14.3892086  25.3632343  96.2524992  14.9543729
  25.0582478  96.5671141  15.8053872  26.3162785  96.3306412  14.9971062
  28.7871621 100.6064236  21.7203729  28.1295295 101.2963497  21.8083858
  29.5912020 100.9960668  22.0637716  18.5397502  93.0734882  18.9643294
  19.1141254  92.8510063  18.2316487  19.1268485  93.1423576  19.7171896
  27.5977079  98.9608609  19.7707671  28.1108961  99.5938601  20.2729381
  28.2478303  98.3609804  19.4051031  20.8420170  89.9476131  17.6918364
  20.1884582  89.6325148  17.0674979  20.8000644  89.3251871  18.4178187
  24.0757910  96.4358064  22.0166011  23.1580472  96.6573011  21.8587700
  24.4918054  96.5104375  21.1577719  24.8592958  97.8349480  17.1468692
  25.6064777  98.3470877  16.8375814  25.1284547  97.5133533  18.0073085
  28.3638876 103.9414610  17.8986814  27.9101203 103.1005520  17.9552004
  27.7332842 104.5776009  18.2361594  27.3071795  94.8706596  19.1287481
  26.5694552  94.3583982  19.4597724  27.5598569  94.4306978  18.3170758
  26.8071815 105.7791107  18.8336632  27.0994789 106.3396164  18.1148997
  27.3170435 106.0719668  19.5889791  27.4083422  87.6482848  19.7229250
  27.7142299  86.7880212  19.4355165  28.1336027  88.2400468  19.5228244
  21.6804502  97.9436641  20.2305441  21.7353112  96.9910478  20.1547918
  20.8695704  98.0996080  20.7146740  19.6196862  96.5613701  17.9895820
  18.8064728  96.8607872  18.3961012  20.1155856  96.1669390  18.7070303
  25.2171074  97.0255525  26.8210714  25.5720461  97.2526999  27.6805180
  25.8643205  97.3573902  26.1987969  30.9468811 100.1473961  17.5260043
  30.8086709 100.3375557  16.5981232  30.5905030 100.9093344  17.9828094
  19.1110937  94.1332057  23.6057055  19.7510316  93.9920816  22.9080019
  18.2788467  93.8466570  23.2295657  30.9738190 102.2150488  22.5371315
  31.4074697 102.1225777  23.3854369  31.6869771 102.1907989  21.8991331
  24.7066085 105.8152582  24.0704415  24.7603107 106.3843519  24.8382131
  23.8380867 105.9854468  23.7058452  16.1139553  94.1032382  18.3830042
  16.3746371  95.0177715  18.2739202  16.9356726  93.6356824  18.5326655
  17.5864479  95.5170139  25.5528867  18.2587532  95.3087501  24.9041515
  16.7594265  95.3192225  25.1134099  31.8353740 102.2574189  25.0704200
  32.0289630 103.1620000  25.3163475  31.7354358 101.7981608  25.9042785
  23.4890051  92.1432080  27.5694527  22.8417966  92.8422029  27.4759004
  24.2591066  92.5768224  27.9370776  26.8968849 102.4080932  30.6445081
  26.7454355 102.1791483  29.7275164  26.8873528 103.3651533  30.6576426
  23.6654185  99.9812845  25.6291347  24.5946245 100.1324004  25.4560314
  23.2445215 100.0696865  24.7739994  22.4642517 104.0063509  23.3989885
  22.3253602 103.6382293  24.2715823  21.6757113 104.5211148  23.2273843
  24.0147732 103.3845112  20.7878723  23.6797564 103.3445882  21.6836372
  23.5151678 102.7189828  20.3149133  17.9891976  98.7912742  26.3131304
  17.8511774  98.0592980  26.9142843  18.8996899  98.7021642  26.0315491
  20.6174277  98.5032701  25.8014983  21.3273895  97.8625893  25.7601602
  20.5743585  98.7545596  26.7241164  28.6061055 105.4400054  28.7221563
  28.5473601 104.7559274  28.0552146  29.0080574 106.1819044  28.2702189
  19.3303210  95.4897919  27.6210623  18.7940568  95.0388657  28.2732219
  18.7419919  95.6243828  26.8781087  28.6078462 103.4039638  26.9535542
  27.7205241 103.0665560  27.0761941  29.1777014 102.6722669  27.1904308
  15.0642332  94.6253927  24.7063617  14.9800520  94.0179596  23.9714027
  14.2425038  95.1162945  24.7073114  22.1379616 108.0641091  23.9196785
  22.0649787 108.8696062  24.4316090  21.6957009 108.2633056  23.0944807
  25.2366046  93.1107490  20.0733812  25.7334745  92.3577452  19.7534883
  24.4653027  93.1471807  19.5077022  33.0895803  98.8147856  21.7152104
  33.0785679  99.6972571  21.3446037  32.2213182  98.4619406  21.5206641
  24.5978299 107.9627925  26.0754944  25.3106272 108.5975389  26.0030846
  24.1068328 108.0591791  25.2594946  26.3195826 101.8679177  17.6472236
  25.3852105 101.9880640  17.4776940  26.4972495 100.9651644  17.3832246
  21.8201014  95.2524873  19.8005497  21.4498802  94.6995913  20.4886403
  22.3160107  94.6483007  19.2480497  29.7068378  97.7096497  18.1822270
  30.1728830  98.5424488  18.1082573  30.1575878  97.2441478  18.8867528
  19.6490213 105.7122368  26.8960515  20.3499672 106.3458851  27.0489909
  19.1785328 106.0537100  26.1356154  27.7744609 104.0540318  15.1808422
  28.0504453 103.9396912  16.0902296  26.9049107 103.6557803  15.1420595
  27.6785040  90.0777084  22.2213171  26.7648120  90.3081310  22.3895378
  28.1078142  90.1615528  23.0727204  27.4491499  98.2666976  24.7213065
  26.7962949  98.5142883  24.0665518  27.8271879  97.4531114  24.3875543
  23.4979072  99.0086787  31.2079102  22.8219709  98.9080916  31.8781478
  24.3206706  98.8526000  31.6715100  22.2401855 110.3153714  25.4436718
  22.7920163 110.4785336  26.2085804  22.5808048 110.9058152  24.7716743
  17.2166348  92.6628864  26.0458603  17.2807674  93.5243695  25.6336001
  17.1533468  92.0502866  25.3130962  16.6918621  94.7351996  29.6931637
  17.3190659  94.3529074  30.3069162  15.8346539  94.5166198  30.0587330
  27.0912729 105.1414972  31.2985373  27.6352633 105.7544930  30.8040328
  26.5099574 105.6994550  31.8152386  25.3770242 108.2635690  22.4300401
  25.2521382 107.4625429  21.9211346  26.0349333 108.7581883  21.9414370
  16.9978410  94.6184422  21.6077541  16.2764996  95.2320390  21.4685014
  17.7871666  95.1542187  21.5294187  27.4405150 106.0644710  24.0579951
  26.4935486 105.9450061  23.9858277  27.7887924 105.1767208  24.1406212
  19.8004724  91.9538849  27.8818193  20.3239126  92.2001145  28.6444502
  19.5817057  92.7858883  27.4621330  24.4451584 105.8597426  20.2584303
  24.2976546 104.9314133  20.4391873  25.2705077 105.8817517  19.7741378
  28.0485706 106.6825985  21.3449176  28.9732253 106.4768846  21.2073627
  27.8801009 106.4342386  22.2538517  21.0057269  92.8952544  25.5667863
  20.6654089  92.0960357  25.9688543  20.2996275  93.1954255  24.9944696
  21.6573741  89.9801856  24.0195186  22.4799810  89.5062334  23.8974076
  21.9011804  90.7592340  24.5193872  24.4413098  93.7135264  15.2516420
  24.6576712  94.5959901  14.9505248  23.9607165  93.3221477  14.5222062
  19.1812319  96.6720977  21.8287165  19.0356900  96.9861280  22.7211446
  18.7037523  97.2905877  21.2758063  21.0408702  93.6623525  21.8768054
  21.0270271  92.7664618  21.5400352  21.7581130  93.6694188  22.5106340
  22.8934833  94.0960865  23.9221182  22.6352611  95.0177936  23.9205512
  22.3619873  93.6991299  24.6121646  27.8381022 107.2011652  16.7011267
  28.0117899 106.6358075  15.9485120  28.3309913 108.0012547  16.5190757
  13.6557982  99.2126321  24.7674826  13.1111450  99.9886129  24.8995100
  14.5337331  99.5597126  24.6093947  20.4445598  92.5437905  17.1455624
  20.5661509  91.6154551  17.3446512  20.1547641  92.5576591  16.2333940
  23.3136789  90.2292815  20.2822344  23.3358485  90.2932149  19.3274324
  23.7304848  89.3897324  20.4762850  33.6920413  99.9648075  18.3201567
  34.1351559  99.2155400  17.9220690  32.8146923  99.9558211  17.9375299
  14.4424003  98.3396217  27.6604983  13.7005739  98.4878853  28.2469613
  14.1216748  98.6004483  26.7971732  30.7247617 103.9678122  15.3295496
  31.2498941 104.3065395  14.6044816  30.6369970 103.0325137  15.1458631
  22.3867666 107.8812196  27.4585373  22.6954793 107.6361342  28.3308072
  23.1843148 108.0858834  26.9704243  19.9286678  94.0569902  31.3545557
  19.9774833  94.9332025  30.9723327  20.4709192  93.5147295  30.7817200
  30.4141523 104.6011026  30.6346694  29.6237067 104.5835164  30.0951193
  30.1774878 105.1399319  31.3895731  30.5339399 101.4503492  27.9479423
  30.5837403 101.2853499  28.8894945  30.4253322 100.5830751  27.5577303
  27.8243161  97.4334420  29.2638729  28.7253024  97.2940885  28.9722727
  27.8991135  97.5988875  30.2036907  22.1585966  94.8101275  28.1091916
  21.2889276  95.1034841  27.8374504  22.3945447  95.3941720  28.8299179
  32.0357595 103.8700434  28.1921444  31.7442404 104.2330414  29.0284905
  31.4229727 103.1567442  28.0134776  33.2353278 101.4353313  20.7124014
  34.0700169 101.8743117  20.8761575  33.3712406 100.9591967  19.8932260
  30.2844784  98.9933048  26.6601502  30.7598905  99.1860694  25.8520353
  29.3610349  99.0492234  26.4144886  24.8625000  91.0280892  25.6257336
  25.3806944  91.7641919  25.3003825  24.5080133  91.3344885  26.4604095
  25.1137594  87.4481174  21.1458233  25.3939348  86.7804363  21.7718659
  25.8988201  87.6410270  20.6332896  28.9846453  95.8698808  24.8929808
  29.9363875  95.9696906  24.9142032  28.8149903  95.0777077  25.4027892
  27.0060832  92.9554391  25.0789209  26.4110764  93.2359404  24.3835697
  26.7210529  93.4448292  25.8505950  31.4634530  99.0904928  24.0072107
  31.4310850  98.1520929  24.1931791  32.0735154  99.1688965  23.2737932
  31.6129019  95.8815971  24.0530391  31.0968068  95.0974428  23.8660319
  32.4968967  95.5534688  24.2176910  29.2739746  89.6256987  20.0126203
  29.0764567  89.3172075  20.8969535  29.8839451  90.3518626  20.1424133
  37.2811080 100.1520935  23.1478144  38.0114469  99.8906223  23.7085847
  36.6718026  99.4149657  23.1880212  35.3626377  98.2928797  23.7452595
  34.6359541  98.1584762  23.1369087  34.9473664  98.6005626  24.5509313
  23.1856554 102.0118727  31.5099968  24.1059563 102.1897326  31.7040015
  23.1506137 101.0674772  31.3579668  16.1818626  99.9219762  24.1522750
  16.4004636 100.8536870  24.1710783  16.5944400  99.5627736  24.9377553
  23.1022844  90.4287847  16.1398438  22.2923572  90.0834932  16.5153684
  23.7907261  90.1195391  16.7286049  25.0313392  89.5065894  17.7622735
  25.5844431  89.9261347  18.4212758  25.2683479  88.5801642  17.8045691
  21.0546492  95.4952967  33.5425498  20.9543219  96.4447324  33.4737590
  20.8368034  95.1671206  32.6701569  28.4092199  91.6166419  17.2701399
  27.8290869  92.2751223  16.8879451  28.1428132  90.7943764  16.8588816
  26.8595766  91.0171477  19.4722719  27.3595544  91.1288011  18.6637038
  27.5031374  90.7132530  20.1123528  20.9177762  98.9250106  32.3590560
  20.4344843  99.7250466  32.5654449  21.0038701  98.9358051  31.4058004
  16.8451099 102.8154641  24.3958994  17.7994353 102.7838583  24.3288925
  16.6463623 102.3545265  25.2109220  17.4350481 101.3855757  26.9629792
  18.2543370 101.8799836  26.9864629  17.7087289 100.4687725  26.9347359
  27.1917078  93.7766509  16.3257747  26.3042933  94.0616160  16.1077942
  27.6071067  93.6160273  15.4785024  30.5431614  93.8013030  20.0412086
  31.3192004  94.2909483  20.3136703  29.8179748  94.2271085  20.4983956
  32.9804172  94.5140650  21.0986027  33.5748663  94.2736386  20.3879335
  33.0530756  93.7947780  21.7259563  27.1658101  99.2921045  16.5408037
  27.1093303  99.7489597  15.7015670  27.7186444  98.5311730  16.3630880
  30.9762907  95.0810777  17.3658157  30.7199841  94.6807413  18.1966364
  30.3515775  95.7954571  17.2408296  35.2875245  97.8206850  19.8729448
  34.7274803  97.8900040  20.6461010  34.6818748  97.6447835  19.1528944
  27.8992881 100.4825827  13.8360566  27.8441684 100.3170098  12.8949011
  27.2738936 101.1901859  13.9922756  12.6885396  95.7193891  27.6621989
  13.3344259  95.2092845  28.1509214  12.4802547  96.4562573  28.2365414
  25.2138788 102.7874738  33.1614129  26.0829947 102.9615391  32.8000764
  24.7345539 103.6069155  33.0389859  21.2089006  89.9833936  13.4145885
  21.1967676  90.9275775  13.5714156  22.1012428  89.8004081  13.1205346
  19.3824968 109.9071839  24.8403563  20.2852215 109.9395450  25.1570058
  19.1562338 108.9772290  24.8549899  25.0241125  86.5776712  17.6691822
  24.2573521  86.0235199  17.8148504  25.4351830  86.6498581  18.5305973
  17.0282887  92.8661508  31.7597003  17.8914348  92.5098313  31.9700327
  16.4548297  92.5275403  32.4472407  36.8731263 114.4963364  22.5659404
  37.5109673 114.3770112  21.8622744  36.7552106 115.4444208  22.6247356
  33.6820970 114.4490792  22.5020929  33.3439481 114.3331857  21.6141463
  34.5510738 114.0481958  22.4821935  34.1640753 115.6025644  28.4607134
  34.1529394 115.2078442  27.5887638  34.3261392 114.8691717  29.0540906
  36.4272532 112.2214818  19.6412612  37.2135621 111.8034241  19.2903029
  36.6911236 113.1260910  19.8094260  41.8280959 112.1590051  20.5445590
  42.5606131 111.5889268  20.7783420  41.0720315 111.7711652  20.9852096
  33.4457079 114.5817293  17.7408933  33.0815286 114.0547914  18.4521854
  34.3024195 114.1915762  17.5675418  39.3506379 105.8711625  25.0040199
  39.0189704 106.7407036  24.7801414  38.7551993 105.5547909  25.6834229
  39.2435043 110.5906712  22.0833549  38.3351920 110.5222120  21.7892310
  39.1922639 111.0678657  22.9115375  33.3175909 112.0096357  30.0268446
  32.5409243 112.5690277  30.0171311  33.9566472 112.4953140  30.5483316
  41.1096689 108.7923150  23.8611423  40.4671069 109.0855683  23.2151218
  40.6051618 108.6776070  24.6664620  38.7636853 112.5386323  14.5497282
  39.6754709 112.7713710  14.3744980  38.2546500 113.1223367  13.9872361
  33.4008691 111.8983558  25.5592132  34.2469886 112.3222971  25.7026781
  33.3407328 111.2417182  26.2530695  36.5508136 109.5587926  27.2173305
  36.3069068 110.3129987  26.6807581  36.8268066 109.9373274  28.0520552
  38.5046599 116.1026539  25.8950571  38.7163494 116.7458298  25.2184952
  38.4576347 115.2688855  25.4272501  36.1072828 108.7144359  22.7987143
  35.2457307 109.0125613  23.0903881  36.1335262 108.9314758  21.8668176
  30.3083645 111.9721459  30.3901723  29.6782305 112.6537740  30.6237120
  30.2019732 111.8604540  29.4454862  47.7098420 115.3237242  20.4157900
  46.9562128 114.7544641  20.2601904  47.8445961 115.2899907  21.3628535
  29.5864387 106.2742225  32.7526974  29.1931333 105.7208423  33.4274619
  30.4030528 106.5852803  33.1433492  32.5032348 107.6900104  30.3447231
  33.2442062 108.2907257  30.2651693  32.7350271 106.9477742  29.7865274
  36.4489511 103.7181207  24.6211513  36.1053781 104.6082848  24.5450623
  36.8168474 103.5282864  23.7581098  33.9986905 108.5539519  18.1869186
  33.1428501 108.1646369  18.0074825  34.4113857 108.6331479  17.3268972
  35.5286052 106.0885862  22.5860746  35.0250847 106.0515997  21.7728551
  35.8216659 106.9978605  22.6457403  31.7728938 106.1724592  21.5926928
  32.6381934 105.9767400  21.2332817  31.8406446 105.9434943  22.5196284
  41.3874068 116.4622172  15.0637121  40.6103511 116.1233332  14.6192283
  42.0665549 116.4674796  14.3892086  36.2026097 111.5816910  14.9543729
  35.8976233 111.8963059  15.8053872  37.1556539 111.6598330  14.9971062
  39.6265375 115.9356154  21.7203729  38.9689049 116.6255415  21.8083858
  40.4305774 116.3252586  22.0637716  29.3791257 108.4026799  18.9643294
  29.9535009 108.1801981  18.2316487  29.9662239 108.4715494  19.7171896
  38.4370834 114.2900526  19.7707671  38.9502716 114.9230518  20.2729381
  39.0872058 113.6901722  19.4051031  31.6813924 105.2768048  17.6918364
  31.0278337 104.9617066  17.0674979  31.6394398 104.6543789  18.4178187
  34.9151665 111.7649982  22.0166011  33.9974226 111.9864929  21.8587700
  35.3311808 111.8396292  21.1577719  35.6986712 113.1641398  17.1468692
  36.4458531 113.6762795  16.8375814  35.9678302 112.8425450  18.0073085
  38.1465550 110.1998514  19.1287481  37.4088306 109.6875900  19.4597724
  38.3992323 109.7598895  18.3170758  38.2477177 102.9774766  19.7229250
  38.5536054 102.1172129  19.4355165  38.9729782 103.5692386  19.5228244
  32.5198257 113.2728559  20.2305441  32.5746866 112.3202395  20.1547918
  31.7089459 113.4287998  20.7146740  30.4590617 111.8905619  17.9895820
  29.6458482 112.1899789  18.3961012  30.9549611 111.4961307  18.7070303
  36.0564828 112.3547443  26.8210714  36.4114216 112.5818916  27.6805180
  36.7036959 112.6865820  26.1987969  41.7862565 115.4765879  17.5260043
  41.6480464 115.6667475  16.5981232  41.4298784 116.2385262  17.9828094
  29.9504691 109.4623974  23.6057055  30.5904071 109.3212733  22.9080019
  29.1182222 109.1758488  23.2295657  41.8131945 117.5442406  22.5371315
  42.2468451 117.4517695  23.3854369  42.5263525 117.5199907  21.8991331
  26.9533308 109.4324299  18.3830042  27.2140125 110.3469632  18.2739202
  27.7750480 108.9648742  18.5326655  28.4258233 110.8462056  25.5528867
  29.0981287 110.6379418  24.9041515  27.5988020 110.6484142  25.1134099
  42.6747494 117.5866107  25.0704200  42.8683384 118.4911917  25.3163475
  42.5748113 117.1273526  25.9042785  34.3283805 107.4723997  27.5694527
  33.6811720 108.1713947  27.4759004  35.0984820 107.9060141  27.9370776
  34.5047939 115.3104762  25.6291347  35.4339999 115.4615922  25.4560314
  34.0838969 115.3988783  24.7739994  31.4568031 113.8324619  25.8014983
  32.1667650 113.1917811  25.7601602  31.4137339 114.0837513  26.7241164
  30.1696965 110.8189837  27.6210623  29.6334322 110.3680575  28.2732219
  29.5813673 110.9535745  26.8781087  25.9036086 109.9545844  24.7063617
  25.8194275 109.3471514  23.9714027  25.0818793 110.4454863  24.7073114
  36.0759800 108.4399408  20.0733812  36.5728500 107.6869370  19.7534883
  35.3046782 108.4763724  19.5077022  43.9289557 114.1439773  21.7152104
  43.9179434 115.0264489  21.3446037  43.0606937 113.7911324  21.5206641
  32.6594769 110.5816791  19.8005497  32.2892556 110.0287831  20.4886403
  33.1553861 109.9774924  19.2480497  40.5462132 113.0388414  18.1822270
  41.0122584 113.8716406  18.1082573  40.9969633 112.5733396  18.8867528
  38.5178795 105.4069001  22.2213171  37.6041875 105.6373228  22.3895378
  38.9471896 105.4907445  23.0727204  38.2885253 113.5958893  24.7213065
  37.6356704 113.8434801  24.0665518  38.6665633 112.7823031  24.3875543
  34.3372826 114.3378704  31.2079102  33.6613463 114.2372834  31.8781478
  35.1600460 114.1817918  31.6715100  28.0560102 107.9920782  26.0458603
  28.1201429 108.8535612  25.6336001  27.9927223 107.3794783  25.3130962
  27.5312375 110.0643914  29.6931637  28.1584414 109.6820991  30.3069162
  26.6740294 109.8458116  30.0587330  27.8372165 109.9476340  21.6077541
  27.1158751 110.5612307  21.4685014  28.6265421 110.4834105  21.5294187
  30.6398478 107.2830766  27.8818193  31.1632880 107.5293063  28.6444502
  30.4210812 108.1150801  27.4621330  31.8451023 108.2244461  25.5667863
  31.5047844 107.4252274  25.9688543  31.1390030 108.5246172  24.9944696
  32.4967495 105.3093774  24.0195186  33.3193564 104.8354252  23.8974076
  32.7405559 106.0884258  24.5193872  35.2806853 109.0427181  15.2516420
  35.4970467 109.9251819  14.9505248  34.8000920 108.6513395  14.5222062
  30.0206074 112.0012894  21.8287165  29.8750655 112.3153197  22.7211446
  29.5431278 112.6197795  21.2758063  31.8802457 108.9915442  21.8768054
  31.8664026 108.0956536  21.5400352  32.5974885 108.9986106  22.5106340
  33.7328588 109.4252783  23.9221182  33.4746365 110.3469853  23.9205512
  33.2013628 109.0283217  24.6121646  31.2839353 107.8729823  17.1455624
  31.4055264 106.9446469  17.3446512  30.9941395 107.8868509  16.2333940
  34.1530543 105.5584733  20.2822344  34.1752240 105.6224066  19.3274324
  34.5698602 104.7189242  20.4762850  44.5314167 115.2939993  18.3201567
  44.9745313 114.5447318  17.9220690  43.6540678 115.2850129  17.9375299
  30.7680432 109.3861820  31.3545557  30.8168588 110.2623943  30.9723327
  31.3102946 108.8439213  30.7817200  41.3733153 116.7795410  27.9479423
  41.4231158 116.6145417  28.8894945  41.2647076 115.9122669  27.5577303
  38.6636915 112.7626338  29.2638729  39.5646778 112.6232803  28.9722727
  38.7384890 112.9280793  30.2036907  32.9979721 110.1393192  28.1091916
  32.1283030 110.4326759  27.8374504  33.2339201 110.7233637  28.8299179
  44.0747032 116.7645231  20.7124014  44.9093924 117.2035035  20.8761575
  44.2106161 116.2883884  19.8932260  41.1238538 114.3224966  26.6601502
  41.5992660 114.5152612  25.8520353  40.2004103 114.3784152  26.4144886
  35.7018755 106.3572809  25.6257336  36.2200698 107.0933836  25.3003825
  35.3473887 106.6636803  26.4604095  35.9531349 102.7773092  21.1458233
  36.2333102 102.1096281  21.7718659  36.7381956 102.9702188  20.6332896
  39.8240207 111.1990726  24.8929808  40.7757630 111.2988824  24.9142032
  39.6543657 110.4068994  25.4027892  37.8454587 108.2846309  25.0789209
  37.2504519 108.5651322  24.3835697  37.5604283 108.7740210  25.8505950
  42.3028285 114.4196846  24.0072107  42.2704605 113.4812846  24.1931791
  42.9128909 114.4980882  23.2737932  42.4522773 111.2107889  24.0530391
  41.9361822 110.4266346  23.8660319  43.3362722 110.8826606  24.2176910
  40.1133500 104.9548905  20.0126203  39.9158321 104.6463993  20.8969535
  40.7233206 105.6810544  20.1424133  48.1204835 115.4812852  23.1478144
  48.8508223 115.2198141  23.7085847  47.5111780 114.7441574  23.1880212
  46.2020132 113.6220715  23.7452595  45.4753295 113.4876680  23.1369087
  45.7867419 113.9297544  24.5509313  33.9416599 105.7579765  16.1398438
  33.1317327 105.4126850  16.5153684  34.6301016 105.4487308  16.7286049
  35.8707147 104.8357811  17.7622735  36.4238185 105.2553265  18.4212758
  36.1077233 103.9093560  17.8045691  31.8940246 110.8244885  33.5425498
  31.7936973 111.7739242  33.4737590  31.6761788 110.4963124  32.6701569
  39.2485954 106.9458337  17.2701399  38.6684623 107.6043141  16.8879451
  38.9821887 106.1235681  16.8588816  37.6989520 106.3463394  19.4722719
  38.1989299 106.4579929  18.6637038  38.3425128 106.0424447  20.1123528
  38.0310832 109.1058427  16.3257747  37.1436687 109.3908078  16.1077942
  38.4464821 108.9452190  15.4785024  41.3825368 109.1304948  20.0412086
  42.1585758 109.6201400  20.3136703  40.6573502 109.5563002  20.4983956
  43.8197927 109.8432567  21.0986027  44.4142418 109.6028303  20.3879335
  43.8924510 109.1239698  21.7259563  38.0051856 114.6212963  16.5408037
  37.9487057 115.0781514  15.7015670  38.5580198 113.8603648  16.3630880
  41.8156662 110.4102695  17.3658157  41.5593596 110.0099330  18.1966364
  41.1909530 111.1246489  17.2408296  46.1269000 113.1498768  19.8729448
  45.5668557 113.2191957  20.6461010  45.5212503 112.9739753  19.1528944
  38.7386635 115.8117744  13.8360566  38.6835439 115.6462016  12.8949011
  38.1132690 116.5193777  13.9922756  23.5279150 111.0485809  27.6621989
  24.1738014 110.5384763  28.1509214  23.3196301 111.7854490  28.2365414
  32.0482761 105.3125853  13.4145885  32.0361430 106.2567693  13.5714156
  32.9406182 105.1295999  13.1205346  35.8634880 101.9068630  17.6691822
  35.0967276 101.3527117  17.8148504  36.2745585 101.9790499  18.5305973
  27.8676641 108.1953426  31.7597003  28.7308103 107.8390231  31.9700327
  27.2942052 107.8567320  32.4472407  47.2883266 119.0473124  24.6211513
  46.9447535 119.9374766  24.5450623  47.6562228 118.8574782  23.7581098
  49.0870931 118.3066684  19.7229250  49.3929808 117.4464047  19.4355165
  49.8123536 118.8984304  19.5228244  46.7925103 118.1065010  21.1458233
  47.0726857 117.4388199  21.7718659  47.5775710 118.2994105  20.6332896
  50.9527255 120.2840822  20.0126203  50.7552076 119.9755910  20.8969535
  51.5626960 121.0102461  20.1424133  46.7028634 117.2360548  17.6691822
  45.9361030 116.6819034  17.8148504  47.1139339 117.3082416  18.5305973
   6.9273547  51.7878342  15.4466869   6.8686094  51.1037562  14.7797452
   7.3293066  52.5297332  14.9947495   5.4125221  51.4893259  18.0230679
   5.9565125  52.1023217  17.5285634   4.8312066  52.0472837  18.5397692
   8.7354016  50.9489313  17.3592001   7.9449559  50.9313452  16.8196500
   8.4987370  51.4877607  18.1141037  10.3570088  50.2178721  14.9166751
  10.0654896  50.5808701  15.7530212   9.7442219  49.5045729  14.7380083
   3.5351280  49.1353026  19.8859436   4.4042440  49.3093678  19.5246071
   3.0558031  49.9547442  19.7635165  15.1943756  60.8441652   9.2904711
  15.8322166  60.7248399   8.5868051  15.0764599  61.7922496   9.3492663
  12.0033462  60.7969080   9.2266235  11.6651974  60.6810144   8.3386770
  12.8723230  60.3960245   9.2067241  12.4853245  61.9503931  15.1852441
  12.4741886  61.5556730  14.3132944  12.6473884  61.2170004  15.7786212
   9.2060506  64.7341043  14.1331625   8.9150372  65.6386674  14.0178291
   9.8417491  64.7757571  14.8475694  10.1316713  62.1117892  10.7232984
  10.7280285  61.8873914  10.0089947  10.1891685  61.3702637  11.3258432
  20.1493451  58.5068339   7.2690897  20.8818623  57.9367555   7.5028727
  19.3932807  58.1189939   7.7097403  17.6718872  52.2189913  11.7285506
  17.3402196  53.0885324  11.5046721  17.0764485  51.9026197  12.4079536
  14.1650391  64.4202459  11.1281418  13.8651114  65.3227498  11.0197226
  13.8201451  64.1534642  11.9802571  17.5647535  56.9384999   8.8078856
  16.6564412  56.8700407   8.5137617  17.5135131  57.4156944   9.6360681
  11.6388401  58.3574644  16.7513753  10.8621735  58.9168565  16.7416618
  12.2778964  58.8431427  17.2728623  19.4309181  55.1401437  10.5856730
  18.7883562  55.4333970   9.9396524  18.9264110  55.0254358  11.3909926
   9.8934773  61.1660098  16.3131720  10.6349457  61.7045142  16.0366544
   9.1871759  61.7926387  16.4703272  15.3690113  63.3089238  14.9103881
  15.7773469  62.8671649  14.1658514  14.6467374  62.7341866  15.1638074
  11.7221183  58.2461845  12.2837438  12.5682378  58.6701259  12.4272087
  11.6619820  57.5895469  12.9776002  15.6918927  63.8690429   8.6656170
  15.0627790  64.0336143   7.9632238  15.3044589  64.2832039   9.4367134
  19.5708159  64.8044867   6.0200534  18.8859197  65.1843768   5.4697567
  19.6552009  65.4140193   6.7532482  14.8720628  55.9066213  13.9418612
  14.6281560  56.6608274  13.4052888  15.1480559  56.2851561  14.7765859
  16.8259091  62.4504826  12.6195878  17.0375986  63.0936586  11.9430259
  16.7788839  61.6167142  12.1517808   8.1370970  63.1536319   8.8686019
   8.7072327  63.5823587   8.2303503   8.7279082  62.8718903   9.5670204
   8.6296137  58.3199746  17.1147030   7.9994797  59.0016027  17.3482427
   8.5232225  58.2082828  16.1700168  17.9404919  65.3276781  10.7918235
  18.7622363  64.9256969  10.5100917  17.9367322  65.2245015  11.7434351
  11.7061522  64.8760825  12.9478945  11.7705955  65.3381232  13.7837117
  10.9972446  64.2458189  13.0761255  26.0310912  61.6715530   7.1403206
  25.2774620  61.1022928   6.9847211  26.1658453  61.6378194   8.0873841
   7.9076880  52.6220512  19.4772281   7.5143825  52.0686710  20.1519925
   8.7243020  52.9331090  19.8678799  10.8244841  54.0378391  17.0692538
  11.5654554  54.6385544  16.9897000  11.0562763  53.2956029  16.5110580
   5.9686179  59.2234758  15.3470767   5.8539694  58.3220015  15.6477866
   5.1130696  59.4698455  14.9955584  13.0478016  67.1652499  16.9458268
  12.6041871  66.3788877  16.6279172  13.7095230  67.3531649  16.2802159
   7.8065138  68.6948300  11.4718946   8.3572563  68.5665363  10.6995940
   6.9676613  68.9943189  11.1213839  15.1459254  67.4455298  14.9739669
  15.1277730  68.2664180  14.4819938  16.0679174  67.3209374  15.1989810
  11.6032309  64.9599428  15.8163178  12.1360645  64.1987716  15.5862486
  11.0746390  64.6673080  16.5587332  17.9477867  62.2834441   8.4449036
  17.2901542  62.9733702   8.5329164  18.7518266  62.6730873   8.7883022
  16.7583326  60.6378814   6.4952978  17.2715208  61.2708805   6.9974687
  17.4084550  60.0380009   6.1296338  13.2364157  58.1128269   8.7411318
  12.3186718  58.3343216   8.5833006  13.6524301  58.1874580   7.8823025
  17.5245122  65.6184815   4.6232120  17.0707449  64.7775725   4.6797311
  16.8939089  66.2546213   4.9606900  15.9678062  67.4561312   5.5581938
  16.2601036  68.0166369   4.8394304  16.4776682  67.7489873   6.3135097
  14.3777321  58.7025730  13.5456021  14.7326708  58.9297204  14.4050487
  15.0249452  59.0344107  12.9233276  20.1075057  61.8244166   4.2505350
  19.9692956  62.0145762   3.3226539  19.7511276  62.5863549   4.7073401
  20.1344437  63.8920693   9.2616621  20.5680944  63.7995982  10.1099675
  20.8476018  63.8678194   8.6236637  13.8672332  67.4922787  10.7949722
  13.9209354  68.0613724  11.5627438  12.9987113  67.6624672  10.4303759
   6.7470725  57.1940344  12.2774173   7.4193779  56.9857706  11.6286822
   5.9200512  56.9962430  11.8379405  20.9959987  63.9344394  11.7949507
  21.1895877  64.8390204  12.0408782  20.8960605  63.4751813  12.6288092
  12.6496297  53.8202285  14.2939834  12.0024212  54.5192234  14.2004310
  13.4197313  54.2538428  14.6616082  16.0575095  64.0851137  17.3690387
  15.9060602  63.8561688  16.4520471  16.0479775  65.0421738  17.3821732
  12.8260432  61.6583049  12.3536654  13.7552492  61.8094209  12.1805621
  12.4051462  61.7467070  11.4985300  11.6248764  65.6833714  10.1235191
  11.4859849  65.3152498  10.9961130  10.8363360  66.1981353   9.9519149
  13.1753979  65.0615317   7.5124029  12.8403811  65.0216087   8.4081679
  12.6757924  64.3960032   7.0394439   7.1498223  60.4682947  13.0376610
   7.0118021  59.7363185  13.6388149   8.0603146  60.3791847  12.7560798
   9.7780523  60.1802906  12.5260290  10.4880142  59.5396098  12.4846908
   9.7349831  60.4315801  13.4486471  17.7667302  67.1170259  15.4466869
  17.7079848  66.4329479  14.7797452  18.1686820  67.8589249  14.9947495
   8.4909457  57.1668124  14.3455929   7.9546814  56.7158862  14.9977526
   7.9026166  57.3014033  13.6026394  17.7684709  65.0809843  13.6780849
  16.8811488  64.7435765  13.8007248  18.3383260  64.3492874  13.9149614
  11.2985863  69.7411296  10.6442092  11.2256034  70.5466267  11.1561397
  10.8563256  69.9403261   9.8190113  22.2502050  60.4918061   8.4397411
  22.2391926  61.3742776   8.0691344  21.3819429  60.1389611   8.2451948
  13.7584546  69.6398130  12.8000251  14.4712518  70.2745594  12.7276152
  13.2674575  69.7361996  11.9840253   8.8096460  67.3892573  13.6205822
   9.5105919  68.0229056  13.7735216   8.3391575  67.7307305  12.8601461
  16.6097746  59.9437180  11.4458372  15.9569196  60.1913088  10.7910825
  16.9878126  59.1301319  11.1120849  12.6585319  60.6856992  17.9324409
  11.9825956  60.5851121  18.6026784  13.4812953  60.5296205  18.3960406
  11.4008102  71.9923919  12.1682025  11.9526410  72.1555540  12.9331110
  11.7414295  72.5828357  11.4962050   5.8524867  56.4122201  16.4176944
   6.4796906  56.0299279  17.0314468   4.9952786  56.1936403  16.7832636
  16.2518976  66.8185176  18.0230679  16.7958880  67.4315135  17.5285634
  15.6705821  67.3764755  18.5397692  14.5376489  69.9405894   9.1545707
  14.4127628  69.1395634   8.6456653  15.1955580  70.4352088   8.6659677
  16.6011397  67.7414915  10.7825257  15.6541733  67.6220266  10.7103584
  16.9494170  66.8537413  10.8651519   8.9610971  53.6309053  14.6063499
   9.4845372  53.8771350  15.3689808   8.7423304  54.4629088  14.1866636
  13.6057831  67.5367631   6.9829609  13.4582793  66.6084338   7.1637180
  14.4311324  67.5587722   6.4986685  17.2091952  68.3596190   8.0694482
  18.1338500  68.1539051   7.9318933  17.0407256  68.1112591   8.9783824
  10.1663516  54.5722749  12.2913170   9.8260336  53.7730562  12.6933850
   9.4602522  54.8724459  11.7190003  12.0541080  55.7731070  10.6466488
  11.7958858  56.6948141  10.6450819  11.5226120  55.3761504  11.3366952
  16.9987269  68.8781857   3.4256574  17.1724146  68.3128279   2.6730426
  17.4916160  69.6782752   3.2436064   2.8164228  60.8896526  11.4920132
   2.2717696  61.6656334  11.6240407   3.6943578  61.2367331  11.3339254
  22.8526660  61.6418280   5.0446873  23.2957806  60.8925605   4.6465997
  21.9753170  61.6328416   4.6620605   3.6030250  60.0166422  14.3850289
   2.8611986  60.1649058  14.9714920   3.2822995  60.2774688  13.5217039
  19.8853864  65.6448327   2.0540803  20.4105188  65.9835600   1.3290123
  19.7976217  64.7095342   1.8703937  11.5473913  69.5582401  14.1830679
  11.8561039  69.3131547  15.0553379  12.3449395  69.7629039  13.6949550
   9.0892925  55.7340107  18.0790864   9.1381080  56.6102230  17.6968633
   9.6315439  55.1917500  17.5062507  19.5747770  66.2781231  17.3592001
  18.7843314  66.2605369  16.8196500  19.3381125  66.8169524  18.1141037
  19.6945645  63.1273697  14.6724729  19.7443650  62.9623704  15.6140252
  19.5859569  62.2600956  14.2822610  16.9849408  59.1104625  15.9884036
  17.8859270  58.9711090  15.6968034  17.0597382  59.2759080  16.9282213
  11.3192213  56.4871480  14.8337222  10.4495522  56.7805046  14.5619811
  11.5551693  57.0711925  15.5544486  21.1963842  65.5470638  14.9166751
  20.9048650  65.9100619  15.7530212  20.5835973  64.8337647  14.7380083
  22.3959524  63.1123518   7.4369321  23.2306416  63.5513322   7.6006881
  22.5318653  62.6362171   6.6177567  19.4451030  60.6703253  13.3846809
  19.9205152  60.8630899  12.5765660  18.5216596  60.7262439  13.1390192
  14.0231247  52.7051097  12.3502643  14.5413191  53.4412124  12.0249131
  13.6686380  53.0115090  13.1849402  18.1452699  57.5469013  11.6175114
  19.0970122  57.6467111  11.6387338  17.9756150  56.7547282  12.1273199
  16.1667079  54.6324596  11.8034515  15.5717011  54.9129609  11.1081004
  15.8816776  55.1218497  12.5751256  20.6240777  60.7675133  10.7317414
  20.5917097  59.8291134  10.9177098  21.2341401  60.8459170   9.9983239
  20.7735266  57.5586176  10.7775697  20.2574314  56.7744633  10.5905626
  21.6575214  57.2304893  10.9422217  26.4417327  61.8291140   9.8723451
  27.1720715  61.5676428  10.4331154  25.8324272  61.0919862   9.9125519
  24.5232624  59.9699002  10.4697902  23.7965788  59.8354967   9.8614394
  24.1079911  60.2775831  11.2754620  12.3462801  63.6888932  18.2345275
  13.2665810  63.8667531  18.4285322  12.3112384  62.7444977  18.0824974
   5.3424873  61.5989967  10.8768056   5.5610883  62.5307074  10.8956090
   5.7550647  61.2397941  11.6622860  10.2152738  57.1723172  20.2670805
  10.1149465  58.1217529  20.1982896   9.9974280  56.8441411  19.3946875
  10.0784008  60.6020311  19.0835867   9.5951090  61.4020671  19.2899756
  10.1644947  60.6128256  18.1303311   6.0057346  64.4924846  11.1204301
   6.9600599  64.4608788  11.0534232   5.8069870  64.0315470  11.9354526
   6.5956728  63.0625962  13.6875098   7.4149617  63.5570041  13.7109935
   6.8693536  62.1457930  13.6592666  22.1410419  56.1910854   7.8231334
  22.7354910  55.9506590   7.1124642  22.2137003  55.4717985   8.4504870
  24.4481492  59.4977055   6.5974755  23.8881050  59.5670245   7.3706317
  23.8424995  59.3218040   5.8774251   1.8491642  57.3964096  14.3867295
   2.4950506  56.8863050  14.8754520   1.6408793  58.1332777  14.9610721
  14.3745035  64.4644943  19.8859436  15.2436194  64.6385596  19.5246071
  13.8951786  65.2839360  19.7635165   8.5431215  71.5842044  11.5648869
   9.4458461  71.6165655  11.8815364   8.3168585  70.6542495  11.5795205
   6.1889133  54.5431713  18.4842310   7.0520595  54.1868518  18.6945634
   5.6154544  54.2045608  19.1717714  26.0337510  76.1733569   9.2904711
  26.6715920  76.0540317   8.5868051  25.9158353  77.1214413   9.3492663
  22.8427217  76.1260997   9.2266235  22.5045728  76.0102062   8.3386770
  23.7116985  75.7252162   9.2067241  23.3247000  77.2795849  15.1852441
  23.3135640  76.8848647  14.3132944  23.4867639  76.5461922  15.7786212
  20.0454261  80.0632961  14.1331625  19.7544127  80.9678592  14.0178291
  20.6811245  80.1049488  14.8475694  20.9710468  77.4409809  10.7232984
  21.5674040  77.2165832  10.0089947  21.0285439  76.6994555  11.3258432
  25.5878779  73.8985023   6.3657919  26.3741868  73.4804446   6.0148336
  25.8517483  74.8031115   6.5339567  30.9887206  73.8360256   7.2690897
  31.7212378  73.2659473   7.5028727  30.2326562  73.4481857   7.7097403
  22.6063326  76.2587498   4.4654240  22.2421533  75.7318119   5.1767161
  23.4630441  75.8685967   4.2920725  28.5112626  67.5481830  11.7285506
  28.1795951  68.4177241  11.5046721  27.9158240  67.2318114  12.4079536
  25.0044146  79.7494376  11.1281418  24.7044869  80.6519415  11.0197226
  24.6595205  79.4826560  11.9802571  18.4556627  76.2008173   7.1618123
  17.5307124  76.0684387   7.3695815  18.7041040  76.9802392   7.6588065
  28.4041290  72.2676917   8.8078856  27.4958167  72.1992325   8.5137617
  28.3528885  72.7448862   9.6360681  22.4782155  73.6866562  16.7513753
  21.7015489  74.2460482  16.7416618  23.1172718  74.1723345  17.2728623
  30.2702936  70.4693355  10.5856730  29.6277316  70.7625888   9.9396524
  29.7657864  70.3546275  11.3909926  27.9243100  74.2156528   1.2742589
  28.8360956  74.4483915   1.0990286  27.4152747  74.7993572   0.7117668
  20.7328528  76.4952016  16.3131720  21.4743212  77.0337060  16.0366544
  20.0265513  77.1218304  16.4703272  26.2083867  78.6381156  14.9103881
  26.6167223  78.1963567  14.1658514  25.4861129  78.0633784  15.1638074
  22.5614937  73.5753763  12.2837438  23.4076132  73.9993176  12.4272087
  22.5013575  72.9187387  12.9776002  26.5312682  79.1982347   8.6656170
  25.9021544  79.3628061   7.9632238  26.1438344  79.6123956   9.4367134
  30.4101914  80.1336784   6.0200534  29.7252952  80.5135686   5.4697567
  30.4945763  80.7432111   6.7532482  25.7114383  71.2358131  13.9418612
  25.4675315  71.9900192  13.4052888  25.9874313  71.6143479  14.7765859
  27.6652845  77.7796743  12.6195878  27.8769741  78.4228503  11.9430259
  27.6182594  76.9459060  12.1517808  25.2679074  70.3914564   9.5232450
  24.4063553  70.6895818   9.8149187  25.2941509  70.6084963   8.5913482
  22.0840644  78.9356755   5.9306255  22.5478989  79.2144458   5.1410878
  21.8197442  78.0340199   5.7479346  18.9764725  78.4828236   8.8686019
  19.5466082  78.9115505   8.2303503  19.5672837  78.2010821   9.5670204
  19.4689891  73.6491664  17.1147030  18.8388552  74.3307945  17.3482427
  19.3625979  73.5374745  16.1700168  28.7798673  80.6568699  10.7918235
  29.6016117  80.2548886  10.5100917  28.7761076  80.5536933  11.7434351
  22.5455277  80.2052742  12.9478945  22.6099709  80.6673149  13.7837117
  21.8366201  79.5750107  13.0761255  13.0472567  73.5693950  10.4727945
  13.2980605  74.4540960  10.7385521  13.5832115  73.3898552   9.7003037
  36.8704666  77.0007447   7.1403206  36.1168375  76.4314845   6.9847211
  37.0052208  76.9670112   8.0873841  18.7470634  67.9512430  19.4772281
  18.3537580  67.3978628  20.1519925  19.5636774  68.2623008  19.8678799
  21.6638595  69.3670309  17.0692538  22.4048308  69.9677462  16.9897000
  21.8956518  68.6247946  16.5110580  16.8079933  74.5526676  15.3470767
  16.6933448  73.6511933  15.6477866  15.9524451  74.7990373  14.9955584
  23.8871771  82.4944416  16.9458268  23.4435625  81.7080795  16.6279172
  24.5488984  82.6823567  16.2802159  18.6458892  84.0240218  11.4718946
  19.1966317  83.8957281  10.6995940  17.8070368  84.3235107  11.1213839
  25.9853009  82.7747216  14.9739669  25.9671484  83.5956097  14.4819938
  26.9072929  82.6501291  15.1989810  22.4426063  80.2891346  15.8163178
  22.9754400  79.5279634  15.5862486  21.9140144  79.9964997  16.5587332
  25.6095758  65.3951412  11.3456819  25.2660027  66.2853053  11.2695930
  25.9774721  65.2053069  10.4826404  23.1593152  70.2309723   4.9114493
  22.3034748  69.8416574   4.7320131  23.5720104  70.3101684   4.0514278
  24.6892298  67.7656067   9.3106053  24.1857094  67.7286202   8.4973858
  24.9822905  68.6748809   9.3702709  20.9335184  67.8494796   8.3172234
  21.7988181  67.6537605   7.9578124  21.0012693  67.6205148   9.2441591
  30.5480315  78.1392377   1.7882428  29.7709758  77.8003537   1.3437590
  31.2271796  78.1445001   1.1137393  25.3632344  73.2587115   1.6789036
  25.0582479  73.5733264   2.5299179  26.3162786  73.3368535   1.7216369
  28.7871622  77.6126359   8.4449036  28.1295296  78.3025620   8.5329164
  29.5912021  78.0022791   8.7883022  18.5397503  70.0797004   5.6888601
  19.1141255  69.8572186   4.9561794  19.1268486  70.1485699   6.4417202
  27.5977081  75.9670731   6.4952978  28.1108962  76.6000723   6.9974687
  28.2478304  75.3671927   6.1296338  20.8420171  66.9538253   4.4163671
  20.1884583  66.6387270   3.7920285  20.8000645  66.3313994   5.1423493
  24.0757911  73.4420187   8.7411318  23.1580473  73.6635134   8.5833006
  24.4918055  73.5166497   7.8823025  24.8592959  74.8411603   3.8713998
  25.6064778  75.3533000   3.5621120  25.1284549  74.5195655   4.7318392
  28.3638877  80.9476733   4.6232120  27.9101204  80.1067643   4.6797311
  27.7332844  81.5838131   4.9606900  27.3071796  71.8768719   5.8532788
  26.5694553  71.3646105   6.1843030  27.5598570  71.4369100   5.0416065
  26.8071816  82.7853229   5.5581938  27.0994790  83.3458287   4.8394304
  27.3170437  83.0781790   6.3135097  27.4083424  64.6544971   6.4474557
  27.7142300  63.7942334   6.1600472  28.1336028  65.2462591   6.2473551
  21.6804503  74.9498764   6.9550748  21.7353113  73.9972600   6.8793225
  20.8695705  75.1058203   7.4392046  19.6196863  73.5675824   4.7141127
  18.8064729  73.8669994   5.1206319  20.1155858  73.1731512   5.4315609
  25.2171075  74.0317648  13.5456021  25.5720463  74.2589121  14.4050487
  25.8643206  74.3636025  12.9233276  30.9468812  77.1536084   4.2505350
  30.8086711  77.3437680   3.3226539  30.5905031  77.9155467   4.7073401
  19.1110938  71.1394179  10.3302362  19.7510317  70.9982938   9.6325325
  18.2788469  70.8528692   9.9540964  30.9738192  79.2212611   9.2616621
  31.4074698  79.1287900  10.1099675  31.6869772  79.1970111   8.6236637
  24.7066086  82.8214705  10.7949722  24.7603109  83.3905641  11.5627438
  23.8380868  82.9916590  10.4303759  16.1139555  71.1094504   5.1075349
  16.3746372  72.0239837   4.9984509  16.9356727  70.6418947   5.2571961
  17.5864480  72.5232261  12.2774173  18.2587533  72.3149623  11.6286822
  16.7594266  72.3254347  11.8379405  31.8353741  79.2636312  11.7949507
  32.0289631  80.1682122  12.0408782  31.7354359  78.8043731  12.6288092
  23.4890052  69.1494202  14.2939834  22.8417967  69.8484152  14.2004310
  24.2591067  69.5830346  14.6616082  26.8968850  79.4143054  17.3690387
  26.7454356  79.1853606  16.4520471  26.8873529  80.3713656  17.3821732
  23.6654186  76.9874967  12.3536654  24.5946246  77.1386127  12.1805621
  23.2445216  77.0758988  11.4985300  22.4642518  81.0125632  10.1235191
  22.3253604  80.6444416  10.9961130  21.6757114  81.5273271   9.9519149
  24.0147733  80.3907234   7.5124029  23.6797566  80.3508004   8.4081679
  23.5151679  79.7251950   7.0394439  17.9891977  75.7974864  13.0376610
  17.8511775  75.0655103  13.6388149  18.8996901  75.7083764  12.7560798
  20.6174278  75.5094824  12.5260290  21.3273896  74.8688016  12.4846908
  20.5743586  75.7607718  13.4486471  28.6061056  82.4462177  15.4466869
  28.5473603  81.7621397  14.7797452  29.0080575  83.1881167  14.9947495
  19.3303212  72.4960041  14.3455929  18.7940569  72.0450780  14.9977526
  18.7419920  72.6305950  13.6026394  28.6078464  80.4101761  13.6780849
  27.7205242  80.0727683  13.8007248  29.1777015  79.6784792  13.9149614
  15.0642333  71.6316049  11.4308924  14.9800522  71.0241719  10.6959334
  14.2425039  72.1225067  11.4318420  22.1379617  85.0703213  10.6442092
  22.0649789  85.8758185  11.1561397  21.6957010  85.2695179   9.8190113
  25.2366047  70.1169613   6.7979119  25.7334746  69.3639575   6.4780189
  24.4653028  70.1533929   6.2322328  33.0895804  75.8209978   8.4397411
  33.0785680  76.7034694   8.0691344  32.2213184  75.4681529   8.2451948
  24.5978301  84.9690047  12.8000251  25.3106273  85.6037512  12.7276152
  24.1068329  85.0653913  11.9840253  26.3195828  78.8741300   4.3717542
  25.3852106  78.9942762   4.2022247  26.4972496  77.9713767   4.1077552
  21.8201016  72.2586996   6.5250804  21.4498803  71.7058036   7.2131709
  22.3160108  71.6545129   5.9725804  29.7068379  74.7158619   4.9067577
  30.1728831  75.5486611   4.8327879  30.1575879  74.2503601   5.6112835
  19.6490214  82.7184491  13.6205822  20.3499674  83.3520974  13.7735216
  19.1785329  83.0599222  12.8601461  27.7744610  81.0602440   1.9053729
  28.0504454  80.9459035   2.8147603  26.9049109  80.6619925   1.8665902
  27.6785042  67.0839206   8.9458478  26.7648121  67.3143433   9.1140685
  28.1078143  67.1677650   9.7972510  27.4491500  75.2729098  11.4458372
  26.7962950  75.5205006  10.7910825  27.8271880  74.4593236  11.1120849
  23.4979073  76.0148909  17.9324409  22.8219710  75.9143039  18.6026784
  24.3206707  75.8588123  18.3960406  22.2401856  87.3215837  12.1682025
  22.7920164  87.4847458  12.9331110  22.5808049  87.9120274  11.4962050
  17.2166349  69.6690986  12.7703910  17.2807676  70.5305817  12.3581307
  17.1533470  69.0564988  12.0376268  16.6918622  71.7414119  16.4176944
  17.3190661  71.3591196  17.0314468  15.8346541  71.5228321  16.7832636
  27.0912730  82.1477094  18.0230679  27.6352634  82.7607052  17.5285634
  26.5099575  82.7056673  18.5397692  25.3770243  85.2697812   9.1545707
  25.2521383  84.4687552   8.6456653  26.0349334  85.7644006   8.6659677
  16.9978412  71.6246545   8.3322847  16.2764997  72.2382512   8.1930321
  17.7871667  72.1604309   8.2539493  27.4405152  83.0706832  10.7825257
  26.4935487  82.9512183  10.7103584  27.7887925  82.1829330  10.8651519
  19.8004725  68.9600971  14.6063499  20.3239127  69.2063268  15.3689808
  19.5817058  69.7921006  14.1866636  24.4451585  82.8659548   6.9829609
  24.2976547  81.9376256   7.1637180  25.2705079  82.8879639   6.4986685
  28.0485707  83.6888107   8.0694482  28.9732254  83.4830969   7.9318933
  27.8801010  83.4404508   8.9783824  21.0057270  69.9014666  12.2913170
  20.6654090  69.1022479  12.6933850  20.2996276  70.2016377  11.7190003
  21.6573742  66.9863979  10.7440493  22.4799811  66.5124457  10.6219383
  21.9011805  67.7654462  11.2439179  24.4413099  70.7197386   1.9761727
  24.6576714  71.6022024   1.6750555  23.9607166  70.3283600   1.2467369
  19.1812321  73.6783099   8.5532471  19.0356901  73.9923402   9.4456753
  18.7037524  74.2968000   8.0003370  21.0408704  70.6685647   8.6013361
  21.0270272  69.7726741   8.2645659  21.7581132  70.6756311   9.2351647
  22.8934834  71.1022988  10.6466488  22.6352612  72.0240058  10.6450819
  22.3619875  70.7053422  11.3366952  27.8381023  84.2073775   3.4256574
  28.0117901  83.6420197   2.6730426  28.3309914  85.0074670   3.2436064
  13.6557983  76.2188444  11.4920132  13.1111451  76.9948252  11.6240407
  14.5337333  76.5659248  11.3339254  20.4445600  69.5500028   3.8700931
  20.5661511  68.6216674   4.0691818  20.1547642  69.5638714   2.9579246
  23.3136790  67.2354938   7.0067651  23.3358487  67.2994271   6.0519630
  23.7304849  66.3959447   7.2008157  33.6920414  76.9710198   5.0446873
  34.1351560  76.2217523   4.6465997  32.8146925  76.9620334   4.6620605
  14.4424005  75.3458340  14.3850289  13.7005741  75.4940975  14.9714920
  14.1216749  75.6066606  13.5217039  30.7247619  80.9740245   2.0540803
  31.2498943  81.3127517   1.3290123  30.6369971  80.0387260   1.8703937
  22.3867667  84.8874318  14.1830679  22.6954794  84.6423465  15.0553379
  23.1843149  85.0920957  13.6949550  19.9286679  71.0632025  18.0790864
  19.9774835  71.9394148  17.6968633  20.4709193  70.5209418  17.5062507
  30.4141525  81.6073148  17.3592001  29.6237068  81.5897287  16.8196500
  30.1774879  82.1461442  18.1141037  30.5339400  78.4565615  14.6724729
  30.5837405  78.2915622  15.6140252  30.4253323  77.5892874  14.2822610
  27.8243162  74.4396543  15.9884036  28.7253025  74.3003007  15.6968034
  27.8991137  74.6050997  16.9282213  22.1585967  71.8163397  14.8337222
  21.2889277  72.1096963  14.5619811  22.3945448  72.4003842  15.5544486
  32.0357597  80.8762556  14.9166751  31.7442405  81.2392537  15.7530212
  31.4229728  80.1629564  14.7380083  33.2353279  78.4415436   7.4369321
  34.0700170  78.8805240   7.6006881  33.3712408  77.9654089   6.6177567
  30.2844785  75.9995171  13.3846809  30.7598906  76.1922817  12.5765660
  29.3610350  76.0554357  13.1390192  24.8625001  68.0343014  12.3502643
  25.3806945  68.7704041  12.0249131  24.5080134  68.3407008  13.1849402
  25.1137595  64.4543297   7.8703539  25.3939349  63.7866486   8.4963966
  25.8988202  64.6472392   7.3578203  28.9846454  72.8760931  11.6175114
  29.9363877  72.9759028  11.6387338  28.8149904  72.0839199  12.1273199
  27.0060833  69.9616514  11.8034515  26.4110765  70.2421527  11.1081004
  26.7210530  70.4510415  12.5751256  31.4634532  76.0967051  10.7317414
  31.4310852  75.1583051  10.9177098  32.0735155  76.1751087   9.9983239
  31.6129020  72.8878094  10.7775697  31.0968069  72.1036551  10.5905626
  32.4968969  72.5596811  10.9422217  29.2739747  66.6319110   6.7371510
  29.0764568  66.3234198   7.6214842  29.8839453  67.3580748   6.8669440
  37.2811081  77.1583057   9.8723451  38.0114470  76.8968345  10.4331154
  36.6718027  76.4211779   9.9125519  35.3626379  75.2990920  10.4697902
  34.6359542  75.1646885   9.8614394  34.9473665  75.6067749  11.2754620
  23.1856555  79.0180850  18.2345275  24.1059564  79.1959449  18.4285322
  23.1506138  78.0736895  18.0824974  16.1818628  76.9281884  10.8768056
  16.4004637  77.8598992  10.8956090  16.5944401  76.5689859  11.6622860
  23.1022845  67.4349970   2.8643745  22.2923574  67.0897055   3.2398991
  23.7907262  67.1257513   3.4531356  25.0313394  66.5128016   4.4868041
  25.5844432  66.9323470   5.1458064  25.2683480  65.5863765   4.5290997
  21.0546493  72.5015090  20.2670805  20.9543220  73.4509447  20.1982896
  20.8368035  72.1733329  19.3946875  28.4092201  68.6228542   3.9946705
  27.8290870  69.2813346   3.6124758  28.1428133  67.8005886   3.5834123
  26.8595767  68.0233599   6.1968026  27.3595545  68.1350134   5.3882345
  27.5031375  67.7194652   6.8368834  20.9177763  75.9312229  19.0835867
  20.4344845  76.7312589  19.2899756  21.0038702  75.9420174  18.1303311
  16.8451100  79.8216764  11.1204301  17.7994354  79.7900706  11.0534232
  16.6463624  79.3607387  11.9354526  17.4350483  78.3917880  13.6875098
  18.2543372  78.8861958  13.7109935  17.7087290  77.4749848  13.6592666
  27.1917079  70.7828632   3.0503054  26.3042934  71.0678283   2.8323248
  27.6071068  70.6222395   2.2030331  30.5431615  70.8075153   6.7657393
  31.3192005  71.2971605   7.0382010  29.8179749  71.2333207   7.2229262
  32.9804174  71.5202772   7.8231334  33.5748664  71.2798508   7.1124642
  33.0530757  70.8009903   8.4504870  27.1658103  76.2983168   3.2653344
  27.1093304  76.7551719   2.4260976  27.7186445  75.5373852   3.0876187
  30.9762908  72.0872900   4.0903463  30.7199843  71.6869535   4.9211671
  30.3515776  72.8016694   3.9653603  35.2875246  74.8268973   6.5974755
  34.7274804  74.8962162   7.3706317  34.6818750  74.6509958   5.8774251
  27.8992882  77.4887949   0.5605873  27.8441686  77.3232221  -0.3805683
  27.2738937  78.1963982   0.7168063  12.6885397  72.7256014  14.3867295
  13.3344260  72.2154967  14.8754520  12.4802548  73.4624695  14.9610721
  25.2138789  79.7936861  19.8859436  26.0829949  79.9677513  19.5246071
  24.7345540  80.6131278  19.7635165  21.2089007  66.9896058   0.1391191
  21.1967677  67.9337898   0.2959462  22.1012429  66.8066204  -0.1549347
  19.3824969  86.9133962  11.5648869  20.2852216  86.9457572  11.8815364
  19.1562339  85.9834413  11.5795205  25.0241127  63.5838835   4.3937128
  24.2573523  63.0297321   4.5393811  25.4351832  63.6560704   5.2551280
  17.0282888  69.8723631  18.4842310  17.8914349  69.5160435  18.6945634
  16.4548298  69.5337525  19.1717714  36.8731265  91.5025487   9.2904711
  37.5109675  91.3832234   8.5868051  36.7552108  92.4506331   9.3492663
  33.6820971  91.4552915   9.2266235  33.3439483  91.3393980   8.3386770
  34.5510739  91.0544080   9.2067241  34.1640754  92.6087767  15.1852441
  34.1529395  92.2140565  14.3132944  34.3261393  91.8753839  15.7786212
  30.8848015  95.3924879  14.1331625  30.5937881  96.2970509  14.0178291
  31.5204999  95.4341406  14.8475694  31.8104222  92.7701727  10.7232984
  32.4067794  92.5457749  10.0089947  31.8679194  92.0286473  11.3258432
  36.4272533  89.2276941   6.3657919  37.2135622  88.8096364   6.0148336
  36.6911238  90.1323033   6.5339567  41.8280960  89.1652174   7.2690897
  42.5606132  88.5951391   7.5028727  41.0720316  88.7773774   7.7097403
  33.4457080  91.5879415   4.4654240  33.0815287  91.0610036   5.1767161
  34.3024196  91.1977885   4.2920725  39.3506381  82.8773748  11.7285506
  39.0189705  83.7469159  11.5046721  38.7551994  82.5610032  12.4079536
  35.8437900  95.0786294  11.1281418  35.5438623  95.9811333  11.0197226
  35.4988960  94.8118477  11.9802571  29.2950382  91.5300091   7.1618123
  28.3700878  91.3976305   7.3695815  29.5434795  92.3094310   7.6588065
  39.2435044  87.5968834   8.8078856  38.3351921  87.5284243   8.5137617
  39.1922640  88.0740779   9.6360681  33.3175910  89.0158480  16.7513753
  32.5409244  89.5752400  16.7416618  33.9566473  89.5015263  17.2728623
  41.1096690  85.7985273  10.5856730  40.4671071  86.0917806   9.9396524
  40.6051619  85.6838193  11.3909926  38.7636854  89.5448446   1.2742589
  39.6754710  89.7775833   1.0990286  38.2546501  90.1285490   0.7117668
  31.5722282  91.8243933  16.3131720  32.3136966  92.3628977  16.0366544
  30.8659268  92.4510222  16.4703272  37.0477622  93.9673074  14.9103881
  37.4560978  93.5255484  14.1658514  36.3254883  93.3925701  15.1638074
  33.4008692  88.9045680  12.2837438  34.2469887  89.3285094  12.4272087
  33.3407329  88.2479305  12.9776002  37.3706436  94.5274264   8.6656170
  36.7415299  94.6919978   7.9632238  36.9832098  94.9415874   9.4367134
  41.2495668  95.4628702   6.0200534  40.5646706  95.8427604   5.4697567
  41.3339518  96.0724029   6.7532482  36.5508137  86.5650049  13.9418612
  36.3069069  87.3192109  13.4052888  36.8268068  86.9435396  14.7765859
  38.5046600  93.1088661  12.6195878  38.7163495  93.7520421  11.9430259
  38.4576348  92.2750978  12.1517808  36.1072829  85.7206482   9.5232450
  35.2457308  86.0187735   9.8149187  36.1335264  85.9376881   8.5913482
  32.9234398  94.2648672   5.9306255  33.3872744  94.5436375   5.1410878
  32.6591196  93.3632117   5.7479346  29.8158479  93.8120154   8.8686019
  30.3859836  94.2407422   8.2303503  30.4066591  93.5302739   9.5670204
  30.3083646  88.9783581  17.1147030  29.6782306  89.6599862  17.3482427
  30.2019734  88.8666663  16.1700168  39.6192428  95.9860617  10.7918235
  40.4409872  95.5840804  10.5100917  39.6154831  95.8828851  11.7434351
  33.3849031  95.5344660  12.9478945  33.4493464  95.9965067  13.7837117
  32.6759955  94.9042025  13.0761255  23.8866321  88.8985868  10.4727945
  24.1374360  89.7832878  10.7385521  24.4225870  88.7190469   9.7003037
  47.7098421  92.3299365   7.1403206  46.9562129  91.7606763   6.9847211
  47.8445962  92.2962030   8.0873841  29.5864389  83.2804347  19.4772281
  29.1931334  82.7270546  20.1519925  30.4030529  83.5914926  19.8678799
  32.5032350  84.6962226  17.0692538  33.2442063  85.2969379  16.9897000
  32.7350272  83.9539864  16.5110580  27.6473688  89.8818594  15.3470767
  27.5327203  88.9803851  15.6477866  26.7918205  90.1282290  14.9955584
  34.7265525  97.8236334  16.9458268  34.2829380  97.0372712  16.6279172
  35.3882739  98.0115484  16.2802159  29.4852646  99.3532135  11.4718946
  30.0360072  99.2249199  10.6995940  28.6464122  99.6527025  11.1213839
  36.8246763  98.1039134  14.9739669  36.8065239  98.9248015  14.4819938
  37.7466683  97.9793209  15.1989810  33.2819818  95.6183263  15.8163178
  33.8148154  94.8571551  15.5862486  32.7533899  95.3256915  16.5587332
  36.4489513  80.7243329  11.3456819  36.1053782  81.6144971  11.2695930
  36.8168475  80.5344987  10.4826404  33.9986906  85.5601641   4.9114493
  33.1428503  85.1708492   4.7320131  34.4113858  85.6393602   4.0514278
  35.5286053  83.0947984   9.3106053  35.0250848  83.0578120   8.4973858
  35.8216660  84.0040727   9.3702709  31.7728939  83.1786714   8.3172234
  32.6381936  82.9829523   7.9578124  31.8406448  82.9497066   9.2441591
  41.3874069  93.4684295   1.7882428  40.6103512  93.1295455   1.3437590
  42.0665550  93.4736918   1.1137393  36.2026098  88.5879032   1.6789036
  35.8976234  88.9025182   2.5299179  37.1556541  88.6660452   1.7216369
  39.6265376  92.9418276   8.4449036  38.9689051  93.6317538   8.5329164
  40.4305775  93.3314708   8.7883022  29.3791258  85.4088922   5.6888601
  29.9535010  85.1864104   4.9561794  29.9662240  85.4777617   6.4417202
  38.4370835  91.2962649   6.4952978  38.9502717  91.9292641   6.9974687
  39.0872059  90.6963844   6.1296338  31.6813926  82.2830171   4.4163671
  31.0278338  81.9679188   3.7920285  31.6394400  81.6605911   5.1423493
  34.9151666  88.7712105   8.7411318  33.9974227  88.9927052   8.5833006
  35.3311810  88.8458415   7.8823025  35.6986714  90.1703520   3.8713998
  36.4458533  90.6824917   3.5621120  35.9678303  89.8487573   4.7318392
  39.2032631  96.2768650   4.6232120  38.7494958  95.4359560   4.6797311
  38.5726598  96.9130049   4.9606900  38.1465551  87.2060636   5.8532788
  37.4088308  86.6938023   6.1843030  38.3992324  86.7661018   5.0416065
  37.6465571  98.1145147   5.5581938  37.9388545  98.6750204   4.8394304
  38.1564191  98.4073708   6.3135097  38.2477178  79.9836888   6.4474557
  38.5536055  79.1234252   6.1600472  38.9729783  80.5754509   6.2473551
  32.5198258  90.2790682   6.9550748  32.5746868  89.3264518   6.8793225
  31.7089460  90.4350121   7.4392046  30.4590618  88.8967741   4.7141127
  29.6458483  89.1961912   5.1206319  30.9549612  88.5023430   5.4315609
  36.0564830  89.3609566  13.5456021  36.4114217  89.5881039  14.4050487
  36.7036961  89.6927943  12.9233276  41.7862566  92.4828002   4.2505350
  41.6480465  92.6729598   3.3226539  41.4298785  93.2447384   4.7073401
  29.9504693  86.4686097  10.3302362  30.5904072  86.3274856   9.6325325
  29.1182223  86.1820610   9.9540964  41.8131946  94.5504529   9.2616621
  42.2468453  94.4579818  10.1099675  42.5263527  94.5262029   8.6236637
  35.5459841  98.1506623  10.7949722  35.5996863  98.7197559  11.5627438
  34.6774622  98.3208508  10.4303759  26.9533309  86.4386422   5.1075349
  27.2140126  87.3531755   4.9984509  27.7750481  85.9710864   5.2571961
  28.4258234  87.8524179  12.2774173  29.0981288  87.6441541  11.6286822
  27.5988021  87.6546265  11.8379405  42.6747496  94.5928229  11.7949507
  42.8683386  95.4974040  12.0408782  42.5748114  94.1335648  12.6288092
  34.3283806  84.4786120  14.2939834  33.6811721  85.1776070  14.2004310
  35.0984822  84.9122264  14.6616082  37.7362604  94.7434972  17.3690387
  37.5848111  94.5145524  16.4520471  37.7267284  95.7005573  17.3821732
  34.5047941  92.3166885  12.3536654  35.4340001  92.4678044  12.1805621
  34.0838971  92.4050906  11.4985300  33.3036272  96.3417549  10.1235191
  33.1647358  95.9736334  10.9961130  32.5150869  96.8565189   9.9519149
  34.8541488  95.7199152   7.5124029  34.5191320  95.6799922   8.4081679
  34.3545433  95.0543868   7.0394439  28.8285732  91.1266782  13.0376610
  28.6905530  90.3947021  13.6388149  29.7390655  91.0375682  12.7560798
  31.4568032  90.8386741  12.5260290  32.1667651  90.1979933  12.4846908
  31.4137340  91.0899636  13.4486471  39.4454811  97.7754095  15.4466869
  39.3867357  97.0913315  14.7797452  39.8474329  98.5173085  14.9947495
  30.1696966  87.8251959  14.3455929  29.6334323  87.3742698  14.9977526
  29.5813675  87.9597868  13.6026394  39.4472218  95.7393679  13.6780849
  38.5598997  95.4019600  13.8007248  40.0170769  95.0076710  13.9149614
  25.9036087  86.9607967  11.4308924  25.8194276  86.3533636  10.6959334
  25.0818794  87.4516985  11.4318420  32.9773372 100.3995131  10.6442092
  32.9043543 101.2050102  11.1561397  32.5350765 100.5987097   9.8190113
  36.0759801  85.4461530   6.7979119  36.5728501  84.6931493   6.4780189
  35.3046783  85.4825847   6.2322328  43.9289559  91.1501896   8.4397411
  43.9179435  92.0326611   8.0691344  43.0606938  90.7973447   8.2451948
  35.4372055 100.2981965  12.8000251  36.1500027 100.9329430  12.7276152
  34.9462084 100.3945831  11.9840253  37.1589582  94.2033218   4.3717542
  36.2245861  94.3234680   4.2022247  37.3366250  93.3005684   4.1077552
  32.6594770  87.5878913   6.5250804  32.2892558  87.0349954   7.2131709
  33.1553863  86.9837047   5.9725804  40.5462133  90.0450537   4.9067577
  41.0122586  90.8778528   4.8327879  40.9969634  89.5795518   5.6112835
  30.4883969  98.0476408  13.6205822  31.1893428  98.6812891  13.7735216
  30.0179084  98.3891140  12.8601461  38.6138364  96.3894358   1.9053729
  38.8898208  96.2750953   2.8147603  37.7442863  95.9911843   1.8665902
  38.5178796  82.4131124   8.9458478  37.6041876  82.6435351   9.1140685
  38.9471898  82.4969568   9.7972510  38.2885255  90.6021016  11.4458372
  37.6356705  90.8496923  10.7910825  38.6665635  89.7885154  11.1120849
  34.3372828  91.3440827  17.9324409  33.6613465  91.2434956  18.6026784
  35.1600462  91.1880041  18.3960406  33.0795611 102.6507754  12.1682025
  33.6313919 102.8139376  12.9331110  33.4201804 103.2412192  11.4962050
  28.0560104  84.9982904  12.7703910  28.1201430  85.8597735  12.3581307
  27.9927224  84.3856906  12.0376268  27.5312376  87.0706037  16.4176944
  28.1584415  86.6883114  17.0314468  26.6740295  86.8520239  16.7832636
  37.9306485  97.4769012  18.0230679  38.4746389  98.0898970  17.5285634
  37.3493330  98.0348590  18.5397692  36.2163998 100.5989730   9.1545707
  36.0915137  99.7979470   8.6456653  36.8743089 101.0935923   8.6659677
  27.8372166  86.9538462   8.3322847  27.1158752  87.5674430   8.1930321
  28.6265422  87.4896227   8.2539493  38.2798906  98.3998750  10.7825257
  37.3329242  98.2804101  10.7103584  38.6281679  97.5121248  10.8651519
  30.6398480  84.2892889  14.6063499  31.1632881  84.5355185  15.3689808
  30.4210813  85.1212924  14.1866636  35.2845339  98.1951466   6.9829609
  35.1370302  97.2668174   7.1637180  36.1098833  98.2171557   6.4986685
  38.8879461  99.0180025   8.0694482  39.8126009  98.8122886   7.9318933
  38.7194765  98.7696426   8.9783824  31.8451025  85.2306584  12.2913170
  31.5047845  84.4314397  12.6933850  31.1390031  85.5308295  11.7190003
  32.4967496  82.3155896  10.7440493  33.3193566  81.8416375  10.6219383
  32.7405560  83.0946380  11.2439179  35.2806854  86.0489304   1.9761727
  35.4970468  86.9313942   1.6750555  34.8000921  85.6575517   1.2467369
  30.0206075  89.0075017   8.5532471  29.8750656  89.3215320   9.4456753
  29.5431279  89.6259917   8.0003370  31.8802458  85.9977565   8.6013361
  31.8664027  85.1018658   8.2645659  32.5974886  86.0048229   9.2351647
  33.7328589  86.4314905  10.6466488  33.4746367  87.3531976  10.6450819
  33.2013629  86.0345340  11.3366952  38.6774778  99.5365692   3.4256574
  38.8511655  98.9712115   2.6730426  39.1703669 100.3366587   3.2436064
  24.4951737  91.5480361  11.4920132  23.9505205  92.3240169  11.6240407
  25.3731087  91.8951166  11.3339254  31.2839354  84.8791945   3.8700931
  31.4055265  83.9508591   4.0691818  30.9941396  84.8930631   2.9579246
  34.1530544  82.5646856   7.0067651  34.1752241  82.6286189   6.0519630
  34.5698603  81.7251364   7.2008157  44.5314169  92.3002115   5.0446873
  44.9745315  91.5509440   4.6465997  43.6540679  92.2912252   4.6620605
  25.2817759  90.6750258  14.3850289  24.5399495  90.8232893  14.9714920
  24.9610503  90.9358523  13.5217039  41.5641373  96.3032162   2.0540803
  42.0892697  96.6419435   1.3290123  41.4763726  95.3679178   1.8703937
  33.2261422 100.2166236  14.1830679  33.5348548  99.9715383  15.0553379
  34.0236904 100.4212874  13.6949550  30.7680434  86.3923943  18.0790864
  30.8168589  87.2686065  17.6968633  31.3102948  85.8501336  17.5062507
  41.2535279  96.9365066  17.3592001  40.4630823  96.9189205  16.8196500
  41.0168634  97.4753360  18.1141037  41.3733154  93.7857532  14.6724729
  41.4231159  93.6207540  15.6140252  41.2647078  92.9184791  14.2822610
  38.6636917  89.7688460  15.9884036  39.5646779  89.6294925  15.6968034
  38.7384891  89.9342915  16.9282213  32.9979722  87.1455315  14.8337222
  32.1283031  87.4388881  14.5619811  33.2339202  87.7295760  15.5544486
  42.8751351  96.2054474  14.9166751  42.5836159  96.5684454  15.7530212
  42.2623482  95.4921482  14.7380083  44.0747033  93.7707354   7.4369321
  44.9093925  94.2097158   7.6006881  44.2106162  93.2946007   6.6177567
  41.1238539  91.3287088  13.3846809  41.5992661  91.5214735  12.5765660
  40.2004105  91.3846274  13.1390192  35.7018756  83.3634932  12.3502643
  36.2200700  84.0995959  12.0249131  35.3473889  83.6698925  13.1849402
  35.9531350  79.7835215   7.8703539  36.2333104  79.1158404   8.4963966
  36.7381957  79.9764310   7.3578203  39.8240208  88.2052849  11.6175114
  40.7757631  88.3050946  11.6387338  39.6543659  87.4131117  12.1273199
  37.8454588  85.2908432  11.8034515  37.2504520  85.5713444  11.1081004
  37.5604285  85.7802333  12.5751256  42.3028286  91.4258968  10.7317414
  42.2704606  90.4874969  10.9177098  42.9128910  91.5043005   9.9983239
  42.4522775  88.2170012  10.7775697  41.9361823  87.4328468  10.5905626
  43.3362723  87.8888728  10.9422217  40.1133502  81.9611027   6.7371510
  39.9158323  81.6526115   7.6214842  40.7233207  82.6872666   6.8669440
  48.1204836  92.4874975   9.8723451  48.8508224  92.2260263  10.4331154
  47.5111781  91.7503697   9.9125519  46.2020133  90.6282838  10.4697902
  45.4753297  90.4938803   9.8614394  45.7867420  90.9359666  11.2754620
  34.0250310  94.3472767  18.2345275  34.9453319  94.5251366  18.4285322
  33.9899893  93.4028813  18.0824974  27.0212382  92.2573802  10.8768056
  27.2398392  93.1890910  10.8956090  27.4338156  91.8981776  11.6622860
  33.9416600  82.7641887   2.8643745  33.1317328  82.4188972   3.2398991
  34.6301017  82.4549431   3.4531356  35.8707148  81.8419934   4.4868041
  36.4238187  82.2615388   5.1458064  36.1077235  80.9155682   4.5290997
  31.8940247  87.8307008  20.2670805  31.7936974  88.7801365  20.1982896
  31.6761789  87.5025247  19.3946875  39.2485955  83.9520459   3.9946705
  38.6684624  84.6105263   3.6124758  38.9821888  83.1297804   3.5834123
  37.6989522  83.3525517   6.1968026  38.1989300  83.4642051   5.3882345
  38.3425130  83.0486570   6.8368834  31.7571517  91.2604147  19.0835867
  31.2738599  92.0604507  19.2899756  31.8432456  91.2712091  18.1303311
  27.6844855  95.1508681  11.1204301  28.6388108  95.1192624  11.0534232
  27.4857379  94.6899305  11.9354526  28.2744237  93.7209797  13.6875098
  29.0937126  94.2153876  13.7109935  28.5481045  92.8041765  13.6592666
  38.0310833  86.1120550   3.0503054  37.1436688  86.3970200   2.8323248
  38.4464822  85.9514313   2.2030331  41.3825369  86.1367071   6.7657393
  42.1585760  86.6263523   7.0382010  40.6573504  86.5625125   7.2229262
  43.8197928  86.8494690   7.8231334  44.4142419  86.6090426   7.1124642
  43.8924512  86.1301820   8.4504870  38.0051857  91.6275086   3.2653344
  37.9487058  92.0843637   2.4260976  38.5580199  90.8665770   3.0876187
  41.8156663  87.4164817   4.0903463  41.5593597  87.0161453   4.9211671
  41.1909531  88.1308611   3.9653603  46.1269001  90.1560891   6.5974755
  45.5668559  90.2254080   7.3706317  45.5212504  89.9801875   5.8774251
  38.7386636  92.8179867   0.5605873  38.6835440  92.6524138  -0.3805683
  38.1132692  93.5255900   0.7168063  23.5279151  88.0547931  14.3867295
  24.1738015  87.5446885  14.8754520  23.3196302  88.7916613  14.9610721
  36.0532543  95.1228779  19.8859436  36.9223703  95.2969431  19.5246071
  35.5739295  95.9423195  19.7635165  32.0482762  82.3187976   0.1391191
  32.0361432  83.2629816   0.2959462  32.9406184  82.1358121  -0.1549347
  30.2218724 102.2425880  11.5648869  31.1245970 102.2749490  11.8815364
  29.9956094 101.3126331  11.5795205  35.8634881  78.9130752   4.3937128
  35.0967277  78.3589239   4.5393811  36.2745586  78.9852621   5.2551280
  27.8676642  85.2015548  18.4842310  28.7308104  84.8452353  18.6945634
  27.2942053  84.8629443  19.1717714  47.7125019 106.8317405   9.2904711
  48.3503429 106.7124152   8.5868051  47.5945862 107.7798249   9.3492663
  44.5214726 106.7844833   9.2266235  44.1833237 106.6685897   8.3386770
  45.3904494 106.3835998   9.2067241  45.0034508 107.9379684  15.1852441
  44.9923149 107.5432483  14.3132944  45.1655148 107.2045757  15.7786212
  41.7241770 110.7216796  14.1331625  41.4331636 111.6262427  14.0178291
  42.3598754 110.7633324  14.8475694  42.6497976 108.0993645  10.7232984
  43.2461549 107.8749667  10.0089947  42.7072948 107.3578390  11.3258432
  50.1900135  98.2065666  11.7285506  49.8583460  99.0761077  11.5046721
  49.5945749  97.8901950  12.4079536  46.6831655 110.4078212  11.1281418
  46.3832378 111.3103251  11.0197226  46.3382714 110.1410395  11.9802571
  40.1344136 106.8592009   7.1618123  39.2094633 106.7268223   7.3695815
  40.3828549 107.6386228   7.6588065  50.0828799 102.9260752   8.8078856
  49.1745676 102.8576160   8.5137617  50.0316394 103.4032697   9.6360681
  44.1569664 104.3450398  16.7513753  43.3802998 104.9044318  16.7416618
  44.7960227 104.8307181  17.2728623  51.9490445 101.1277190  10.5856730
  51.3064825 101.4209723   9.9396524  51.4445373 101.0130111  11.3909926
  42.4116037 107.1535851  16.3131720  43.1530721 107.6920895  16.0366544
  41.7053022 107.7802140  16.4703272  47.8871376 109.2964991  14.9103881
  48.2954732 108.8547402  14.1658514  47.1648638 108.7217619  15.1638074
  44.2402446 104.2337598  12.2837438  45.0863641 104.6577012  12.4272087
  44.1801084 103.5771222  12.9776002  47.3901892 101.8941966  13.9418612
  47.1462823 102.6484027  13.4052888  47.6661822 102.2727314  14.7765859
  49.3440354 108.4380579  12.6195878  49.5557250 109.0812339  11.9430259
  49.2970103 107.6042895  12.1517808  46.9466583 101.0498399   9.5232450
  46.0851062 101.3479653   9.8149187  46.9729018 101.2668798   8.5913482
  40.6552234 109.1412072   8.8686019  41.2253591 109.5699340   8.2303503
  41.2460346 108.8594656   9.5670204  41.1477400 104.3075499  17.1147030
  40.5176061 104.9891780  17.3482427  41.0413488 104.1958581  16.1700168
  44.2242786 110.8636578  12.9478945  44.2887218 111.3256985  13.7837117
  43.5153710 110.2333942  13.0761255  34.7260076 104.2277786  10.4727945
  34.9768114 105.1124795  10.7385521  35.2619624 104.0482387   9.7003037
  40.4258143  98.6096265  19.4772281  40.0325089  98.0562463  20.1519925
  41.2424283  98.9206843  19.8678799  43.3426104 100.0254144  17.0692538
  44.0835817 100.6261297  16.9897000  43.5744027  99.2831782  16.5110580
  38.4867442 105.2110511  15.3470767  38.3720957 104.3095768  15.6477866
  37.6311960 105.4574208  14.9955584  45.5659280 113.1528252  16.9458268
  45.1223134 112.3664630  16.6279172  46.2276493 113.3407402  16.2802159
  40.3246401 114.6824053  11.4718946  40.8753826 114.5541117  10.6995940
  39.4857877 114.9818942  11.1213839  47.6640518 113.4331051  14.9739669
  47.6458993 114.2539933  14.4819938  48.5860438 113.3085127  15.1989810
  44.1213572 110.9475181  15.8163178  44.6541909 110.1863469  15.5862486
  43.5927653 110.6548833  16.5587332  47.2883267  96.0535247  11.3456819
  46.9447536  96.9436889  11.2695930  47.6562230  95.8636905  10.4826404
  44.8380661 100.8893559   4.9114493  43.9822257 100.5000409   4.7320131
  45.2507613 100.9685520   4.0514278  46.3679807  98.4239902   9.3106053
  45.8644603  98.3870037   8.4973858  46.6610414  99.3332645   9.3702709
  42.6122693  98.5078632   8.3172234  43.4775690  98.3121440   7.9578124
  42.6800202  98.2788984   9.2441591  40.2185012 100.7380840   5.6888601
  40.7928764 100.5156021   4.9561794  40.8055995 100.8069534   6.4417202
  42.5207680  97.6122089   4.4163671  41.8672092  97.2971106   3.7920285
  42.4788154  96.9897829   5.1423493  45.7545420 104.1004022   8.7411318
  44.8367982 104.3218969   8.5833006  46.1705564 104.1750333   7.8823025
  49.0870933  95.3128806   6.4474557  49.3929809  94.4526170   6.1600472
  49.8123537  95.9046426   6.2473551  43.3592012 105.6082599   6.9550748
  43.4140622 104.6556436   6.8793225  42.5483214 105.7642038   7.4392046
  41.2984372 104.2259659   4.7141127  40.4852238 104.5253829   5.1206319
  41.7943367 103.8315348   5.4315609  46.8958584 104.6901483  13.5456021
  47.2507972 104.9172957  14.4050487  47.5430715 105.0219860  12.9233276
  40.7898447 101.7978014  10.3302362  41.4297826 101.6566774   9.6325325
  39.9575978 101.5112528   9.9540964  37.7927063 101.7678339   5.1075349
  38.0533881 102.6823673   4.9984509  38.6144236 101.3002782   5.2571961
  39.2651989 103.1816097  12.2774173  39.9375042 102.9733459  11.6286822
  38.4381775 102.9838183  11.8379405  45.1677561  99.8078038  14.2939834
  44.5205476 100.5067987  14.2004310  45.9378576 100.2414181  14.6616082
  48.5756359 110.0726890  17.3690387  48.4241865 109.8437441  16.4520471
  48.5661038 111.0297491  17.3821732  45.3441695 107.6458802  12.3536654
  46.2733755 107.7969962  12.1805621  44.9232725 107.7342823  11.4985300
  44.1430027 111.6709467  10.1235191  44.0041113 111.3028251  10.9961130
  43.3544623 112.1857106   9.9519149  39.6679486 106.4558700  13.0376610
  39.5299284 105.7238938  13.6388149  40.5784410 106.3667600  12.7560798
  42.2961787 106.1678659  12.5260290  43.0061405 105.5271851  12.4846908
  42.2531095 106.4191554  13.4486471  50.2848565 113.1046012  15.4466869
  50.2261112 112.4205232  14.7797452  50.6868084 113.8465002  14.9947495
  41.0090721 103.1543877  14.3455929  40.4728078 102.7034615  14.9977526
  40.4207429 103.2889786  13.6026394  50.2865973 111.0685596  13.6780849
  49.3992751 110.7311518  13.8007248  50.8564524 110.3368627  13.9149614
  36.7429842 102.2899885  11.4308924  36.6588031 101.6825554  10.6959334
  35.9212548 102.7808903  11.4318420  46.9153556 100.7753448   6.7979119
  47.4122255 100.0223410   6.4780189  46.1440537 100.8117765   6.2322328
  43.4988525 102.9170831   6.5250804  43.1286312 102.3641871   7.2131709
  43.9947617 102.3128964   5.9725804  41.3277723 113.3768326  13.6205822
  42.0287183 114.0104809  13.7735216  40.8572838 113.7183058  12.8601461
  49.3572551  97.7423042   8.9458478  48.4435630  97.9727268   9.1140685
  49.7865652  97.8261486   9.7972510  49.1279009 105.9312933  11.4458372
  48.4750459 106.1788841  10.7910825  49.5059389 105.1177072  11.1120849
  45.1766582 106.6732745  17.9324409  44.5007219 106.5726874  18.6026784
  45.9994216 106.5171958  18.3960406  38.8953858 100.3274822  12.7703910
  38.9595185 101.1889653  12.3581307  38.8320978  99.7148823  12.0376268
  38.3706131 102.3997954  16.4176944  38.9978170 102.0175032  17.0314468
  37.5134050 102.1812156  16.7832636  48.7700239 112.8060930  18.0230679
  49.3140143 113.4190888  17.5285634  48.1887084 113.3640508  18.5397692
  38.6765921 102.2830380   8.3322847  37.9552506 102.8966348   8.1930321
  39.4659176 102.8188145   8.2539493  41.4792234  99.6184807  14.6063499
  42.0026636  99.8647103  15.3689808  41.2604567 100.4504841  14.1866636
  42.6844779 100.5598502  12.2913170  42.3441599  99.7606315  12.6933850
  41.9783785 100.8600212  11.7190003  43.3361251  97.6447814  10.7440493
  44.1587320  97.1708292  10.6219383  43.5799314  98.4238298  11.2439179
  40.8599830 104.3366935   8.5532471  40.7144410 104.6507238   9.4456753
  40.3825033 104.9551835   8.0003370  42.7196213 101.3269483   8.6013361
  42.7057781 100.4310576   8.2645659  43.4368641 101.3340146   9.2351647
  44.5722343 101.7606823  10.6466488  44.3140121 102.6823894  10.6450819
  44.0407384 101.3637257  11.3366952  35.3345492 106.8772279  11.4920132
  34.7898960 107.6532087  11.6240407  36.2124842 107.2243084  11.3339254
  42.1233108 100.2083863   3.8700931  42.2449020  99.2800509   4.0691818
  41.8335151 100.2222549   2.9579246  44.9924299  97.8938773   7.0067651
  45.0145996  97.9578106   6.0519630  45.4092358  97.0543282   7.2008157
  36.1211514 106.0042175  14.3850289  35.3793250 106.1524811  14.9714920
  35.8004258 106.2650441  13.5217039  44.0655176 115.5458154  14.1830679
  44.3742303 115.3007300  15.0553379  44.8630658 115.7504792  13.6949550
  41.6074188 101.7215860  18.0790864  41.6562343 102.5977983  17.6968633
  42.1496702 101.1793253  17.5062507  52.0929034 112.2656984  17.3592001
  51.3024577 112.2481122  16.8196500  51.8562388 112.8045277  18.1141037
  52.2126909 109.1149450  14.6724729  52.2624914 108.9499457  15.6140252
  52.1040832 108.2476709  14.2822610  49.5030671 105.0980378  15.9884036
  50.4040534 104.9586843  15.6968034  49.5778646 105.2634833  16.9282213
  43.8373476 102.4747233  14.8337222  42.9676786 102.7680799  14.5619811
  44.0732957 103.0587678  15.5544486  53.7145106 111.5346391  14.9166751
  53.4229914 111.8976372  15.7530212  53.1017237 110.8213400  14.7380083
  51.9632294 106.6579006  13.3846809  52.4386415 106.8506652  12.5765660
  51.0397859 106.7138192  13.1390192  46.5412510  98.6926850  12.3502643
  47.0594454  99.4287877  12.0249131  46.1867643  98.9990843  13.1849402
  46.7925104  95.1127132   7.8703539  47.0726858  94.4450321   8.4963966
  47.5775711  95.3056228   7.3578203  50.6633963 103.5344766  11.6175114
  51.6151386 103.6342864  11.6387338  50.4937413 102.7423035  12.1273199
  48.6848342 100.6200349  11.8034515  48.0898274 100.9005362  11.1081004
  48.3998039 101.1094250  12.5751256  53.2916529 103.5461929  10.7775697
  52.7755578 102.7620386  10.5905626  54.1756478 103.2180646  10.9422217
  50.9527256  97.2902945   6.7371510  50.7552077  96.9818033   7.6214842
  51.5626962  98.0164584   6.8669440  44.8644064 109.6764685  18.2345275
  45.7847073 109.8543284  18.4285322  44.8293647 108.7320730  18.0824974
  37.8606137 107.5865720  10.8768056  38.0792146 108.5182827  10.8956090
  38.2731910 107.2273694  11.6622860  44.7810354  98.0933805   2.8643745
  43.9711083  97.7480890   3.2398991  45.4694771  97.7841349   3.4531356
  46.7100903  97.1711852   4.4868041  47.2631941  97.5907305   5.1458064
  46.9470989  96.2447600   4.5290997  42.7334002 103.1598925  20.2670805
  42.6330729 104.1093282  20.1982896  42.5155544 102.8317164  19.3946875
  48.5383276  98.6817435   6.1968026  49.0383054  98.7933969   5.3882345
  49.1818884  98.3778487   6.8368834  42.5965272 106.5896064  19.0835867
  42.1132354 107.3896424  19.2899756  42.6826211 106.6004009  18.1303311
  38.5238609 110.4800599  11.1204301  39.4781863 110.4484541  11.0534232
  38.3251133 110.0191223  11.9354526  39.1137992 109.0501715  13.6875098
  39.9330881 109.5445794  13.7109935  39.3874799 108.1333683  13.6592666
  34.3672906 103.3839849  14.3867295  35.0131769 102.8738803  14.8754520
  34.1590057 104.1208530  14.9610721  46.8926298 110.4520696  19.8859436
  47.7617458 110.6261349  19.5246071  46.4133049 111.2715113  19.7635165
  41.0612478 117.5717797  11.5648869  41.9639725 117.6041408  11.8815364
  40.8349848 116.6418248  11.5795205  46.7028636  94.2422670   4.3937128
  45.9361032  93.6881157   4.5393811  47.1139341  94.3144539   5.2551280
  38.7070397 100.5307466  18.4842310  39.5701858 100.1744271  18.6945634
  38.1335807 100.1921361  19.1717714  51.2651898 113.9388183  19.4772281
  50.8718843 113.3854381  20.1519925  52.0818038 114.2498761  19.8678799
  54.1819859 115.3546062  17.0692538  54.9229572 115.9553215  16.9897000
  54.4137781 114.6123699  16.5110580  49.2099885 117.7289872  16.4176944
  49.8371924 117.3466949  17.0314468  48.3527804 117.5104074  16.7832636
  52.4467943 117.0507778  18.0790864  52.4956098 117.9269901  17.6968633
  52.9890457 116.5085171  17.5062507  53.5727756 118.4890843  20.2670805
  53.4724483 119.4385200  20.1982896  53.3549298 118.1609082  19.3946875
  45.2066660 118.7131767  14.3867295  45.8525524 118.2030721  14.8754520
  44.9983811 119.4500448  14.9610721  49.5464151 115.8599384  18.4842310
  50.4095613 115.5036188  18.6945634  48.9729562 115.5213278  19.1717714
  28.6061058  59.4524299   2.1712176  28.5473604  58.7683520   1.5042759
  29.0080576  60.1943290   1.7192802  27.0912732  59.1539217   4.7475986
  27.6352636  59.7669175   4.2530941  26.5099576  59.7118795   5.2642999
  30.4141526  58.6135271   4.0837307  29.6237070  58.5959410   3.5441807
  30.1774881  59.1523565   4.8386344  32.0357598  57.8824679   1.6412057
  31.7442406  58.2454659   2.4775518  31.4229729  57.1691687   1.4625389
  25.2138790  56.7998984   6.6104742  26.0829950  56.9739636   6.2491377
  24.7345542  57.6193400   6.4880472  36.8731266  68.5087610  -3.9849983
  37.5109676  68.3894357  -4.6886643  36.7552109  69.4568453  -3.9262031
  33.6820972  68.4615038  -4.0488458  33.3439484  68.3456102  -4.9367923
  34.5510740  68.0606203  -4.0687452  34.1640755  69.6149889   1.9097747
  34.1529396  69.2202688   1.0378251  34.3261395  68.8815962   2.5031519
  30.8848016  72.3987001   0.8576931  30.5937882  73.3032632   0.7423598
  31.5205001  72.4403529   1.5721001  31.8104223  69.7763850  -2.5521709
  32.4067795  69.5519872  -3.2664746  31.8679195  69.0348595  -1.9496261
  41.8280962  66.1714297  -6.0063796  42.5606134  65.6013513  -5.7725967
  41.0720317  65.7835897  -5.5657291  39.3506382  59.8835871  -1.5469188
  39.0189707  60.7531282  -1.7707973  38.7551995  59.5672155  -0.8675157
  35.8437901  72.0848417  -2.1473275  35.5438625  72.9873455  -2.2557468
  35.4988961  71.8180600  -1.2952122  39.2435045  64.6030957  -4.4675838
  38.3351923  64.5346365  -4.7617077  39.1922641  65.0802902  -3.6394012
  33.3175911  66.0220602   3.4759060  32.5409245  66.5814523   3.4661924
  33.9566474  66.5077385   3.9973930  41.1096692  62.8047395  -2.6897964
  40.4671072  63.0979928  -3.3358169  40.6051620  62.6900316  -1.8844767
  31.5722283  68.8306056   3.0377027  32.3136968  69.3691100   2.7611850
  30.8659269  69.4572345   3.1948578  37.0477623  70.9735196   1.6349188
  37.4560979  70.5317607   0.8903820  36.3254885  70.3987824   1.8883381
  33.4008693  65.9107803  -0.9917255  34.2469888  66.3347217  -0.8482606
  33.3407331  65.2541427  -0.2978692  37.3706438  71.5336387  -4.6098523
  36.7415300  71.6982101  -5.3122455  36.9832100  71.9477996  -3.8387559
  41.2495670  72.4690825  -7.2554159  40.5646708  72.8489726  -7.8057126
  41.3339519  73.0786151  -6.5222211  36.5508138  63.5712171   0.6663919
  36.3069070  64.3254232   0.1298194  36.8268069  63.9497519   1.5011166
  38.5046601  70.1150784  -0.6558816  38.7163496  70.7582544  -1.3324435
  38.4576349  69.2813100  -1.1236886  29.8158481  70.8182277  -4.4068675
  30.3859838  71.2469545  -5.0451190  30.4066592  70.5364861  -3.7084489
  30.3083647  65.9845704   3.8392337  29.6782308  66.6661985   4.0727733
  30.2019735  65.8728786   2.8945475  39.6192429  72.9922739  -2.4836458
  40.4409873  72.5902926  -2.7653777  39.6154832  72.8890973  -1.5320343
  33.3849033  72.5406782  -0.3275748  33.4493465  73.0027190   0.5082424
  32.6759956  71.9104147  -0.1993438  47.7098422  69.3361488  -6.1351487
  46.9562131  68.7668886  -6.2907482  47.8445963  69.3024152  -5.1880852
  29.5864390  60.2866470   6.2017588  29.1931335  59.7332668   6.8765232
  30.4030530  60.5977048   6.5924105  32.5032351  61.7024349   3.7937844
  33.2442064  62.3031502   3.7142307  32.7350274  60.9601987   3.2355887
  27.6473689  66.8880716   2.0716074  27.5327204  65.9865973   2.3723173
  26.7918207  67.1344413   1.7200890  34.7265527  74.8298456   3.6703575
  34.2829381  74.0434835   3.3524479  35.3882740  75.0177607   3.0047465
  29.4852648  76.3594258  -1.8035747  30.0360073  76.2311321  -2.5758753
  28.6464124  76.6589147  -2.1540854  36.8246765  75.1101256   1.6984976
  36.8065240  75.9310137   1.2065245  37.7466685  74.9855332   1.9235117
  33.2819819  72.6245386   2.5408484  33.8148156  71.8633674   2.3107792
  32.7533900  72.3319038   3.2832639  39.6265378  69.9480399  -4.8305657
  38.9689052  70.6379660  -4.7425529  40.4305777  70.3376831  -4.4871671
  38.4370836  68.3024772  -6.7801716  38.9502718  68.9354763  -6.2780006
  39.0872060  67.7025967  -7.1458356  34.9151667  65.7774227  -4.5343375
  33.9974229  65.9989174  -4.6921687  35.3311811  65.8520538  -5.3931668
  39.2032633  73.2830773  -8.6522573  38.7494960  72.4421683  -8.5957383
  38.5726599  73.9192171  -8.3147793  37.6465572  75.1207270  -7.7172755
  37.9388546  75.6812327  -8.4360389  38.1564192  75.4135831  -6.9619596
  36.0564831  66.3671688   0.2701327  36.4114218  66.5943161   1.1295793
  36.7036962  66.6990065  -0.3521417  41.7862568  69.4890124  -9.0249344
  41.6480466  69.6791720  -9.9528154  41.4298787  70.2509507  -8.5681292
  41.8131947  71.5566651  -4.0138072  42.2468454  71.4641940  -3.1655018
  42.5263528  71.5324152  -4.6518056  35.5459842  75.1568745  -2.4804971
  35.5996864  75.7259682  -1.7127256  34.6774624  75.3270630  -2.8450934
  28.4258236  64.8586302  -0.9980520  29.0981289  64.6503664  -1.6467871
  27.5988022  64.6608388  -1.4375288  42.6747497  71.5990352  -1.4805187
  42.8683387  72.5036162  -1.2345912  42.5748115  71.1397771  -0.6466602
  34.3283808  61.4848242   1.0185141  33.6811723  62.1838192   0.9249617
  35.0984823  61.9184386   1.3861389  37.7362606  71.7497095   4.0935694
  37.5848112  71.5207646   3.1765778  37.7267285  72.7067696   4.1067039
  34.5047942  69.3229007  -0.9218040  35.4340002  69.4740167  -1.0949072
  34.0838972  69.4113028  -1.7769393  33.3036274  73.3479672  -3.1519502
  33.1647359  72.9798456  -2.2793564  32.5150870  73.8627311  -3.3235544
  34.8541489  72.7261274  -5.7630664  34.5191321  72.6862044  -4.8673014
  34.3545435  72.0605990  -6.2360254  28.8285733  68.1328905  -0.2378083
  28.6905531  67.4009143   0.3633456  29.7390656  68.0437805  -0.5193895
  31.4568034  67.8448864  -0.7494403  32.1667652  67.2042056  -0.7907785
  31.4137342  68.0961759   0.1731777  39.4454812  74.7816217   2.1712176
  39.3867358  74.0975437   1.5042759  39.8474331  75.5235207   1.7192802
  30.1696967  64.8314082   1.0701236  29.6334325  64.3804820   1.7222832
  29.5813676  64.9659991   0.3271700  39.4472219  72.7455801   0.4026156
  38.5598998  72.4081723   0.5252554  40.0170771  72.0138832   0.6394921
  32.9773373  77.4057253  -2.6312601  32.9043544  78.2112225  -2.1193297
  32.5350766  77.6049219  -3.4564580  43.9289560  68.1564018  -4.8357283
  43.9179436  69.0388734  -5.2063350  43.0606939  67.8035569  -5.0302746
  35.4372056  77.3044087  -0.4754443  36.1500029  77.9391552  -0.5478541
  34.9462085  77.4007953  -1.2914441  30.4883970  75.0538531   0.3451128
  31.1893429  75.6875014   0.4980522  30.0179085  75.3953263  -0.4153233
  38.2885256  67.6083138  -1.8296321  37.6356706  67.8559046  -2.4843869
  38.6665636  66.7947277  -2.1633844  34.3372829  68.3502949   4.6569716
  33.6613466  68.2497079   5.3272091  35.1600463  68.1942163   5.1205713
  33.0795612  79.6569877  -1.1072668  33.6313920  79.8201498  -0.3423583
  33.4201805  80.2474315  -1.7792644  27.5312378  64.0768159   3.1422251
  28.1584416  63.6945237   3.7559775  26.6740296  63.8582361   3.5077943
  37.9306486  74.4831134   4.7475986  38.4746390  75.0961093   4.2530941
  37.3493331  75.0410713   5.2642999  36.2163999  77.6051852  -4.1208986
  36.0915139  76.8041592  -4.6298041  36.8743090  78.0998046  -4.6095016
  38.2798907  75.4060873  -2.4929436  37.3329243  75.2866224  -2.5651109
  38.6281681  74.5183371  -2.4103175  30.6398481  61.2955011   1.3308806
  31.1632883  61.5417308   2.0935115  30.4210814  62.1275046   0.9111943
  35.2845341  75.2013589  -6.2925084  35.1370303  74.2730296  -6.1117514
  36.1098834  75.2233679  -6.7768009  38.8879463  76.0242147  -5.2060211
  39.8126010  75.8185009  -5.3435760  38.7194766  75.7758549  -4.2970870
  31.8451026  62.2368707  -0.9841524  31.5047846  61.4376520  -0.5820844
  31.1390032  62.5370417  -1.5564691  33.7328590  63.4377028  -2.6288205
  33.4746368  64.3594098  -2.6303875  33.2013630  63.0407462  -1.9387741
  38.6774779  76.5427815  -9.8498120  38.8511656  75.9774237 -10.6024267
  39.1703670  77.3428710 -10.0318630  24.4951739  68.5542484  -1.7834561
  23.9505207  69.3302292  -1.6514287  25.3731088  68.9013288  -1.9415439
  44.5314170  69.3064238  -8.2307820  44.9745316  68.5571563  -8.6288697
  43.6540680  69.2974374  -8.6134088  25.2817760  67.6812380   1.1095596
  24.5399496  67.8295016   1.6960226  24.9610505  67.9420646   0.2462345
  41.5641374  73.3094285 -11.2213891  42.0892698  73.6481558 -11.9464571
  41.4763727  72.3741300 -11.4050756  33.2261423  77.2228359   0.9075986
  33.5348550  76.9777505   1.7798686  34.0236905  77.4274997   0.4194856
  30.7680435  63.3986065   4.8036170  30.8168590  64.2748188   4.4213940
  31.3102949  62.8563458   4.2307813  41.2535280  73.9427189   4.0837307
  40.4630824  73.9251327   3.5441807  41.0168635  74.4815482   4.8386344
  41.3733156  70.7919655   1.3970036  41.4231160  70.6269662   2.3385559
  41.2647079  69.9246914   1.0067917  38.6636918  66.7750583   2.7129343
  39.5646781  66.6357048   2.4213340  38.7384892  66.9405038   3.6527520
  32.9979723  64.1517438   1.5582529  32.1283033  64.4451004   1.2865117
  33.2339204  64.7357883   2.2789793  42.8751352  73.2116596   1.6412057
  42.5836161  73.5746577   2.4775518  42.2623484  72.4983605   1.4625389
  44.0747035  70.7769476  -5.8385372  44.9093926  71.2159280  -5.6747812
  44.2106163  70.3008129  -6.6577127  41.1238541  68.3349211   0.1092115
  41.5992662  68.5276857  -0.6989033  40.2004106  68.3908397  -0.1364501
  35.7018757  60.3697055  -0.9252051  36.2200701  61.1058082  -1.2505562
  35.3473890  60.6761048  -0.0905292  39.8240210  65.2114971  -1.6579579
  40.7757632  65.3113069  -1.6367355  39.6543660  64.4193240  -1.1481495
  37.8454589  62.2970554  -1.4720178  37.2504521  62.5775567  -2.1673689
  37.5604286  62.7864455  -0.7003437  42.3028287  68.4321091  -2.5437279
  42.2704607  67.4937092  -2.3577596  42.9128911  68.5105128  -3.2771454
  42.4522776  65.2232134  -2.4978996  41.9361825  64.4390591  -2.6849067
  43.3362724  64.8950851  -2.3332477  48.1204837  69.4937098  -3.4031243
  48.8508226  69.2322386  -2.8423539  47.5111783  68.7565820  -3.3629175
  46.2020134  67.6344960  -2.8056791  45.4753298  67.5000925  -3.4140300
  45.7867421  67.9421789  -2.0000073  34.0250311  71.3534890   4.9590582
  34.9453320  71.5313489   5.1530628  33.9899894  70.4090935   4.8070281
  27.0212383  69.2635925  -2.3986637  27.2398393  70.1953032  -2.3798603
  27.4338157  68.9043899  -1.6131833  31.8940249  64.8369130   6.9916112
  31.7936976  65.7863487   6.9228203  31.6761791  64.5087369   6.1192182
  31.7571519  68.2666269   5.8081173  31.2738600  69.0666629   6.0145062
  31.8432458  68.2774214   4.8548617  27.6844856  72.1570804  -2.1550393
  28.6388110  72.1254746  -2.2220461  27.4857380  71.6961428  -1.3400167
  28.2744238  70.7271920   0.4120405  29.0937127  71.2215999   0.4355242
  28.5481046  69.8103888   0.3837972  43.8197929  63.8556812  -5.4523360
  44.4142420  63.6152548  -6.1630052  43.8924513  63.1363943  -4.8249823
  46.1269002  67.1623013  -6.6779939  45.5668560  67.2316203  -5.9048377
  45.5212505  66.9863998  -7.3980442  23.5279153  65.0610054   1.1112602
  24.1738016  64.5509008   1.5999827  23.3196304  65.7978735   1.6856027
  36.0532545  72.1290901   6.6104742  36.9223704  72.3031554   6.2491377
  35.5739296  72.9485318   6.4880472  30.2218725  79.2488002  -1.7105824
  31.1245972  79.2811613  -1.3939329  29.9956095  78.3188453  -1.6959488
  27.8676644  62.2077671   5.2087616  28.7308105  61.8514476   5.4190941
  27.2942054  61.8691566   5.8963020  47.7125020  83.8379527  -3.9849983
  48.3503430  83.7186275  -4.6886643  47.5945863  84.7860371  -3.9262031
  44.5214727  83.7906955  -4.0488458  44.1833238  83.6748020  -4.9367923
  45.3904495  83.3898120  -4.0687452  45.0034510  84.9441807   1.9097747
  44.9923151  84.5494605   1.0378251  45.1655149  84.2107880   2.5031519
  41.7241771  87.7278919   0.8576931  41.4331637  88.6324550   0.7423598
  42.3598755  87.7695446   1.5721001  42.6497978  85.1055767  -2.5521709
  43.2461550  84.8811790  -3.2664746  42.7072949  84.3640513  -1.9496261
  50.1900136  75.2127788  -1.5469188  49.8583461  76.0823199  -1.7707973
  49.5945750  74.8964072  -0.8675157  46.6831656  87.4140334  -2.1473275
  46.3832379  88.3165373  -2.2557468  46.3382715  87.1472518  -1.2952122
  40.1344137  83.8654131  -6.1136571  39.2094634  83.7330345  -5.9058879
  40.3828551  84.6448350  -5.6166628  50.0828800  79.9322875  -4.4675838
  49.1745677  79.8638283  -4.7617077  50.0316396  80.4094819  -3.6394012
  44.1569666  81.3512520   3.4759060  43.3803000  81.9106440   3.4661924
  44.7960229  81.8369303   3.9973930  51.9490446  78.1339313  -2.6897964
  51.3064826  78.4271846  -3.3358169  51.4445375  78.0192233  -1.8844767
  42.4116038  84.1597973   3.0377027  43.1530722  84.6983017   2.7611850
  41.7053023  84.7864262   3.1948578  47.8871377  86.3027114   1.6349188
  48.2954734  85.8609524   0.8903820  47.1648639  85.7279741   1.8883381
  44.2402448  81.2399721  -0.9917255  45.0863643  81.6639134  -0.8482606
  44.1801085  80.5833345  -0.2978692  47.3901893  78.9004089   0.6663919
  47.1462825  79.6546150   0.1298194  47.6661823  79.2789437   1.5011166
  49.3440356  85.4442701  -0.6558816  49.5557251  86.0874461  -1.3324435
  49.2970104  84.6105018  -1.1236886  46.9466585  78.0560522  -3.7522244
  46.0851064  78.3541776  -3.4605506  46.9729019  78.2730921  -4.6841211
  40.6552235  86.1474194  -4.4068675  41.2253592  86.5761463  -5.0451190
  41.2460347  85.8656779  -3.7084489  41.1477402  81.3137622   3.8392337
  40.5176062  81.9953903   4.0727733  41.0413489  81.2020703   2.8945475
  44.2242787  87.8698700  -0.3275748  44.2887220  88.3319107   0.5082424
  43.5153711  87.2396065  -0.1993438  34.7260077  81.2339908  -2.8026748
  34.9768115  82.1186918  -2.5369172  35.2619625  81.0544510  -3.5751657
  40.4258144  75.6158388   6.2017588  40.0325090  75.0624586   6.8765232
  41.2424285  75.9268966   6.5924105  43.3426105  77.0316267   3.7937844
  44.0835819  77.6323420   3.7142307  43.5744028  76.2893904   3.2355887
  38.4867443  82.2172634   2.0716074  38.3720958  81.3157891   2.3723173
  37.6311961  82.4636331   1.7200890  45.5659281  90.1590374   3.6703575
  45.1223135  89.3726753   3.3524479  46.2276495  90.3469525   3.0047465
  40.3246402  91.6886176  -1.8035747  40.8753827  91.5603239  -2.5758753
  39.4857878  91.9881065  -2.1540854  47.6640519  90.4393174   1.6984976
  47.6458994  91.2602055   1.2065245  48.5860439  90.3147249   1.9235117
  44.1213573  87.9537304   2.5408484  44.6541910  87.1925592   2.3107792
  43.5927654  87.6610955   3.2832639  47.2883268  73.0597370  -1.9297874
  46.9447538  73.9499011  -2.0058763  47.6562231  72.8699027  -2.7928289
  44.8380662  77.8955681  -8.3640201  43.9822258  77.5062532  -8.5434562
  45.2507614  77.9747642  -9.2240415  46.3679809  75.4302025  -3.9648641
  45.8644604  75.3932160  -4.7780836  46.6610416  76.3394767  -3.9051984
  42.6122695  75.5140754  -4.9582459  43.4775691  75.3183563  -5.3176570
  42.6800203  75.2851106  -4.0313102  40.2185014  77.7442962  -7.5866092
  40.7928766  77.5218144  -8.3192899  40.8055996  77.8131657  -6.8337491
  42.5207681  74.6184211  -8.8591023  41.8672094  74.3033228  -9.4834408
  42.4788155  73.9959952  -8.1331200  45.7545422  81.1066145  -4.5343375
  44.8367983  81.3281092  -4.6921687  46.1705565  81.1812455  -5.3931668
  49.0870934  72.3190929  -6.8280136  49.3929811  71.4588292  -7.1154221
  49.8123539  72.9108549  -7.0281142  43.3592014  82.6144722  -6.3203945
  43.4140623  81.6618558  -6.3961469  42.5483216  82.7704161  -5.8362647
  41.2984374  81.2321782  -8.5613566  40.4852239  81.5315952  -8.1548374
  41.7943368  80.8377470  -7.8439084  46.8958585  81.6963606   0.2701327
  47.2507973  81.9235079   1.1295793  47.5430716  82.0281983  -0.3521417
  40.7898448  78.8040137  -2.9452332  41.4297828  78.6628896  -3.6429368
  39.9575979  78.5174650  -3.3213730  37.7927065  78.7740462  -8.1679345
  38.0533882  79.6885795  -8.2770184  38.6144237  78.3064905  -8.0182732
  39.2651990  80.1878219  -0.9980520  39.9375044  79.9795581  -1.6467871
  38.4381777  79.9900305  -1.4375288  45.1677562  76.8140160   1.0185141
  44.5205477  77.5130110   0.9249617  45.9378577  77.2476304   1.3861389
  48.5756360  87.0789012   4.0935694  48.4241866  86.8499564   3.1765778
  48.5661040  88.0359614   4.1067039  45.3441696  84.6520925  -0.9218040
  46.2733756  84.8032085  -1.0949072  44.9232726  84.7404946  -1.7769393
  44.1430028  88.6771589  -3.1519502  44.0041114  88.3090374  -2.2793564
  43.3544624  89.1919229  -3.3235544  39.6679487  83.4620822  -0.2378083
  39.5299285  82.7301061   0.3633456  40.5784411  83.3729722  -0.5193895
  42.2961788  83.1740782  -0.7494403  43.0061407  82.5333974  -0.7907785
  42.2531096  83.4253676   0.1731777  50.2848567  90.1108135   2.1712176
  50.2261113  89.4267355   1.5042759  50.6868085  90.8527125   1.7192802
  41.0090722  80.1605999   1.0701236  40.4728079  79.7096738   1.7222832
  40.4207430  80.2951908   0.3271700  50.2865974  88.0747719   0.4026156
  49.3992753  87.7373641   0.5252554  50.8564525  87.3430750   0.6394921
  36.7429843  79.2962007  -1.8445769  36.6588032  78.6887677  -2.5795359
  35.9212550  79.7871025  -1.8436273  46.9153557  77.7815571  -6.4775574
  47.4122257  77.0285533  -6.7974504  46.1440539  77.8179887  -7.0432365
  43.4988526  79.9232954  -6.7503890  43.1286313  79.3703994  -6.0622984
  43.9947618  79.3191087  -7.3028890  41.3277724  90.3830449   0.3451128
  42.0287184  91.0166932   0.4980522  40.8572839  90.7245180  -0.4153233
  49.3572552  74.7485164  -4.3296215  48.4435632  74.9789391  -4.1614009
  49.7865653  74.8323608  -3.4782183  49.1279010  82.9375056  -1.8296321
  48.4750461  83.1850964  -2.4843869  49.5059390  82.1239194  -2.1633844
  45.1766583  83.6794867   4.6569716  44.5007220  83.5788996   5.3272091
  45.9994217  83.5234081   5.1205713  38.8953859  77.3336944  -0.5050784
  38.9595186  78.1951775  -0.9173386  38.8320980  76.7210946  -1.2378425
  38.3706132  79.4060077   3.1422251  38.9978171  79.0237154   3.7559775
  37.5134051  79.1874279   3.5077943  48.7700241  89.8123052   4.7475986
  49.3140145  90.4253010   4.2530941  48.1887085  90.3702631   5.2642999
  38.6765922  79.2892503  -4.9431846  37.9552508  79.9028470  -5.0824373
  39.4659178  79.8250267  -5.0215200  41.4792235  76.6246929   1.3308806
  42.0026637  76.8709226   2.0935115  41.2604569  77.4566964   0.9111943
  42.6844780  77.5660624  -0.9841524  42.3441601  76.7668437  -0.5820844
  41.9783787  77.8662335  -1.5564691  43.3361252  74.6509937  -2.5314201
  44.1587321  74.1770415  -2.6535310  43.5799316  75.4300420  -2.0315514
  40.8599831  81.3429057  -4.7222222  40.7144412  81.6569360  -3.8297941
  40.3825035  81.9613958  -5.2751323  42.7196214  78.3331605  -4.6741333
  42.7057783  77.4372699  -5.0109035  43.4368642  78.3402269  -4.0403046
  44.5722345  78.7668945  -2.6288205  44.3140122  79.6886016  -2.6303875
  44.0407385  78.3699380  -1.9387741  35.3345493  83.8834402  -1.7834561
  34.7898961  84.6594210  -1.6514287  36.2124843  84.2305206  -1.9415439
  42.1233110  77.2145986  -9.4053762  42.2449021  76.2862632  -9.2062875
  41.8335152  77.2284672 -10.3175447  44.9924300  74.9000896  -6.2687043
  45.0145997  74.9640229  -7.2235063  45.4092359  74.0605405  -6.0746536
  36.1211515  83.0104298   1.1095596  35.3793251  83.1586933   1.6960226
  35.8004259  83.2712564   0.2462345  44.0655178  92.5520276   0.9075986
  44.3742304  92.3069423   1.7798686  44.8630660  92.7566915   0.4194856
  41.6074189  78.7277983   4.8036170  41.6562345  79.6040106   4.4213940
  42.1496703  78.1855376   4.2307813  52.0929035  89.2719106   4.0837307
  51.3024579  89.2543245   3.5441807  51.8562390  89.8107400   4.8386344
  52.2126910  86.1211573   1.3970036  52.2624915  85.9561580   2.3385559
  52.1040833  85.2538832   1.0067917  49.5030672  82.1042501   2.7129343
  50.4040535  81.9648965   2.4213340  49.5778647  82.2696955   3.6527520
  43.8373478  79.4809355   1.5582529  42.9676787  79.7742921   1.2865117
  44.0732958  80.0649800   2.2789793  53.7145107  88.5408514   1.6412057
  53.4229915  88.9038495   2.4775518  53.1017238  87.8275522   1.4625389
  51.9632295  83.6641129   0.1092115  52.4386417  83.8568775  -0.6989033
  51.0397860  83.7200315  -0.1364501  46.5412512  75.6988972  -0.9252051
  47.0594455  76.4349999  -1.2505562  46.1867644  76.0052966  -0.0905292
  46.7925106  72.1189255  -5.4051154  47.0726860  71.4512444  -4.7790728
  47.5775713  72.3118350  -5.9176490  50.6633964  80.5406889  -1.6579579
  51.6151387  80.6404986  -1.6367355  50.4937414  79.7485157  -1.1481495
  48.6848344  77.6262472  -1.4720178  48.0898276  77.9067485  -2.1673689
  48.3998040  78.1156373  -0.7003437  53.2916530  80.5524052  -2.4978996
  52.7755579  79.7682509  -2.6849067  54.1756479  80.2242769  -2.3332477
  50.9527257  74.2965067  -6.5383184  50.7552078  73.9880156  -5.6539852
  51.5626963  75.0226706  -6.4085254  44.8644065  86.6826808   4.9590582
  45.7847075  86.8605407   5.1530628  44.8293648  85.7382853   4.8070281
  37.8606138  84.5927842  -2.3986637  38.0792148  85.5244950  -2.3798603
  38.2731912  84.2335817  -1.6131833  44.7810356  75.0995928 -10.4110949
  43.9711084  74.7543013 -10.0355703  45.4694773  74.7903471  -9.8223337
  46.7100904  74.1773974  -8.7886652  47.2631943  74.5969428  -8.1296629
  46.9470990  73.2509722  -8.7463696  42.7334003  80.1661048   6.9916112
  42.6330730  81.1155405   6.9228203  42.5155545  79.8379287   6.1192182
  48.5383277  75.6879557  -7.0786668  49.0383056  75.7996092  -7.8872349
  49.1818885  75.3840610  -6.4385859  42.5965273  83.5958187   5.8081173
  42.1132355  84.3958547   6.0145062  42.6826212  83.6066132   4.8548617
  38.5238611  87.4862722  -2.1550393  39.4781864  87.4546664  -2.2220461
  38.3251134  87.0253345  -1.3400167  39.1137993  86.0563838   0.4120405
  39.9330882  86.5507916   0.4355242  39.3874801  85.1395806   0.3837972
  34.3672907  80.3901971   1.1112602  35.0131771  79.8800925   1.5999827
  34.1590058  81.1270653   1.6856027  46.8926299  87.4582819   6.6104742
  47.7617459  87.6323471   6.2491377  46.4133051  88.2777236   6.4880472
  41.0612479  94.5779920  -1.7105824  41.9639726  94.6103530  -1.3939329
  40.8349850  93.6480371  -1.6959488  46.7028637  71.2484793  -8.8817565
  45.9361033  70.6943279  -8.7360883  47.1139342  71.3206661  -8.0203413
  38.7070398  77.5369589   5.2087616  39.5701860  77.1806393   5.4190941
  38.1335809  77.1983483   5.8963020  51.2651899  90.9450305   6.2017588
  50.8718844  90.3916504   6.8765232  52.0818039  91.2560884   6.5924105
  54.1819860  92.3608184   3.7937844  54.9229573  92.9615337   3.7142307
  54.4137783  91.6185822   3.2355887  49.2099887  94.7351995   3.1422251
  49.8371925  94.3529072   3.7559775  48.3527805  94.5166197   3.5077943
  52.4467944  94.0569901   4.8036170  52.4956099  94.9332023   4.4213940
  52.9890458  93.5147294   4.2307813  53.5727758  95.4952966   6.9916112
  53.4724485  96.4447323   6.9228203  53.3549300  95.1671205   6.1192182
  45.2066662  95.7193889   1.1112602  45.8525525  95.2092843   1.5999827
  44.9983813  96.4562571   1.6856027  49.5464153  92.8661506   5.2087616
  50.4095614  92.5098311   5.4190941  48.9729563  92.5275401   5.8963020
  50.2848568  67.1170257 -11.1042518  50.2261114  66.4329478 -11.7711934
  50.6868086  67.8589247 -11.5561892  48.7700242  66.8185175  -8.5278707
  49.3140146  67.4315133  -9.0223753  48.1887087  67.3764753  -8.0111694
  52.0929036  66.2781229  -9.1917386  51.3024580  66.2605368  -9.7312887
  51.8562391  66.8169522  -8.4368349  53.7145108  65.5470637 -11.6342636
  53.4229916  65.9100617 -10.7979175  53.1017239  64.8337645 -11.8129304
  46.8926300  64.4644942  -6.6649951  47.7617460  64.6385594  -7.0263316
  46.4133052  65.2839358  -6.7874222  51.2651900  67.9512428  -7.0737106
  50.8718846  67.3978626  -6.3989461  52.0818040  68.2623006  -6.6830588
  54.1819861  69.3670307  -9.4816849  54.9229574  69.9677460  -9.5612387
  54.4137784  68.6247945 -10.0398807  49.2099888  71.7414117 -10.1332443
  49.8371927  71.3591195  -9.5194918  48.3527807  71.5228319  -9.7676750
  52.4467945  71.0632023  -8.4718523  52.4956101  71.9394146  -8.8540754
  52.9890459  70.5209416  -9.0446880  53.5727759  72.5015088  -6.2838582
  53.4724486  73.4509445  -6.3526491  53.3549301  72.1733327  -7.1562512
  45.2066663  72.7256012 -12.1642091  45.8525526  72.2154966 -11.6754866
  44.9983814  73.4624693 -11.5898666  49.5464154  69.8723629  -8.0667077
  50.4095615  69.5160434  -7.8563753  48.9729564  69.5337524  -7.3791673
 122.0040927 122.0040927 122.0040927 109.4712190 109.4712190 109.4712190
